 Entering Gaussian System, Link 0=g16
 Initial command:
 /home1/apps/gaussian/16rA.03/g16/l1.exe "/scratch/01990/pengzhi/4329078/Gau-364369.inp" -scrdir="/scratch/01990/pengzhi/4329078/"
 Entering Link 1 = /home1/apps/gaussian/16rA.03/g16/l1.exe PID=    364370.
  
 Copyright (c) 1988,1990,1992,1993,1995,1998,2003,2009,2016,
            Gaussian, Inc.  All Rights Reserved.
  
 This is part of the Gaussian(R) 16 program.  It is based on
 the Gaussian(R) 09 system (copyright 2009, Gaussian, Inc.),
 the Gaussian(R) 03 system (copyright 2003, Gaussian, Inc.),
 the Gaussian(R) 98 system (copyright 1998, Gaussian, Inc.),
 the Gaussian(R) 94 system (copyright 1995, Gaussian, Inc.),
 the Gaussian 92(TM) system (copyright 1992, Gaussian, Inc.),
 the Gaussian 90(TM) system (copyright 1990, Gaussian, Inc.),
 the Gaussian 88(TM) system (copyright 1988, Gaussian, Inc.),
 the Gaussian 86(TM) system (copyright 1986, Carnegie Mellon
 University), and the Gaussian 82(TM) system (copyright 1983,
 Carnegie Mellon University). Gaussian is a federally registered
 trademark of Gaussian, Inc.
  
 This software contains proprietary and confidential information,
 including trade secrets, belonging to Gaussian, Inc.
  
 This software is provided under written license and may be
 used, copied, transmitted, or stored only in accord with that
 written license.
  
 The following legend is applicable only to US Government
 contracts under FAR:
  
                    RESTRICTED RIGHTS LEGEND
  
 Use, reproduction and disclosure by the US Government is
 subject to restrictions as set forth in subparagraphs (a)
 and (c) of the Commercial Computer Software - Restricted
 Rights clause in FAR 52.227-19.
  
 Gaussian, Inc.
 340 Quinnipiac St., Bldg. 40, Wallingford CT 06492
  
  
 ---------------------------------------------------------------
 Warning -- This program may not be used in any manner that
 competes with the business of Gaussian, Inc. or will provide
 assistance to any competitor of Gaussian, Inc.  The licensee
 of this program is prohibited from giving any competitor of
 Gaussian, Inc. access to this program.  By using this program,
 the user acknowledges that Gaussian, Inc. is engaged in the
 business of creating and licensing software in the field of
 computational chemistry and represents and warrants to the
 licensee that it is not a competitor of Gaussian, Inc. and that
 it will not use this program in any manner prohibited above.
 ---------------------------------------------------------------
  

 Cite this work as:
 Gaussian 16, Revision A.03,
 M. J. Frisch, G. W. Trucks, H. B. Schlegel, G. E. Scuseria, 
 M. A. Robb, J. R. Cheeseman, G. Scalmani, V. Barone, 
 G. A. Petersson, H. Nakatsuji, X. Li, M. Caricato, A. V. Marenich, 
 J. Bloino, B. G. Janesko, R. Gomperts, B. Mennucci, H. P. Hratchian, 
 J. V. Ortiz, A. F. Izmaylov, J. L. Sonnenberg, D. Williams-Young, 
 F. Ding, F. Lipparini, F. Egidi, J. Goings, B. Peng, A. Petrone, 
 T. Henderson, D. Ranasinghe, V. G. Zakrzewski, J. Gao, N. Rega, 
 G. Zheng, W. Liang, M. Hada, M. Ehara, K. Toyota, R. Fukuda, 
 J. Hasegawa, M. Ishida, T. Nakajima, Y. Honda, O. Kitao, H. Nakai, 
 T. Vreven, K. Throssell, J. A. Montgomery, Jr., J. E. Peralta, 
 F. Ogliaro, M. J. Bearpark, J. J. Heyd, E. N. Brothers, K. N. Kudin, 
 V. N. Staroverov, T. A. Keith, R. Kobayashi, J. Normand, 
 K. Raghavachari, A. P. Rendell, J. C. Burant, S. S. Iyengar, 
 J. Tomasi, M. Cossi, J. M. Millam, M. Klene, C. Adamo, R. Cammi, 
 J. W. Ochterski, R. L. Martin, K. Morokuma, O. Farkas, 
 J. B. Foresman, and D. J. Fox, Gaussian, Inc., Wallingford CT, 2016.
 
 ******************************************
 Gaussian 16:  ES64L-G16RevA.03 25-Dec-2016
                15-Sep-2019 
 ******************************************
 %chk=CaMKII_loop3_92.0.chk
 %nprocshared=48
 Will use up to   48 processors via shared memory.
 %mem=10GB
 %nosave
 ----------------------------------------------------------------------
 #b3lyp/svp scf=(tight,noincore) Test #IOP(5/87=12) Density=Current Pop
 =(MK,readradii) iop(6/33=2) iop(6/42=6)
 ----------------------------------------------------------------------
 1/30=1,38=1,172=1/1;
 2/12=2,17=6,18=5,40=1/2;
 3/5=18,7=101,11=2,25=1,30=1,74=-5/1,2,3;
 4//1;
 5/5=4,32=2,38=5,87=12/2;
 6/7=2,8=2,9=2,10=2,15=8,20=101,22=-1,28=1,33=2,42=6/1,2;
 99/5=1,9=1/99;
 -----------------
 CaMKII_loop3_92.0
 -----------------
 Symbolic Z-matrix:
 Charge =  0 Multiplicity = 1
 C                     22.15     36.08    -1.49 
 C                     22.28     34.6     -1.15 
 O                     23.04     33.93    -1.85 
 H                     21.31     36.506   -0.941 
 H                     23.067    36.599   -1.211 
 H                     21.979    36.194   -2.56 
 N                     21.58     34.15    -0.11 
 C                     21.77     32.86     0.52 
 C                     20.67     31.9      0.08 
 O                     19.47     31.96     0.36 
 C                     21.77     32.99     2.04 
 C                     22.16     31.66     2.67 
 O                     22.37     31.52     3.89 
 O                     22.47     30.69     1.94 
 H                     21.06     34.79     0.47 
 H                     22.72     32.46     0.17 
 H                     20.8      33.32     2.42 
 H                     22.55     33.68     2.34 
 N                     21.11     30.91    -0.69 
 C                     20.31     30.14    -1.62 
 C                     19.33     29.27    -0.83 
 O                     18.14     29.19    -1.11 
 C                     21.1      29.41    -2.7 
 C                     20.2      28.85    -3.8 
 C                     20.91     27.95    -4.8 
 C                     20.01     27.28    -5.84 
 N                     20.74     26.25    -6.6 
 H                     22.11     30.87    -0.85 
 H                     19.68     30.85    -2.16 
 H                     21.59     28.6     -2.16 
 H                     21.76     30.13    -3.18 
 H                     19.74     29.66    -4.37 
 H                     19.37     28.31    -3.35 
 H                     21.43     27.17    -4.24 
 H                     21.72     28.5     -5.27 
 H                     19.51     27.96    -6.52 
 H                     19.13     26.86    -5.36 
 H                     21.48     25.91    -6. 
 H                     20.11     25.48    -6.76 
 H                     21.04     26.61    -7.49 
 N                     19.95     28.73     0.22 
 C                     19.22     27.96     1.21 
 C                     18.94     28.69     2.52 
 O                     18.08     28.2      3.25 
 C                     19.98     26.65     1.38 
 C                     21.27     26.83     2.16 
 O                     21.88     25.74     2.19 
 O                     21.75     27.85     2.71 
 H                     20.95     28.87     0.27 
 H                     18.24     27.74     0.79 
 H                     20.19     26.37     0.34 
 H                     19.38     25.99     2. 
 N                     19.52     29.86     2.76 
 C                     19.18     30.73     3.87 
 C                     19.69     30.18     5.2 
 O                     19.11     30.57     6.21 
 H                     20.32     30.15     2.21 
 H                     18.1      30.86     3.83 
 H                     19.65     31.71     3.72 
 N                     20.7      29.31     5.25 
 C                     21.1      28.62     6.46 
 C                     21.96     29.43     7.43 
 O                     22.26     28.94     8.51 
 C                     21.72     27.3      6.02 
 C                     23.13     27.37     5.45 
 N                     23.85     26.28     5.7 
 O                     23.62     28.36     4.91 
 H                     21.23     29.16     4.41 
 H                     20.24     28.42     7.09 
 H                     20.99     26.94     5.29 
 H                     21.72     26.65     6.9 
 H                     23.55     25.56     6.34 
 H                     24.79     26.23     5.35 
 N                     22.5      30.54     6.91 
 C                     23.35     31.34     7.76 
 C                     24.65     31.73     7.09 
 O                     25.46     32.39     7.74 
 H                     22.11     30.88     6.04 
 H                     23.52     30.87     8.73 
 H                     22.88     32.32     7.85 
 N                     24.97     31.27     5.87 
 C                     26.28     31.35     5.27 
 C                     26.16     31.55     3.76 
 O                     25.39     30.75     3.22 
 C                     27.05     30.08     5.64 
 C                     27.34     29.74     7.08 
 C                     28.38     30.33     7.81 
 C                     26.63     28.65     7.6 
 C                     28.7      29.77     9.05 
 C                     26.92     28.07     8.84 
 C                     28.05     28.6      9.5 
 O                     28.4      28.11     10.72 
 H                     24.25     30.74     5.41 
 H                     26.82     32.22     5.64 
 H                     28.01     30.06     5.14 
 H                     26.48     29.25     5.23 
 H                     28.96     31.16     7.45 
 H                     25.83     28.18     7.05 
 H                     29.41     30.28     9.67 
 H                     26.41     27.23     9.3 
 H                     29.13     28.49     11.21 
 N                     27.03     32.25     3.03 
 C                     27.07     32.33     1.59 
 C                     28.32     31.62     1.1 
 O                     29.37     31.82     1.7 
 C                     26.98     33.79     1.15 
 C                     25.87     34.67     1.72 
 C                     26.93     33.82    -0.37 
 C                     26.37     36.11     1.79 
 H                     27.62     32.89     3.55 
 H                     26.19     31.83     1.19 
 H                     27.92     34.28     1.43 
 H                     25.51     34.38     2.71 
 H                     25.       34.47     1.1 
 H                     26.24     33.05    -0.72 
 H                     26.5      34.72    -0.81 
 H                     27.89     33.66    -0.87 
 H                     25.56     36.82     1.93 
 H                     26.92     36.23     2.73 
 H                     27.01     36.25     0.92 
 N                     28.18     30.95    -0.05 
 C                     29.2      30.09    -0.61 
 C                     29.41     30.42    -2.08 
 O                     28.59     31.18    -2.59 
 C                     28.63     28.68    -0.55 
 O                     29.72     27.78    -0.54 
 H                     27.23     30.67    -0.25 
 H                     30.11     30.18    -0.02 
 H                     28.09     28.43    -1.46 
 H                     28.16     28.46     0.41 
 H                     29.43     26.87    -0.51 
 N                     30.4      29.85    -2.78 
 C                     30.73     30.24    -4.13 
 C                     29.72     29.99    -5.24 
 O                     29.44     30.91    -6.01 
 C                     32.11     29.64    -4.41 
 H                     30.97     29.26    -2.18 
 H                     30.93     31.31    -4.07 
 H                     32.3      29.63    -5.48 
 H                     32.9      30.28    -4.01 
 H                     32.23     28.63    -4.02 
 N                     29.14     28.8     -5.42 
 C                     28.06     28.56    -6.36 
 C                     26.75     29.23    -5.96 
 O                     25.91     29.53    -6.81 
 C                     27.97     27.06    -6.63 
 H                     29.58     28.02    -4.96 
 H                     28.4      29.01    -7.29 
 H                     27.85     26.42    -5.76 
 H                     27.07     26.84    -7.2 
 H                     28.82     26.74    -7.24 
 N                     26.58     29.53    -4.68 
 C                     25.48     30.32    -4.16 
 C                     25.55     31.77    -4.61 
 O                     24.59     32.25    -5.21 
 C                     25.29     30.26    -2.65 
 C                     25.05     28.87    -2.05 
 C                     24.93     28.73    -0.54 
 O                     24.3      27.76    -0.06 
 O                     25.49     29.53     0.23 
 H                     27.3      29.12    -4.1 
 H                     24.51     29.97    -4.53 
 H                     24.41     30.86    -2.41 
 H                     26.1      30.76    -2.13 
 H                     25.79     28.16    -2.43 
 H                     24.15     28.49    -2.53 
 N                     26.75     32.36    -4.62 
 C                     27.05     33.72    -5.02 
 H                     28.031    33.751   -5.495 
 H                     26.295    34.067   -5.725 
 H                     27.052    34.366   -4.142 
 H                     27.54     31.9     -4.2 
 Ca                    24.07     28.75     2.38 
 O                     26.68     28.11     2.68 
 H                     26.97     27.22     2.45 
 H                     27.44     28.49     3.11 
 
 Stoichiometry    C54H83CaN15O23
 Framework group  C1[X(C54H83CaN15O23)]
 Deg. of freedom   522
 Full point group                 C1      NOp   1
 Largest Abelian subgroup         C1      NOp   1
 Largest concise Abelian subgroup C1      NOp   1
                         Standard orientation:                         
 ---------------------------------------------------------------------
 Center     Atomic      Atomic             Coordinates (Angstroms)
 Number     Number       Type             X           Y           Z
 ---------------------------------------------------------------------
      1          6           0        2.072401    2.100019    6.181742
      2          6           0        1.710581    2.072840    4.701456
      3          8           0        2.553160    1.616320    3.928055
      4          1           0        1.343352    2.703845    6.722444
      5          1           0        2.066497    1.083891    6.576128
      6          1           0        3.064758    2.532366    6.306005
      7          7           0        0.504429    2.523586    4.360684
      8          6           0       -0.112651    2.338247    3.063779
      9          6           0       -0.019492    3.627703    2.255183
     10          8           0       -0.599899    4.693177    2.478549
     11          6           0       -1.572354    1.919388    3.209112
     12          6           0       -2.139074    1.547908    1.845759
     13          8           0       -3.267084    1.041852    1.692134
     14          8           0       -1.398768    1.567457    0.835083
     15          1           0       -0.161183    2.786230    5.070880
     16          1           0        0.454412    1.573290    2.536256
     17          1           0       -2.176775    2.704373    3.670277
     18          1           0       -1.626416    1.007052    3.791538
     19          7           0        0.792393    3.536091    1.206827
     20          6           0        1.445045    4.644455    0.540965
     21          6           0        0.387616    5.482167   -0.181171
     22          8           0        0.343379    6.704043   -0.103959
     23          6           0        2.659118    4.267447   -0.300041
     24          6           0        3.459231    5.489869   -0.746253
     25          6           0        4.567487    5.189653   -1.744121
     26          6           0        5.304698    6.410096   -2.298682
     27          7           0        6.180787    6.043656   -3.425442
     28          1           0        1.205812    2.627516    1.031396
     29          1           0        1.833904    5.299932    1.323103
     30          1           0        2.229136    3.758453   -1.162503
     31          1           0        3.327236    3.672544    0.319724
     32          1           0        3.925971    5.978126    0.111860
     33          1           0        2.783934    6.232476   -1.165191
     34          1           0        4.127425    4.642891   -2.580659
     35          1           0        5.257308    4.470196   -1.312811
     36          1           0        5.861102    6.982152   -1.565220
     37          1           0        4.592930    7.177389   -2.591681
     38          1           0        5.779756    5.220356   -3.855036
     39          1           0        6.135329    6.785643   -4.105728
     40          1           0        7.133783    5.946973   -3.118600
     41          7           0       -0.487823    4.679734   -0.787972
     42          6           0       -1.668273    5.212854   -1.442358
     43          6           0       -2.971029    5.041413   -0.667222
     44          8           0       -3.921852    5.732248   -1.029550
     45          6           0       -1.693958    4.606915   -2.840492
     46          6           0       -2.101163    3.144421   -2.826586
     47          8           0       -2.020905    2.691131   -3.988132
     48          8           0       -2.459440    2.410972   -1.874226
     49          1           0       -0.268640    3.692804   -0.782758
     50          1           0       -1.529133    6.288738   -1.533547
     51          1           0       -0.649174    4.716899   -3.157399
     52          1           0       -2.478660    5.099808   -3.407325
     53          7           0       -2.997408    4.275474    0.417002
     54          6           0       -4.116547    4.196643    1.336736
     55          6           0       -5.291144    3.426502    0.737815
     56          8           0       -6.398513    3.664271    1.212997
     57          1           0       -2.244984    3.619629    0.591146
     58          1           0       -4.353864    5.223269    1.609902
     59          1           0       -3.804291    3.663138    2.243195
     60          7           0       -5.115688    2.557706   -0.259135
     61          6           0       -6.209704    1.942195   -0.983342
     62          6           0       -6.883433    0.760824   -0.285452
     63          8           0       -7.869017    0.250044   -0.799483
     64          6           0       -5.684188    1.632858   -2.379244
     65          6           0       -4.763378    0.426967   -2.505094
     66          7           0       -4.866549   -0.189727   -3.678995
     67          8           0       -4.069384   -0.023668   -1.595643
     68          1           0       -4.174279    2.292386   -0.487949
     69          1           0       -7.050797    2.622841   -1.059391
     70          1           0       -5.187308    2.569516   -2.646043
     71          1           0       -6.562553    1.482055   -3.013778
     72          1           0       -5.594997    0.018658   -4.345282
     73          1           0       -4.286039   -0.989375   -3.858356
     74          7           0       -6.190169    0.241922    0.736423
     75          6           0       -6.751256   -0.896855    1.424441
     76          6           0       -5.748047   -2.011568    1.629344
     77          8           0       -6.133145   -3.041455    2.181823
     78          1           0       -5.437448    0.802108    1.116163
     79          1           0       -7.663781   -1.256761    0.946460
     80          1           0       -6.915736   -0.595267    2.459521
     81          7           0       -4.509249   -1.936331    1.117370
     82          6           0       -3.585150   -3.039944    1.014510
     83          6           0       -2.151266   -2.550735    1.212373
     84          8           0       -1.868220   -1.570510    0.516999
     85          6           0       -3.799241   -3.713451   -0.343155
     86          6           0       -5.127685   -4.328946   -0.703297
     87          6           0       -5.533111   -5.591041   -0.250146
     88          6           0       -5.864397   -3.650054   -1.682563
     89          6           0       -6.670968   -6.154451   -0.834483
     90          6           0       -7.011000   -4.182256   -2.282698
     91          6           0       -7.328194   -5.504271   -1.901827
     92          8           0       -8.435725   -6.099916   -2.421039
     93          1           0       -4.277908   -1.059222    0.683709
     94          1           0       -3.761085   -3.764132    1.808234
     95          1           0       -3.067497   -4.496299   -0.497100
     96          1           0       -3.590731   -2.955050   -1.093656
     97          1           0       -4.996536   -6.155142    0.490649
     98          1           0       -5.564398   -2.680224   -2.047023
     99          1           0       -7.060117   -7.061831   -0.417561
    100          1           0       -7.626192   -3.710285   -3.041699
    101          1           0       -8.700266   -6.975563   -2.137030
    102          7           0       -1.188198   -3.277680    1.781453
    103          6           0        0.214439   -2.944790    1.839718
    104          6           0        0.980566   -3.920287    0.963274
    105          8           0        0.685211   -5.108217    1.027216
    106          6           0        0.682206   -2.926847    3.293737
    107          6           0       -0.116727   -2.127863    4.320738
    108          6           0        2.136202   -2.480417    3.313653
    109          6           0        0.012327   -2.806450    5.681386
    110          1           0       -1.506274   -4.060301    2.342194
    111          1           0        0.347545   -1.934401    1.457885
    112          1           0        0.680010   -3.961561    3.656314
    113          1           0       -1.178594   -2.009145    4.092389
    114          1           0        0.244889   -1.106717    4.232448
    115          1           0        2.258293   -1.630768    2.639346
    116          1           0        2.489546   -2.066636    4.258340
    117          1           0        2.861523   -3.245565    3.020980
    118          1           0       -0.301483   -2.158927    6.495042
    119          1           0       -0.745032   -3.596285    5.736777
    120          1           0        1.024675   -3.205651    5.724865
    121          7           0        2.022185   -3.397275    0.305635
    122          6           0        2.788905   -4.115397   -0.689373
    123          6           0        4.276305   -3.968691   -0.406495
    124          8           0        4.588944   -3.145840    0.450986
    125          6           0        2.517606   -3.408101   -2.009498
    126          8           0        2.751134   -4.338993   -3.047334
    127          1           0        1.954266   -2.400732    0.153360
    128          1           0        2.461609   -5.152933   -0.715772
    129          1           0        3.242683   -2.619333   -2.194722
    130          1           0        1.459171   -3.185132   -2.154062
    131          1           0        2.604774   -3.954647   -3.909863
    132          7           0        5.183496   -4.657732   -1.111637
    133          6           0        6.589254   -4.665102   -0.784087
    134          6           0        7.384525   -3.374067   -0.908478
    135          8           0        8.096137   -3.018845    0.032333
    136          6           0        7.191862   -5.834383   -1.566676
    137          1           0        4.726629   -5.286906   -1.766170
    138          1           0        6.632684   -5.007465    0.250031
    139          1           0        8.272741   -5.731472   -1.613682
    140          1           0        7.041691   -6.776433   -1.034050
    141          1           0        6.800781   -5.924662   -2.579349
    142          7           0        7.352131   -2.621485   -2.011869
    143          6           0        7.965669   -1.309802   -2.115119
    144          6           0        7.268831   -0.248061   -1.271247
    145          8           0        7.882994    0.742084   -0.870600
    146          6           0        8.133713   -0.962635   -3.592359
    147          1           0        6.987617   -3.065292   -2.838769
    148          1           0        8.971803   -1.445513   -1.724892
    149          1           0        7.234132   -0.997336   -4.201005
    150          1           0        8.438369    0.076481   -3.695902
    151          1           0        8.929054   -1.573273   -4.030027
    152          7           0        6.003982   -0.462354   -0.937276
    153          6           0        5.251743    0.351687   -0.001341
    154          6           0        5.770450    0.220583    1.421211
    155          8           0        6.120490    1.236501    2.019025
    156          6           0        3.743380    0.141136   -0.018920
    157          6           0        3.038422    0.387460   -1.357598
    158          6           0        1.544657    0.120103   -1.463833
    159          8           0        0.872899    0.717934   -2.335349
    160          8           0        0.985028   -0.720256   -0.737808
    161          1           0        5.613805   -1.252389   -1.433770
    162          1           0        5.339316    1.421209   -0.222146
    163          1           0        3.309829    0.843011    0.696207
    164          1           0        3.476295   -0.834104    0.373601
    165          1           0        3.565385   -0.129604   -2.164477
    166          1           0        3.248955    1.422977   -1.618709
    167          7           0        6.120329   -0.998554    1.844873
    168          6           0        6.646717   -1.351395    3.147954
    169          1           0        7.362176   -2.167386    3.042001
    170          1           0        7.145402   -0.486841    3.585354
    171          1           0        5.830261   -1.667433    3.797355
    172          1           0        5.900406   -1.806826    1.287711
    173         20           0       -1.494488    0.166651   -1.297000
    174          8           0       -1.131987   -2.327000   -2.277815
    175          1           0       -0.875358   -2.430823   -3.201103
    176          1           0       -1.330843   -3.215441   -1.998479
 ---------------------------------------------------------------------
 Rotational constants (GHZ):           0.0231259           0.0148733           0.0117050
 Standard basis: SVP (5D, 7F)
 There are  1809 symmetry adapted cartesian basis functions of A   symmetry.
 There are  1717 symmetry adapted basis functions of A   symmetry.
  1717 basis functions,  2922 primitive gaussians,  1809 cartesian basis functions
   358 alpha electrons      358 beta electrons
       nuclear repulsion energy     21590.4506723031 Hartrees.
 NAtoms=  176 NActive=  176 NUniq=  176 SFac= 1.00D+00 NAtFMM=   60 NAOKFM=T Big=T
 Integral buffers will be    131072 words long.
 Raffenetti 2 integral format.
 Two-electron integral symmetry is turned on.
 One-electron integrals computed using PRISM.
 NBasis=  1717 RedAO= T EigKep=  3.09D-04  NBF=  1717
 NBsUse=  1717 1.00D-06 EigRej= -1.00D+00 NBFU=  1717
 ExpMin= 1.98D-02 ExpMax= 3.51D+04 ExpMxC= 5.28D+03 IAcc=3 IRadAn=         5 AccDes= 0.00D+00
 Harris functional with IExCor=  402 and IRadAn=       5 diagonalized for initial guess.
 HarFok:  IExCor=  402 AccDes= 0.00D+00 IRadAn=         5 IDoV= 1 UseB2=F ITyADJ=14
 ICtDFT=  3500011 ScaDFX=  1.000000  1.000000  1.000000  1.000000
 FoFCou: FMM=F IPFlag=           0 FMFlag=      100000 FMFlg1=        2001
         NFxFlg=           0 DoJE=T BraDBF=F KetDBF=T FulRan=T
         wScrn=  0.000000 ICntrl=       500 IOpCl=  0 I1Cent=   200000004 NGrid=           0
         NMat0=    1 NMatS0=      1 NMatT0=    0 NMatD0=    1 NMtDS0=    0 NMtDT0=    0
 Petite list used in FoFCou.
 Requested convergence on RMS density matrix=1.00D-08 within 128 cycles.
 Requested convergence on MAX density matrix=1.00D-06.
 Requested convergence on             energy=1.00D-06.
 No special actions if energy rises.
 EnCoef did     4 forward-backward iterations
 SCF Done:  E(RB3LYP) =  -5333.54802163     A.U. after   19 cycles
            NFock= 19  Conv=0.25D-08     -V/T= 2.0081
 SCF density gives NOpUse=  1 NOpAll=  1.
 Hyperfine terms turned off by default for NAtoms > 100.

 **********************************************************************

            Population analysis using the SCF density.

 **********************************************************************

 Orbital symmetries:
 BldTbl:  Degeneracy threshold= 1.00D-02
       Occupied  (A) (A) (A) (A) (A) (A) (A) (A) (A) (A) (A) (A)
                 (A) (A) (A) (A) (A) (A) (A) (A) (A) (A) (A) (A)
                 (A) (A) (A) (A) (A) (A) (A) (A) (A) (A) (A) (A)
                 (A) (A) (A) (A) (A) (A) (A) (A) (A) (A) (A) (A)
                 (A) (A) (A) (A) (A) (A) (A) (A) (A) (A) (A) (A)
                 (A) (A) (A) (A) (A) (A) (A) (A) (A) (A) (A) (A)
                 (A) (A) (A) (A) (A) (A) (A) (A) (A) (A) (A) (A)
                 (A) (A) (A) (A) (A) (A) (A) (A) (A) (A) (A) (A)
                 (A) (A) (A) (A) (A) (A) (A) (A) (A) (A) (A) (A)
                 (A) (A) (A) (A) (A) (A) (A) (A) (A) (A) (A) (A)
                 (A) (A) (A) (A) (A) (A) (A) (A) (A) (A) (A) (A)
                 (A) (A) (A) (A) (A) (A) (A) (A) (A) (A) (A) (A)
                 (A) (A) (A) (A) (A) (A) (A) (A) (A) (A) (A) (A)
                 (A) (A) (A) (A) (A) (A) (A) (A) (A) (A) (A) (A)
                 (A) (A) (A) (A) (A) (A) (A) (A) (A) (A) (A) (A)
                 (A) (A) (A) (A) (A) (A) (A) (A) (A) (A) (A) (A)
                 (A) (A) (A) (A) (A) (A) (A) (A) (A) (A) (A) (A)
                 (A) (A) (A) (A) (A) (A) (A) (A) (A) (A) (A) (A)
                 (A) (A) (A) (A) (A) (A) (A) (A) (A) (A) (A) (A)
                 (A) (A) (A) (A) (A) (A) (A) (A) (A) (A) (A) (A)
                 (A) (A) (A) (A) (A) (A) (A) (A) (A) (A) (A) (A)
                 (A) (A) (A) (A) (A) (A) (A) (A) (A) (A) (A) (A)
                 (A) (A) (A) (A) (A) (A) (A) (A) (A) (A) (A) (A)
                 (A) (A) (A) (A) (A) (A) (A) (A) (A) (A) (A) (A)
                 (A) (A) (A) (A) (A) (A) (A) (A) (A) (A) (A) (A)
                 (A) (A) (A) (A) (A) (A) (A) (A) (A) (A) (A) (A)
                 (A) (A) (A) (A) (A) (A) (A) (A) (A) (A) (A) (A)
                 (A) (A) (A) (A) (A) (A) (A) (A) (A) (A) (A) (A)
                 (A) (A) (A) (A) (A) (A) (A) (A) (A) (A) (A) (A)
                 (A) (A) (A) (A) (A) (A) (A) (A) (A) (A)
       Virtual   (A) (A) (A) (A) (A) (A) (A) (A) (A) (A) (A) (A)
                 (A) (A) (A) (A) (A) (A) (A) (A) (A) (A) (A) (A)
                 (A) (A) (A) (A) (A) (A) (A) (A) (A) (A) (A) (A)
                 (A) (A) (A) (A) (A) (A) (A) (A) (A) (A) (A) (A)
                 (A) (A) (A) (A) (A) (A) (A) (A) (A) (A) (A) (A)
                 (A) (A) (A) (A) (A) (A) (A) (A) (A) (A) (A) (A)
                 (A) (A) (A) (A) (A) (A) (A) (A) (A) (A) (A) (A)
                 (A) (A) (A) (A) (A) (A) (A) (A) (A) (A) (A) (A)
                 (A) (A) (A) (A) (A) (A) (A) (A) (A) (A) (A) (A)
                 (A) (A) (A) (A) (A) (A) (A) (A) (A) (A) (A) (A)
                 (A) (A) (A) (A) (A) (A) (A) (A) (A) (A) (A) (A)
                 (A) (A) (A) (A) (A) (A) (A) (A) (A) (A) (A) (A)
                 (A) (A) (A) (A) (A) (A) (A) (A) (A) (A) (A) (A)
                 (A) (A) (A) (A) (A) (A) (A) (A) (A) (A) (A) (A)
                 (A) (A) (A) (A) (A) (A) (A) (A) (A) (A) (A) (A)
                 (A) (A) (A) (A) (A) (A) (A) (A) (A) (A) (A) (A)
                 (A) (A) (A) (A) (A) (A) (A) (A) (A) (A) (A) (A)
                 (A) (A) (A) (A) (A) (A) (A) (A) (A) (A) (A) (A)
                 (A) (A) (A) (A) (A) (A) (A) (A) (A) (A) (A) (A)
                 (A) (A) (A) (A) (A) (A) (A) (A) (A) (A) (A) (A)
                 (A) (A) (A) (A) (A) (A) (A) (A) (A) (A) (A) (A)
                 (A) (A) (A) (A) (A) (A) (A) (A) (A) (A) (A) (A)
                 (A) (A) (A) (A) (A) (A) (A) (A) (A) (A) (A) (A)
                 (A) (A) (A) (A) (A) (A) (A) (A) (A) (A) (A) (A)
                 (A) (A) (A) (A) (A) (A) (A) (A) (A) (A) (A) (A)
                 (A) (A) (A) (A) (A) (A) (A) (A) (A) (A) (A) (A)
                 (A) (A) (A) (A) (A) (A) (A) (A) (A) (A) (A) (A)
                 (A) (A) (A) (A) (A) (A) (A) (A) (A) (A) (A) (A)
                 (A) (A) (A) (A) (A) (A) (A) (A) (A) (A) (A) (A)
                 (A) (A) (A) (A) (A) (A) (A) (A) (A) (A) (A) (A)
                 (A) (A) (A) (A) (A) (A) (A) (A) (A) (A) (A) (A)
                 (A) (A) (A) (A) (A) (A) (A) (A) (A) (A) (A) (A)
                 (A) (A) (A) (A) (A) (A) (A) (A) (A) (A) (A) (A)
                 (A) (A) (A) (A) (A) (A) (A) (A) (A) (A) (A) (A)
                 (A) (A) (A) (A) (A) (A) (A) (A) (A) (A) (A) (A)
                 (A) (A) (A) (A) (A) (A) (A) (A) (A) (A) (A) (A)
                 (A) (A) (A) (A) (A) (A) (A) (A) (A) (A) (A) (A)
                 (A) (A) (A) (A) (A) (A) (A) (A) (A) (A) (A) (A)
                 (A) (A) (A) (A) (A) (A) (A) (A) (A) (A) (A) (A)
                 (A) (A) (A) (A) (A) (A) (A) (A) (A) (A) (A) (A)
                 (A) (A) (A) (A) (A) (A) (A) (A) (A) (A) (A) (A)
                 (A) (A) (A) (A) (A) (A) (A) (A) (A) (A) (A) (A)
                 (A) (A) (A) (A) (A) (A) (A) (A) (A) (A) (A) (A)
                 (A) (A) (A) (A) (A) (A) (A) (A) (A) (A) (A) (A)
                 (A) (A) (A) (A) (A) (A) (A) (A) (A) (A) (A) (A)
                 (A) (A) (A) (A) (A) (A) (A) (A) (A) (A) (A) (A)
                 (A) (A) (A) (A) (A) (A) (A) (A) (A) (A) (A) (A)
                 (A) (A) (A) (A) (A) (A) (A) (A) (A) (A) (A) (A)
                 (A) (A) (A) (A) (A) (A) (A) (A) (A) (A) (A) (A)
                 (A) (A) (A) (A) (A) (A) (A) (A) (A) (A) (A) (A)
                 (A) (A) (A) (A) (A) (A) (A) (A) (A) (A) (A) (A)
                 (A) (A) (A) (A) (A) (A) (A) (A) (A) (A) (A) (A)
                 (A) (A) (A) (A) (A) (A) (A) (A) (A) (A) (A) (A)
                 (A) (A) (A) (A) (A) (A) (A) (A) (A) (A) (A) (A)
                 (A) (A) (A) (A) (A) (A) (A) (A) (A) (A) (A) (A)
                 (A) (A) (A) (A) (A) (A) (A) (A) (A) (A) (A) (A)
                 (A) (A) (A) (A) (A) (A) (A) (A) (A) (A) (A) (A)
                 (A) (A) (A) (A) (A) (A) (A) (A) (A) (A) (A) (A)
                 (A) (A) (A) (A) (A) (A) (A) (A) (A) (A) (A) (A)
                 (A) (A) (A) (A) (A) (A) (A) (A) (A) (A) (A) (A)
                 (A) (A) (A) (A) (A) (A) (A) (A) (A) (A) (A) (A)
                 (A) (A) (A) (A) (A) (A) (A) (A) (A) (A) (A) (A)
                 (A) (A) (A) (A) (A) (A) (A) (A) (A) (A) (A) (A)
                 (A) (A) (A) (A) (A) (A) (A) (A) (A) (A) (A) (A)
                 (A) (A) (A) (A) (A) (A) (A) (A) (A) (A) (A) (A)
                 (A) (A) (A) (A) (A) (A) (A) (A) (A) (A) (A) (A)
                 (A) (A) (A) (A) (A) (A) (A) (A) (A) (A) (A) (A)
                 (A) (A) (A) (A) (A) (A) (A) (A) (A) (A) (A) (A)
                 (A) (A) (A) (A) (A) (A) (A) (A) (A) (A) (A) (A)
                 (A) (A) (A) (A) (A) (A) (A) (A) (A) (A) (A) (A)
                 (A) (A) (A) (A) (A) (A) (A) (A) (A) (A) (A) (A)
                 (A) (A) (A) (A) (A) (A) (A) (A) (A) (A) (A) (A)
                 (A) (A) (A) (A) (A) (A) (A) (A) (A) (A) (A) (A)
                 (A) (A) (A) (A) (A) (A) (A) (A) (A) (A) (A) (A)
                 (A) (A) (A) (A) (A) (A) (A) (A) (A) (A) (A) (A)
                 (A) (A) (A) (A) (A) (A) (A) (A) (A) (A) (A) (A)
                 (A) (A) (A) (A) (A) (A) (A) (A) (A) (A) (A) (A)
                 (A) (A) (A) (A) (A) (A) (A) (A) (A) (A) (A) (A)
                 (A) (A) (A) (A) (A) (A) (A) (A) (A) (A) (A) (A)
                 (A) (A) (A) (A) (A) (A) (A) (A) (A) (A) (A) (A)
                 (A) (A) (A) (A) (A) (A) (A) (A) (A) (A) (A) (A)
                 (A) (A) (A) (A) (A) (A) (A) (A) (A) (A) (A) (A)
                 (A) (A) (A) (A) (A) (A) (A) (A) (A) (A) (A) (A)
                 (A) (A) (A) (A) (A) (A) (A) (A) (A) (A) (A) (A)
                 (A) (A) (A) (A) (A) (A) (A) (A) (A) (A) (A) (A)
                 (A) (A) (A) (A) (A) (A) (A) (A) (A) (A) (A) (A)
                 (A) (A) (A) (A) (A) (A) (A) (A) (A) (A) (A) (A)
                 (A) (A) (A) (A) (A) (A) (A) (A) (A) (A) (A) (A)
                 (A) (A) (A) (A) (A) (A) (A) (A) (A) (A) (A) (A)
                 (A) (A) (A) (A) (A) (A) (A) (A) (A) (A) (A) (A)
                 (A) (A) (A) (A) (A) (A) (A) (A) (A) (A) (A) (A)
                 (A) (A) (A) (A) (A) (A) (A) (A) (A) (A) (A) (A)
                 (A) (A) (A) (A) (A) (A) (A) (A) (A) (A) (A) (A)
                 (A) (A) (A) (A) (A) (A) (A) (A) (A) (A) (A) (A)
                 (A) (A) (A) (A) (A) (A) (A) (A) (A) (A) (A) (A)
                 (A) (A) (A) (A) (A) (A) (A) (A) (A) (A) (A) (A)
                 (A) (A) (A) (A) (A) (A) (A) (A) (A) (A) (A) (A)
                 (A) (A) (A) (A) (A) (A) (A) (A) (A) (A) (A) (A)
                 (A) (A) (A) (A) (A) (A) (A) (A) (A) (A) (A) (A)
                 (A) (A) (A) (A) (A) (A) (A) (A) (A) (A) (A) (A)
                 (A) (A) (A) (A) (A) (A) (A) (A) (A) (A) (A) (A)
                 (A) (A) (A) (A) (A) (A) (A) (A) (A) (A) (A) (A)
                 (A) (A) (A) (A) (A) (A) (A) (A) (A) (A) (A) (A)
                 (A) (A) (A) (A) (A) (A) (A) (A) (A) (A) (A) (A)
                 (A) (A) (A) (A) (A) (A) (A) (A) (A) (A) (A) (A)
                 (A) (A) (A) (A) (A) (A) (A) (A) (A) (A) (A) (A)
                 (A) (A) (A) (A) (A) (A) (A) (A) (A) (A) (A) (A)
                 (A) (A) (A) (A) (A) (A) (A) (A) (A) (A) (A) (A)
                 (A) (A) (A) (A) (A) (A) (A) (A) (A) (A) (A) (A)
                 (A) (A) (A) (A) (A) (A) (A) (A) (A) (A) (A) (A)
                 (A) (A) (A) (A) (A) (A) (A) (A) (A) (A) (A) (A)
                 (A) (A) (A) (A) (A) (A) (A) (A) (A) (A) (A) (A)
                 (A) (A) (A) (A) (A) (A) (A) (A) (A) (A) (A) (A)
                 (A) (A) (A)
 The electronic state is 1-A.
 Alpha  occ. eigenvalues -- -145.35177 -19.18783 -19.15784 -19.14277 -19.12902
 Alpha  occ. eigenvalues --  -19.11863 -19.11173 -19.10424 -19.09928 -19.09919
 Alpha  occ. eigenvalues --  -19.07755 -19.07637 -19.07508 -19.07078 -19.06918
 Alpha  occ. eigenvalues --  -19.06189 -19.05541 -19.04892 -19.04345 -19.03836
 Alpha  occ. eigenvalues --  -19.03431 -19.03245 -19.02897 -19.00296 -15.40935
 Alpha  occ. eigenvalues --  -14.59330 -14.39091 -14.38643 -14.36473 -14.36368
 Alpha  occ. eigenvalues --  -14.35990 -14.35303 -14.34425 -14.33411 -14.31890
 Alpha  occ. eigenvalues --  -14.31861 -14.31492 -14.30745 -14.29389 -14.28961
 Alpha  occ. eigenvalues --  -12.54555 -12.54522 -12.54481 -10.35226 -10.31052
 Alpha  occ. eigenvalues --  -10.30894 -10.29653 -10.29130 -10.28918 -10.28171
 Alpha  occ. eigenvalues --  -10.27566 -10.26761 -10.26741 -10.26696 -10.26233
 Alpha  occ. eigenvalues --  -10.25890 -10.25824 -10.25277 -10.25263 -10.25248
 Alpha  occ. eigenvalues --  -10.24157 -10.23799 -10.23612 -10.23592 -10.23333
 Alpha  occ. eigenvalues --  -10.22765 -10.22532 -10.22484 -10.22448 -10.22359
 Alpha  occ. eigenvalues --  -10.22238 -10.22174 -10.21905 -10.21612 -10.21446
 Alpha  occ. eigenvalues --  -10.21152 -10.19339 -10.19277 -10.18849 -10.18704
 Alpha  occ. eigenvalues --  -10.18643 -10.18626 -10.18357 -10.17820 -10.17808
 Alpha  occ. eigenvalues --  -10.17746 -10.17734 -10.17689 -10.17558 -10.17431
 Alpha  occ. eigenvalues --  -10.17423 -10.17315 -10.17312 -10.17284 -10.16916
 Alpha  occ. eigenvalues --  -10.16261 -10.14272  -1.77867  -1.14672  -1.06439
 Alpha  occ. eigenvalues --   -1.05812  -1.05591  -1.05463  -1.05204  -1.04403
 Alpha  occ. eigenvalues --   -1.04339  -1.03665  -1.03510  -1.03007  -1.02944
 Alpha  occ. eigenvalues --   -1.02560  -1.02335  -1.01137  -1.00179  -0.99364
 Alpha  occ. eigenvalues --   -0.99113  -0.99060  -0.98843  -0.98131  -0.97207
 Alpha  occ. eigenvalues --   -0.96751  -0.96021  -0.95978  -0.95055  -0.93195
 Alpha  occ. eigenvalues --   -0.92710  -0.92608  -0.91713  -0.91217  -0.91128
 Alpha  occ. eigenvalues --   -0.91096  -0.88982  -0.88893  -0.88570  -0.88169
 Alpha  occ. eigenvalues --   -0.88034  -0.87790  -0.86771  -0.86448  -0.85484
 Alpha  occ. eigenvalues --   -0.83389  -0.82259  -0.81911  -0.81307  -0.80130
 Alpha  occ. eigenvalues --   -0.78962  -0.77899  -0.77458  -0.77077  -0.76013
 Alpha  occ. eigenvalues --   -0.75303  -0.74712  -0.74096  -0.73888  -0.73111
 Alpha  occ. eigenvalues --   -0.72869  -0.72583  -0.71993  -0.70988  -0.69861
 Alpha  occ. eigenvalues --   -0.69812  -0.68897  -0.68344  -0.67997  -0.67627
 Alpha  occ. eigenvalues --   -0.67296  -0.66346  -0.64824  -0.64302  -0.64078
 Alpha  occ. eigenvalues --   -0.63547  -0.63447  -0.62415  -0.62174  -0.61773
 Alpha  occ. eigenvalues --   -0.61399  -0.60646  -0.60536  -0.59898  -0.59453
 Alpha  occ. eigenvalues --   -0.59207  -0.59009  -0.58935  -0.58175  -0.57629
 Alpha  occ. eigenvalues --   -0.57444  -0.57091  -0.57043  -0.55874  -0.55784
 Alpha  occ. eigenvalues --   -0.55658  -0.55486  -0.55383  -0.54915  -0.54494
 Alpha  occ. eigenvalues --   -0.54388  -0.54064  -0.53827  -0.53723  -0.53167
 Alpha  occ. eigenvalues --   -0.52888  -0.52663  -0.52607  -0.52125  -0.52046
 Alpha  occ. eigenvalues --   -0.51092  -0.51023  -0.50397  -0.50213  -0.49963
 Alpha  occ. eigenvalues --   -0.49640  -0.49478  -0.49169  -0.48479  -0.48464
 Alpha  occ. eigenvalues --   -0.48393  -0.47935  -0.47737  -0.47517  -0.47327
 Alpha  occ. eigenvalues --   -0.47115  -0.46993  -0.46746  -0.46406  -0.46121
 Alpha  occ. eigenvalues --   -0.45974  -0.45474  -0.45403  -0.45347  -0.45285
 Alpha  occ. eigenvalues --   -0.45066  -0.44870  -0.44761  -0.44670  -0.44283
 Alpha  occ. eigenvalues --   -0.44029  -0.43953  -0.43660  -0.43482  -0.43299
 Alpha  occ. eigenvalues --   -0.43154  -0.43101  -0.42926  -0.42806  -0.42610
 Alpha  occ. eigenvalues --   -0.42382  -0.42327  -0.42191  -0.42061  -0.41968
 Alpha  occ. eigenvalues --   -0.41760  -0.41680  -0.41480  -0.41338  -0.41245
 Alpha  occ. eigenvalues --   -0.41195  -0.41081  -0.40828  -0.40789  -0.40755
 Alpha  occ. eigenvalues --   -0.40611  -0.40389  -0.40271  -0.39878  -0.39616
 Alpha  occ. eigenvalues --   -0.39589  -0.39504  -0.39386  -0.39123  -0.39083
 Alpha  occ. eigenvalues --   -0.38920  -0.38735  -0.38554  -0.38412  -0.38224
 Alpha  occ. eigenvalues --   -0.38168  -0.38107  -0.37989  -0.37885  -0.37695
 Alpha  occ. eigenvalues --   -0.37470  -0.37263  -0.37170  -0.36924  -0.36880
 Alpha  occ. eigenvalues --   -0.36743  -0.36678  -0.36507  -0.36438  -0.36392
 Alpha  occ. eigenvalues --   -0.36076  -0.35943  -0.35837  -0.35669  -0.35239
 Alpha  occ. eigenvalues --   -0.34976  -0.34817  -0.34774  -0.34680  -0.34579
 Alpha  occ. eigenvalues --   -0.34259  -0.34146  -0.34005  -0.33803  -0.33473
 Alpha  occ. eigenvalues --   -0.33373  -0.33100  -0.33072  -0.32878  -0.32498
 Alpha  occ. eigenvalues --   -0.32389  -0.32103  -0.31823  -0.31628  -0.31620
 Alpha  occ. eigenvalues --   -0.31567  -0.30863  -0.30855  -0.30124  -0.30053
 Alpha  occ. eigenvalues --   -0.29800  -0.28758  -0.28420  -0.27417  -0.27365
 Alpha  occ. eigenvalues --   -0.27259  -0.26894  -0.26814  -0.26558  -0.26183
 Alpha  occ. eigenvalues --   -0.26100  -0.25438  -0.25371  -0.25167  -0.24938
 Alpha  occ. eigenvalues --   -0.24326  -0.23932  -0.23636  -0.23294  -0.23051
 Alpha  occ. eigenvalues --   -0.22975  -0.22748  -0.22688  -0.22525  -0.22343
 Alpha  occ. eigenvalues --   -0.22093  -0.21848  -0.21713  -0.21183  -0.20570
 Alpha  occ. eigenvalues --   -0.20323  -0.20149  -0.19886  -0.19202  -0.18844
 Alpha  occ. eigenvalues --   -0.18313  -0.17975  -0.16285
 Alpha virt. eigenvalues --   -0.11043  -0.05706  -0.04851  -0.02543  -0.01542
 Alpha virt. eigenvalues --   -0.01317  -0.01036  -0.00329  -0.00018   0.00313
 Alpha virt. eigenvalues --    0.00530   0.01311   0.01373   0.01576   0.01994
 Alpha virt. eigenvalues --    0.02649   0.02890   0.02942   0.03040   0.03961
 Alpha virt. eigenvalues --    0.04247   0.04356   0.04412   0.04476   0.04895
 Alpha virt. eigenvalues --    0.05011   0.05250   0.05560   0.05764   0.06059
 Alpha virt. eigenvalues --    0.06132   0.06270   0.06461   0.06513   0.06919
 Alpha virt. eigenvalues --    0.07197   0.07271   0.07488   0.07572   0.07717
 Alpha virt. eigenvalues --    0.07760   0.08053   0.08392   0.08456   0.08767
 Alpha virt. eigenvalues --    0.08983   0.09110   0.09509   0.09727   0.09820
 Alpha virt. eigenvalues --    0.09906   0.09924   0.10207   0.10397   0.10579
 Alpha virt. eigenvalues --    0.11009   0.11027   0.11190   0.11699   0.11807
 Alpha virt. eigenvalues --    0.11863   0.12014   0.12384   0.12599   0.12771
 Alpha virt. eigenvalues --    0.12933   0.12985   0.13144   0.13273   0.13372
 Alpha virt. eigenvalues --    0.13474   0.13766   0.14088   0.14312   0.14352
 Alpha virt. eigenvalues --    0.14709   0.14743   0.15075   0.15200   0.15345
 Alpha virt. eigenvalues --    0.15487   0.15800   0.16035   0.16170   0.16241
 Alpha virt. eigenvalues --    0.16449   0.16509   0.16662   0.16768   0.16857
 Alpha virt. eigenvalues --    0.17083   0.17234   0.17399   0.17617   0.17718
 Alpha virt. eigenvalues --    0.18182   0.18224   0.18451   0.18629   0.18873
 Alpha virt. eigenvalues --    0.19067   0.19304   0.19540   0.19687   0.20043
 Alpha virt. eigenvalues --    0.20199   0.20380   0.20526   0.20721   0.20908
 Alpha virt. eigenvalues --    0.21130   0.21257   0.21411   0.21509   0.21621
 Alpha virt. eigenvalues --    0.21831   0.22173   0.22217   0.22431   0.22911
 Alpha virt. eigenvalues --    0.23068   0.23281   0.23616   0.23785   0.23798
 Alpha virt. eigenvalues --    0.24111   0.24358   0.24501   0.24709   0.25072
 Alpha virt. eigenvalues --    0.25202   0.25350   0.25501   0.25783   0.25976
 Alpha virt. eigenvalues --    0.26185   0.26263   0.26483   0.26623   0.26785
 Alpha virt. eigenvalues --    0.27014   0.27209   0.27334   0.27420   0.27562
 Alpha virt. eigenvalues --    0.28095   0.28212   0.28298   0.28640   0.28782
 Alpha virt. eigenvalues --    0.29176   0.29360   0.29595   0.30048   0.30182
 Alpha virt. eigenvalues --    0.30519   0.30707   0.30906   0.31174   0.31574
 Alpha virt. eigenvalues --    0.31804   0.31864   0.32231   0.32441   0.32773
 Alpha virt. eigenvalues --    0.32986   0.33385   0.33552   0.33754   0.33883
 Alpha virt. eigenvalues --    0.34121   0.34499   0.34811   0.35169   0.35451
 Alpha virt. eigenvalues --    0.35671   0.35904   0.36129   0.36702   0.36789
 Alpha virt. eigenvalues --    0.36860   0.37541   0.37885   0.38306   0.38762
 Alpha virt. eigenvalues --    0.38935   0.39067   0.39163   0.39285   0.39403
 Alpha virt. eigenvalues --    0.39601   0.39904   0.40189   0.40547   0.40661
 Alpha virt. eigenvalues --    0.41122   0.41224   0.41837   0.41951   0.42192
 Alpha virt. eigenvalues --    0.42297   0.42536   0.42919   0.43075   0.43445
 Alpha virt. eigenvalues --    0.43602   0.43914   0.44045   0.44371   0.44488
 Alpha virt. eigenvalues --    0.44663   0.44910   0.45290   0.45325   0.45644
 Alpha virt. eigenvalues --    0.45785   0.46052   0.46141   0.46383   0.46531
 Alpha virt. eigenvalues --    0.46768   0.46842   0.47091   0.47205   0.47306
 Alpha virt. eigenvalues --    0.47576   0.47916   0.48049   0.48220   0.48302
 Alpha virt. eigenvalues --    0.48487   0.48541   0.48774   0.48980   0.49274
 Alpha virt. eigenvalues --    0.49514   0.49661   0.49958   0.50132   0.50773
 Alpha virt. eigenvalues --    0.50935   0.51101   0.51208   0.51566   0.51721
 Alpha virt. eigenvalues --    0.52046   0.52277   0.52396   0.52478   0.52680
 Alpha virt. eigenvalues --    0.52796   0.52942   0.53152   0.53292   0.53560
 Alpha virt. eigenvalues --    0.53709   0.53853   0.53972   0.54045   0.54246
 Alpha virt. eigenvalues --    0.54308   0.54426   0.54586   0.54893   0.54986
 Alpha virt. eigenvalues --    0.55191   0.55359   0.55666   0.55852   0.55994
 Alpha virt. eigenvalues --    0.56218   0.56430   0.56499   0.56613   0.56794
 Alpha virt. eigenvalues --    0.56879   0.56984   0.57097   0.57523   0.57638
 Alpha virt. eigenvalues --    0.57764   0.58145   0.58386   0.58582   0.58589
 Alpha virt. eigenvalues --    0.58653   0.59007   0.59147   0.59326   0.59540
 Alpha virt. eigenvalues --    0.59722   0.59867   0.60081   0.60228   0.60520
 Alpha virt. eigenvalues --    0.60602   0.60742   0.60860   0.61005   0.61093
 Alpha virt. eigenvalues --    0.61345   0.61513   0.61582   0.61685   0.61808
 Alpha virt. eigenvalues --    0.62082   0.62121   0.62425   0.62500   0.62646
 Alpha virt. eigenvalues --    0.62728   0.62818   0.62948   0.63154   0.63299
 Alpha virt. eigenvalues --    0.63362   0.63463   0.63679   0.63746   0.63768
 Alpha virt. eigenvalues --    0.64035   0.64196   0.64285   0.64439   0.64449
 Alpha virt. eigenvalues --    0.64475   0.64635   0.64853   0.64941   0.65037
 Alpha virt. eigenvalues --    0.65191   0.65430   0.65458   0.65649   0.65719
 Alpha virt. eigenvalues --    0.65734   0.65954   0.66124   0.66227   0.66430
 Alpha virt. eigenvalues --    0.66517   0.66605   0.66753   0.66789   0.66839
 Alpha virt. eigenvalues --    0.66977   0.67154   0.67251   0.67342   0.67403
 Alpha virt. eigenvalues --    0.67493   0.67648   0.67799   0.67951   0.68077
 Alpha virt. eigenvalues --    0.68221   0.68254   0.68347   0.68534   0.68616
 Alpha virt. eigenvalues --    0.68662   0.68708   0.68756   0.68868   0.68982
 Alpha virt. eigenvalues --    0.69076   0.69370   0.69374   0.69511   0.69588
 Alpha virt. eigenvalues --    0.69715   0.69821   0.70018   0.70253   0.70396
 Alpha virt. eigenvalues --    0.70472   0.70580   0.70694   0.70883   0.71072
 Alpha virt. eigenvalues --    0.71160   0.71256   0.71351   0.71438   0.71611
 Alpha virt. eigenvalues --    0.71652   0.71832   0.71987   0.72094   0.72341
 Alpha virt. eigenvalues --    0.72413   0.72545   0.72783   0.72862   0.73026
 Alpha virt. eigenvalues --    0.73210   0.73534   0.73612   0.73706   0.73856
 Alpha virt. eigenvalues --    0.74071   0.74275   0.74474   0.74495   0.74729
 Alpha virt. eigenvalues --    0.75122   0.75192   0.75382   0.75496   0.75515
 Alpha virt. eigenvalues --    0.75641   0.76024   0.76328   0.76687   0.76895
 Alpha virt. eigenvalues --    0.77097   0.77317   0.77500   0.77897   0.77975
 Alpha virt. eigenvalues --    0.78174   0.78199   0.78462   0.78634   0.78904
 Alpha virt. eigenvalues --    0.79154   0.79872   0.80114   0.80221   0.80417
 Alpha virt. eigenvalues --    0.80513   0.80822   0.81036   0.81174   0.81247
 Alpha virt. eigenvalues --    0.81499   0.81636   0.82184   0.82350   0.82527
 Alpha virt. eigenvalues --    0.83043   0.83300   0.83542   0.83802   0.84097
 Alpha virt. eigenvalues --    0.84348   0.84642   0.84760   0.85127   0.85580
 Alpha virt. eigenvalues --    0.85657   0.85871   0.86373   0.86443   0.86877
 Alpha virt. eigenvalues --    0.87167   0.87571   0.87844   0.88109   0.88419
 Alpha virt. eigenvalues --    0.88756   0.89094   0.89536   0.89773   0.90052
 Alpha virt. eigenvalues --    0.90476   0.90548   0.90875   0.91296   0.91484
 Alpha virt. eigenvalues --    0.91921   0.92367   0.92548   0.92770   0.92982
 Alpha virt. eigenvalues --    0.93247   0.93730   0.93870   0.94123   0.94286
 Alpha virt. eigenvalues --    0.94410   0.94499   0.94746   0.94958   0.95078
 Alpha virt. eigenvalues --    0.95576   0.95741   0.96174   0.96334   0.96552
 Alpha virt. eigenvalues --    0.96848   0.96943   0.97117   0.97329   0.97927
 Alpha virt. eigenvalues --    0.98069   0.98291   0.98499   0.98654   0.99307
 Alpha virt. eigenvalues --    0.99529   0.99661   0.99852   1.00198   1.00256
 Alpha virt. eigenvalues --    1.00667   1.00898   1.01005   1.01310   1.01603
 Alpha virt. eigenvalues --    1.01984   1.02375   1.02755   1.03076   1.03269
 Alpha virt. eigenvalues --    1.03603   1.03962   1.04229   1.04383   1.05025
 Alpha virt. eigenvalues --    1.05392   1.05858   1.06069   1.06322   1.06535
 Alpha virt. eigenvalues --    1.07107   1.07355   1.07509   1.07802   1.08023
 Alpha virt. eigenvalues --    1.08324   1.08525   1.08748   1.09422   1.09763
 Alpha virt. eigenvalues --    1.10043   1.10478   1.10772   1.11063   1.11102
 Alpha virt. eigenvalues --    1.11657   1.11886   1.12029   1.12349   1.12799
 Alpha virt. eigenvalues --    1.13100   1.13290   1.13633   1.14027   1.14343
 Alpha virt. eigenvalues --    1.14640   1.14914   1.15256   1.15407   1.15552
 Alpha virt. eigenvalues --    1.15799   1.16725   1.16768   1.16917   1.17091
 Alpha virt. eigenvalues --    1.17322   1.17786   1.18122   1.18197   1.18411
 Alpha virt. eigenvalues --    1.18581   1.18858   1.19253   1.19593   1.19798
 Alpha virt. eigenvalues --    1.20250   1.20355   1.20748   1.21050   1.21221
 Alpha virt. eigenvalues --    1.21488   1.21652   1.21826   1.22203   1.22366
 Alpha virt. eigenvalues --    1.22768   1.23003   1.23307   1.23476   1.23665
 Alpha virt. eigenvalues --    1.23986   1.24067   1.24261   1.24570   1.24746
 Alpha virt. eigenvalues --    1.25026   1.25187   1.25437   1.25741   1.25895
 Alpha virt. eigenvalues --    1.26404   1.26583   1.26843   1.26957   1.27302
 Alpha virt. eigenvalues --    1.27349   1.27697   1.27950   1.28245   1.28419
 Alpha virt. eigenvalues --    1.28646   1.28921   1.29164   1.29446   1.29701
 Alpha virt. eigenvalues --    1.29975   1.30288   1.30462   1.30881   1.31081
 Alpha virt. eigenvalues --    1.31231   1.31729   1.31952   1.32345   1.32455
 Alpha virt. eigenvalues --    1.32769   1.33018   1.33616   1.33671   1.33891
 Alpha virt. eigenvalues --    1.34284   1.34724   1.34927   1.35320   1.35450
 Alpha virt. eigenvalues --    1.35803   1.35978   1.36170   1.36351   1.36737
 Alpha virt. eigenvalues --    1.36882   1.37051   1.37215   1.37553   1.37841
 Alpha virt. eigenvalues --    1.38397   1.38451   1.38668   1.39114   1.39545
 Alpha virt. eigenvalues --    1.39775   1.40211   1.40405   1.40533   1.40726
 Alpha virt. eigenvalues --    1.41232   1.41723   1.41986   1.42574   1.42624
 Alpha virt. eigenvalues --    1.42976   1.43410   1.43717   1.43786   1.43944
 Alpha virt. eigenvalues --    1.44371   1.44552   1.44802   1.45150   1.45235
 Alpha virt. eigenvalues --    1.45399   1.45787   1.46035   1.46396   1.46511
 Alpha virt. eigenvalues --    1.46808   1.46992   1.47959   1.48245   1.48611
 Alpha virt. eigenvalues --    1.48732   1.48991   1.49131   1.49440   1.49718
 Alpha virt. eigenvalues --    1.49883   1.50182   1.50435   1.50719   1.50850
 Alpha virt. eigenvalues --    1.51128   1.51342   1.51875   1.52493   1.52940
 Alpha virt. eigenvalues --    1.53045   1.53123   1.53407   1.53735   1.53856
 Alpha virt. eigenvalues --    1.54256   1.54497   1.54702   1.55163   1.55512
 Alpha virt. eigenvalues --    1.56042   1.56464   1.56915   1.57225   1.57702
 Alpha virt. eigenvalues --    1.57753   1.58330   1.58448   1.58617   1.59344
 Alpha virt. eigenvalues --    1.59700   1.59842   1.60123   1.60566   1.60689
 Alpha virt. eigenvalues --    1.60751   1.61135   1.61306   1.61437   1.61824
 Alpha virt. eigenvalues --    1.61962   1.62146   1.62664   1.63213   1.64100
 Alpha virt. eigenvalues --    1.64236   1.64646   1.64781   1.64905   1.65046
 Alpha virt. eigenvalues --    1.65229   1.65548   1.65932   1.66111   1.66358
 Alpha virt. eigenvalues --    1.67104   1.67305   1.67500   1.67912   1.68115
 Alpha virt. eigenvalues --    1.68419   1.68543   1.68723   1.68868   1.69514
 Alpha virt. eigenvalues --    1.69834   1.69892   1.70263   1.70568   1.70846
 Alpha virt. eigenvalues --    1.70958   1.71291   1.71363   1.71705   1.71859
 Alpha virt. eigenvalues --    1.72077   1.72497   1.72619   1.72913   1.73121
 Alpha virt. eigenvalues --    1.73262   1.73493   1.73918   1.74037   1.74397
 Alpha virt. eigenvalues --    1.74425   1.74794   1.74955   1.75378   1.75433
 Alpha virt. eigenvalues --    1.75586   1.75669   1.75792   1.75922   1.76076
 Alpha virt. eigenvalues --    1.76256   1.76304   1.76909   1.76996   1.77164
 Alpha virt. eigenvalues --    1.77248   1.77258   1.77642   1.77792   1.78080
 Alpha virt. eigenvalues --    1.78263   1.78422   1.78544   1.78766   1.78878
 Alpha virt. eigenvalues --    1.79094   1.79316   1.79592   1.79791   1.80187
 Alpha virt. eigenvalues --    1.80256   1.80314   1.80445   1.80637   1.80824
 Alpha virt. eigenvalues --    1.80947   1.81066   1.81111   1.81289   1.81452
 Alpha virt. eigenvalues --    1.81590   1.81766   1.81992   1.82101   1.82297
 Alpha virt. eigenvalues --    1.82393   1.82557   1.82789   1.82823   1.82968
 Alpha virt. eigenvalues --    1.83418   1.83613   1.83696   1.83867   1.83966
 Alpha virt. eigenvalues --    1.84184   1.84683   1.84822   1.85046   1.85224
 Alpha virt. eigenvalues --    1.85282   1.85490   1.85709   1.86103   1.86312
 Alpha virt. eigenvalues --    1.86509   1.86625   1.86665   1.86817   1.87126
 Alpha virt. eigenvalues --    1.87302   1.87518   1.87769   1.88167   1.88357
 Alpha virt. eigenvalues --    1.88497   1.88838   1.89063   1.89215   1.89298
 Alpha virt. eigenvalues --    1.89551   1.89778   1.89839   1.90108   1.90158
 Alpha virt. eigenvalues --    1.90713   1.90817   1.90881   1.90994   1.91091
 Alpha virt. eigenvalues --    1.91331   1.91417   1.91700   1.91729   1.92334
 Alpha virt. eigenvalues --    1.92576   1.92683   1.92954   1.93071   1.93095
 Alpha virt. eigenvalues --    1.93393   1.93542   1.93674   1.93844   1.94284
 Alpha virt. eigenvalues --    1.94339   1.94374   1.94876   1.95097   1.95618
 Alpha virt. eigenvalues --    1.95796   1.95965   1.96052   1.96207   1.96369
 Alpha virt. eigenvalues --    1.96872   1.96906   1.97171   1.97291   1.97543
 Alpha virt. eigenvalues --    1.98235   1.98363   1.98639   1.99015   1.99172
 Alpha virt. eigenvalues --    1.99325   1.99495   1.99588   2.00081   2.00152
 Alpha virt. eigenvalues --    2.00344   2.00466   2.00599   2.00807   2.00925
 Alpha virt. eigenvalues --    2.01346   2.01375   2.01526   2.01579   2.01866
 Alpha virt. eigenvalues --    2.02142   2.02496   2.02736   2.03069   2.03242
 Alpha virt. eigenvalues --    2.03623   2.03791   2.03910   2.04316   2.04422
 Alpha virt. eigenvalues --    2.04581   2.04691   2.05090   2.05257   2.05880
 Alpha virt. eigenvalues --    2.06052   2.06552   2.06702   2.06803   2.07007
 Alpha virt. eigenvalues --    2.07180   2.07596   2.07651   2.07952   2.08361
 Alpha virt. eigenvalues --    2.08474   2.08670   2.08854   2.09068   2.09497
 Alpha virt. eigenvalues --    2.09757   2.10139   2.10451   2.10645   2.11017
 Alpha virt. eigenvalues --    2.11655   2.11973   2.12041   2.12590   2.12735
 Alpha virt. eigenvalues --    2.12940   2.13046   2.13687   2.14328   2.14394
 Alpha virt. eigenvalues --    2.14962   2.15190   2.15509   2.15789   2.15892
 Alpha virt. eigenvalues --    2.16044   2.16159   2.16465   2.16600   2.16777
 Alpha virt. eigenvalues --    2.16995   2.17501   2.17712   2.17849   2.18101
 Alpha virt. eigenvalues --    2.18424   2.18623   2.18733   2.18829   2.19083
 Alpha virt. eigenvalues --    2.19558   2.19856   2.20015   2.20844   2.21086
 Alpha virt. eigenvalues --    2.21289   2.21721   2.21762   2.22054   2.22297
 Alpha virt. eigenvalues --    2.22388   2.22716   2.23012   2.23433   2.23688
 Alpha virt. eigenvalues --    2.23943   2.24112   2.24395   2.24538   2.24746
 Alpha virt. eigenvalues --    2.25088   2.25748   2.26692   2.26817   2.27082
 Alpha virt. eigenvalues --    2.27468   2.27565   2.27924   2.28050   2.28458
 Alpha virt. eigenvalues --    2.28914   2.29183   2.29478   2.29556   2.30038
 Alpha virt. eigenvalues --    2.30488   2.30767   2.31100   2.31545   2.31933
 Alpha virt. eigenvalues --    2.32593   2.32861   2.33210   2.33356   2.33924
 Alpha virt. eigenvalues --    2.34352   2.34427   2.34724   2.34880   2.35501
 Alpha virt. eigenvalues --    2.35533   2.35833   2.35960   2.36475   2.37099
 Alpha virt. eigenvalues --    2.37313   2.37728   2.37811   2.38024   2.38574
 Alpha virt. eigenvalues --    2.38922   2.38977   2.39232   2.39399   2.39717
 Alpha virt. eigenvalues --    2.39825   2.40342   2.40734   2.41358   2.41647
 Alpha virt. eigenvalues --    2.42076   2.42277   2.42719   2.43050   2.43480
 Alpha virt. eigenvalues --    2.43603   2.44085   2.44340   2.44880   2.45434
 Alpha virt. eigenvalues --    2.45636   2.46161   2.46438   2.46522   2.47035
 Alpha virt. eigenvalues --    2.47138   2.47558   2.47640   2.48209   2.48412
 Alpha virt. eigenvalues --    2.48678   2.48994   2.49135   2.49525   2.50044
 Alpha virt. eigenvalues --    2.50156   2.50454   2.50800   2.51056   2.51598
 Alpha virt. eigenvalues --    2.51810   2.52643   2.53016   2.53479   2.53689
 Alpha virt. eigenvalues --    2.53887   2.54097   2.54566   2.54934   2.54952
 Alpha virt. eigenvalues --    2.55810   2.56239   2.56476   2.57036   2.57136
 Alpha virt. eigenvalues --    2.57547   2.58067   2.58111   2.58162   2.58579
 Alpha virt. eigenvalues --    2.59432   2.59494   2.60256   2.60551   2.60947
 Alpha virt. eigenvalues --    2.61148   2.61368   2.61890   2.62251   2.62523
 Alpha virt. eigenvalues --    2.62830   2.62968   2.63144   2.63500   2.63838
 Alpha virt. eigenvalues --    2.64020   2.64126   2.64425   2.64575   2.65103
 Alpha virt. eigenvalues --    2.65714   2.66098   2.66634   2.66849   2.66971
 Alpha virt. eigenvalues --    2.67292   2.67643   2.67702   2.67827   2.68280
 Alpha virt. eigenvalues --    2.68347   2.68490   2.69645   2.69775   2.69877
 Alpha virt. eigenvalues --    2.69998   2.70507   2.70755   2.71190   2.71472
 Alpha virt. eigenvalues --    2.71573   2.71744   2.72067   2.72111   2.72288
 Alpha virt. eigenvalues --    2.72816   2.73120   2.73457   2.73803   2.73936
 Alpha virt. eigenvalues --    2.74108   2.74316   2.74885   2.74957   2.75407
 Alpha virt. eigenvalues --    2.75563   2.75665   2.76086   2.76691   2.76785
 Alpha virt. eigenvalues --    2.76853   2.76912   2.77131   2.77243   2.77580
 Alpha virt. eigenvalues --    2.77832   2.78218   2.78399   2.78578   2.78891
 Alpha virt. eigenvalues --    2.79311   2.79664   2.80295   2.80426   2.80580
 Alpha virt. eigenvalues --    2.80663   2.80817   2.80992   2.81107   2.81732
 Alpha virt. eigenvalues --    2.82314   2.82391   2.82561   2.82845   2.83207
 Alpha virt. eigenvalues --    2.83480   2.83836   2.83863   2.84988   2.85083
 Alpha virt. eigenvalues --    2.85162   2.85520   2.85588   2.85833   2.86186
 Alpha virt. eigenvalues --    2.86382   2.86720   2.87252   2.87499   2.87688
 Alpha virt. eigenvalues --    2.87792   2.88047   2.88597   2.89189   2.89414
 Alpha virt. eigenvalues --    2.89653   2.89999   2.90214   2.90422   2.90652
 Alpha virt. eigenvalues --    2.90716   2.91217   2.91335   2.91952   2.92045
 Alpha virt. eigenvalues --    2.92227   2.92648   2.92998   2.93114   2.93498
 Alpha virt. eigenvalues --    2.93823   2.93859   2.94491   2.94614   2.94675
 Alpha virt. eigenvalues --    2.95208   2.95481   2.95857   2.96523   2.96650
 Alpha virt. eigenvalues --    2.97430   2.97802   2.98157   2.98293   2.98619
 Alpha virt. eigenvalues --    2.98979   2.99066   2.99709   2.99759   3.00008
 Alpha virt. eigenvalues --    3.00812   3.00815   3.01224   3.01615   3.01745
 Alpha virt. eigenvalues --    3.01879   3.01959   3.02391   3.02640   3.02927
 Alpha virt. eigenvalues --    3.03127   3.03378   3.03912   3.04071   3.04323
 Alpha virt. eigenvalues --    3.04484   3.04556   3.04980   3.05644   3.06411
 Alpha virt. eigenvalues --    3.06704   3.07386   3.07768   3.08871   3.09010
 Alpha virt. eigenvalues --    3.09200   3.09742   3.09935   3.10207   3.12309
 Alpha virt. eigenvalues --    3.12665   3.13061   3.13496   3.13989   3.14266
 Alpha virt. eigenvalues --    3.14648   3.14655   3.14799   3.14957   3.15864
 Alpha virt. eigenvalues --    3.15918   3.16266   3.16630   3.16738   3.16939
 Alpha virt. eigenvalues --    3.17332   3.18106   3.18290   3.18531   3.19747
 Alpha virt. eigenvalues --    3.19916   3.20211   3.20638   3.20896   3.21330
 Alpha virt. eigenvalues --    3.21484   3.21729   3.22072   3.23013   3.23235
 Alpha virt. eigenvalues --    3.23777   3.24013   3.24823   3.25128   3.25412
 Alpha virt. eigenvalues --    3.25554   3.25688   3.26088   3.26435   3.27214
 Alpha virt. eigenvalues --    3.27609   3.28357   3.28522   3.28891   3.29848
 Alpha virt. eigenvalues --    3.31175   3.34177   3.34703   3.35073   3.35159
 Alpha virt. eigenvalues --    3.35325   3.35911   3.38707   3.39259   3.41346
 Alpha virt. eigenvalues --    3.41911   3.43862   3.48034   3.48940   3.52673
 Alpha virt. eigenvalues --    3.53487   3.53825   3.54290   3.54459   3.55378
 Alpha virt. eigenvalues --    3.56598   3.57462   3.57725   3.58686   3.59605
 Alpha virt. eigenvalues --    3.60144   3.62343   3.63757   3.64389   3.64805
 Alpha virt. eigenvalues --    3.64828   3.66773   3.66930   3.67505   3.69104
 Alpha virt. eigenvalues --    3.69390   3.69606   3.70278   3.70485   3.71102
 Alpha virt. eigenvalues --    3.71349   3.71716   3.72622   3.72725   3.73137
 Alpha virt. eigenvalues --    3.73711   3.74132   3.74265   3.74976   3.75515
 Alpha virt. eigenvalues --    3.76883   3.78957   3.81309   3.81530
          Condensed to atoms (all electrons):
 Mulliken charges:
               1
     1  C    0.057167
     2  C    0.017229
     3  O   -0.293824
     4  H   -0.010559
     5  H    0.039196
     6  H    0.039969
     7  N   -0.099457
     8  C    0.078665
     9  C    0.084454
    10  O   -0.267369
    11  C    0.084247
    12  C    0.098831
    13  O   -0.363204
    14  O   -0.478153
    15  H    0.123239
    16  H    0.001784
    17  H    0.025494
    18  H    0.011432
    19  N   -0.111082
    20  C    0.084066
    21  C    0.051289
    22  O   -0.267666
    23  C    0.045112
    24  C   -0.014105
    25  C   -0.034396
    26  C    0.010411
    27  N    0.097945
    28  H    0.127251
    29  H   -0.006189
    30  H    0.021946
    31  H    0.043027
    32  H    0.018759
    33  H    0.025896
    34  H    0.017164
    35  H    0.047038
    36  H    0.070993
    37  H    0.070591
    38  H    0.194363
    39  H    0.191092
    40  H    0.206151
    41  N   -0.155892
    42  C    0.119500
    43  C    0.077754
    44  O   -0.298731
    45  C    0.082111
    46  C    0.104533
    47  O   -0.385620
    48  O   -0.480301
    49  H    0.134099
    50  H    0.008718
    51  H   -0.007125
    52  H    0.026046
    53  N   -0.171487
    54  C    0.239231
    55  C    0.025403
    56  O   -0.302859
    57  H    0.160919
    58  H    0.022275
    59  H    0.020730
    60  N   -0.170829
    61  C    0.144163
    62  C    0.059732
    63  O   -0.292339
    64  C    0.032538
    65  C    0.131168
    66  N   -0.033457
    67  O   -0.353316
    68  H    0.164680
    69  H    0.017736
    70  H    0.082055
    71  H    0.010248
    72  H    0.133595
    73  H    0.114121
    74  N   -0.192777
    75  C    0.256218
    76  C   -0.001858
    77  O   -0.312392
    78  H    0.163719
    79  H    0.061011
    80  H    0.018416
    81  N   -0.146424
    82  C    0.166251
    83  C    0.122366
    84  O   -0.381856
    85  C    0.123257
    86  C    0.037476
    87  C    0.018193
    88  C   -0.017690
    89  C   -0.044759
    90  C   -0.008306
    91  C    0.167223
    92  O   -0.218682
    93  H    0.153775
    94  H   -0.017078
    95  H   -0.020696
    96  H   -0.035894
    97  H   -0.038530
    98  H   -0.041367
    99  H   -0.047484
   100  H   -0.022637
   101  H    0.173714
   102  N   -0.101444
   103  C    0.130681
   104  C    0.072258
   105  O   -0.285314
   106  C   -0.121348
   107  C    0.024755
   108  C    0.048834
   109  C    0.035709
   110  H    0.130752
   111  H    0.033403
   112  H   -0.019284
   113  H   -0.004873
   114  H    0.006073
   115  H    0.015090
   116  H    0.006902
   117  H    0.019477
   118  H    0.005436
   119  H    0.006016
   120  H    0.020579
   121  N   -0.124404
   122  C    0.064783
   123  C    0.059566
   124  O   -0.270734
   125  C    0.250932
   126  O   -0.341451
   127  H    0.166903
   128  H    0.029476
   129  H   -0.013320
   130  H   -0.005444
   131  H    0.161085
   132  N   -0.116454
   133  C    0.120766
   134  C    0.064044
   135  O   -0.256900
   136  C    0.008722
   137  H    0.127454
   138  H    0.022565
   139  H    0.029191
   140  H    0.038282
   141  H    0.015328
   142  N   -0.154271
   143  C    0.113645
   144  C    0.050897
   145  O   -0.279469
   146  C    0.034644
   147  H    0.106758
   148  H    0.031321
   149  H    0.000059
   150  H    0.014030
   151  H    0.030914
   152  N   -0.115537
   153  C    0.156482
   154  C    0.066133
   155  O   -0.274132
   156  C   -0.025178
   157  C    0.077668
   158  C    0.123313
   159  O   -0.413434
   160  O   -0.398718
   161  H    0.111445
   162  H   -0.026710
   163  H    0.023053
   164  H    0.008296
   165  H   -0.028363
   166  H   -0.041514
   167  N   -0.168188
   168  C    0.129705
   169  H    0.018728
   170  H    0.030457
   171  H    0.017155
   172  H    0.128857
   173  Ca   1.278247
   174  O   -0.254219
   175  H    0.179786
   176  H    0.182666
 Sum of Mulliken charges =  -0.00000
 Mulliken charges with hydrogens summed into heavy atoms:
               1
     1  C    0.125774
     2  C    0.017229
     3  O   -0.293824
     7  N    0.023781
     8  C    0.080449
     9  C    0.084454
    10  O   -0.267369
    11  C    0.121173
    12  C    0.098831
    13  O   -0.363204
    14  O   -0.478153
    19  N    0.016169
    20  C    0.077877
    21  C    0.051289
    22  O   -0.267666
    23  C    0.110085
    24  C    0.030550
    25  C    0.029806
    26  C    0.151995
    27  N    0.689551
    41  N   -0.021793
    42  C    0.128218
    43  C    0.077754
    44  O   -0.298731
    45  C    0.101031
    46  C    0.104533
    47  O   -0.385620
    48  O   -0.480301
    53  N   -0.010568
    54  C    0.282236
    55  C    0.025403
    56  O   -0.302859
    60  N   -0.006149
    61  C    0.161899
    62  C    0.059732
    63  O   -0.292339
    64  C    0.124841
    65  C    0.131168
    66  N    0.214258
    67  O   -0.353316
    74  N   -0.029058
    75  C    0.335644
    76  C   -0.001858
    77  O   -0.312392
    81  N    0.007351
    82  C    0.149173
    83  C    0.122366
    84  O   -0.381856
    85  C    0.066667
    86  C    0.037476
    87  C   -0.020337
    88  C   -0.059057
    89  C   -0.092243
    90  C   -0.030943
    91  C    0.167223
    92  O   -0.044968
   102  N    0.029308
   103  C    0.164084
   104  C    0.072258
   105  O   -0.285314
   106  C   -0.140632
   107  C    0.025955
   108  C    0.090302
   109  C    0.067740
   121  N    0.042499
   122  C    0.094259
   123  C    0.059566
   124  O   -0.270734
   125  C    0.232168
   126  O   -0.180366
   132  N    0.011000
   133  C    0.143331
   134  C    0.064044
   135  O   -0.256900
   136  C    0.091522
   142  N   -0.047514
   143  C    0.144967
   144  C    0.050897
   145  O   -0.279469
   146  C    0.079647
   152  N   -0.004091
   153  C    0.129772
   154  C    0.066133
   155  O   -0.274132
   156  C    0.006171
   157  C    0.007791
   158  C    0.123313
   159  O   -0.413434
   160  O   -0.398718
   167  N   -0.039330
   168  C    0.196045
   173  Ca   1.278247
   174  O    0.108233
 DipInt: DoE/N= T F RetVal/Mat= T F Init=T NMatP=  1 IDeriv=0 Min/MaxMlt=  0  4
 Entering OneElI...
 OneElI was handed  1333951383 working-precision words.
 Multipole integrals L=0 to 4 MinM= 0 MaxM= 0.
 Requested accuracy = 0.1000D-12
 ShPair: Thresh= 1.00D-13 NBox=     0 BxSize= 0.00D+00 RnKept= 2.55D+01
         NSMCal=               327645 NSMKep=              159596
 PrmmSu-InSpLW:  IPartL=    0 NPrtUS=    1 NPrtUL=    1 DoSpLW=F IThBeg=    0 IThEnd=    0 NThAct=    1.
 PrsmSu:  NPrtUS=   1 ThrOK=F IAlg=1 NPAlg=1 LenDen=           0 ISkipM=0 DoSpLW=F IThBeg=    0 IThEnd=    0.
 Prism:   IPart=     0 DynPar=F LinDyn=F Incr=         512.
 PRISM was handed  1323923497 working-precision words and159596 shell-pairs
 IPart=  0 NShTot=      159596 NBatch=         364 AvBLen=       438.5
 PrsmSu-ThDecC:  IPartSL=    0    0 NPrtUSL=    1    1 IThBeg=    0 IThEnd=    0 CPU=   -1 GPU=   -1 NThAct=    1.
 PrSmSu:  NxtVal=            513.
 Electronic moments (au):
       -716.00000000         13.37076010         -0.80074664         -8.04525395
     -53082.65933188     -30145.75339079     -12943.48905846        120.92016035
        -82.59574296        -32.44717164     -44212.37045723     -22060.90123847
     -31454.67485929       7606.05443531     101861.20075558      66470.33739287
     -13806.28674016      -5337.33847706      28116.96437989       9667.25578829
   -7982578.04291332   -2637972.52481931    -723429.66980618    -200221.76155491
     200437.09338690    -455112.09517646      42959.64889688     -91777.11563126
       7586.15723237   -2298943.36893333    -725546.83016200    -430088.61758305
    -206714.05674882      75333.78085171     -74176.87696227
 Electronic spatial extent (au):  <R**2>=          96171.9018
 DipInt: DoE/N= F T RetVal/Mat= T F Init=T NMatP=  1 IDeriv=0 Min/MaxMlt=  0  4
 Nuclear    moments (au):
        716.00000000         -0.00000000          0.00000000          0.00000000
      52666.55719116      29795.48592886      12587.63141010          0.00000000
         -0.00000000          0.00000000      45992.79322423      22228.14426081
      31272.76526510      -5828.27046688    -101359.59558071     -67923.64450678
      14331.40886432       5591.08452331     -29020.44236411     -10372.69299466
    7788373.64695609    2544204.29284437     683003.78200917     216118.17090426
    -212327.64260506     477194.21058898     -50613.47917666      88624.28622283
      -8259.67843586    2270069.28412885     694430.84689733     410103.39785173
     199914.06235226     -84792.27637928      78214.08361036
 Total      moments (au):
          0.00000000         13.37076010         -0.80074664         -8.04525395
       -416.10214073       -350.26746193       -355.85764836        120.92016035
        -82.59574296        -32.44717164       1780.42276700        167.24302235
       -181.90959419       1777.78396843        501.60517487      -1453.30711390
        525.12212416        253.74604625       -903.47798422       -705.43720637
    -194204.39595723     -93768.23197495     -40425.88779701      15896.40934935
     -11890.54921815      22082.11541252      -7653.83027978      -3152.82940843
       -673.52120349     -28874.08480448     -31115.98326467     -19985.21973132
      -6799.99439655      -9458.49552757       4037.20664809
 Traceless Quadrup. (au):
        -42.02639039         23.80828841         18.21810198        120.92016035
        -82.59574296        -32.44717164
 Charge=              0.0000 electrons
 Dipole moment (field-independent basis, Debye):
    X=             33.9851    Y=             -2.0353    Z=            -20.4490  Tot=             39.7151
 Quadrupole moment (field-independent basis, Debye-Ang):
   XX=           -559.6716   YY=           -471.1217   ZZ=           -478.6407
   XY=            162.6418   XZ=           -111.0941   YZ=            -43.6426
 Traceless Quadrupole moment (field-independent basis, Debye-Ang):
   XX=            -56.5269   YY=             32.0230   ZZ=             24.5040
   XY=            162.6418   XZ=           -111.0941   YZ=            -43.6426
 Octapole moment (field-independent basis, Debye-Ang**2):
  XXX=           1267.2363  YYY=            119.0371  ZZZ=           -129.4762  XYY=           1265.3581
  XXY=            357.0232  XXZ=          -1034.4080  XZZ=            373.7617  YZZ=            180.6067
  YYZ=           -643.0608  XYZ=           -502.1030
 Hexadecapole moment (field-independent basis, Debye-Ang**3):
 XXXX=         -73146.6879 YYYY=         -35317.6125 ZZZZ=         -15226.3278 XXXY=           5987.3500
 XXXZ=          -4478.5510 YYYX=           8317.1835 YYYZ=          -2882.7995 ZZZX=          -1187.5067
 ZZZY=           -253.6804 XXYY=         -10875.3649 XXZZ=         -11719.7714 YYZZ=          -7527.3921
 XXYZ=          -2561.2040 YYXZ=          -3562.5230 ZZXY=           1520.6056
 N-N= 2.159045067230D+04 E-N=-5.566521074888D+04  KE= 5.290576365076D+03
 Leave Link  601 at Sun Sep 15 01:08:45 2019, MaxMem=  1342177280 cpu:              42.5 elap:               1.1
 FitSet:  NAtFit=   176 NAtPot=   176 NAtFrz=     0 MDM=   180 TotChg=   0.00000
 Merz-Kollman atomic radii used.
 Read replacement radii for each type of atom:
 Rad(20) =   1.700000000000D+00
 Atom Element Radius
    1     6    1.50
    2     6    1.50
    3     8    1.40
    4     1    1.20
    5     1    1.20
    6     1    1.20
    7     7    1.50
    8     6    1.50
    9     6    1.50
   10     8    1.40
   11     6    1.50
   12     6    1.50
   13     8    1.40
   14     8    1.40
   15     1    1.20
   16     1    1.20
   17     1    1.20
   18     1    1.20
   19     7    1.50
   20     6    1.50
   21     6    1.50
   22     8    1.40
   23     6    1.50
   24     6    1.50
   25     6    1.50
   26     6    1.50
   27     7    1.50
   28     1    1.20
   29     1    1.20
   30     1    1.20
   31     1    1.20
   32     1    1.20
   33     1    1.20
   34     1    1.20
   35     1    1.20
   36     1    1.20
   37     1    1.20
   38     1    1.20
   39     1    1.20
   40     1    1.20
   41     7    1.50
   42     6    1.50
   43     6    1.50
   44     8    1.40
   45     6    1.50
   46     6    1.50
   47     8    1.40
   48     8    1.40
   49     1    1.20
   50     1    1.20
   51     1    1.20
   52     1    1.20
   53     7    1.50
   54     6    1.50
   55     6    1.50
   56     8    1.40
   57     1    1.20
   58     1    1.20
   59     1    1.20
   60     7    1.50
   61     6    1.50
   62     6    1.50
   63     8    1.40
   64     6    1.50
   65     6    1.50
   66     7    1.50
   67     8    1.40
   68     1    1.20
   69     1    1.20
   70     1    1.20
   71     1    1.20
   72     1    1.20
   73     1    1.20
   74     7    1.50
   75     6    1.50
   76     6    1.50
   77     8    1.40
   78     1    1.20
   79     1    1.20
   80     1    1.20
   81     7    1.50
   82     6    1.50
   83     6    1.50
   84     8    1.40
   85     6    1.50
   86     6    1.50
   87     6    1.50
   88     6    1.50
   89     6    1.50
   90     6    1.50
   91     6    1.50
   92     8    1.40
   93     1    1.20
   94     1    1.20
   95     1    1.20
   96     1    1.20
   97     1    1.20
   98     1    1.20
   99     1    1.20
  100     1    1.20
  101     1    1.20
  102     7    1.50
  103     6    1.50
  104     6    1.50
  105     8    1.40
  106     6    1.50
  107     6    1.50
  108     6    1.50
  109     6    1.50
  110     1    1.20
  111     1    1.20
  112     1    1.20
  113     1    1.20
  114     1    1.20
  115     1    1.20
  116     1    1.20
  117     1    1.20
  118     1    1.20
  119     1    1.20
  120     1    1.20
  121     7    1.50
  122     6    1.50
  123     6    1.50
  124     8    1.40
  125     6    1.50
  126     8    1.40
  127     1    1.20
  128     1    1.20
  129     1    1.20
  130     1    1.20
  131     1    1.20
  132     7    1.50
  133     6    1.50
  134     6    1.50
  135     8    1.40
  136     6    1.50
  137     1    1.20
  138     1    1.20
  139     1    1.20
  140     1    1.20
  141     1    1.20
  142     7    1.50
  143     6    1.50
  144     6    1.50
  145     8    1.40
  146     6    1.50
  147     1    1.20
  148     1    1.20
  149     1    1.20
  150     1    1.20
  151     1    1.20
  152     7    1.50
  153     6    1.50
  154     6    1.50
  155     8    1.40
  156     6    1.50
  157     6    1.50
  158     6    1.50
  159     8    1.40
  160     8    1.40
  161     1    1.20
  162     1    1.20
  163     1    1.20
  164     1    1.20
  165     1    1.20
  166     1    1.20
  167     7    1.50
  168     6    1.50
  169     1    1.20
  170     1    1.20
  171     1    1.20
  172     1    1.20
  173    20    1.70
  174     8    1.40
  175     1    1.20
  176     1    1.20
 Generate VDW surfaces: Layer= 4 Dens= 6 Start= 1.400 Inc= 0.200

 **********************************************************************

[...]
 **** Fit       0.014605
 **** Fit       0.018003
 **** Fit       0.007938
 **** Fit      -0.015311
 **** Fit       0.002454
 **** Fit      -0.002787
 **** Fit      -0.009787
 **** Fit      -0.018339
 **** Fit       0.001766
 **** Fit      -0.001607
 **** Fit      -0.006650
 **** Fit      -0.013563
 **** Fit      -0.022340
 **** Fit      -0.033091
 **** Fit       0.021463
 **** Fit       0.002784
 **** Fit       0.000598
 **** Fit      -0.001896
 **** Fit      -0.005240
 **** Fit      -0.010010
 **** Fit      -0.016591
 **** Fit      -0.025155
 **** Fit      -0.035887
 **** Fit       0.016188
 **** Fit       0.014477
 **** Fit       0.012926
 **** Fit       0.011182
 **** Fit       0.009216
 **** Fit       0.007117
 **** Fit       0.004951
 **** Fit      -0.002242
 **** Fit      -0.005014
 **** Fit      -0.008523
 **** Fit      -0.013326
 **** Fit      -0.019912
 **** Fit      -0.028546
 **** Fit      -0.039333
 **** Fit      -0.026336
 **** Fit      -0.011561
 **** Fit      -0.001288
 **** Fit       0.004832
 **** Fit       0.007379
 **** Fit       0.007677
 **** Fit       0.007030
 **** Fit       0.005898
 **** Fit       0.004319
 **** Fit       0.002377
 **** Fit       0.000178
 **** Fit      -0.007395
 **** Fit      -0.011100
 **** Fit      -0.016184
 **** Fit      -0.023192
 **** Fit      -0.032302
 **** Fit      -0.042955
 **** Fit      -0.025249
 **** Fit      -0.013337
 **** Fit      -0.005669
 **** Fit      -0.001862
 **** Fit      -0.000677
 **** Fit      -0.001031
 **** Fit      -0.002412
 **** Fit      -0.004564
 **** Fit      -0.012601
 **** Fit      -0.017654
 **** Fit      -0.024944
 **** Fit      -0.033944
 **** Fit      -0.041659
 **** Fit      -0.042524
 **** Fit      -0.034318
 **** Fit      -0.022645
 **** Fit      -0.013655
 **** Fit      -0.009109
 **** Fit      -0.008083
 **** Fit      -0.009432
 **** Fit      -0.017849
 **** Fit      -0.024982
 **** Fit      -0.031810
 **** Fit      -0.028659
 **** Fit      -0.019437
 **** Fit      -0.015383
 **** Fit      -0.023179
 **** Fit       0.054669
 **** Fit      -0.006353
 **** Fit       0.043142
 **** Fit       0.046696
 **** Fit       0.040160
 **** Fit       0.039461
 **** Fit       0.038380
 **** Fit       0.040627
 **** Fit       0.038800
 **** Fit       0.036861
 **** Fit       0.033516
 **** Fit       0.047785
 **** Fit       0.040082
 **** Fit       0.037820
 **** Fit       0.035159
 **** Fit       0.031204
 **** Fit       0.024853
 **** Fit       0.022330
 **** Fit       0.031810
 **** Fit       0.038197
 **** Fit       0.041450
 **** Fit       0.042742
 **** Fit       0.042868
 **** Fit       0.041923
 **** Fit       0.036322
 **** Fit       0.033390
 **** Fit       0.028645
 **** Fit       0.021439
 **** Fit       0.013237
 **** Fit       0.008518
 **** Fit       0.011212
 **** Fit       0.019608
 **** Fit       0.028600
 **** Fit       0.034716
 **** Fit       0.037478
 **** Fit       0.037808
 **** Fit       0.031731
 **** Fit       0.026899
 **** Fit       0.020013
 **** Fit       0.019496
 **** Fit       0.026730
 **** Fit       0.031980
 **** Fit       0.026202
 **** Fit       0.042677
 **** Fit       0.050384
 **** Fit       0.044945
 **** Fit       0.051748
 **** Fit       0.044027
 **** Fit       0.049120
 **** Fit       0.018436
 **** Fit       0.040184
 **** Fit       0.042728
 **** Fit       0.041432
 **** Fit       0.034591
 **** Fit       0.022446
 **** Fit       0.006523
 **** Fit       0.033321
 **** Fit       0.031171
 **** Fit       0.022211
 **** Fit       0.007633
 **** Fit       0.021650
 **** Fit      -0.039503
 **** Fit      -0.010505
 **** Fit      -0.010029
 **** Fit      -0.011599
 **** Fit      -0.012302
 **** Fit      -0.009424
 **** Fit      -0.009103
 **** Fit      -0.009618
 **** Fit      -0.011032
 **** Fit      -0.012702
 **** Fit      -0.014172
 **** Fit      -0.014619
 **** Fit      -0.007924
 **** Fit      -0.008006
 **** Fit      -0.008586
 **** Fit      -0.009328
 **** Fit      -0.010538
 **** Fit      -0.017187
 **** Fit      -0.017629
 **** Fit      -0.006974
 **** Fit      -0.007143
 **** Fit      -0.007602
 **** Fit      -0.008344
 **** Fit      -0.009206
 **** Fit      -0.021319
 **** Fit      -0.021462
 **** Fit      -0.006254
 **** Fit      -0.006409
 **** Fit      -0.006793
 **** Fit      -0.007418
 **** Fit      -0.008240
 **** Fit      -0.009294
 **** Fit      -0.026384
 **** Fit      -0.026718
 **** Fit      -0.005683
 **** Fit      -0.005689
 **** Fit      -0.005847
 **** Fit      -0.006206
 **** Fit      -0.006775
 **** Fit      -0.007518
 **** Fit      -0.008376
 **** Fit      -0.009624
 **** Fit      -0.033529
 **** Fit      -0.033251
 **** Fit      -0.005239
 **** Fit      -0.005191
 **** Fit      -0.005289
 **** Fit      -0.005591
 **** Fit      -0.006122
 **** Fit      -0.006857
 **** Fit      -0.007733
 **** Fit      -0.008674
 **** Fit      -0.010224
 **** Fit      -0.041916
 **** Fit      -0.042447
 **** Fit      -0.041485
 **** Fit      -0.005080
 **** Fit      -0.004878
 **** Fit      -0.004768
 **** Fit      -0.008206
 **** Fit      -0.009232
 **** Fit      -0.011128
 **** Fit      -0.004950
 **** Fit      -0.004636
 **** Fit      -0.010064
 **** Fit      -0.012382
 **** Fit      -0.013458
 **** Fit      -0.004933
 **** Fit      -0.004489
 **** Fit      -0.014057
 **** Fit      -0.015193
 **** Fit      -0.006185
 **** Fit      -0.005278
 **** Fit      -0.004584
 **** Fit      -0.016257
 **** Fit      -0.017445
 **** Fit      -0.008534
 **** Fit      -0.006980
 **** Fit      -0.005573
 **** Fit      -0.004611
 **** Fit      -0.019128
 **** Fit      -0.020261
 **** Fit      -0.021762
 **** Fit      -0.008438
 **** Fit      -0.006209
 **** Fit      -0.022849
 **** Fit      -0.023765
 **** Fit      -0.025274
 **** Fit      -0.027570
 **** Fit      -0.027621
 **** Fit      -0.028128
 **** Fit      -0.029646
 **** Fit      -0.032332
 **** Fit      -0.036387
 **** Fit      -0.033358
 **** Fit      -0.034848
 **** Fit      -0.038106
 **** Fit      -0.005474
 **** Fit      -0.006009
 **** Fit      -0.004753
 **** Fit      -0.005013
 **** Fit      -0.005536
 **** Fit      -0.006272
 **** Fit      -0.007169
 **** Fit      -0.008849
 **** Fit      -0.004351
 **** Fit      -0.004350
 **** Fit      -0.004645
 **** Fit      -0.005188
 **** Fit      -0.005919
 **** Fit      -0.006792
 **** Fit      -0.007776
 **** Fit      -0.009834
 **** Fit      -0.004261
 **** Fit      -0.004004
 **** Fit      -0.004090
 **** Fit      -0.004481
 **** Fit      -0.005104
 **** Fit      -0.005883
 **** Fit      -0.006763
 **** Fit      -0.007716
 **** Fit      -0.008738
 **** Fit      -0.011238
 **** Fit      -0.012461
 **** Fit      -0.004226
 **** Fit      -0.003813
 **** Fit      -0.003863
 **** Fit      -0.004321
 **** Fit      -0.005075
 **** Fit      -0.005998
 **** Fit      -0.006995
 **** Fit      -0.008013
 **** Fit      -0.009044
 **** Fit      -0.010108
 **** Fit      -0.013218
 **** Fit      -0.014425
 **** Fit      -0.004405
 **** Fit      -0.003754
 **** Fit      -0.003750
 **** Fit      -0.004327
 **** Fit      -0.005314
 **** Fit      -0.006512
 **** Fit      -0.007757
 **** Fit      -0.008951
 **** Fit      -0.010058
 **** Fit      -0.011100
 **** Fit      -0.012131
 **** Fit      -0.016001
 **** Fit      -0.017115
 **** Fit      -0.004130
 **** Fit      -0.003723
 **** Fit      -0.004269
 **** Fit      -0.005541
 **** Fit      -0.007211
 **** Fit      -0.008967
 **** Fit      -0.010595
 **** Fit      -0.011988
 **** Fit      -0.013143
 **** Fit      -0.014127
 **** Fit      -0.015041
 **** Fit      -0.019925
 **** Fit      -0.020831
 **** Fit      -0.004806
 **** Fit      -0.004068
 **** Fit      -0.004985
 **** Fit      -0.007127
 **** Fit      -0.009844
 **** Fit      -0.012543
 **** Fit      -0.014835
 **** Fit      -0.016563
 **** Fit      -0.017762
 **** Fit      -0.018587
 **** Fit      -0.019239
 **** Fit      -0.025902
 **** Fit      -0.013224
 **** Fit      -0.012289
 **** Fit      -0.014160
 **** Fit      -0.015486
 **** Fit      -0.011664
 **** Fit      -0.013243
 **** Fit      -0.015252
 **** Fit      -0.017246
 **** Fit      -0.018425
 **** Fit      -0.011348
 **** Fit      -0.012700
 **** Fit      -0.014461
 **** Fit      -0.016604
 **** Fit      -0.018918
 **** Fit      -0.020987
 **** Fit      -0.022278
 **** Fit      -0.022300
 **** Fit      -0.010327
 **** Fit      -0.011351
 **** Fit      -0.012599
 **** Fit      -0.014219
 **** Fit      -0.016281
 **** Fit      -0.018763
 **** Fit      -0.021506
 **** Fit      -0.024196
 **** Fit      -0.026398
 **** Fit      -0.027649
 **** Fit      -0.027537
 **** Fit      -0.010361
 **** Fit      -0.011695
 **** Fit      -0.012898
 **** Fit      -0.014462
 **** Fit      -0.016495
 **** Fit      -0.019056
 **** Fit      -0.022118
 **** Fit      -0.025527
 **** Fit      -0.028965
 **** Fit      -0.031985
 **** Fit      -0.034106
 **** Fit      -0.034893
 **** Fit      -0.010718
 **** Fit      -0.012412
 **** Fit      -0.013571
 **** Fit      -0.015074
 **** Fit      -0.017046
 **** Fit      -0.019588
 **** Fit      -0.022764
 **** Fit      -0.026555
 **** Fit      -0.030813
 **** Fit      -0.035206
 **** Fit      -0.039230
 **** Fit      -0.011459
 **** Fit      -0.013552
 **** Fit      -0.014751
 **** Fit      -0.016331
 **** Fit      -0.018443
 **** Fit      -0.021230
 **** Fit      -0.024823
 **** Fit      -0.029304
 **** Fit      -0.034639
 **** Fit      -0.012573
 **** Fit      -0.015183
 **** Fit      -0.016420
 **** Fit      -0.018077
 **** Fit      -0.020321
 **** Fit      -0.023331
 **** Fit      -0.027302
 **** Fit      -0.032430
 **** Fit      -0.017393
 **** Fit      -0.018709
 **** Fit      -0.020521
 **** Fit      -0.023018
 **** Fit      -0.026421
 **** Fit      -0.031008
 **** Fit      -0.021781
 **** Fit      -0.023939
 **** Fit      -0.027001
 **** Fit      -0.031278
 **** Fit      -0.025739
 **** Fit      -0.028438
 **** Fit      -0.032386
 **** Fit      -0.033994
 **** Fit      -0.039019
 **** Fit      -0.009877
 **** Fit      -0.009665
 **** Fit      -0.011331
 **** Fit      -0.011687
 **** Fit      -0.010108
 **** Fit      -0.008641
 **** Fit      -0.008514
 **** Fit      -0.014246
 **** Fit      -0.014128
 **** Fit      -0.012554
 **** Fit      -0.010383
 **** Fit      -0.008633
 **** Fit      -0.007629
 **** Fit      -0.007278
 **** Fit      -0.007479
 **** Fit      -0.017754
 **** Fit      -0.017476
 **** Fit      -0.015828
 **** Fit      -0.013275
 **** Fit      -0.010700
 **** Fit      -0.008775
 **** Fit      -0.007565
 **** Fit      -0.006855
 **** Fit      -0.006506
 **** Fit      -0.006461
 **** Fit      -0.006691
 **** Fit      -0.022447
 **** Fit      -0.021694
 **** Fit      -0.019407
 **** Fit      -0.016015
 **** Fit      -0.007143
 **** Fit      -0.006502
 **** Fit      -0.006086
 **** Fit      -0.005881
 **** Fit      -0.005873
 **** Fit      -0.006046
 **** Fit      -0.028508
 **** Fit      -0.026650
 **** Fit      -0.022826
 **** Fit      -0.006644
 **** Fit      -0.006107
 **** Fit      -0.005721
 **** Fit      -0.005505
 **** Fit      -0.005453
 **** Fit      -0.036112
 **** Fit      -0.006572
 **** Fit      -0.005988
 **** Fit      -0.005569
 **** Fit      -0.005310
 **** Fit      -0.005196
 **** Fit      -0.006467
 **** Fit      -0.005871
 **** Fit      -0.005442
 **** Fit      -0.005167
 **** Fit      -0.006512
 **** Fit      -0.005929
 **** Fit      -0.005450
 **** Fit      -0.006409
 **** Fit       0.013925
 **** Fit      -0.002050
 **** Fit      -0.001499
 **** Fit      -0.002332
 **** Fit       0.027721
 **** Fit       0.027613
 **** Fit       0.029728
 **** Fit       0.032398
 **** Fit       0.032729
 **** Fit       0.034925
 **** Fit       0.037660
 **** Fit       0.042568
 **** Fit       0.027020
 **** Fit       0.039146
 **** Fit       0.040932
 **** Fit       0.042147
 **** Fit       0.042888
 **** Fit       0.043508
 **** Fit       0.044650
 **** Fit       0.041146
 **** Fit       0.029946
 **** Fit       0.018983
 **** Fit       0.037115
 **** Fit       0.035996
 **** Fit       0.036465
 **** Fit       0.037832
 **** Fit       0.039481
 **** Fit       0.041030
 **** Fit       0.042377
 **** Fit       0.043699
 **** Fit       0.045444
 **** Fit       0.048367
 **** Fit       0.040032
 **** Fit       0.030645
 **** Fit       0.021757
 **** Fit       0.014623
 **** Fit       0.010426
 **** Fit       0.009498
 **** Fit       0.011310
 **** Fit       0.015284
 **** Fit       0.021078
 **** Fit       0.038994
 **** Fit       0.037500
 **** Fit       0.037156
 **** Fit       0.037880
 **** Fit       0.039225
 **** Fit       0.040793
 **** Fit       0.042418
 **** Fit       0.044218
 **** Fit       0.046567
 **** Fit       0.049890
 **** Fit       0.045350
 **** Fit       0.038558
 **** Fit       0.031045
 **** Fit       0.024217
 **** Fit       0.019282
 **** Fit       0.016978
 **** Fit       0.017417
 **** Fit       0.020338
 **** Fit       0.025166
 **** Fit       0.030749
 **** Fit       0.035293
 **** Fit       0.037448
 **** Fit       0.037725
 **** Fit       0.037630
 **** Fit       0.038068
 **** Fit       0.039143
 **** Fit       0.040627
 **** Fit       0.042340
 **** Fit       0.044298
 **** Fit       0.046633
 **** Fit       0.049188
 **** Fit       0.050861
 **** Fit       0.049819
 **** Fit       0.042425
 **** Fit       0.036907
 **** Fit       0.030898
 **** Fit       0.026059
 **** Fit       0.023581
 **** Fit       0.023906
 **** Fit       0.026684
 **** Fit       0.030723
 **** Fit       0.034303
 **** Fit       0.036385
 **** Fit       0.037437
 **** Fit       0.038423
 **** Fit       0.039766
 **** Fit       0.041426
 **** Fit       0.043280
 **** Fit       0.045156
 **** Fit       0.046430
 **** Fit       0.045817
 **** Fit       0.040075
 **** Fit       0.035287
 **** Fit       0.030811
 **** Fit       0.028925
 **** Fit       0.030208
 **** Fit       0.033218
 **** Fit       0.035897
 **** Fit       0.037766
 **** Fit       0.039486
 **** Fit       0.041281
 **** Fit       0.042733
 **** Fit       0.042744
 **** Fit       0.038258
 **** Fit       0.034386
 **** Fit       0.033667
 **** Fit       0.036123
 **** Fit       0.038592
 **** Fit       0.039969
 **** Fit       0.036936
 **** Fit       0.016606
 **** Fit       0.015319
 **** Fit       0.021686
 **** Fit       0.021388
 **** Fit       0.021121
 **** Fit       0.021401
 **** Fit       0.024250
 **** Fit       0.025236
 **** Fit       0.025739
 **** Fit       0.026014
 **** Fit       0.026344
 **** Fit       0.023872
 **** Fit       0.026240
 **** Fit       0.028009
 **** Fit       0.029258
 **** Fit       0.030144
 **** Fit       0.030843
 **** Fit       0.031583
 **** Fit       0.023463
 **** Fit       0.025842
 **** Fit       0.028273
 **** Fit       0.030437
 **** Fit       0.032246
 **** Fit       0.033762
 **** Fit       0.035119
 **** Fit       0.036538
 **** Fit       0.027974
 **** Fit       0.029516
 **** Fit       0.031639
 **** Fit       0.033885
 **** Fit       0.036057
 **** Fit       0.038177
 **** Fit       0.040437
 **** Fit       0.034227
 **** Fit       0.035725
 **** Fit       0.037861
 **** Fit       0.040347
 -----------------------------------------------------------------
 Leave Link  602 at Sun Sep 15 01:08:48 2019, MaxMem=  1342177280 cpu:             119.8 elap:               2.5

 Test job not archived.
 1\1\GINC-C506-112\SP\RB3LYP\SVP\C54H83Ca1N15O23\PENGZHI\15-Sep-2019\0\
 \#b3lyp/svp scf=(tight,noincore) Test #IOP(5/87=12) Density=Current Po
 p=(MK,readradii) iop(6/33=2) iop(6/42=6)\\CaMKII_loop3_92.0\\0,1\C,0,2
 2.15,36.08,-1.49\C,0,22.28,34.6,-1.15\O,0,23.04,33.93,-1.85\H,0,21.31,
 36.506,-0.941\H,0,23.067,36.599,-1.211\H,0,21.979,36.194,-2.56\N,0,21.
 58,34.15,-0.11\C,0,21.77,32.86,0.52\C,0,20.67,31.9,0.08\O,0,19.47,31.9
 6,0.36\C,0,21.77,32.99,2.04\C,0,22.16,31.66,2.67\O,0,22.37,31.52,3.89\
 O,0,22.47,30.69,1.94\H,0,21.06,34.79,0.47\H,0,22.72,32.46,0.17\H,0,20.
 8,33.32,2.42\H,0,22.55,33.68,2.34\N,0,21.11,30.91,-0.69\C,0,20.31,30.1
 4,-1.62\C,0,19.33,29.27,-0.83\O,0,18.14,29.19,-1.11\C,0,21.1,29.41,-2.
 7\C,0,20.2,28.85,-3.8\C,0,20.91,27.95,-4.8\C,0,20.01,27.28,-5.84\N,0,2
 0.74,26.25,-6.6\H,0,22.11,30.87,-0.85\H,0,19.68,30.85,-2.16\H,0,21.59,
 28.6,-2.16\H,0,21.76,30.13,-3.18\H,0,19.74,29.66,-4.37\H,0,19.37,28.31
 ,-3.35\H,0,21.43,27.17,-4.24\H,0,21.72,28.5,-5.27\H,0,19.51,27.96,-6.5
 2\H,0,19.13,26.86,-5.36\H,0,21.48,25.91,-6.\H,0,20.11,25.48,-6.76\H,0,
 21.04,26.61,-7.49\N,0,19.95,28.73,0.22\C,0,19.22,27.96,1.21\C,0,18.94,
 28.69,2.52\O,0,18.08,28.2,3.25\C,0,19.98,26.65,1.38\C,0,21.27,26.83,2.
 16\O,0,21.88,25.74,2.19\O,0,21.75,27.85,2.71\H,0,20.95,28.87,0.27\H,0,
 18.24,27.74,0.79\H,0,20.19,26.37,0.34\H,0,19.38,25.99,2.\N,0,19.52,29.
 86,2.76\C,0,19.18,30.73,3.87\C,0,19.69,30.18,5.2\O,0,19.11,30.57,6.21\
 H,0,20.32,30.15,2.21\H,0,18.1,30.86,3.83\H,0,19.65,31.71,3.72\N,0,20.7
 ,29.31,5.25\C,0,21.1,28.62,6.46\C,0,21.96,29.43,7.43\O,0,22.26,28.94,8
 .51\C,0,21.72,27.3,6.02\C,0,23.13,27.37,5.45\N,0,23.85,26.28,5.7\O,0,2
 3.62,28.36,4.91\H,0,21.23,29.16,4.41\H,0,20.24,28.42,7.09\H,0,20.99,26
 .94,5.29\H,0,21.72,26.65,6.9\H,0,23.55,25.56,6.34\H,0,24.79,26.23,5.35
 \N,0,22.5,30.54,6.91\C,0,23.35,31.34,7.76\C,0,24.65,31.73,7.09\O,0,25.
 46,32.39,7.74\H,0,22.11,30.88,6.04\H,0,23.52,30.87,8.73\H,0,22.88,32.3
 2,7.85\N,0,24.97,31.27,5.87\C,0,26.28,31.35,5.27\C,0,26.16,31.55,3.76\
 O,0,25.39,30.75,3.22\C,0,27.05,30.08,5.64\C,0,27.34,29.74,7.08\C,0,28.
 38,30.33,7.81\C,0,26.63,28.65,7.6\C,0,28.7,29.77,9.05\C,0,26.92,28.07,
 8.84\C,0,28.05,28.6,9.5\O,0,28.4,28.11,10.72\H,0,24.25,30.74,5.41\H,0,
 26.82,32.22,5.64\H,0,28.01,30.06,5.14\H,0,26.48,29.25,5.23\H,0,28.96,3
 1.16,7.45\H,0,25.83,28.18,7.05\H,0,29.41,30.28,9.67\H,0,26.41,27.23,9.
 3\H,0,29.13,28.49,11.21\N,0,27.03,32.25,3.03\C,0,27.07,32.33,1.59\C,0,
 28.32,31.62,1.1\O,0,29.37,31.82,1.7\C,0,26.98,33.79,1.15\C,0,25.87,34.
 67,1.72\C,0,26.93,33.82,-0.37\C,0,26.37,36.11,1.79\H,0,27.62,32.89,3.5
 5\H,0,26.19,31.83,1.19\H,0,27.92,34.28,1.43\H,0,25.51,34.38,2.71\H,0,2
 5.,34.47,1.1\H,0,26.24,33.05,-0.72\H,0,26.5,34.72,-0.81\H,0,27.89,33.6
 6,-0.87\H,0,25.56,36.82,1.93\H,0,26.92,36.23,2.73\H,0,27.01,36.25,0.92
 \N,0,28.18,30.95,-0.05\C,0,29.2,30.09,-0.61\C,0,29.41,30.42,-2.08\O,0,
 28.59,31.18,-2.59\C,0,28.63,28.68,-0.55\O,0,29.72,27.78,-0.54\H,0,27.2
 3,30.67,-0.25\H,0,30.11,30.18,-0.02\H,0,28.09,28.43,-1.46\H,0,28.16,28
 .46,0.41\H,0,29.43,26.87,-0.51\N,0,30.4,29.85,-2.78\C,0,30.73,30.24,-4
 .13\C,0,29.72,29.99,-5.24\O,0,29.44,30.91,-6.01\C,0,32.11,29.64,-4.41\
 H,0,30.97,29.26,-2.18\H,0,30.93,31.31,-4.07\H,0,32.3,29.63,-5.48\H,0,3
 2.9,30.28,-4.01\H,0,32.23,28.63,-4.02\N,0,29.14,28.8,-5.42\C,0,28.06,2
 8.56,-6.36\C,0,26.75,29.23,-5.96\O,0,25.91,29.53,-6.81\C,0,27.97,27.06
 ,-6.63\H,0,29.58,28.02,-4.96\H,0,28.4,29.01,-7.29\H,0,27.85,26.42,-5.7
 6\H,0,27.07,26.84,-7.2\H,0,28.82,26.74,-7.24\N,0,26.58,29.53,-4.68\C,0
 ,25.48,30.32,-4.16\C,0,25.55,31.77,-4.61\O,0,24.59,32.25,-5.21\C,0,25.
 29,30.26,-2.65\C,0,25.05,28.87,-2.05\C,0,24.93,28.73,-0.54\O,0,24.3,27
 .76,-0.06\O,0,25.49,29.53,0.23\H,0,27.3,29.12,-4.1\H,0,24.51,29.97,-4.
 53\H,0,24.41,30.86,-2.41\H,0,26.1,30.76,-2.13\H,0,25.79,28.16,-2.43\H,
 0,24.15,28.49,-2.53\N,0,26.75,32.36,-4.62\C,0,27.05,33.72,-5.02\H,0,28
 .031,33.751,-5.495\H,0,26.295,34.067,-5.725\H,0,27.052,34.366,-4.142\H
 ,0,27.54,31.9,-4.2\Ca,0,24.07,28.75,2.38\O,0,26.68,28.11,2.68\H,0,26.9
 7,27.22,2.45\H,0,27.44,28.49,3.11\\Version=ES64L-G16RevA.03\State=1-A\
 HF=-5333.5480216\RMSD=2.472e-09\Dipole=5.3334393,-7.2574864,-12.768235
 9\Quadrupole=-43.6497584,17.3980206,26.2517379,-0.0028371,107.961517,1
 03.5604859\PG=C01 [X(C54H83Ca1N15O23)]\\@


 It takes a long time to grow an old friend.
                            -- John Leonard
 Job cpu time:       0 days  8 hours 56 minutes 34.2 seconds.
 Elapsed time:       0 days  0 hours 11 minutes 18.4 seconds.
 File lengths (MBytes):  RWF=   1517 Int=      0 D2E=      0 Chk=    171 Scr=      1
 Normal termination of Gaussian 16 at Sun Sep 15 01:08:49 2019.
