 Entering Gaussian System, Link 0=g16
 Initial command:
 /home1/apps/gaussian/16rA.03/g16/l1.exe "/scratch/01990/pengzhi/4329083/Gau-357564.inp" -scrdir="/scratch/01990/pengzhi/4329083/"
 Entering Link 1 = /home1/apps/gaussian/16rA.03/g16/l1.exe PID=    357565.
  
 Copyright (c) 1988,1990,1992,1993,1995,1998,2003,2009,2016,
            Gaussian, Inc.  All Rights Reserved.
  
 This is part of the Gaussian(R) 16 program.  It is based on
 the Gaussian(R) 09 system (copyright 2009, Gaussian, Inc.),
 the Gaussian(R) 03 system (copyright 2003, Gaussian, Inc.),
 the Gaussian(R) 98 system (copyright 1998, Gaussian, Inc.),
 the Gaussian(R) 94 system (copyright 1995, Gaussian, Inc.),
 the Gaussian 92(TM) system (copyright 1992, Gaussian, Inc.),
 the Gaussian 90(TM) system (copyright 1990, Gaussian, Inc.),
 the Gaussian 88(TM) system (copyright 1988, Gaussian, Inc.),
 the Gaussian 86(TM) system (copyright 1986, Carnegie Mellon
 University), and the Gaussian 82(TM) system (copyright 1983,
 Carnegie Mellon University). Gaussian is a federally registered
 trademark of Gaussian, Inc.
  
 This software contains proprietary and confidential information,
 including trade secrets, belonging to Gaussian, Inc.
  
 This software is provided under written license and may be
 used, copied, transmitted, or stored only in accord with that
 written license.
  
 The following legend is applicable only to US Government
 contracts under FAR:
  
                    RESTRICTED RIGHTS LEGEND
  
 Use, reproduction and disclosure by the US Government is
 subject to restrictions as set forth in subparagraphs (a)
 and (c) of the Commercial Computer Software - Restricted
 Rights clause in FAR 52.227-19.
  
 Gaussian, Inc.
 340 Quinnipiac St., Bldg. 40, Wallingford CT 06492
  
  
 ---------------------------------------------------------------
 Warning -- This program may not be used in any manner that
 competes with the business of Gaussian, Inc. or will provide
 assistance to any competitor of Gaussian, Inc.  The licensee
 of this program is prohibited from giving any competitor of
 Gaussian, Inc. access to this program.  By using this program,
 the user acknowledges that Gaussian, Inc. is engaged in the
 business of creating and licensing software in the field of
 computational chemistry and represents and warrants to the
 licensee that it is not a competitor of Gaussian, Inc. and that
 it will not use this program in any manner prohibited above.
 ---------------------------------------------------------------
  

 Cite this work as:
 Gaussian 16, Revision A.03,
 M. J. Frisch, G. W. Trucks, H. B. Schlegel, G. E. Scuseria, 
 M. A. Robb, J. R. Cheeseman, G. Scalmani, V. Barone, 
 G. A. Petersson, H. Nakatsuji, X. Li, M. Caricato, A. V. Marenich, 
 J. Bloino, B. G. Janesko, R. Gomperts, B. Mennucci, H. P. Hratchian, 
 J. V. Ortiz, A. F. Izmaylov, J. L. Sonnenberg, D. Williams-Young, 
 F. Ding, F. Lipparini, F. Egidi, J. Goings, B. Peng, A. Petrone, 
 T. Henderson, D. Ranasinghe, V. G. Zakrzewski, J. Gao, N. Rega, 
 G. Zheng, W. Liang, M. Hada, M. Ehara, K. Toyota, R. Fukuda, 
 J. Hasegawa, M. Ishida, T. Nakajima, Y. Honda, O. Kitao, H. Nakai, 
 T. Vreven, K. Throssell, J. A. Montgomery, Jr., J. E. Peralta, 
 F. Ogliaro, M. J. Bearpark, J. J. Heyd, E. N. Brothers, K. N. Kudin, 
 V. N. Staroverov, T. A. Keith, R. Kobayashi, J. Normand, 
 K. Raghavachari, A. P. Rendell, J. C. Burant, S. S. Iyengar, 
 J. Tomasi, M. Cossi, J. M. Millam, M. Klene, C. Adamo, R. Cammi, 
 J. W. Ochterski, R. L. Martin, K. Morokuma, O. Farkas, 
 J. B. Foresman, and D. J. Fox, Gaussian, Inc., Wallingford CT, 2016.
 
 ******************************************
 Gaussian 16:  ES64L-G16RevA.03 25-Dec-2016
                15-Sep-2019 
 ******************************************
 %chk=CaMKII_loop3_96.0.chk
 %nprocshared=48
 Will use up to   48 processors via shared memory.
 %mem=10GB
 %nosave
 ----------------------------------------------------------------------
 #b3lyp/svp scf=(tight,noincore) Test #IOP(5/87=12) Density=Current Pop
 =(MK,readradii) iop(6/33=2) iop(6/42=6)
 ----------------------------------------------------------------------
 1/30=1,38=1,172=1/1;
 2/12=2,17=6,18=5,40=1/2;
 3/5=18,7=101,11=2,25=1,30=1,74=-5/1,2,3;
 4//1;
 5/5=4,32=2,38=5,87=12/2;
 6/7=2,8=2,9=2,10=2,15=8,20=101,22=-1,28=1,33=2,42=6/1,2;
 99/5=1,9=1/99;
 -----------------
 CaMKII_loop3_96.0
 -----------------
 Symbolic Z-matrix:
 Charge =  0 Multiplicity = 1
 C                     81.72     65.67     33.17 
 C                     81.39     65.22     34.58 
 O                     81.92     64.26     35.15 
 H                     82.758    65.424    32.944 
 H                     81.065    65.161    32.463 
 H                     81.576    66.747    33.089 
 N                     80.48     65.91     35.26 
 C                     79.94     65.76     36.6 
 C                     78.81     64.74     36.58 
 O                     77.78     64.95     35.94 
 C                     79.53     67.12     37.16 
 C                     79.03     67.05     38.6 
 O                     78.85     68.12     39.23 
 O                     79.06     65.96     39.21 
 H                     80.22     66.79     34.84 
 H                     80.74     65.51     37.29 
 H                     78.74     67.5      36.51 
 H                     80.41     67.75     37.17 
 N                     78.93     63.64     37.34 
 C                     77.99     62.55     37.22 
 C                     77.       62.55     38.38 
 O                     75.94     61.94     38.25 
 C                     78.8      61.26     37.3 
 C                     78.05     60.04     36.78 
 C                     78.9      58.78     36.92 
 C                     79.13     58.38     38.37 
 N                     79.82     57.09     38.52 
 H                     79.66     63.56     38.03 
 H                     77.39     62.59     36.31 
 H                     79.11     61.11     38.33 
 H                     79.72     61.38     36.72 
 H                     77.86     60.12     35.7 
 H                     77.1      59.75     37.24 
 H                     79.89     58.97     36.5 
 H                     78.53     57.93     36.35 
 H                     78.17     58.38     38.89 
 H                     79.76     59.11     38.88 
 H                     79.84     56.69     39.45 
 H                     79.29     56.43     37.97 
 H                     80.76     57.23     38.18 
 N                     77.25     63.23     39.5 
 C                     76.28     63.34     40.56 
 C                     75.54     64.67     40.48 
 O                     74.4      64.77     40.92 
 C                     76.91     63.02     41.91 
 C                     78.14     63.87     42.23 
 O                     78.24     65.01     41.72 
 O                     78.98     63.44     43.05 
 H                     78.08     63.81     39.56 
 H                     75.5      62.59     40.44 
 H                     77.13     61.96     41.84 
 H                     76.2      63.14     42.73 
 N                     76.18     65.71     39.93 
 C                     75.49     66.96     39.66 
 C                     75.69     67.93     40.82 
 O                     74.81     68.78     40.98 
 H                     77.16     65.63     39.7 
 H                     74.42     66.76     39.59 
 H                     75.87     67.42     38.75 
 N                     76.66     67.78     41.72 
 C                     77.01     68.59     42.87 
 C                     77.76     69.87     42.56 
 O                     77.98     70.72     43.42 
 C                     77.7      67.74     43.93 
 C                     79.21     67.69     43.73 
 N                     79.93     67.58     44.85 
 O                     79.81     67.81     42.67 
 H                     77.28     66.99     41.61 
 H                     76.01     68.82     43.23 
 H                     77.38     66.69     43.92 
 H                     77.59     68.26     44.88 
 H                     79.47     67.69     45.74 
 H                     80.94     67.66     44.87 
 N                     78.12     70.13     41.29 
 C                     78.74     71.29     40.69 
 C                     80.26     71.25     40.65 
 O                     80.85     72.29     40.36 
 H                     77.98     69.39     40.62 
 H                     78.37     72.17     41.21 
 H                     78.43     71.34     39.64 
 N                     80.92     70.11     40.83 
 C                     82.34     69.93     40.62 
 C                     82.76     68.52     40.23 
 O                     81.95     67.59     40.25 
 C                     83.02     70.5      41.86 
 C                     82.61     70.07     43.25 
 C                     81.55     70.69     43.92 
 C                     83.49     69.25     43.95 
 C                     81.35     70.48     45.29 
 C                     83.38     69.07     45.34 
 C                     82.31     69.72     45.99 
 O                     82.05     69.57     47.32 
 H                     80.47     69.36     41.34 
 H                     82.63     70.56     39.78 
 H                     82.97     71.59     41.87 
 H                     84.09     70.3      41.75 
 H                     80.97     71.47     43.46 
 H                     84.34     68.91     43.37 
 H                     80.42     70.8      45.72 
 H                     84.04     68.46     45.94 
 H                     82.73     68.97     47.66 
 N                     84.02     68.28     39.88 
 C                     84.55     67.07     39.28 
 C                     85.56     66.45     40.24 
 O                     86.32     67.11     40.94 
 C                     85.23     67.38     37.95 
 C                     84.33     68.07     36.94 
 C                     85.75     66.09     37.32 
 C                     85.05     68.75     35.78 
 H                     84.68     69.05     39.95 
 H                     83.79     66.29     39.18 
 H                     86.08     68.       38.24 
 H                     83.71     68.8      37.47 
 H                     83.7      67.29     36.51 
 H                     86.16     66.26     36.33 
 H                     86.59     65.74     37.92 
 H                     84.92     65.38     37.29 
 H                     85.56     68.04     35.12 
 H                     84.35     69.34     35.19 
 H                     85.83     69.41     36.16 
 N                     85.68     65.12     40.14 
 C                     86.65     64.28     40.82 
 C                     87.43     63.47     39.79 
 O                     87.05     63.28     38.64 
 C                     85.94     63.31     41.75 
 O                     85.26     62.28     41.07 
 H                     85.23     64.76     39.31 
 H                     87.32     64.84     41.46 
 H                     85.14     63.78     42.32 
 H                     86.64     62.93     42.5 
 H                     84.74     61.81     41.73 
 N                     88.45     62.78     40.31 
 C                     89.19     61.83     39.5 
 C                     88.44     60.64     38.92 
 O                     88.63     60.4      37.73 
 C                     90.44     61.34     40.23 
 H                     88.74     62.91     41.27 
 H                     89.56     62.35     38.62 
 H                     91.02     60.64     39.62 
 H                     91.12     62.16     40.45 
 H                     90.25     60.95     41.23 
 N                     87.5      60.08     39.68 
 C                     86.57     59.07     39.22 
 C                     85.56     59.52     38.18 
 O                     85.13     58.77     37.3 
 C                     85.84     58.46     40.41 
 H                     87.45     60.4      40.63 
 H                     87.11     58.26     38.73 
 H                     85.03     59.14     40.68 
 H                     85.52     57.45     40.16 
 H                     86.45     58.33     41.31 
 N                     85.12     60.78     38.24 
 C                     84.23     61.42     37.29 
 C                     85.02     61.72     36.03 
 O                     84.55     61.46     34.92 
 C                     83.57     62.69     37.82 
 C                     82.46     62.25     38.77 
 C                     81.71     63.43     39.37 
 O                     82.06     64.63     39.35 
 O                     80.65     63.23     40.02 
 H                     85.53     61.35     38.97 
 H                     83.45     60.71     37.01 
 H                     83.17     63.23     36.96 
 H                     84.22     63.34     38.42 
 H                     82.75     61.6      39.59 
 H                     81.69     61.65     38.3 
 N                     86.25     62.22     36.08 
 C                     87.12     62.37     34.93 
 H                     88.089    61.92     35.147 
 H                     86.674    61.873    34.069 
 H                     87.253    63.429    34.71 
 H                     86.7      62.55     36.93 
 Ca                    80.59     65.6      41.26 
 O                     82.52     66.33     43.05 
 H                     83.24     66.77     43.5 
 H                     82.56     65.42     43.34 
 
 Stoichiometry    C54H83CaN15O23
 Framework group  C1[X(C54H83CaN15O23)]
 Deg. of freedom   522
 Full point group                 C1      NOp   1
 Largest Abelian subgroup         C1      NOp   1
 Largest concise Abelian subgroup C1      NOp   1
                         Standard orientation:                         
 ---------------------------------------------------------------------
 Center     Atomic      Atomic             Coordinates (Angstroms)
 Number     Number       Type             X           Y           Z
 ---------------------------------------------------------------------
      1          6           0        2.086715    2.153956    5.908115
      2          6           0        1.649230    2.113695    4.456741
      3          8           0        2.420772    2.019298    3.495902
      4          1           0        3.013838    1.591681    6.023548
      5          1           0        2.250486    3.188317    6.210159
      6          1           0        1.312606    1.710434    6.533631
      7          7           0        0.347469    2.168438    4.194022
      8          6           0       -0.399926    2.150269    2.948723
      9          6           0       -0.463753    3.559035    2.375132
     10          8           0       -1.044461    4.461336    2.977818
     11          6           0       -1.770197    1.512016    3.163877
     12          6           0       -2.580633    1.382801    1.877410
     13          8           0       -3.634430    0.702010    1.892725
     14          8           0       -2.066817    1.719584    0.789443
     15          1           0       -0.248906    2.046502    4.998924
     16          1           0        0.037607    1.423688    2.271047
     17          1           0       -2.301418    2.145701    3.876090
     18          1           0       -1.610241    0.505885    3.529275
     19          7           0        0.060821    3.776983    1.158859
     20          6           0        0.204634    5.118440    0.643193
     21          6           0       -0.871340    5.425418   -0.393023
     22          8           0       -1.118794    6.601337   -0.654904
     23          6           0        1.557135    5.176717   -0.059620
     24          6           0        2.058067    6.596440   -0.293611
     25          6           0        3.395113    6.585792   -1.029747
     26          6           0        3.278143    6.082323   -2.460913
     27          7           0        4.526105    6.204435   -3.229275
     28          1           0        0.340405    3.011117    0.566675
     29          1           0        0.117486    5.891146    1.408066
     30          1           0        1.482100    4.636300   -0.998672
     31          1           0        2.295470    4.638766    0.542601
     32          1           0        2.276400    7.103330    0.657332
     33          1           0        1.455937    7.294124   -0.884270
     34          1           0        4.074717    5.897018   -0.523458
     35          1           0        3.920530    7.538568   -1.008471
     36          1           0        2.456496    6.608092   -2.951283
     37          1           0        3.024637    5.021553   -2.480955
     38          1           0        4.461716    6.054971   -4.228682
     39          1           0        4.813915    7.167245   -3.133556
     40          1           0        5.176440    5.550125   -2.819710
     41          7           0       -1.565316    4.447386   -0.977105
     42          6           0       -2.663915    4.717558   -1.869678
     43          6           0       -3.996741    4.585017   -1.142417
     44          8           0       -4.973225    5.222233   -1.521409
     45          6           0       -2.533975    3.907765   -3.153870
     46          6           0       -2.402452    2.402594   -2.919430
     47          8           0       -2.900396    1.903313   -1.883829
     48          8           0       -1.867761    1.694240   -3.799907
     49          1           0       -1.423632    3.487033   -0.682914
     50          1           0       -2.638802    5.754861   -2.199330
     51          1           0       -1.665750    4.341891   -3.638248
     52          1           0       -3.380277    4.067531   -3.824055
     53          7           0       -4.059224    3.748841   -0.098096
     54          6           0       -5.236859    3.693610    0.751389
     55          6           0       -6.169314    2.581284    0.282604
     56          8           0       -7.366088    2.723051    0.547430
     57          1           0       -3.278061    3.141928    0.104738
     58          1           0       -5.782844    4.632730    0.652620
     59          1           0       -4.956380    3.502312    1.785234
     60          7           0       -5.762862    1.593608   -0.512817
     61          6           0       -6.487701    0.458776   -1.049346
     62          6           0       -6.723883   -0.680390   -0.077998
     63          8           0       -7.454206   -1.629737   -0.353443
     64          6           0       -5.863037   -0.000194   -2.361346
     65          6           0       -4.764245   -1.033171   -2.141772
     66          7           0       -4.629107   -1.937453   -3.115893
     67          8           0       -4.060297   -1.149488   -1.147323
     68          1           0       -4.794826    1.596049   -0.801783
     69          1           0       -7.428432    0.950597   -1.285223
     70          1           0       -5.378346    0.811948   -2.918571
     71          1           0       -6.625980   -0.556904   -2.902633
     72          1           0       -5.330155   -1.986664   -3.838326
     73          1           0       -4.025219   -2.747715   -3.040426
     74          7           0       -6.192895   -0.612748    1.156334
     75          6           0       -6.329209   -1.479914    2.305003
     76          6           0       -5.289079   -2.586155    2.394227
     77          8           0       -5.479738   -3.482782    3.214904
     78          1           0       -5.552065    0.145315    1.331773
     79          1           0       -7.342469   -1.873619    2.304890
     80          1           0       -6.180998   -0.877884    3.208714
     81          7           0       -4.170601   -2.533905    1.677375
     82          6           0       -3.041704   -3.425143    1.832888
     83          6           0       -1.694255   -2.831482    1.447468
     84          8           0       -1.621662   -1.727087    0.903003
     85          6           0       -3.424591   -4.712286    1.110695
     86          6           0       -3.920499   -4.695663   -0.317205
     87          6           0       -5.271101   -4.486508   -0.615580
     88          6           0       -3.058731   -5.177964   -1.297787
     89          6           0       -5.766498   -4.739208   -1.900774
     90          6           0       -3.522054   -5.522103   -2.579778
     91          6           0       -4.891651   -5.314107   -2.845938
     92          8           0       -5.451331   -5.539049   -4.068705
     93          1           0       -4.159514   -1.982321    0.828416
     94          1           0       -2.957980   -3.667085    2.891687
     95          1           0       -4.178830   -5.267837    1.670327
     96          1           0       -2.549244   -5.367241    1.153151
     97          1           0       -5.997312   -4.298667    0.154961
     98          1           0       -2.063523   -5.414551   -0.939894
     99          1           0       -6.746136   -4.375085   -2.145565
    100          1           0       -2.906513   -5.914816   -3.376388
    101          1           0       -4.733920   -5.854160   -4.637938
    102          7           0       -0.579702   -3.517172    1.682629
    103          6           0        0.785343   -3.035174    1.586037
    104          6           0        1.505564   -3.821419    0.495532
    105          8           0        1.313952   -5.013742    0.283754
    106          6           0        1.515747   -3.212562    2.913607
    107          6           0        0.840069   -2.528026    4.088796
    108          6           0        2.937892   -2.668475    2.800148
    109          6           0        1.290822   -2.999664    5.467484
    110          1           0       -0.678534   -4.456201    2.059267
    111          1           0        0.836025   -2.004230    1.224670
    112          1           0        1.559927   -4.296318    3.034117
    113          1           0       -0.242421   -2.656409    3.989126
    114          1           0        1.097171   -1.470389    4.014619
    115          1           0        3.458366   -2.695356    3.751718
    116          1           0        3.500554   -3.337123    2.148672
    117          1           0        2.870809   -1.649143    2.412384
    118          1           0        2.335492   -2.750358    5.682684
    119          1           0        0.658492   -2.569830    6.243113
    120          1           0        1.229661   -4.086352    5.528879
    121          7           0        2.496834   -3.154793   -0.109691
    122          6           0        3.438261   -3.686413   -1.079224
    123          6           0        4.861885   -3.446530   -0.588152
    124          8           0        5.158767   -2.624381    0.271459
    125          6           0        3.269342   -2.978753   -2.413609
    126          8           0        3.749834   -1.654063   -2.408538
    127          1           0        2.742336   -2.308762    0.385244
    128          1           0        3.275329   -4.734364   -1.296831
    129          1           0        2.225068   -2.846285   -2.692434
    130          1           0        3.704746   -3.582473   -3.215385
    131          1           0        3.475557   -1.257809   -3.241998
    132          7           0        5.796062   -4.036517   -1.340567
    133          6           0        7.204929   -3.773820   -1.111910
    134          6           0        7.708102   -2.347691   -1.279164
    135          8           0        8.427244   -1.912030   -0.383153
    136          6           0        8.081621   -4.724089   -1.926711
    137          1           0        5.549177   -4.686897   -2.074497
    138          1           0        7.428331   -4.001354   -0.072670
    139          1           0        9.147391   -4.551681   -1.745296
    140          1           0        7.908028   -5.761759   -1.650475
    141          1           0        7.846951   -4.747450   -2.990940
    142          7           0        7.180354   -1.624667   -2.265834
    143          6           0        7.402700   -0.205770   -2.449934
    144          6           0        6.823741    0.702565   -1.380386
    145          8           0        7.357513    1.763290   -1.046097
    146          6           0        6.888285    0.224225   -3.817992
    147          1           0        6.588540   -2.118351   -2.908821
    148          1           0        8.470617    0.010941   -2.430175
    149          1           0        5.809136    0.363795   -3.732217
    150          1           0        7.434616    1.105244   -4.150148
    151          1           0        7.044932   -0.503566   -4.620976
    152          7           0        5.682882    0.329495   -0.793819
    153          6           0        5.024706    1.010921    0.304662
    154          6           0        5.808339    0.729829    1.572971
    155          8           0        6.077491    1.642418    2.357406
    156          6           0        3.560362    0.620631    0.485691
    157          6           0        2.772206    1.334949   -0.608274
    158          6           0        1.282304    1.034600   -0.538408
    159          8           0        0.729562    0.130107    0.124365
    160          8           0        0.478959    1.694682   -1.249062
    161          1           0        5.309471   -0.562297   -1.095763
    162          1           0        5.082132    2.086934    0.132037
    163          1           0        3.257126    0.953737    1.479818
    164          1           0        3.339686   -0.445860    0.348222
    165          1           0        3.090229    1.159120   -1.631478
    166          1           0        2.833426    2.415614   -0.561209
    167          7           0        6.269292   -0.484273    1.853822
    168          6           0        7.163955   -0.785896    2.954051
    169          1           0        8.017654   -1.353041    2.582440
    170          1           0        7.513658    0.142895    3.403829
    171          1           0        6.634730   -1.375556    3.702243
    172          1           0        6.036212   -1.321625    1.326172
    173         20           0       -1.575550   -0.009305   -1.065981
    174          8           0       -1.443753   -2.530300   -2.109587
    175          1           0       -1.425156   -3.479312   -2.225910
    176          1           0       -0.924580   -2.177691   -2.830646
 ---------------------------------------------------------------------
 Rotational constants (GHZ):           0.0240014           0.0156726           0.0124994
 Standard basis: SVP (5D, 7F)
 There are  1809 symmetry adapted cartesian basis functions of A   symmetry.
 There are  1717 symmetry adapted basis functions of A   symmetry.
  1717 basis functions,  2922 primitive gaussians,  1809 cartesian basis functions
   358 alpha electrons      358 beta electrons
       nuclear repulsion energy     21927.0598885104 Hartrees.
 NAtoms=  176 NActive=  176 NUniq=  176 SFac= 1.00D+00 NAtFMM=   60 NAOKFM=T Big=T
 Integral buffers will be    131072 words long.
 Raffenetti 2 integral format.
 Two-electron integral symmetry is turned on.
 One-electron integrals computed using PRISM.
 NBasis=  1717 RedAO= T EigKep=  2.75D-04  NBF=  1717
 NBsUse=  1717 1.00D-06 EigRej= -1.00D+00 NBFU=  1717
 ExpMin= 1.98D-02 ExpMax= 3.51D+04 ExpMxC= 5.28D+03 IAcc=3 IRadAn=         5 AccDes= 0.00D+00
 Harris functional with IExCor=  402 and IRadAn=       5 diagonalized for initial guess.
 HarFok:  IExCor=  402 AccDes= 0.00D+00 IRadAn=         5 IDoV= 1 UseB2=F ITyADJ=14
 ICtDFT=  3500011 ScaDFX=  1.000000  1.000000  1.000000  1.000000
 FoFCou: FMM=F IPFlag=           0 FMFlag=      100000 FMFlg1=        2001
         NFxFlg=           0 DoJE=T BraDBF=F KetDBF=T FulRan=T
         wScrn=  0.000000 ICntrl=       500 IOpCl=  0 I1Cent=   200000004 NGrid=           0
         NMat0=    1 NMatS0=      1 NMatT0=    0 NMatD0=    1 NMtDS0=    0 NMtDT0=    0
 Petite list used in FoFCou.
 Requested convergence on RMS density matrix=1.00D-08 within 128 cycles.
 Requested convergence on MAX density matrix=1.00D-06.
 Requested convergence on             energy=1.00D-06.
 No special actions if energy rises.
 EnCoef did     4 forward-backward iterations
 SCF Done:  E(RB3LYP) =  -5333.57482351     A.U. after   18 cycles
            NFock= 18  Conv=0.55D-08     -V/T= 2.0081
 SCF density gives NOpUse=  1 NOpAll=  1.
 Hyperfine terms turned off by default for NAtoms > 100.

 **********************************************************************

            Population analysis using the SCF density.

 **********************************************************************

 Orbital symmetries:
 BldTbl:  Degeneracy threshold= 1.00D-02
       Occupied  (A) (A) (A) (A) (A) (A) (A) (A) (A) (A) (A) (A)
                 (A) (A) (A) (A) (A) (A) (A) (A) (A) (A) (A) (A)
                 (A) (A) (A) (A) (A) (A) (A) (A) (A) (A) (A) (A)
                 (A) (A) (A) (A) (A) (A) (A) (A) (A) (A) (A) (A)
                 (A) (A) (A) (A) (A) (A) (A) (A) (A) (A) (A) (A)
                 (A) (A) (A) (A) (A) (A) (A) (A) (A) (A) (A) (A)
                 (A) (A) (A) (A) (A) (A) (A) (A) (A) (A) (A) (A)
                 (A) (A) (A) (A) (A) (A) (A) (A) (A) (A) (A) (A)
                 (A) (A) (A) (A) (A) (A) (A) (A) (A) (A) (A) (A)
                 (A) (A) (A) (A) (A) (A) (A) (A) (A) (A) (A) (A)
                 (A) (A) (A) (A) (A) (A) (A) (A) (A) (A) (A) (A)
                 (A) (A) (A) (A) (A) (A) (A) (A) (A) (A) (A) (A)
                 (A) (A) (A) (A) (A) (A) (A) (A) (A) (A) (A) (A)
                 (A) (A) (A) (A) (A) (A) (A) (A) (A) (A) (A) (A)
                 (A) (A) (A) (A) (A) (A) (A) (A) (A) (A) (A) (A)
                 (A) (A) (A) (A) (A) (A) (A) (A) (A) (A) (A) (A)
                 (A) (A) (A) (A) (A) (A) (A) (A) (A) (A) (A) (A)
                 (A) (A) (A) (A) (A) (A) (A) (A) (A) (A) (A) (A)
                 (A) (A) (A) (A) (A) (A) (A) (A) (A) (A) (A) (A)
                 (A) (A) (A) (A) (A) (A) (A) (A) (A) (A) (A) (A)
                 (A) (A) (A) (A) (A) (A) (A) (A) (A) (A) (A) (A)
                 (A) (A) (A) (A) (A) (A) (A) (A) (A) (A) (A) (A)
                 (A) (A) (A) (A) (A) (A) (A) (A) (A) (A) (A) (A)
                 (A) (A) (A) (A) (A) (A) (A) (A) (A) (A) (A) (A)
                 (A) (A) (A) (A) (A) (A) (A) (A) (A) (A) (A) (A)
                 (A) (A) (A) (A) (A) (A) (A) (A) (A) (A) (A) (A)
                 (A) (A) (A) (A) (A) (A) (A) (A) (A) (A) (A) (A)
                 (A) (A) (A) (A) (A) (A) (A) (A) (A) (A) (A) (A)
                 (A) (A) (A) (A) (A) (A) (A) (A) (A) (A) (A) (A)
                 (A) (A) (A) (A) (A) (A) (A) (A) (A) (A)
       Virtual   (A) (A) (A) (A) (A) (A) (A) (A) (A) (A) (A) (A)
                 (A) (A) (A) (A) (A) (A) (A) (A) (A) (A) (A) (A)
                 (A) (A) (A) (A) (A) (A) (A) (A) (A) (A) (A) (A)
                 (A) (A) (A) (A) (A) (A) (A) (A) (A) (A) (A) (A)
                 (A) (A) (A) (A) (A) (A) (A) (A) (A) (A) (A) (A)
                 (A) (A) (A) (A) (A) (A) (A) (A) (A) (A) (A) (A)
                 (A) (A) (A) (A) (A) (A) (A) (A) (A) (A) (A) (A)
                 (A) (A) (A) (A) (A) (A) (A) (A) (A) (A) (A) (A)
                 (A) (A) (A) (A) (A) (A) (A) (A) (A) (A) (A) (A)
                 (A) (A) (A) (A) (A) (A) (A) (A) (A) (A) (A) (A)
                 (A) (A) (A) (A) (A) (A) (A) (A) (A) (A) (A) (A)
                 (A) (A) (A) (A) (A) (A) (A) (A) (A) (A) (A) (A)
                 (A) (A) (A) (A) (A) (A) (A) (A) (A) (A) (A) (A)
                 (A) (A) (A) (A) (A) (A) (A) (A) (A) (A) (A) (A)
                 (A) (A) (A) (A) (A) (A) (A) (A) (A) (A) (A) (A)
                 (A) (A) (A) (A) (A) (A) (A) (A) (A) (A) (A) (A)
                 (A) (A) (A) (A) (A) (A) (A) (A) (A) (A) (A) (A)
                 (A) (A) (A) (A) (A) (A) (A) (A) (A) (A) (A) (A)
                 (A) (A) (A) (A) (A) (A) (A) (A) (A) (A) (A) (A)
                 (A) (A) (A) (A) (A) (A) (A) (A) (A) (A) (A) (A)
                 (A) (A) (A) (A) (A) (A) (A) (A) (A) (A) (A) (A)
                 (A) (A) (A) (A) (A) (A) (A) (A) (A) (A) (A) (A)
                 (A) (A) (A) (A) (A) (A) (A) (A) (A) (A) (A) (A)
                 (A) (A) (A) (A) (A) (A) (A) (A) (A) (A) (A) (A)
                 (A) (A) (A) (A) (A) (A) (A) (A) (A) (A) (A) (A)
                 (A) (A) (A) (A) (A) (A) (A) (A) (A) (A) (A) (A)
                 (A) (A) (A) (A) (A) (A) (A) (A) (A) (A) (A) (A)
                 (A) (A) (A) (A) (A) (A) (A) (A) (A) (A) (A) (A)
                 (A) (A) (A) (A) (A) (A) (A) (A) (A) (A) (A) (A)
                 (A) (A) (A) (A) (A) (A) (A) (A) (A) (A) (A) (A)
                 (A) (A) (A) (A) (A) (A) (A) (A) (A) (A) (A) (A)
                 (A) (A) (A) (A) (A) (A) (A) (A) (A) (A) (A) (A)
                 (A) (A) (A) (A) (A) (A) (A) (A) (A) (A) (A) (A)
                 (A) (A) (A) (A) (A) (A) (A) (A) (A) (A) (A) (A)
                 (A) (A) (A) (A) (A) (A) (A) (A) (A) (A) (A) (A)
                 (A) (A) (A) (A) (A) (A) (A) (A) (A) (A) (A) (A)
                 (A) (A) (A) (A) (A) (A) (A) (A) (A) (A) (A) (A)
                 (A) (A) (A) (A) (A) (A) (A) (A) (A) (A) (A) (A)
                 (A) (A) (A) (A) (A) (A) (A) (A) (A) (A) (A) (A)
                 (A) (A) (A) (A) (A) (A) (A) (A) (A) (A) (A) (A)
                 (A) (A) (A) (A) (A) (A) (A) (A) (A) (A) (A) (A)
                 (A) (A) (A) (A) (A) (A) (A) (A) (A) (A) (A) (A)
                 (A) (A) (A) (A) (A) (A) (A) (A) (A) (A) (A) (A)
                 (A) (A) (A) (A) (A) (A) (A) (A) (A) (A) (A) (A)
                 (A) (A) (A) (A) (A) (A) (A) (A) (A) (A) (A) (A)
                 (A) (A) (A) (A) (A) (A) (A) (A) (A) (A) (A) (A)
                 (A) (A) (A) (A) (A) (A) (A) (A) (A) (A) (A) (A)
                 (A) (A) (A) (A) (A) (A) (A) (A) (A) (A) (A) (A)
                 (A) (A) (A) (A) (A) (A) (A) (A) (A) (A) (A) (A)
                 (A) (A) (A) (A) (A) (A) (A) (A) (A) (A) (A) (A)
                 (A) (A) (A) (A) (A) (A) (A) (A) (A) (A) (A) (A)
                 (A) (A) (A) (A) (A) (A) (A) (A) (A) (A) (A) (A)
                 (A) (A) (A) (A) (A) (A) (A) (A) (A) (A) (A) (A)
                 (A) (A) (A) (A) (A) (A) (A) (A) (A) (A) (A) (A)
                 (A) (A) (A) (A) (A) (A) (A) (A) (A) (A) (A) (A)
                 (A) (A) (A) (A) (A) (A) (A) (A) (A) (A) (A) (A)
                 (A) (A) (A) (A) (A) (A) (A) (A) (A) (A) (A) (A)
                 (A) (A) (A) (A) (A) (A) (A) (A) (A) (A) (A) (A)
                 (A) (A) (A) (A) (A) (A) (A) (A) (A) (A) (A) (A)
                 (A) (A) (A) (A) (A) (A) (A) (A) (A) (A) (A) (A)
                 (A) (A) (A) (A) (A) (A) (A) (A) (A) (A) (A) (A)
                 (A) (A) (A) (A) (A) (A) (A) (A) (A) (A) (A) (A)
                 (A) (A) (A) (A) (A) (A) (A) (A) (A) (A) (A) (A)
                 (A) (A) (A) (A) (A) (A) (A) (A) (A) (A) (A) (A)
                 (A) (A) (A) (A) (A) (A) (A) (A) (A) (A) (A) (A)
                 (A) (A) (A) (A) (A) (A) (A) (A) (A) (A) (A) (A)
                 (A) (A) (A) (A) (A) (A) (A) (A) (A) (A) (A) (A)
                 (A) (A) (A) (A) (A) (A) (A) (A) (A) (A) (A) (A)
                 (A) (A) (A) (A) (A) (A) (A) (A) (A) (A) (A) (A)
                 (A) (A) (A) (A) (A) (A) (A) (A) (A) (A) (A) (A)
                 (A) (A) (A) (A) (A) (A) (A) (A) (A) (A) (A) (A)
                 (A) (A) (A) (A) (A) (A) (A) (A) (A) (A) (A) (A)
                 (A) (A) (A) (A) (A) (A) (A) (A) (A) (A) (A) (A)
                 (A) (A) (A) (A) (A) (A) (A) (A) (A) (A) (A) (A)
                 (A) (A) (A) (A) (A) (A) (A) (A) (A) (A) (A) (A)
                 (A) (A) (A) (A) (A) (A) (A) (A) (A) (A) (A) (A)
                 (A) (A) (A) (A) (A) (A) (A) (A) (A) (A) (A) (A)
                 (A) (A) (A) (A) (A) (A) (A) (A) (A) (A) (A) (A)
                 (A) (A) (A) (A) (A) (A) (A) (A) (A) (A) (A) (A)
                 (A) (A) (A) (A) (A) (A) (A) (A) (A) (A) (A) (A)
                 (A) (A) (A) (A) (A) (A) (A) (A) (A) (A) (A) (A)
                 (A) (A) (A) (A) (A) (A) (A) (A) (A) (A) (A) (A)
                 (A) (A) (A) (A) (A) (A) (A) (A) (A) (A) (A) (A)
                 (A) (A) (A) (A) (A) (A) (A) (A) (A) (A) (A) (A)
                 (A) (A) (A) (A) (A) (A) (A) (A) (A) (A) (A) (A)
                 (A) (A) (A) (A) (A) (A) (A) (A) (A) (A) (A) (A)
                 (A) (A) (A) (A) (A) (A) (A) (A) (A) (A) (A) (A)
                 (A) (A) (A) (A) (A) (A) (A) (A) (A) (A) (A) (A)
                 (A) (A) (A) (A) (A) (A) (A) (A) (A) (A) (A) (A)
                 (A) (A) (A) (A) (A) (A) (A) (A) (A) (A) (A) (A)
                 (A) (A) (A) (A) (A) (A) (A) (A) (A) (A) (A) (A)
                 (A) (A) (A) (A) (A) (A) (A) (A) (A) (A) (A) (A)
                 (A) (A) (A) (A) (A) (A) (A) (A) (A) (A) (A) (A)
                 (A) (A) (A) (A) (A) (A) (A) (A) (A) (A) (A) (A)
                 (A) (A) (A) (A) (A) (A) (A) (A) (A) (A) (A) (A)
                 (A) (A) (A) (A) (A) (A) (A) (A) (A) (A) (A) (A)
                 (A) (A) (A) (A) (A) (A) (A) (A) (A) (A) (A) (A)
                 (A) (A) (A) (A) (A) (A) (A) (A) (A) (A) (A) (A)
                 (A) (A) (A) (A) (A) (A) (A) (A) (A) (A) (A) (A)
                 (A) (A) (A) (A) (A) (A) (A) (A) (A) (A) (A) (A)
                 (A) (A) (A) (A) (A) (A) (A) (A) (A) (A) (A) (A)
                 (A) (A) (A) (A) (A) (A) (A) (A) (A) (A) (A) (A)
                 (A) (A) (A) (A) (A) (A) (A) (A) (A) (A) (A) (A)
                 (A) (A) (A) (A) (A) (A) (A) (A) (A) (A) (A) (A)
                 (A) (A) (A) (A) (A) (A) (A) (A) (A) (A) (A) (A)
                 (A) (A) (A) (A) (A) (A) (A) (A) (A) (A) (A) (A)
                 (A) (A) (A) (A) (A) (A) (A) (A) (A) (A) (A) (A)
                 (A) (A) (A) (A) (A) (A) (A) (A) (A) (A) (A) (A)
                 (A) (A) (A) (A) (A) (A) (A) (A) (A) (A) (A) (A)
                 (A) (A) (A) (A) (A) (A) (A) (A) (A) (A) (A) (A)
                 (A) (A) (A) (A) (A) (A) (A) (A) (A) (A) (A) (A)
                 (A) (A) (A) (A) (A) (A) (A) (A) (A) (A) (A) (A)
                 (A) (A) (A) (A) (A) (A) (A) (A) (A) (A) (A) (A)
                 (A) (A) (A)
 The electronic state is 1-A.
 Alpha  occ. eigenvalues -- -145.36531 -19.20067 -19.19538 -19.17514 -19.16099
 Alpha  occ. eigenvalues --  -19.12221 -19.11971 -19.11075 -19.10953 -19.09725
 Alpha  occ. eigenvalues --  -19.07074 -19.06228 -19.06092 -19.05995 -19.05931
 Alpha  occ. eigenvalues --  -19.05723 -19.05652 -19.05171 -19.04747 -19.03694
 Alpha  occ. eigenvalues --  -19.03350 -19.03241 -19.02950 -19.02140 -15.42258
 Alpha  occ. eigenvalues --  -14.57986 -14.41452 -14.39161 -14.37744 -14.37056
 Alpha  occ. eigenvalues --  -14.35472 -14.35236 -14.32505 -14.32078 -14.31631
 Alpha  occ. eigenvalues --  -14.31510 -14.31127 -14.30164 -14.29730 -14.28061
 Alpha  occ. eigenvalues --  -12.55889 -12.55830 -12.55810 -10.34310 -10.33446
 Alpha  occ. eigenvalues --  -10.30997 -10.30124 -10.30099 -10.29738 -10.29504
 Alpha  occ. eigenvalues --  -10.28715 -10.28679 -10.26953 -10.26142 -10.26132
 Alpha  occ. eigenvalues --  -10.26074 -10.25955 -10.25868 -10.24934 -10.24582
 Alpha  occ. eigenvalues --  -10.24564 -10.24520 -10.24441 -10.23906 -10.23241
 Alpha  occ. eigenvalues --  -10.23200 -10.23188 -10.23086 -10.22795 -10.22250
 Alpha  occ. eigenvalues --  -10.22134 -10.22093 -10.21784 -10.21129 -10.20852
 Alpha  occ. eigenvalues --  -10.20628 -10.20364 -10.20195 -10.19955 -10.19363
 Alpha  occ. eigenvalues --  -10.19362 -10.19289 -10.19283 -10.18998 -10.18937
 Alpha  occ. eigenvalues --  -10.18909 -10.18822 -10.18703 -10.18410 -10.18214
 Alpha  occ. eigenvalues --  -10.18004 -10.17952 -10.17861 -10.17844 -10.16808
 Alpha  occ. eigenvalues --  -10.15246 -10.14932  -1.79179  -1.13218  -1.09463
 Alpha  occ. eigenvalues --   -1.08045  -1.07018  -1.06742  -1.06562  -1.06267
 Alpha  occ. eigenvalues --   -1.05479  -1.05296  -1.05118  -1.03982  -1.03884
 Alpha  occ. eigenvalues --   -1.02695  -1.02177  -0.99793  -0.99472  -0.99323
 Alpha  occ. eigenvalues --   -0.98799  -0.98693  -0.98542  -0.98476  -0.98044
 Alpha  occ. eigenvalues --   -0.97894  -0.96647  -0.95875  -0.95852  -0.95060
 Alpha  occ. eigenvalues --   -0.93537  -0.91757  -0.90495  -0.90263  -0.89698
 Alpha  occ. eigenvalues --   -0.89476  -0.88853  -0.88686  -0.87910  -0.87820
 Alpha  occ. eigenvalues --   -0.87454  -0.87357  -0.87355  -0.86411  -0.85493
 Alpha  occ. eigenvalues --   -0.84711  -0.84251  -0.82573  -0.81229  -0.79955
 Alpha  occ. eigenvalues --   -0.79655  -0.78839  -0.78280  -0.76316  -0.75935
 Alpha  occ. eigenvalues --   -0.75365  -0.75205  -0.74497  -0.73434  -0.73321
 Alpha  occ. eigenvalues --   -0.73218  -0.72437  -0.71580  -0.71316  -0.70782
 Alpha  occ. eigenvalues --   -0.70661  -0.69911  -0.69477  -0.67787  -0.67691
 Alpha  occ. eigenvalues --   -0.66927  -0.66836  -0.66079  -0.65477  -0.64725
 Alpha  occ. eigenvalues --   -0.63743  -0.63305  -0.63120  -0.62763  -0.62401
 Alpha  occ. eigenvalues --   -0.62195  -0.61621  -0.60956  -0.60666  -0.60290
 Alpha  occ. eigenvalues --   -0.59671  -0.59302  -0.59234  -0.59075  -0.58916
 Alpha  occ. eigenvalues --   -0.58016  -0.57793  -0.57443  -0.56485  -0.56100
 Alpha  occ. eigenvalues --   -0.55846  -0.55625  -0.55443  -0.55246  -0.54991
 Alpha  occ. eigenvalues --   -0.54789  -0.54218  -0.53769  -0.53535  -0.53411
 Alpha  occ. eigenvalues --   -0.53253  -0.52684  -0.52443  -0.52161  -0.51915
 Alpha  occ. eigenvalues --   -0.51567  -0.51295  -0.50953  -0.50312  -0.49861
 Alpha  occ. eigenvalues --   -0.49749  -0.49406  -0.49365  -0.49167  -0.48408
 Alpha  occ. eigenvalues --   -0.48245  -0.48084  -0.47944  -0.47935  -0.47659
 Alpha  occ. eigenvalues --   -0.47592  -0.47322  -0.47253  -0.47149  -0.46890
 Alpha  occ. eigenvalues --   -0.46529  -0.46380  -0.46268  -0.46127  -0.45883
 Alpha  occ. eigenvalues --   -0.45511  -0.45310  -0.45123  -0.44887  -0.44720
 Alpha  occ. eigenvalues --   -0.44613  -0.44264  -0.44146  -0.44078  -0.43878
 Alpha  occ. eigenvalues --   -0.43751  -0.43480  -0.43346  -0.43252  -0.43072
 Alpha  occ. eigenvalues --   -0.42934  -0.42893  -0.42634  -0.42547  -0.42458
 Alpha  occ. eigenvalues --   -0.42201  -0.42008  -0.41871  -0.41705  -0.41481
 Alpha  occ. eigenvalues --   -0.41393  -0.41336  -0.41158  -0.40986  -0.40785
 Alpha  occ. eigenvalues --   -0.40753  -0.40693  -0.40527  -0.40321  -0.40085
 Alpha  occ. eigenvalues --   -0.40007  -0.39758  -0.39642  -0.39619  -0.39521
 Alpha  occ. eigenvalues --   -0.39287  -0.39079  -0.38892  -0.38787  -0.38716
 Alpha  occ. eigenvalues --   -0.38672  -0.38349  -0.38321  -0.38167  -0.38099
 Alpha  occ. eigenvalues --   -0.38027  -0.37957  -0.37891  -0.37574  -0.37362
 Alpha  occ. eigenvalues --   -0.37289  -0.37062  -0.36935  -0.36881  -0.36721
 Alpha  occ. eigenvalues --   -0.36567  -0.36331  -0.36117  -0.35771  -0.35593
 Alpha  occ. eigenvalues --   -0.35292  -0.35119  -0.34896  -0.34859  -0.34719
 Alpha  occ. eigenvalues --   -0.34640  -0.34427  -0.34333  -0.34308  -0.33997
 Alpha  occ. eigenvalues --   -0.33961  -0.33870  -0.33794  -0.33413  -0.33275
 Alpha  occ. eigenvalues --   -0.33066  -0.33057  -0.32793  -0.32533  -0.32413
 Alpha  occ. eigenvalues --   -0.32021  -0.31769  -0.31694  -0.31027  -0.30646
 Alpha  occ. eigenvalues --   -0.30119  -0.30067  -0.29265  -0.28728  -0.27961
 Alpha  occ. eigenvalues --   -0.27562  -0.27255  -0.26746  -0.26686  -0.26510
 Alpha  occ. eigenvalues --   -0.26233  -0.26115  -0.25441  -0.24936  -0.24361
 Alpha  occ. eigenvalues --   -0.24103  -0.23735  -0.23472  -0.23332  -0.23018
 Alpha  occ. eigenvalues --   -0.22775  -0.22567  -0.22373  -0.22146  -0.21914
 Alpha  occ. eigenvalues --   -0.21737  -0.21459  -0.21323  -0.21003  -0.20786
 Alpha  occ. eigenvalues --   -0.20620  -0.20340  -0.20213  -0.19664  -0.19167
 Alpha  occ. eigenvalues --   -0.18466  -0.17964  -0.17376
 Alpha virt. eigenvalues --   -0.10001  -0.05050  -0.04186  -0.04097  -0.03564
 Alpha virt. eigenvalues --   -0.02856  -0.02296  -0.01540  -0.00936  -0.00400
 Alpha virt. eigenvalues --   -0.00093   0.00568   0.00645   0.00913   0.01323
 Alpha virt. eigenvalues --    0.02608   0.02782   0.03275   0.03551   0.03827
 Alpha virt. eigenvalues --    0.03924   0.04240   0.04510   0.04864   0.05000
 Alpha virt. eigenvalues --    0.05216   0.05432   0.05552   0.05630   0.05725
 Alpha virt. eigenvalues --    0.06010   0.06066   0.06209   0.06501   0.06969
 Alpha virt. eigenvalues --    0.07076   0.07302   0.07457   0.07785   0.07932
 Alpha virt. eigenvalues --    0.08099   0.08153   0.08339   0.08423   0.08708
 Alpha virt. eigenvalues --    0.08846   0.08949   0.09013   0.09403   0.09703
 Alpha virt. eigenvalues --    0.09754   0.09930   0.10019   0.10376   0.10429
 Alpha virt. eigenvalues --    0.10695   0.10845   0.11129   0.11227   0.11399
 Alpha virt. eigenvalues --    0.11727   0.11825   0.11990   0.12096   0.12388
 Alpha virt. eigenvalues --    0.12536   0.12813   0.12890   0.13113   0.13238
 Alpha virt. eigenvalues --    0.13448   0.13579   0.13697   0.13900   0.14092
 Alpha virt. eigenvalues --    0.14318   0.14478   0.14671   0.14894   0.15147
 Alpha virt. eigenvalues --    0.15186   0.15373   0.15442   0.15716   0.15822
 Alpha virt. eigenvalues --    0.16065   0.16201   0.16335   0.16513   0.16714
 Alpha virt. eigenvalues --    0.16908   0.17090   0.17196   0.17617   0.17643
 Alpha virt. eigenvalues --    0.17662   0.18009   0.18170   0.18420   0.18534
 Alpha virt. eigenvalues --    0.18642   0.18705   0.18850   0.19019   0.19369
 Alpha virt. eigenvalues --    0.19513   0.19808   0.19918   0.20021   0.20318
 Alpha virt. eigenvalues --    0.20390   0.20521   0.20638   0.20861   0.20970
 Alpha virt. eigenvalues --    0.21060   0.21389   0.21798   0.21876   0.21942
 Alpha virt. eigenvalues --    0.22265   0.22549   0.22835   0.23044   0.23238
 Alpha virt. eigenvalues --    0.23279   0.23399   0.23647   0.23926   0.24211
 Alpha virt. eigenvalues --    0.24364   0.24895   0.24956   0.25043   0.25178
 Alpha virt. eigenvalues --    0.25513   0.25759   0.26083   0.26317   0.26590
 Alpha virt. eigenvalues --    0.26706   0.27052   0.27161   0.27431   0.27687
 Alpha virt. eigenvalues --    0.27913   0.28262   0.28512   0.28745   0.28986
 Alpha virt. eigenvalues --    0.29312   0.29578   0.29773   0.29959   0.30311
 Alpha virt. eigenvalues --    0.30659   0.30918   0.31048   0.31219   0.31724
 Alpha virt. eigenvalues --    0.31971   0.32179   0.32434   0.32609   0.32721
 Alpha virt. eigenvalues --    0.32905   0.32963   0.33032   0.33278   0.33590
 Alpha virt. eigenvalues --    0.33903   0.34076   0.34294   0.34551   0.35117
 Alpha virt. eigenvalues --    0.35754   0.35909   0.36426   0.36740   0.36800
 Alpha virt. eigenvalues --    0.36860   0.36974   0.37259   0.37621   0.37918
 Alpha virt. eigenvalues --    0.38243   0.38608   0.39003   0.39274   0.39390
 Alpha virt. eigenvalues --    0.39777   0.40172   0.40396   0.40785   0.40894
 Alpha virt. eigenvalues --    0.41241   0.41306   0.41628   0.41770   0.41896
 Alpha virt. eigenvalues --    0.42071   0.42346   0.42407   0.42890   0.43009
 Alpha virt. eigenvalues --    0.43260   0.43921   0.44035   0.44258   0.44479
 Alpha virt. eigenvalues --    0.44573   0.44653   0.44778   0.44952   0.45053
 Alpha virt. eigenvalues --    0.45374   0.45537   0.45889   0.46097   0.46268
 Alpha virt. eigenvalues --    0.46309   0.46448   0.46707   0.46821   0.47142
 Alpha virt. eigenvalues --    0.47224   0.47357   0.47431   0.48049   0.48085
 Alpha virt. eigenvalues --    0.48205   0.48417   0.48560   0.48866   0.48934
 Alpha virt. eigenvalues --    0.49090   0.49255   0.49352   0.49598   0.49884
 Alpha virt. eigenvalues --    0.50025   0.50437   0.50560   0.50878   0.50953
 Alpha virt. eigenvalues --    0.51305   0.51690   0.51862   0.51973   0.52273
 Alpha virt. eigenvalues --    0.52414   0.52580   0.52845   0.53086   0.53128
 Alpha virt. eigenvalues --    0.53323   0.53585   0.53728   0.53886   0.54304
 Alpha virt. eigenvalues --    0.54352   0.54525   0.54744   0.54963   0.55039
 Alpha virt. eigenvalues --    0.55393   0.55438   0.55713   0.55844   0.55998
 Alpha virt. eigenvalues --    0.56120   0.56290   0.56409   0.56656   0.56805
 Alpha virt. eigenvalues --    0.57065   0.57219   0.57334   0.57508   0.57624
 Alpha virt. eigenvalues --    0.57719   0.57880   0.58122   0.58370   0.58522
 Alpha virt. eigenvalues --    0.58650   0.58842   0.59080   0.59181   0.59292
 Alpha virt. eigenvalues --    0.59545   0.59652   0.59784   0.59849   0.59932
 Alpha virt. eigenvalues --    0.60068   0.60360   0.60380   0.60535   0.60670
 Alpha virt. eigenvalues --    0.60977   0.61128   0.61264   0.61311   0.61477
 Alpha virt. eigenvalues --    0.61619   0.61822   0.62093   0.62103   0.62215
 Alpha virt. eigenvalues --    0.62315   0.62454   0.62647   0.62834   0.62882
 Alpha virt. eigenvalues --    0.62934   0.63069   0.63158   0.63435   0.63567
 Alpha virt. eigenvalues --    0.63633   0.63698   0.63876   0.63919   0.64223
 Alpha virt. eigenvalues --    0.64257   0.64416   0.64525   0.64671   0.64785
 Alpha virt. eigenvalues --    0.64860   0.65023   0.65106   0.65232   0.65240
 Alpha virt. eigenvalues --    0.65385   0.65510   0.65620   0.65661   0.65810
 Alpha virt. eigenvalues --    0.66041   0.66271   0.66466   0.66585   0.66655
 Alpha virt. eigenvalues --    0.66708   0.66845   0.67027   0.67210   0.67334
 Alpha virt. eigenvalues --    0.67453   0.67577   0.67614   0.67668   0.67871
 Alpha virt. eigenvalues --    0.67973   0.68060   0.68185   0.68323   0.68337
 Alpha virt. eigenvalues --    0.68574   0.68685   0.68807   0.68878   0.68993
 Alpha virt. eigenvalues --    0.69019   0.69101   0.69256   0.69299   0.69485
 Alpha virt. eigenvalues --    0.69560   0.69616   0.69794   0.69849   0.70094
 Alpha virt. eigenvalues --    0.70148   0.70296   0.70417   0.70465   0.70595
 Alpha virt. eigenvalues --    0.70713   0.71056   0.71187   0.71280   0.71373
 Alpha virt. eigenvalues --    0.71494   0.71585   0.71747   0.71934   0.71949
 Alpha virt. eigenvalues --    0.72197   0.72347   0.72678   0.72889   0.72991
 Alpha virt. eigenvalues --    0.73202   0.73337   0.73616   0.73812   0.73991
 Alpha virt. eigenvalues --    0.74158   0.74303   0.74377   0.74665   0.74981
 Alpha virt. eigenvalues --    0.75155   0.75383   0.75512   0.75584   0.75786
 Alpha virt. eigenvalues --    0.76096   0.76303   0.76539   0.76743   0.77010
 Alpha virt. eigenvalues --    0.77315   0.77676   0.77755   0.78009   0.78107
 Alpha virt. eigenvalues --    0.78335   0.78471   0.78639   0.78974   0.79232
 Alpha virt. eigenvalues --    0.79424   0.79591   0.79909   0.80021   0.80347
 Alpha virt. eigenvalues --    0.80477   0.80749   0.81263   0.81537   0.81611
 Alpha virt. eigenvalues --    0.81770   0.82063   0.82287   0.82436   0.82799
 Alpha virt. eigenvalues --    0.83146   0.83599   0.84045   0.84260   0.84504
 Alpha virt. eigenvalues --    0.84728   0.84804   0.84942   0.85287   0.85517
 Alpha virt. eigenvalues --    0.85851   0.86026   0.86640   0.86815   0.86884
 Alpha virt. eigenvalues --    0.86970   0.87636   0.87699   0.88145   0.88327
 Alpha virt. eigenvalues --    0.88501   0.88932   0.89379   0.89585   0.89701
 Alpha virt. eigenvalues --    0.89918   0.90440   0.90547   0.90796   0.91502
 Alpha virt. eigenvalues --    0.91882   0.91988   0.92124   0.92510   0.93132
 Alpha virt. eigenvalues --    0.93688   0.93732   0.94196   0.94388   0.94571
 Alpha virt. eigenvalues --    0.95021   0.95318   0.95444   0.95853   0.96352
 Alpha virt. eigenvalues --    0.96533   0.96713   0.96933   0.96996   0.97269
 Alpha virt. eigenvalues --    0.97446   0.97646   0.97869   0.98262   0.98435
 Alpha virt. eigenvalues --    0.99016   0.99504   0.99655   0.99792   0.99881
 Alpha virt. eigenvalues --    1.00249   1.00471   1.00640   1.00772   1.00891
 Alpha virt. eigenvalues --    1.01498   1.01638   1.01971   1.02171   1.02639
 Alpha virt. eigenvalues --    1.03172   1.03640   1.03896   1.04161   1.04551
 Alpha virt. eigenvalues --    1.04601   1.04897   1.05272   1.05519   1.05702
 Alpha virt. eigenvalues --    1.06252   1.06336   1.06597   1.06784   1.07380
 Alpha virt. eigenvalues --    1.07936   1.08223   1.08319   1.08602   1.08931
 Alpha virt. eigenvalues --    1.09285   1.09510   1.10160   1.10267   1.10618
 Alpha virt. eigenvalues --    1.10752   1.11026   1.11334   1.11557   1.11635
 Alpha virt. eigenvalues --    1.11726   1.12008   1.12308   1.12629   1.12755
 Alpha virt. eigenvalues --    1.13094   1.13569   1.13713   1.13869   1.14228
 Alpha virt. eigenvalues --    1.14533   1.14863   1.15294   1.15427   1.15586
 Alpha virt. eigenvalues --    1.15844   1.16027   1.16639   1.16998   1.17116
 Alpha virt. eigenvalues --    1.17575   1.17711   1.18060   1.18325   1.18610
 Alpha virt. eigenvalues --    1.18897   1.19093   1.19480   1.19685   1.19799
 Alpha virt. eigenvalues --    1.20286   1.20388   1.20489   1.20601   1.21053
 Alpha virt. eigenvalues --    1.21182   1.21458   1.21984   1.22378   1.22540
 Alpha virt. eigenvalues --    1.22774   1.22873   1.23093   1.23115   1.23291
 Alpha virt. eigenvalues --    1.23821   1.23954   1.24196   1.24412   1.24640
 Alpha virt. eigenvalues --    1.24926   1.25222   1.25486   1.25664   1.25738
 Alpha virt. eigenvalues --    1.26015   1.26666   1.26800   1.27244   1.27360
 Alpha virt. eigenvalues --    1.27597   1.27838   1.27949   1.28121   1.28357
 Alpha virt. eigenvalues --    1.28741   1.29390   1.29646   1.29784   1.29798
 Alpha virt. eigenvalues --    1.30234   1.30496   1.30587   1.30825   1.31079
 Alpha virt. eigenvalues --    1.31759   1.32159   1.32369   1.32446   1.32939
 Alpha virt. eigenvalues --    1.33189   1.33362   1.33614   1.33753   1.34274
 Alpha virt. eigenvalues --    1.34487   1.34832   1.35145   1.35321   1.35652
 Alpha virt. eigenvalues --    1.36026   1.36101   1.36358   1.36551   1.36993
 Alpha virt. eigenvalues --    1.37685   1.37819   1.37986   1.38161   1.38215
 Alpha virt. eigenvalues --    1.38616   1.39249   1.39600   1.39834   1.40207
 Alpha virt. eigenvalues --    1.40323   1.40556   1.40693   1.41170   1.41357
 Alpha virt. eigenvalues --    1.41675   1.42017   1.42359   1.42656   1.42831
 Alpha virt. eigenvalues --    1.43064   1.43410   1.43573   1.44031   1.44458
 Alpha virt. eigenvalues --    1.44768   1.45016   1.45111   1.45434   1.45613
 Alpha virt. eigenvalues --    1.45886   1.46329   1.46515   1.46694   1.46997
 Alpha virt. eigenvalues --    1.47592   1.47794   1.48081   1.48634   1.49048
 Alpha virt. eigenvalues --    1.49113   1.49683   1.49755   1.49913   1.50732
 Alpha virt. eigenvalues --    1.50957   1.51017   1.51247   1.51563   1.51750
 Alpha virt. eigenvalues --    1.51989   1.52179   1.52204   1.52669   1.52721
 Alpha virt. eigenvalues --    1.53085   1.53365   1.54120   1.54250   1.54457
 Alpha virt. eigenvalues --    1.54678   1.54830   1.54967   1.55063   1.55527
 Alpha virt. eigenvalues --    1.55659   1.56429   1.56850   1.57098   1.57308
 Alpha virt. eigenvalues --    1.57647   1.57847   1.58031   1.58312   1.58607
 Alpha virt. eigenvalues --    1.58870   1.59567   1.59835   1.60052   1.60363
 Alpha virt. eigenvalues --    1.61019   1.61424   1.61486   1.61910   1.62700
 Alpha virt. eigenvalues --    1.62885   1.63355   1.63694   1.64093   1.64177
 Alpha virt. eigenvalues --    1.64530   1.64676   1.64741   1.65350   1.65681
 Alpha virt. eigenvalues --    1.66303   1.66436   1.66685   1.66772   1.67075
 Alpha virt. eigenvalues --    1.67426   1.67859   1.68029   1.68255   1.68302
 Alpha virt. eigenvalues --    1.68793   1.69040   1.69174   1.69426   1.69639
 Alpha virt. eigenvalues --    1.69799   1.70195   1.70406   1.70493   1.70959
 Alpha virt. eigenvalues --    1.71056   1.71289   1.71664   1.71783   1.72019
 Alpha virt. eigenvalues --    1.72169   1.72461   1.72799   1.72919   1.73014
 Alpha virt. eigenvalues --    1.73362   1.73714   1.73849   1.74016   1.74183
 Alpha virt. eigenvalues --    1.74539   1.74641   1.74873   1.74956   1.75064
 Alpha virt. eigenvalues --    1.75306   1.75406   1.75617   1.75712   1.76087
 Alpha virt. eigenvalues --    1.76300   1.76536   1.76631   1.76698   1.76911
 Alpha virt. eigenvalues --    1.77171   1.77263   1.77500   1.77599   1.77670
 Alpha virt. eigenvalues --    1.78032   1.78127   1.78177   1.78294   1.78439
 Alpha virt. eigenvalues --    1.78633   1.78701   1.78786   1.78828   1.79086
 Alpha virt. eigenvalues --    1.79492   1.79733   1.79786   1.79896   1.80033
 Alpha virt. eigenvalues --    1.80398   1.80517   1.80564   1.80835   1.80905
 Alpha virt. eigenvalues --    1.81071   1.81145   1.81402   1.81639   1.81768
 Alpha virt. eigenvalues --    1.81895   1.82024   1.82251   1.82427   1.82561
 Alpha virt. eigenvalues --    1.82743   1.82872   1.83020   1.83339   1.83430
 Alpha virt. eigenvalues --    1.83791   1.83886   1.84089   1.84226   1.84343
 Alpha virt. eigenvalues --    1.84515   1.84639   1.84771   1.84997   1.85374
 Alpha virt. eigenvalues --    1.85439   1.85813   1.86007   1.86070   1.86198
 Alpha virt. eigenvalues --    1.86472   1.86793   1.86915   1.87387   1.87776
 Alpha virt. eigenvalues --    1.87974   1.88166   1.88475   1.88653   1.88871
 Alpha virt. eigenvalues --    1.88923   1.89093   1.89388   1.89553   1.89846
 Alpha virt. eigenvalues --    1.90015   1.90126   1.90501   1.90804   1.91042
 Alpha virt. eigenvalues --    1.91416   1.91497   1.91797   1.91995   1.92224
 Alpha virt. eigenvalues --    1.92349   1.92538   1.92794   1.92963   1.93147
 Alpha virt. eigenvalues --    1.93475   1.93521   1.94040   1.94177   1.94710
 Alpha virt. eigenvalues --    1.94849   1.94961   1.95161   1.95434   1.95534
 Alpha virt. eigenvalues --    1.95836   1.95931   1.96183   1.96458   1.96580
 Alpha virt. eigenvalues --    1.96664   1.96861   1.97062   1.97200   1.97634
 Alpha virt. eigenvalues --    1.97913   1.97956   1.98092   1.98355   1.98450
 Alpha virt. eigenvalues --    1.98468   1.98790   1.99104   1.99399   1.99592
 Alpha virt. eigenvalues --    1.99784   1.99975   2.00086   2.00362   2.00546
 Alpha virt. eigenvalues --    2.00831   2.01100   2.01498   2.01669   2.01836
 Alpha virt. eigenvalues --    2.01990   2.02542   2.02648   2.02847   2.03046
 Alpha virt. eigenvalues --    2.03194   2.03720   2.03908   2.04031   2.04125
 Alpha virt. eigenvalues --    2.04412   2.04802   2.04990   2.05159   2.05446
 Alpha virt. eigenvalues --    2.05743   2.05977   2.06402   2.06638   2.06856
 Alpha virt. eigenvalues --    2.07173   2.07379   2.07922   2.08079   2.08672
 Alpha virt. eigenvalues --    2.08810   2.08963   2.09110   2.09452   2.09655
 Alpha virt. eigenvalues --    2.10081   2.10236   2.10539   2.10640   2.11443
 Alpha virt. eigenvalues --    2.11572   2.12054   2.12295   2.12447   2.12521
 Alpha virt. eigenvalues --    2.12982   2.13387   2.13610   2.13939   2.14191
 Alpha virt. eigenvalues --    2.14437   2.14620   2.15206   2.15233   2.15446
 Alpha virt. eigenvalues --    2.15540   2.15803   2.16266   2.16681   2.16734
 Alpha virt. eigenvalues --    2.16811   2.16955   2.17276   2.17684   2.17996
 Alpha virt. eigenvalues --    2.18212   2.18677   2.18975   2.19268   2.19679
 Alpha virt. eigenvalues --    2.19779   2.20032   2.20203   2.20456   2.20800
 Alpha virt. eigenvalues --    2.21011   2.21296   2.21511   2.21797   2.22049
 Alpha virt. eigenvalues --    2.22358   2.22420   2.22870   2.22874   2.23103
 Alpha virt. eigenvalues --    2.23557   2.24161   2.24369   2.24703   2.24881
 Alpha virt. eigenvalues --    2.25261   2.25695   2.25952   2.26169   2.26233
 Alpha virt. eigenvalues --    2.26756   2.27484   2.27895   2.28518   2.28911
 Alpha virt. eigenvalues --    2.29117   2.29199   2.29617   2.29781   2.30143
 Alpha virt. eigenvalues --    2.30820   2.30997   2.31403   2.31886   2.32154
 Alpha virt. eigenvalues --    2.32272   2.32471   2.32871   2.33274   2.33695
 Alpha virt. eigenvalues --    2.34028   2.34191   2.34404   2.35113   2.35325
 Alpha virt. eigenvalues --    2.35423   2.35658   2.36007   2.36320   2.36520
 Alpha virt. eigenvalues --    2.36972   2.37203   2.37363   2.37746   2.38294
 Alpha virt. eigenvalues --    2.38473   2.38873   2.39208   2.39583   2.39960
 Alpha virt. eigenvalues --    2.40241   2.40713   2.41393   2.41491   2.41858
 Alpha virt. eigenvalues --    2.42105   2.42445   2.42558   2.42825   2.43103
 Alpha virt. eigenvalues --    2.43427   2.43568   2.44195   2.44326   2.44477
 Alpha virt. eigenvalues --    2.45310   2.45725   2.46020   2.46213   2.46501
 Alpha virt. eigenvalues --    2.46761   2.47207   2.47688   2.48180   2.48449
 Alpha virt. eigenvalues --    2.49162   2.49791   2.49921   2.50144   2.50397
 Alpha virt. eigenvalues --    2.50508   2.51078   2.51290   2.51379   2.51772
 Alpha virt. eigenvalues --    2.51907   2.52317   2.52648   2.52772   2.52971
 Alpha virt. eigenvalues --    2.53507   2.53877   2.54047   2.54561   2.54879
 Alpha virt. eigenvalues --    2.55610   2.55708   2.56328   2.56529   2.56763
 Alpha virt. eigenvalues --    2.56849   2.57686   2.58098   2.58480   2.59111
 Alpha virt. eigenvalues --    2.59348   2.59417   2.59763   2.60106   2.60256
 Alpha virt. eigenvalues --    2.60720   2.61058   2.61533   2.61569   2.61786
 Alpha virt. eigenvalues --    2.61939   2.62464   2.62977   2.63130   2.63315
 Alpha virt. eigenvalues --    2.63498   2.63642   2.63699   2.64092   2.64538
 Alpha virt. eigenvalues --    2.64756   2.65045   2.65444   2.65618   2.66086
 Alpha virt. eigenvalues --    2.66405   2.66769   2.66898   2.67553   2.68176
 Alpha virt. eigenvalues --    2.68277   2.68492   2.68600   2.68932   2.69478
 Alpha virt. eigenvalues --    2.69626   2.69689   2.70260   2.70445   2.70680
 Alpha virt. eigenvalues --    2.70794   2.71067   2.71178   2.71422   2.71632
 Alpha virt. eigenvalues --    2.71861   2.72357   2.72666   2.72861   2.73193
 Alpha virt. eigenvalues --    2.73726   2.73962   2.74110   2.74416   2.74605
 Alpha virt. eigenvalues --    2.74985   2.75177   2.75503   2.75718   2.76001
 Alpha virt. eigenvalues --    2.76233   2.76498   2.76677   2.76928   2.77249
 Alpha virt. eigenvalues --    2.77464   2.77675   2.78070   2.78634   2.78774
 Alpha virt. eigenvalues --    2.78951   2.79299   2.79515   2.79859   2.79927
 Alpha virt. eigenvalues --    2.80654   2.80855   2.81120   2.81456   2.81532
 Alpha virt. eigenvalues --    2.81800   2.82066   2.82245   2.82563   2.82944
 Alpha virt. eigenvalues --    2.83138   2.83557   2.83760   2.83998   2.84130
 Alpha virt. eigenvalues --    2.84461   2.84838   2.85021   2.85377   2.85780
 Alpha virt. eigenvalues --    2.85930   2.85980   2.86497   2.86726   2.86967
 Alpha virt. eigenvalues --    2.87170   2.87614   2.88033   2.88576   2.88664
 Alpha virt. eigenvalues --    2.89026   2.89140   2.89879   2.90196   2.90423
 Alpha virt. eigenvalues --    2.90791   2.91439   2.91733   2.91908   2.92039
 Alpha virt. eigenvalues --    2.92751   2.93089   2.93187   2.93402   2.93939
 Alpha virt. eigenvalues --    2.94206   2.94336   2.94584   2.94722   2.95069
 Alpha virt. eigenvalues --    2.95206   2.95977   2.96006   2.96401   2.96458
 Alpha virt. eigenvalues --    2.96591   2.96724   2.97034   2.97409   2.97626
 Alpha virt. eigenvalues --    2.97898   2.98325   2.98611   2.98781   2.98937
 Alpha virt. eigenvalues --    2.99362   2.99533   2.99923   3.00437   3.00538
 Alpha virt. eigenvalues --    3.01059   3.01387   3.01785   3.02296   3.02623
 Alpha virt. eigenvalues --    3.02797   3.03159   3.03748   3.03909   3.04362
 Alpha virt. eigenvalues --    3.04721   3.05058   3.05499   3.06058   3.06150
 Alpha virt. eigenvalues --    3.07610   3.07980   3.08581   3.08955   3.09160
 Alpha virt. eigenvalues --    3.09659   3.10144   3.10300   3.10817   3.11181
 Alpha virt. eigenvalues --    3.11309   3.12015   3.12121   3.12669   3.12768
 Alpha virt. eigenvalues --    3.13573   3.14124   3.14602   3.14738   3.14854
 Alpha virt. eigenvalues --    3.15391   3.15638   3.16879   3.17071   3.17110
 Alpha virt. eigenvalues --    3.17489   3.17607   3.18498   3.18827   3.18864
 Alpha virt. eigenvalues --    3.19446   3.19703   3.20467   3.21011   3.21055
 Alpha virt. eigenvalues --    3.21492   3.21697   3.21869   3.21972   3.22549
 Alpha virt. eigenvalues --    3.22952   3.23627   3.23930   3.24534   3.25069
 Alpha virt. eigenvalues --    3.25269   3.25780   3.25866   3.25923   3.26479
 Alpha virt. eigenvalues --    3.26722   3.27691   3.28525   3.29517   3.29787
 Alpha virt. eigenvalues --    3.30820   3.31202   3.31455   3.32940   3.34787
 Alpha virt. eigenvalues --    3.36247   3.36700   3.37685   3.38573   3.39979
 Alpha virt. eigenvalues --    3.41937   3.42271   3.49220   3.50415   3.50536
 Alpha virt. eigenvalues --    3.52425   3.52882   3.53810   3.54370   3.54899
 Alpha virt. eigenvalues --    3.58526   3.59195   3.60411   3.61367   3.61608
 Alpha virt. eigenvalues --    3.62140   3.62254   3.64003   3.64335   3.64862
 Alpha virt. eigenvalues --    3.65573   3.66000   3.66087   3.66432   3.68478
 Alpha virt. eigenvalues --    3.68840   3.69213   3.70292   3.70558   3.70868
 Alpha virt. eigenvalues --    3.71682   3.71766   3.71878   3.72033   3.72542
 Alpha virt. eigenvalues --    3.72695   3.73515   3.73936   3.74561   3.74956
 Alpha virt. eigenvalues --    3.76490   3.79451   3.80711   3.82313
          Condensed to atoms (all electrons):
 Mulliken charges:
               1
     1  C    0.060240
     2  C    0.008047
     3  O   -0.292289
     4  H    0.034323
     5  H    0.046944
     6  H    0.004138
     7  N   -0.102646
     8  C    0.087005
     9  C    0.109669
    10  O   -0.287228
    11  C    0.044347
    12  C    0.152690
    13  O   -0.371788
    14  O   -0.472112
    15  H    0.103091
    16  H    0.003266
    17  H    0.014409
    18  H    0.011112
    19  N   -0.157604
    20  C    0.167069
    21  C    0.039623
    22  O   -0.301028
    23  C   -0.039320
    24  C    0.074539
    25  C   -0.035465
    26  C   -0.020662
    27  N    0.081852
    28  H    0.154316
    29  H    0.023082
    30  H    0.006382
    31  H    0.039766
    32  H    0.022953
    33  H    0.029609
    34  H    0.020451
    35  H    0.007105
    36  H    0.078590
    37  H    0.085491
    38  H    0.191110
    39  H    0.185356
    40  H    0.204965
    41  N   -0.149047
    42  C    0.118275
    43  C    0.067244
    44  O   -0.289574
    45  C    0.114242
    46  C    0.118902
    47  O   -0.480676
    48  O   -0.389457
    49  H    0.166971
    50  H    0.000121
    51  H   -0.023646
    52  H    0.015810
    53  N   -0.199238
    54  C    0.260859
    55  C    0.002549
    56  O   -0.307905
    57  H    0.160651
    58  H    0.028946
    59  H    0.027264
    60  N   -0.167387
    61  C    0.157277
    62  C    0.058369
    63  O   -0.303955
    64  C    0.065228
    65  C    0.047263
    66  N   -0.040882
    67  O   -0.338957
    68  H    0.145949
    69  H    0.025311
    70  H    0.074864
    71  H    0.019136
    72  H    0.119497
    73  H    0.127421
    74  N   -0.162319
    75  C    0.243679
    76  C    0.015900
    77  O   -0.312194
    78  H    0.146060
    79  H    0.025925
    80  H    0.041195
    81  N   -0.134034
    82  C    0.147931
    83  C    0.121795
    84  O   -0.331368
    85  C    0.108401
    86  C   -0.012510
    87  C    0.005972
    88  C   -0.057754
    89  C   -0.027545
    90  C   -0.051265
    91  C    0.126404
    92  O   -0.194249
    93  H    0.172185
    94  H    0.010530
    95  H    0.030867
    96  H   -0.036817
    97  H    0.015694
    98  H   -0.013639
    99  H   -0.000960
   100  H   -0.052123
   101  H    0.166893
   102  N   -0.114782
   103  C    0.105176
   104  C    0.043872
   105  O   -0.285921
   106  C   -0.097137
   107  C    0.044274
   108  C    0.041513
   109  C    0.032800
   110  H    0.127776
   111  H    0.041103
   112  H   -0.027722
   113  H   -0.003719
   114  H    0.015075
   115  H    0.008068
   116  H    0.010157
   117  H    0.032009
   118  H    0.010841
   119  H    0.016319
   120  H   -0.003378
   121  N   -0.153984
   122  C    0.108204
   123  C    0.120045
   124  O   -0.269623
   125  C    0.225016
   126  O   -0.302125
   127  H    0.180190
   128  H    0.026438
   129  H   -0.010100
   130  H   -0.017560
   131  H    0.185297
   132  N   -0.120630
   133  C    0.081494
   134  C    0.055740
   135  O   -0.247630
   136  C    0.023201
   137  H    0.120342
   138  H    0.027961
   139  H    0.050873
   140  H    0.020911
   141  H    0.000826
   142  N   -0.117809
   143  C    0.102474
   144  C    0.048664
   145  O   -0.282282
   146  C    0.041088
   147  H    0.098971
   148  H    0.023612
   149  H   -0.005856
   150  H    0.028701
   151  H    0.010300
   152  N   -0.161973
   153  C    0.152428
   154  C    0.062272
   155  O   -0.283403
   156  C    0.023037
   157  C    0.096380
   158  C    0.102747
   159  O   -0.396896
   160  O   -0.434474
   161  H    0.134376
   162  H   -0.027369
   163  H    0.076131
   164  H   -0.012682
   165  H   -0.030881
   166  H   -0.047140
   167  N   -0.168874
   168  C    0.123928
   169  H    0.017670
   170  H    0.037474
   171  H    0.003039
   172  H    0.119193
   173  Ca   1.255243
   174  O   -0.267825
   175  H    0.174516
   176  H    0.168536
 Sum of Mulliken charges =  -0.00000
 Mulliken charges with hydrogens summed into heavy atoms:
               1
     1  C    0.145644
     2  C    0.008047
     3  O   -0.292289
     7  N    0.000444
     8  C    0.090272
     9  C    0.109669
    10  O   -0.287228
    11  C    0.069868
    12  C    0.152690
    13  O   -0.371788
    14  O   -0.472112
    19  N   -0.003288
    20  C    0.190151
    21  C    0.039623
    22  O   -0.301028
    23  C    0.006829
    24  C    0.127101
    25  C   -0.007909
    26  C    0.143420
    27  N    0.663282
    41  N    0.017924
    42  C    0.118396
    43  C    0.067244
    44  O   -0.289574
    45  C    0.106406
    46  C    0.118902
    47  O   -0.480676
    48  O   -0.389457
    53  N   -0.038587
    54  C    0.317069
    55  C    0.002549
    56  O   -0.307905
    60  N   -0.021438
    61  C    0.182588
    62  C    0.058369
    63  O   -0.303955
    64  C    0.159227
    65  C    0.047263
    66  N    0.206036
    67  O   -0.338957
    74  N   -0.016259
    75  C    0.310799
    76  C    0.015900
    77  O   -0.312194
    81  N    0.038150
    82  C    0.158461
    83  C    0.121795
    84  O   -0.331368
    85  C    0.102451
    86  C   -0.012510
    87  C    0.021666
    88  C   -0.071393
    89  C   -0.028505
    90  C   -0.103389
    91  C    0.126404
    92  O   -0.027356
   102  N    0.012994
   103  C    0.146279
   104  C    0.043872
   105  O   -0.285921
   106  C   -0.124859
   107  C    0.055629
   108  C    0.091747
   109  C    0.056582
   121  N    0.026205
   122  C    0.134642
   123  C    0.120045
   124  O   -0.269623
   125  C    0.197356
   126  O   -0.116827
   132  N   -0.000288
   133  C    0.109455
   134  C    0.055740
   135  O   -0.247630
   136  C    0.095811
   142  N   -0.018838
   143  C    0.126087
   144  C    0.048664
   145  O   -0.282282
   146  C    0.074232
   152  N   -0.027597
   153  C    0.125060
   154  C    0.062272
   155  O   -0.283403
   156  C    0.086486
   157  C    0.018358
   158  C    0.102747
   159  O   -0.396896
   160  O   -0.434474
   167  N   -0.049681
   168  C    0.182112
   173  Ca   1.255243
   174  O    0.075227
 DipInt: DoE/N= T F RetVal/Mat= T F Init=T NMatP=  1 IDeriv=0 Min/MaxMlt=  0  4
 Entering OneElI...
 OneElI was handed  1333951383 working-precision words.
 Multipole integrals L=0 to 4 MinM= 0 MaxM= 0.
 Requested accuracy = 0.1000D-12
 ShPair: Thresh= 1.00D-13 NBox=     0 BxSize= 0.00D+00 RnKept= 2.55D+01
         NSMCal=               327645 NSMKep=              163645
 PrmmSu-InSpLW:  IPartL=    0 NPrtUS=    1 NPrtUL=    1 DoSpLW=F IThBeg=    0 IThEnd=    0 NThAct=    1.
 PrsmSu:  NPrtUS=   1 ThrOK=F IAlg=1 NPAlg=1 LenDen=           0 ISkipM=0 DoSpLW=F IThBeg=    0 IThEnd=    0.
 Prism:   IPart=     0 DynPar=F LinDyn=F Incr=         512.
 PRISM was handed  1323767361 working-precision words and163645 shell-pairs
 IPart=  0 NShTot=      163645 NBatch=         375 AvBLen=       436.4
 PrsmSu-ThDecC:  IPartSL=    0    0 NPrtUSL=    1    1 IThBeg=    0 IThEnd=    0 CPU=   -1 GPU=   -1 NThAct=    1.
 PrSmSu:  NxtVal=            513.
 Electronic moments (au):
       -716.00000000         12.61350129         -2.08575532         -9.04756504
     -49551.50453123     -28512.53843061     -13127.87831828         67.74917701
        -62.29598497        -21.66504196     -84967.69645242     -41327.74304007
     -24507.86698348      14270.69701256      65767.06377780      46922.90783550
      -8996.58499315       3725.25971586      28710.86058810       3670.10368179
   -6826248.01347316   -2460459.66503048    -677527.55797914     372750.23488324
     339852.51500284    -295690.50836819      62454.53887220    -108381.72912704
     -26487.32025406   -1560825.43978990    -734887.26010321    -473456.60097107
    -143212.52272368      -7992.16880130    -118968.10361495
 Electronic spatial extent (au):  <R**2>=          91191.9213
 DipInt: DoE/N= F T RetVal/Mat= T F Init=T NMatP=  1 IDeriv=0 Min/MaxMlt=  0  4
 Nuclear    moments (au):
        716.00000000          0.00000000         -0.00000000          0.00000000
      49058.12078252      28163.10518410      12773.12746620         -0.00000000
         -0.00000000         -0.00000000      86127.28391364      41928.49142846
      24213.64227444     -12544.30099760     -65861.74082147     -47919.06567697
       9455.16955881      -3607.42705261     -29635.17948953      -4258.81445158
    6628028.78900293    2370457.52260374     636335.72525561    -372056.31245368
    -346195.46488043     309586.24581612     -68227.52737805     106765.21173013
      26466.04138243    1520580.26304003     702818.58418869     454793.62410160
     141287.14113636       1021.96611415     121621.85147390
 Total      moments (au):
         -0.00000000         12.61350129         -2.08575532         -9.04756504
       -493.38374871       -349.43324651       -354.75085208         67.74917701
        -62.29598497        -21.66504196       1159.58746121        600.74838839
       -294.22470903       1726.39601496        -94.67704367       -996.15784148
        458.58456566        117.83266325       -924.31890143       -588.71076979
    -198219.22447024     -90002.14242674     -41191.83272353        693.92242956
      -6342.94987759      13895.73744793      -5772.98850586      -1616.51739691
        -21.27887162     -40245.17674987     -32068.67591452     -18662.97686948
      -1925.38158733      -6970.20268715       2653.74785895
 Traceless Quadrup. (au):
        -94.19446628         49.75603592         44.43843036         67.74917701
        -62.29598497        -21.66504196
 Charge=             -0.0000 electrons
 Dipole moment (field-independent basis, Debye):
    X=             32.0603    Y=             -5.3015    Z=            -22.9966  Tot=             39.8097
 Quadrupole moment (field-independent basis, Debye-Ang):
   XX=           -663.6180   YY=           -469.9997   ZZ=           -477.1520
   XY=             91.1250   XZ=            -83.7902   YZ=            -29.1402
 Traceless Quadrupole moment (field-independent basis, Debye-Ang):
   XX=           -126.6948   YY=             66.9236   ZZ=             59.7712
   XY=             91.1250   XZ=            -83.7902   YZ=            -29.1402
 Octapole moment (field-independent basis, Debye-Ang**2):
  XXX=            825.3497  YYY=            427.5896  ZZZ=           -209.4178  XYY=           1228.7822
  XXY=            -67.3875  XXZ=           -709.0268  XZZ=            326.4028  YZZ=             83.8688
  YYZ=           -657.8946  XYZ=           -419.0216
 Hexadecapole moment (field-independent basis, Debye-Ang**3):
 XXXX=         -74658.8649 YYYY=         -33899.1226 ZZZZ=         -15514.8194 XXXY=            261.3645
 XXXZ=          -2389.0591 YYYX=           5233.8010 YYYZ=          -2174.3843 ZZZX=           -608.8580
 ZZZY=             -8.0146 XXYY=         -15158.2634 XXZZ=         -12078.6011 YYZZ=          -7029.3720
 XXYZ=           -725.1910 YYXZ=          -2625.3126 ZZXY=            999.5287
 N-N= 2.192705988851D+04 E-N=-5.633571682599D+04  KE= 5.290492371497D+03
 Leave Link  601 at Sun Sep 15 01:15:56 2019, MaxMem=  1342177280 cpu:              41.9 elap:               1.1
 FitSet:  NAtFit=   176 NAtPot=   176 NAtFrz=     0 MDM=   180 TotChg=   0.00000
 Merz-Kollman atomic radii used.
 Read replacement radii for each type of atom:
 Rad(20) =   1.700000000000D+00
 Atom Element Radius
    1     6    1.50
    2     6    1.50
    3     8    1.40
    4     1    1.20
    5     1    1.20
    6     1    1.20
    7     7    1.50
    8     6    1.50
    9     6    1.50
   10     8    1.40
   11     6    1.50
   12     6    1.50
   13     8    1.40
   14     8    1.40
   15     1    1.20
   16     1    1.20
   17     1    1.20
   18     1    1.20
   19     7    1.50
   20     6    1.50
   21     6    1.50
   22     8    1.40
   23     6    1.50
   24     6    1.50
   25     6    1.50
   26     6    1.50
   27     7    1.50
   28     1    1.20
   29     1    1.20
   30     1    1.20
   31     1    1.20
   32     1    1.20
   33     1    1.20
   34     1    1.20
   35     1    1.20
   36     1    1.20
   37     1    1.20
   38     1    1.20
   39     1    1.20
   40     1    1.20
   41     7    1.50
   42     6    1.50
   43     6    1.50
   44     8    1.40
   45     6    1.50
   46     6    1.50
   47     8    1.40
   48     8    1.40
   49     1    1.20
   50     1    1.20
   51     1    1.20
   52     1    1.20
   53     7    1.50
   54     6    1.50
   55     6    1.50
   56     8    1.40
   57     1    1.20
   58     1    1.20
   59     1    1.20
   60     7    1.50
   61     6    1.50
   62     6    1.50
   63     8    1.40
   64     6    1.50
   65     6    1.50
   66     7    1.50
   67     8    1.40
   68     1    1.20
   69     1    1.20
   70     1    1.20
   71     1    1.20
   72     1    1.20
   73     1    1.20
   74     7    1.50
   75     6    1.50
   76     6    1.50
   77     8    1.40
   78     1    1.20
   79     1    1.20
   80     1    1.20
   81     7    1.50
   82     6    1.50
   83     6    1.50
   84     8    1.40
   85     6    1.50
   86     6    1.50
   87     6    1.50
   88     6    1.50
   89     6    1.50
   90     6    1.50
   91     6    1.50
   92     8    1.40
   93     1    1.20
   94     1    1.20
   95     1    1.20
   96     1    1.20
   97     1    1.20
   98     1    1.20
   99     1    1.20
  100     1    1.20
  101     1    1.20
  102     7    1.50
  103     6    1.50
  104     6    1.50
  105     8    1.40
  106     6    1.50
  107     6    1.50
  108     6    1.50
  109     6    1.50
  110     1    1.20
  111     1    1.20
  112     1    1.20
  113     1    1.20
  114     1    1.20
  115     1    1.20
  116     1    1.20
  117     1    1.20
  118     1    1.20
  119     1    1.20
  120     1    1.20
  121     7    1.50
  122     6    1.50
  123     6    1.50
  124     8    1.40
  125     6    1.50
  126     8    1.40
  127     1    1.20
  128     1    1.20
  129     1    1.20
  130     1    1.20
  131     1    1.20
  132     7    1.50
  133     6    1.50
  134     6    1.50
  135     8    1.40
  136     6    1.50
  137     1    1.20
  138     1    1.20
  139     1    1.20
  140     1    1.20
  141     1    1.20
  142     7    1.50
  143     6    1.50
  144     6    1.50
  145     8    1.40
  146     6    1.50
  147     1    1.20
  148     1    1.20
  149     1    1.20
  150     1    1.20
  151     1    1.20
  152     7    1.50
  153     6    1.50
  154     6    1.50
  155     8    1.40
  156     6    1.50
  157     6    1.50
  158     6    1.50
  159     8    1.40
  160     8    1.40
  161     1    1.20
  162     1    1.20
  163     1    1.20
  164     1    1.20
  165     1    1.20
  166     1    1.20
  167     7    1.50
  168     6    1.50
  169     1    1.20
  170     1    1.20
  171     1    1.20
  172     1    1.20
  173    20    1.70
  174     8    1.40
[...]
 **** Fit      -0.042115
 **** Fit      -0.043068
 **** Fit      -0.044046
 **** Fit      -0.045291
 **** Fit      -0.047058
 **** Fit      -0.049642
 **** Fit      -0.053392
 **** Fit      -0.040138
 **** Fit      -0.038559
 **** Fit      -0.040247
 **** Fit      -0.041304
 **** Fit      -0.042026
 **** Fit      -0.042653
 **** Fit      -0.043400
 **** Fit      -0.044492
 **** Fit      -0.046184
 **** Fit      -0.048810
 **** Fit      -0.052853
 **** Fit      -0.038253
 **** Fit      -0.039780
 **** Fit      -0.040663
 **** Fit      -0.041155
 **** Fit      -0.041460
 **** Fit      -0.041759
 **** Fit      -0.042232
 **** Fit      -0.043081
 **** Fit      -0.044544
 **** Fit      -0.046943
 **** Fit      -0.050757
 **** Fit      -0.038430
 **** Fit      -0.039678
 **** Fit      -0.040313
 **** Fit      -0.040538
 **** Fit      -0.040522
 **** Fit      -0.040420
 **** Fit      -0.040389
 **** Fit      -0.040597
 **** Fit      -0.041240
 **** Fit      -0.042560
 **** Fit      -0.044885
 **** Fit      -0.048699
 **** Fit      -0.039120
 **** Fit      -0.039988
 **** Fit      -0.040269
 **** Fit      -0.040124
 **** Fit      -0.039700
 **** Fit      -0.039146
 **** Fit      -0.038616
 **** Fit      -0.038280
 **** Fit      -0.038332
 **** Fit      -0.039007
 **** Fit      -0.040604
 **** Fit      -0.043539
 **** Fit      -0.048441
 **** Fit      -0.039046
 **** Fit      -0.040190
 **** Fit      -0.040647
 **** Fit      -0.040529
 **** Fit      -0.039954
 **** Fit      -0.039050
 **** Fit      -0.037958
 **** Fit      -0.036827
 **** Fit      -0.035826
 **** Fit      -0.035145
 **** Fit      -0.035006
 **** Fit      -0.035671
 **** Fit      -0.037473
 **** Fit      -0.040851
 **** Fit      -0.041151
 **** Fit      -0.041843
 **** Fit      -0.041851
 **** Fit      -0.041235
 **** Fit      -0.040094
 **** Fit      -0.038553
 **** Fit      -0.036758
 **** Fit      -0.034875
 **** Fit      -0.033086
 **** Fit      -0.031595
 **** Fit      -0.030633
 **** Fit      -0.030457
 **** Fit      -0.031360
 **** Fit      -0.033669
 **** Fit      -0.037780
 **** Fit      -0.043047
 **** Fit      -0.044094
 **** Fit      -0.044386
 **** Fit      -0.043869
 **** Fit      -0.042583
 **** Fit      -0.040641
 **** Fit      -0.038195
 **** Fit      -0.035427
 **** Fit      -0.032538
 **** Fit      -0.029750
 **** Fit      -0.027301
 **** Fit      -0.025451
 **** Fit      -0.024473
 **** Fit      -0.024631
 **** Fit      -0.026137
 **** Fit      -0.029146
 **** Fit      -0.047299
 **** Fit      -0.045140
 **** Fit      -0.042127
 **** Fit      -0.038480
 **** Fit      -0.034443
 **** Fit      -0.030270
 **** Fit      -0.026226
 **** Fit      -0.022585
 **** Fit      -0.019631
 **** Fit      -0.032109
 **** Fit      -0.026048
 **** Fit      -0.020356
 **** Fit       0.062721
 **** Fit       0.057686
 **** Fit       0.024590
 **** Fit       0.047251
 **** Fit       0.034009
 **** Fit       0.028996
 **** Fit       0.017343
 **** Fit       0.013466
 **** Fit       0.006502
 **** Fit      -0.003210
 **** Fit       0.033353
 **** Fit       0.012061
 **** Fit       0.009380
 **** Fit       0.005088
 **** Fit      -0.001877
 **** Fit      -0.011628
 **** Fit       0.019705
 **** Fit       0.020664
 **** Fit       0.020514
 **** Fit       0.005289
 **** Fit       0.001940
 **** Fit      -0.003178
 **** Fit      -0.011256
 **** Fit      -0.022830
 **** Fit       0.002807
 **** Fit       0.007376
 **** Fit       0.008628
 **** Fit       0.007626
 **** Fit      -0.005581
 **** Fit      -0.010747
 **** Fit      -0.020311
 **** Fit      -0.007007
 **** Fit      -0.004018
 **** Fit      -0.012813
 **** Fit      -0.009684
 **** Fit      -0.016031
 **** Fit      -0.006804
 **** Fit       0.000212
 **** Fit      -0.020126
 **** Fit      -0.007576
 **** Fit       0.003093
 **** Fit       0.000889
 **** Fit       0.013385
 **** Fit       0.061786
 **** Fit       0.054663
 **** Fit       0.059993
 **** Fit       0.067152
 **** Fit       0.056730
 **** Fit       0.062294
 **** Fit       0.064940
 **** Fit       0.057390
 **** Fit       0.058890
 **** Fit       0.056130
 **** Fit       0.047943
 **** Fit       0.035143
 **** Fit       0.020194
 **** Fit       0.053739
 **** Fit       0.049855
 **** Fit       0.041372
 **** Fit       0.029981
 **** Fit       0.019453
 **** Fit       0.014224
 **** Fit       0.017187
 **** Fit       0.027594
 **** Fit       0.049722
 **** Fit       0.043848
 **** Fit       0.034977
 **** Fit       0.028288
 **** Fit       0.029566
 **** Fit       0.052445
 **** Fit       0.047427
 **** Fit       0.040581
 **** Fit       0.039629
 **** Fit       0.047282
 **** Fit      -0.029253
 **** Fit      -0.009988
 **** Fit      -0.012142
 **** Fit      -0.012842
 **** Fit      -0.009587
 **** Fit      -0.011584
 **** Fit      -0.013772
 **** Fit      -0.015558
 **** Fit      -0.015875
 **** Fit      -0.007947
 **** Fit      -0.009231
 **** Fit      -0.010965
 **** Fit      -0.019719
 **** Fit      -0.018155
 **** Fit      -0.006468
 **** Fit      -0.007738
 **** Fit      -0.008972
 **** Fit      -0.010566
 **** Fit      -0.024401
 **** Fit      -0.022134
 **** Fit      -0.005180
 **** Fit      -0.006293
 **** Fit      -0.007552
 **** Fit      -0.008856
 **** Fit      -0.010278
 **** Fit      -0.031132
 **** Fit      -0.028721
 **** Fit      -0.024858
 **** Fit      -0.004263
 **** Fit      -0.005253
 **** Fit      -0.006342
 **** Fit      -0.007544
 **** Fit      -0.008916
 **** Fit      -0.010309
 **** Fit      -0.034242
 **** Fit      -0.028817
 **** Fit      -0.003257
 **** Fit      -0.004205
 **** Fit      -0.005235
 **** Fit      -0.006367
 **** Fit      -0.007599
 **** Fit      -0.009175
 **** Fit      -0.010561
 **** Fit      -0.033520
 **** Fit      -0.026330
 **** Fit      -0.001487
 **** Fit      -0.002373
 **** Fit      -0.003297
 **** Fit      -0.004290
 **** Fit      -0.005377
 **** Fit      -0.006564
 **** Fit      -0.007838
 **** Fit      -0.009650
 **** Fit      -0.011085
 **** Fit      -0.034635
 **** Fit      -0.026141
 **** Fit      -0.000517
 **** Fit      -0.001413
 **** Fit      -0.002347
 **** Fit      -0.003339
 **** Fit      -0.005600
 **** Fit      -0.006884
 **** Fit      -0.008244
 **** Fit      -0.010368
 **** Fit      -0.011859
 **** Fit      -0.013387
 **** Fit       0.000445
 **** Fit      -0.000478
 **** Fit      -0.012960
 **** Fit      -0.014562
 **** Fit       0.002432
 **** Fit       0.001636
 **** Fit       0.000664
 **** Fit      -0.016224
 **** Fit      -0.018100
 **** Fit       0.003737
 **** Fit       0.003265
 **** Fit       0.002378
 **** Fit      -0.018329
 **** Fit      -0.020290
 **** Fit       0.004079
 **** Fit       0.004498
 **** Fit       0.004159
 **** Fit       0.003100
 **** Fit      -0.021031
 **** Fit      -0.022954
 **** Fit      -0.025411
 **** Fit       0.005138
 **** Fit       0.005045
 **** Fit      -0.026532
 **** Fit      -0.029134
 **** Fit      -0.032821
 **** Fit      -0.038016
 **** Fit      -0.029404
 **** Fit      -0.031024
 **** Fit      -0.033794
 **** Fit      -0.038014
 **** Fit      -0.036283
 **** Fit      -0.039080
 **** Fit      -0.002941
 **** Fit      -0.004008
 **** Fit      -0.005223
 **** Fit      -0.006572
 **** Fit      -0.008625
 **** Fit      -0.010223
 **** Fit      -0.001180
 **** Fit      -0.002137
 **** Fit      -0.003239
 **** Fit      -0.004450
 **** Fit      -0.005750
 **** Fit      -0.007139
 **** Fit      -0.009529
 **** Fit      -0.011185
 **** Fit       0.000815
 **** Fit      -0.000027
 **** Fit      -0.001116
 **** Fit      -0.002366
 **** Fit      -0.003705
 **** Fit      -0.005092
 **** Fit      -0.006514
 **** Fit      -0.007983
 **** Fit      -0.010918
 **** Fit      -0.012564
 **** Fit      -0.014367
 **** Fit       0.002093
 **** Fit       0.001153
 **** Fit      -0.000145
 **** Fit      -0.001650
 **** Fit      -0.003235
 **** Fit      -0.004815
 **** Fit      -0.006358
 **** Fit      -0.007866
 **** Fit      -0.009370
 **** Fit      -0.013020
 **** Fit      -0.014622
 **** Fit      -0.016392
 **** Fit      -0.018414
 **** Fit       0.002695
 **** Fit       0.001169
 **** Fit      -0.000750
 **** Fit      -0.002804
 **** Fit      -0.004812
 **** Fit      -0.006684
 **** Fit      -0.008399
 **** Fit      -0.009985
 **** Fit      -0.011501
 **** Fit      -0.016176
 **** Fit      -0.017703
 **** Fit      -0.019427
 **** Fit      -0.021472
 **** Fit       0.001405
 **** Fit      -0.001476
 **** Fit      -0.004442
 **** Fit      -0.007168
 **** Fit      -0.009525
 **** Fit      -0.011513
 **** Fit      -0.013206
 **** Fit      -0.014719
 **** Fit      -0.020919
 **** Fit      -0.022202
 **** Fit      -0.023737
 **** Fit      -0.025700
 **** Fit      -0.019701
 **** Fit      -0.031288
 **** Fit      -0.015292
 **** Fit      -0.014018
 **** Fit      -0.016565
 **** Fit      -0.018332
 **** Fit      -0.013054
 **** Fit      -0.015200
 **** Fit      -0.017940
 **** Fit      -0.020691
 **** Fit      -0.022273
 **** Fit      -0.021614
 **** Fit      -0.012398
 **** Fit      -0.014220
 **** Fit      -0.016581
 **** Fit      -0.019486
 **** Fit      -0.022710
 **** Fit      -0.025673
 **** Fit      -0.027480
 **** Fit      -0.027318
 **** Fit      -0.012056
 **** Fit      -0.013721
 **** Fit      -0.015841
 **** Fit      -0.018539
 **** Fit      -0.021858
 **** Fit      -0.025687
 **** Fit      -0.029643
 **** Fit      -0.033008
 **** Fit      -0.034837
 **** Fit      -0.034368
 **** Fit      -0.012042
 **** Fit      -0.013625
 **** Fit      -0.015612
 **** Fit      -0.018161
 **** Fit      -0.021411
 **** Fit      -0.025442
 **** Fit      -0.030201
 **** Fit      -0.035384
 **** Fit      -0.012380
 **** Fit      -0.013873
 **** Fit      -0.015716
 **** Fit      -0.018071
 **** Fit      -0.021108
 **** Fit      -0.024990
 **** Fit      -0.029849
 **** Fit      -0.035720
 **** Fit      -0.013100
 **** Fit      -0.014600
 **** Fit      -0.016448
 **** Fit      -0.018829
 **** Fit      -0.021948
 **** Fit      -0.026031
 **** Fit      -0.031324
 **** Fit      -0.015741
 **** Fit      -0.017570
 **** Fit      -0.019939
 **** Fit      -0.023069
 **** Fit      -0.027222
 **** Fit      -0.032725
 **** Fit      -0.017407
 **** Fit      -0.019268
 **** Fit      -0.021708
 **** Fit      -0.024973
 **** Fit      -0.029365
 **** Fit      -0.035291
 **** Fit      -0.021746
 **** Fit      -0.024480
 **** Fit      -0.028237
 **** Fit      -0.033418
 **** Fit      -0.025013
 **** Fit      -0.028215
 **** Fit      -0.032760
 **** Fit      -0.032716
 **** Fit      -0.038109
 **** Fit      -0.006978
 **** Fit      -0.007102
 **** Fit      -0.009038
 **** Fit      -0.009062
 **** Fit      -0.006815
 **** Fit      -0.005033
 **** Fit      -0.005311
 **** Fit      -0.007182
 **** Fit      -0.009250
 **** Fit      -0.011208
 **** Fit      -0.012297
 **** Fit      -0.011697
 **** Fit      -0.009468
 **** Fit      -0.006620
 **** Fit      -0.004319
 **** Fit      -0.003188
 **** Fit      -0.003163
 **** Fit      -0.003966
 **** Fit      -0.005363
 **** Fit      -0.015097
 **** Fit      -0.012765
 **** Fit      -0.009635
 **** Fit      -0.006417
 **** Fit      -0.003768
 **** Fit      -0.002114
 **** Fit      -0.001432
 **** Fit      -0.001455
 **** Fit      -0.001976
 **** Fit      -0.002879
 **** Fit      -0.004083
 **** Fit      -0.005536
 **** Fit      -0.018838
 **** Fit      -0.015781
 **** Fit      -0.012032
 **** Fit      -0.008122
 **** Fit      -0.004542
 **** Fit      -0.001849
 **** Fit      -0.000343
 **** Fit       0.000197
 **** Fit       0.000157
 **** Fit      -0.000241
 **** Fit      -0.000915
 **** Fit      -0.001827
 **** Fit      -0.002938
 **** Fit      -0.004210
 **** Fit      -0.022370
 **** Fit      -0.018069
 **** Fit      -0.013340
 **** Fit      -0.008543
 **** Fit       0.001886
 **** Fit       0.001772
 **** Fit       0.001400
 **** Fit       0.000856
 **** Fit       0.000131
 **** Fit      -0.000775
 **** Fit      -0.001840
 **** Fit      -0.003026
 **** Fit      -0.020828
 **** Fit      -0.015089
 **** Fit       0.002911
 **** Fit       0.002365
 **** Fit       0.001762
 **** Fit       0.001027
 **** Fit       0.000136
 **** Fit      -0.000897
 **** Fit      -0.002033
 **** Fit      -0.024864
 **** Fit       0.003392
 **** Fit       0.002822
 **** Fit       0.002155
 **** Fit       0.001317
 **** Fit       0.000304
 **** Fit       0.004023
 **** Fit       0.003606
 **** Fit       0.003098
 **** Fit       0.002386
 **** Fit       0.001444
 **** Fit       0.003946
 **** Fit       0.003808
 **** Fit       0.003406
 **** Fit       0.002681
 **** Fit       0.003806
 **** Fit       0.003774
 **** Fit       0.002673
 **** Fit       0.044053
 **** Fit       0.024558
 **** Fit       0.041427
 **** Fit       0.018249
 **** Fit       0.047756
 **** Fit       0.051688
 **** Fit       0.041966
 **** Fit       0.047053
 **** Fit       0.039910
 **** Fit       0.041103
 **** Fit       0.043644
 **** Fit       0.047806
 **** Fit       0.044882
 **** Fit       0.046413
 **** Fit       0.049080
 **** Fit       0.053012
 **** Fit       0.050029
 **** Fit       0.052524
 **** Fit       0.056090
 **** Fit       0.053862
 **** Fit       0.056940
 **** Fit       0.061044
 **** Fit       0.054335
 **** Fit       0.056860
 **** Fit       0.060406
 **** Fit       0.055720
 **** Fit       0.058709
 **** Fit       0.053287
 **** Fit       0.055992
 **** Fit       0.052256
 **** Fit       0.055611
 **** Fit       0.059053
 **** Fit       0.048359
 **** Fit       0.054928
 **** Fit       0.044091
 **** Fit       0.031796
 **** Fit       0.064065
 **** Fit       0.063875
 **** Fit       0.057291
 **** Fit       0.048016
 **** Fit       0.036675
 **** Fit       0.023675
 **** Fit       0.061525
 **** Fit       0.062796
 **** Fit       0.064592
 **** Fit       0.061340
 **** Fit       0.057484
 **** Fit       0.050719
 **** Fit       0.041460
 **** Fit       0.030509
 **** Fit       0.019213
 **** Fit       0.013181
 **** Fit       0.056003
 **** Fit       0.057838
 **** Fit       0.059299
 **** Fit       0.060738
 **** Fit       0.062037
 **** Fit       0.062563
 **** Fit       0.055864
 **** Fit       0.051397
 **** Fit       0.044127
 **** Fit       0.034969
 **** Fit       0.025842
 **** Fit       0.019553
 **** Fit       0.018144
 **** Fit       0.020928
 **** Fit       0.025976
 **** Fit       0.032159
 **** Fit       0.038492
 **** Fit       0.044058
 **** Fit       0.048607
 **** Fit       0.052088
 **** Fit       0.054561
 **** Fit       0.056311
 **** Fit       0.057466
 **** Fit       0.057613
 **** Fit       0.050866
 **** Fit       0.045449
 **** Fit       0.037562
 **** Fit       0.030393
 **** Fit       0.027622
 **** Fit       0.029905
 **** Fit       0.035164
 **** Fit       0.041179
 **** Fit       0.046399
 **** Fit       0.050174
 **** Fit       0.052406
 **** Fit       0.052919
 **** Fit       0.046318
 **** Fit       0.039979
 **** Fit       0.035567
 **** Fit       0.038487
 **** Fit       0.044296
 **** Fit       0.047746
 **** Fit       0.042197
 -----------------------------------------------------------------
 Leave Link  602 at Sun Sep 15 01:15:59 2019, MaxMem=  1342177280 cpu:             110.5 elap:               2.4

 Test job not archived.
 1\1\GINC-C506-123\SP\RB3LYP\SVP\C54H83Ca1N15O23\PENGZHI\15-Sep-2019\0\
 \#b3lyp/svp scf=(tight,noincore) Test #IOP(5/87=12) Density=Current Po
 p=(MK,readradii) iop(6/33=2) iop(6/42=6)\\CaMKII_loop3_96.0\\0,1\C,0,8
 1.72,65.67,33.17\C,0,81.39,65.22,34.58\O,0,81.92,64.26,35.15\H,0,82.75
 8,65.424,32.944\H,0,81.065,65.161,32.463\H,0,81.576,66.747,33.089\N,0,
 80.48,65.91,35.26\C,0,79.94,65.76,36.6\C,0,78.81,64.74,36.58\O,0,77.78
 ,64.95,35.94\C,0,79.53,67.12,37.16\C,0,79.03,67.05,38.6\O,0,78.85,68.1
 2,39.23\O,0,79.06,65.96,39.21\H,0,80.22,66.79,34.84\H,0,80.74,65.51,37
 .29\H,0,78.74,67.5,36.51\H,0,80.41,67.75,37.17\N,0,78.93,63.64,37.34\C
 ,0,77.99,62.55,37.22\C,0,77.,62.55,38.38\O,0,75.94,61.94,38.25\C,0,78.
 8,61.26,37.3\C,0,78.05,60.04,36.78\C,0,78.9,58.78,36.92\C,0,79.13,58.3
 8,38.37\N,0,79.82,57.09,38.52\H,0,79.66,63.56,38.03\H,0,77.39,62.59,36
 .31\H,0,79.11,61.11,38.33\H,0,79.72,61.38,36.72\H,0,77.86,60.12,35.7\H
 ,0,77.1,59.75,37.24\H,0,79.89,58.97,36.5\H,0,78.53,57.93,36.35\H,0,78.
 17,58.38,38.89\H,0,79.76,59.11,38.88\H,0,79.84,56.69,39.45\H,0,79.29,5
 6.43,37.97\H,0,80.76,57.23,38.18\N,0,77.25,63.23,39.5\C,0,76.28,63.34,
 40.56\C,0,75.54,64.67,40.48\O,0,74.4,64.77,40.92\C,0,76.91,63.02,41.91
 \C,0,78.14,63.87,42.23\O,0,78.24,65.01,41.72\O,0,78.98,63.44,43.05\H,0
 ,78.08,63.81,39.56\H,0,75.5,62.59,40.44\H,0,77.13,61.96,41.84\H,0,76.2
 ,63.14,42.73\N,0,76.18,65.71,39.93\C,0,75.49,66.96,39.66\C,0,75.69,67.
 93,40.82\O,0,74.81,68.78,40.98\H,0,77.16,65.63,39.7\H,0,74.42,66.76,39
 .59\H,0,75.87,67.42,38.75\N,0,76.66,67.78,41.72\C,0,77.01,68.59,42.87\
 C,0,77.76,69.87,42.56\O,0,77.98,70.72,43.42\C,0,77.7,67.74,43.93\C,0,7
 9.21,67.69,43.73\N,0,79.93,67.58,44.85\O,0,79.81,67.81,42.67\H,0,77.28
 ,66.99,41.61\H,0,76.01,68.82,43.23\H,0,77.38,66.69,43.92\H,0,77.59,68.
 26,44.88\H,0,79.47,67.69,45.74\H,0,80.94,67.66,44.87\N,0,78.12,70.13,4
 1.29\C,0,78.74,71.29,40.69\C,0,80.26,71.25,40.65\O,0,80.85,72.29,40.36
 \H,0,77.98,69.39,40.62\H,0,78.37,72.17,41.21\H,0,78.43,71.34,39.64\N,0
 ,80.92,70.11,40.83\C,0,82.34,69.93,40.62\C,0,82.76,68.52,40.23\O,0,81.
 95,67.59,40.25\C,0,83.02,70.5,41.86\C,0,82.61,70.07,43.25\C,0,81.55,70
 .69,43.92\C,0,83.49,69.25,43.95\C,0,81.35,70.48,45.29\C,0,83.38,69.07,
 45.34\C,0,82.31,69.72,45.99\O,0,82.05,69.57,47.32\H,0,80.47,69.36,41.3
 4\H,0,82.63,70.56,39.78\H,0,82.97,71.59,41.87\H,0,84.09,70.3,41.75\H,0
 ,80.97,71.47,43.46\H,0,84.34,68.91,43.37\H,0,80.42,70.8,45.72\H,0,84.0
 4,68.46,45.94\H,0,82.73,68.97,47.66\N,0,84.02,68.28,39.88\C,0,84.55,67
 .07,39.28\C,0,85.56,66.45,40.24\O,0,86.32,67.11,40.94\C,0,85.23,67.38,
 37.95\C,0,84.33,68.07,36.94\C,0,85.75,66.09,37.32\C,0,85.05,68.75,35.7
 8\H,0,84.68,69.05,39.95\H,0,83.79,66.29,39.18\H,0,86.08,68.,38.24\H,0,
 83.71,68.8,37.47\H,0,83.7,67.29,36.51\H,0,86.16,66.26,36.33\H,0,86.59,
 65.74,37.92\H,0,84.92,65.38,37.29\H,0,85.56,68.04,35.12\H,0,84.35,69.3
 4,35.19\H,0,85.83,69.41,36.16\N,0,85.68,65.12,40.14\C,0,86.65,64.28,40
 .82\C,0,87.43,63.47,39.79\O,0,87.05,63.28,38.64\C,0,85.94,63.31,41.75\
 O,0,85.26,62.28,41.07\H,0,85.23,64.76,39.31\H,0,87.32,64.84,41.46\H,0,
 85.14,63.78,42.32\H,0,86.64,62.93,42.5\H,0,84.74,61.81,41.73\N,0,88.45
 ,62.78,40.31\C,0,89.19,61.83,39.5\C,0,88.44,60.64,38.92\O,0,88.63,60.4
 ,37.73\C,0,90.44,61.34,40.23\H,0,88.74,62.91,41.27\H,0,89.56,62.35,38.
 62\H,0,91.02,60.64,39.62\H,0,91.12,62.16,40.45\H,0,90.25,60.95,41.23\N
 ,0,87.5,60.08,39.68\C,0,86.57,59.07,39.22\C,0,85.56,59.52,38.18\O,0,85
 .13,58.77,37.3\C,0,85.84,58.46,40.41\H,0,87.45,60.4,40.63\H,0,87.11,58
 .26,38.73\H,0,85.03,59.14,40.68\H,0,85.52,57.45,40.16\H,0,86.45,58.33,
 41.31\N,0,85.12,60.78,38.24\C,0,84.23,61.42,37.29\C,0,85.02,61.72,36.0
 3\O,0,84.55,61.46,34.92\C,0,83.57,62.69,37.82\C,0,82.46,62.25,38.77\C,
 0,81.71,63.43,39.37\O,0,82.06,64.63,39.35\O,0,80.65,63.23,40.02\H,0,85
 .53,61.35,38.97\H,0,83.45,60.71,37.01\H,0,83.17,63.23,36.96\H,0,84.22,
 63.34,38.42\H,0,82.75,61.6,39.59\H,0,81.69,61.65,38.3\N,0,86.25,62.22,
 36.08\C,0,87.12,62.37,34.93\H,0,88.089,61.92,35.147\H,0,86.674,61.873,
 34.069\H,0,87.253,63.429,34.71\H,0,86.7,62.55,36.93\Ca,0,80.59,65.6,41
 .26\O,0,82.52,66.33,43.05\H,0,83.24,66.77,43.5\H,0,82.56,65.42,43.34\\
 Version=ES64L-G16RevA.03\State=1-A\HF=-5333.5748235\RMSD=5.460e-09\Dip
 ole=9.4062637,-11.9141419,3.8580629\Quadrupole=-81.8972565,89.3443056,
 -7.4470491,61.3607433,59.3186897,-30.7452808\PG=C01 [X(C54H83Ca1N15O23
 )]\\@


  THE LARGE PRINT GIVETH,
  AND THE SMALL PRINT TAKETH AWAY.

                     -- TOM WAITS
 Job cpu time:       0 days  9 hours  5 minutes 17.9 seconds.
 Elapsed time:       0 days  0 hours 11 minutes 29.0 seconds.
 File lengths (MBytes):  RWF=   1517 Int=      0 D2E=      0 Chk=    171 Scr=      1
 Normal termination of Gaussian 16 at Sun Sep 15 01:16:00 2019.
