 Entering Gaussian System, Link 0=g16
 Initial command:
 /home1/apps/gaussian/16rA.03/g16/l1.exe "/scratch/01990/pengzhi/4328934/Gau-371917.inp" -scrdir="/scratch/01990/pengzhi/4328934/"
 Entering Link 1 = /home1/apps/gaussian/16rA.03/g16/l1.exe PID=    371918.
  
 Copyright (c) 1988,1990,1992,1993,1995,1998,2003,2009,2016,
            Gaussian, Inc.  All Rights Reserved.
  
 This is part of the Gaussian(R) 16 program.  It is based on
 the Gaussian(R) 09 system (copyright 2009, Gaussian, Inc.),
 the Gaussian(R) 03 system (copyright 2003, Gaussian, Inc.),
 the Gaussian(R) 98 system (copyright 1998, Gaussian, Inc.),
 the Gaussian(R) 94 system (copyright 1995, Gaussian, Inc.),
 the Gaussian 92(TM) system (copyright 1992, Gaussian, Inc.),
 the Gaussian 90(TM) system (copyright 1990, Gaussian, Inc.),
 the Gaussian 88(TM) system (copyright 1988, Gaussian, Inc.),
 the Gaussian 86(TM) system (copyright 1986, Carnegie Mellon
 University), and the Gaussian 82(TM) system (copyright 1983,
 Carnegie Mellon University). Gaussian is a federally registered
 trademark of Gaussian, Inc.
  
 This software contains proprietary and confidential information,
 including trade secrets, belonging to Gaussian, Inc.
  
 This software is provided under written license and may be
 used, copied, transmitted, or stored only in accord with that
 written license.
  
 The following legend is applicable only to US Government
 contracts under FAR:
  
                    RESTRICTED RIGHTS LEGEND
  
 Use, reproduction and disclosure by the US Government is
 subject to restrictions as set forth in subparagraphs (a)
 and (c) of the Commercial Computer Software - Restricted
 Rights clause in FAR 52.227-19.
  
 Gaussian, Inc.
 340 Quinnipiac St., Bldg. 40, Wallingford CT 06492
  
  
 ---------------------------------------------------------------
 Warning -- This program may not be used in any manner that
 competes with the business of Gaussian, Inc. or will provide
 assistance to any competitor of Gaussian, Inc.  The licensee
 of this program is prohibited from giving any competitor of
 Gaussian, Inc. access to this program.  By using this program,
 the user acknowledges that Gaussian, Inc. is engaged in the
 business of creating and licensing software in the field of
 computational chemistry and represents and warrants to the
 licensee that it is not a competitor of Gaussian, Inc. and that
 it will not use this program in any manner prohibited above.
 ---------------------------------------------------------------
  

 Cite this work as:
 Gaussian 16, Revision A.03,
 M. J. Frisch, G. W. Trucks, H. B. Schlegel, G. E. Scuseria, 
 M. A. Robb, J. R. Cheeseman, G. Scalmani, V. Barone, 
 G. A. Petersson, H. Nakatsuji, X. Li, M. Caricato, A. V. Marenich, 
 J. Bloino, B. G. Janesko, R. Gomperts, B. Mennucci, H. P. Hratchian, 
 J. V. Ortiz, A. F. Izmaylov, J. L. Sonnenberg, D. Williams-Young, 
 F. Ding, F. Lipparini, F. Egidi, J. Goings, B. Peng, A. Petrone, 
 T. Henderson, D. Ranasinghe, V. G. Zakrzewski, J. Gao, N. Rega, 
 G. Zheng, W. Liang, M. Hada, M. Ehara, K. Toyota, R. Fukuda, 
 J. Hasegawa, M. Ishida, T. Nakajima, Y. Honda, O. Kitao, H. Nakai, 
 T. Vreven, K. Throssell, J. A. Montgomery, Jr., J. E. Peralta, 
 F. Ogliaro, M. J. Bearpark, J. J. Heyd, E. N. Brothers, K. N. Kudin, 
 V. N. Staroverov, T. A. Keith, R. Kobayashi, J. Normand, 
 K. Raghavachari, A. P. Rendell, J. C. Burant, S. S. Iyengar, 
 J. Tomasi, M. Cossi, J. M. Millam, M. Klene, C. Adamo, R. Cammi, 
 J. W. Ochterski, R. L. Martin, K. Morokuma, O. Farkas, 
 J. B. Foresman, and D. J. Fox, Gaussian, Inc., Wallingford CT, 2016.
 
 ******************************************
 Gaussian 16:  ES64L-G16RevA.03 25-Dec-2016
                14-Sep-2019 
 ******************************************
 %chk=CaMKII_loop3_61.0.chk
 %nprocshared=48
 Will use up to   48 processors via shared memory.
 %mem=10GB
 %nosave
 ----------------------------------------------------------------------
 #b3lyp/svp scf=(tight,noincore) Test #IOP(5/87=12) Density=Current Pop
 =(MK,readradii) iop(6/33=2) iop(6/42=6)
 ----------------------------------------------------------------------
 1/30=1,38=1,172=1/1;
 2/12=2,17=6,18=5,40=1/2;
 3/5=18,7=101,11=2,25=1,30=1,74=-5/1,2,3;
 4//1;
 5/5=4,32=2,38=5,87=12/2;
 6/7=2,8=2,9=2,10=2,15=8,20=101,22=-1,28=1,33=2,42=6/1,2;
 99/5=1,9=1/99;
 -----------------
 CaMKII_loop3_61.0
 -----------------
 Symbolic Z-matrix:
 Charge =  0 Multiplicity = 1
 C                     68.48     46.82     31.43 
 C                     68.04     45.45     31.92 
 O                     68.42     44.43     31.34 
 H                     69.467    46.742    30.974 
 H                     67.767    47.189    30.692 
 H                     68.523    47.511    32.272 
 N                     67.19     45.42     32.95 
 C                     66.57     44.21     33.45 
 C                     65.55     43.7      32.44 
 O                     64.49     44.3      32.31 
 C                     65.98     44.49     34.83 
 C                     65.39     43.24     35.46 
 O                     64.8      43.39     36.55 
 O                     65.37     42.11     34.93 
 H                     67.01     46.36     33.29 
 H                     67.37     43.47     33.53 
 H                     65.13     45.13     34.64 
 H                     66.77     44.92     35.45 
 N                     65.84     42.57     31.78 
 C                     65.13     42.2      30.58 
 C                     63.74     41.61     30.83 
 O                     63.08     41.32     29.84 
 C                     66.04     41.25     29.81 
 C                     65.78     41.06     28.32 
 C                     66.83     40.09     27.79 
 C                     66.42     39.67     26.38 
 N                     67.56     39.19     25.59 
 H                     66.71     42.09     31.97 
 H                     65.01     43.12     29.99 
 H                     66.12     40.26     30.27 
 H                     67.07     41.59     29.9 
 H                     65.88     42.01     27.8 
 H                     64.77     40.67     28.18 
 H                     66.93     39.18     28.39 
 H                     67.75     40.66     27.63 
 H                     65.81     40.42     25.88 
 H                     65.72     38.85     26.54 
 H                     67.88     39.84     24.89 
 H                     68.35     38.97     26.18 
 H                     67.36     38.36     25.05 
 N                     63.34     41.41     32.08 
 C                     62.24     40.56     32.49 
 C                     61.48     41.       33.74 
 O                     60.28     40.8      33.88 
 C                     62.76     39.14     32.65 
 C                     63.95     38.99     33.59 
 O                     65.1      38.93     33.12 
 O                     63.81     39.15     34.83 
 H                     63.92     41.95     32.71 
 H                     61.51     40.58     31.68 
 H                     63.13     38.94     31.64 
 H                     61.99     38.4      32.87 
 N                     62.14     41.85     34.53 
 C                     61.51     42.45     35.69 
 C                     61.79     41.88     37.07 
 O                     61.04     42.19     37.99 
 H                     63.12     42.05     34.36 
 H                     60.43     42.52     35.59 
 H                     61.79     43.5      35.66 
 N                     62.76     40.98     37.25 
 C                     63.06     40.23     38.45 
 C                     63.92     40.94     39.49 
 O                     64.27     40.4      40.53 
 C                     63.63     38.87     38.07 
 C                     65.06     38.67     37.58 
 N                     65.57     37.44     37.71 
 O                     65.78     39.57     37.16 
 H                     63.46     41.07     36.53 
 H                     62.11     39.89     38.87 
 H                     63.       38.49     37.26 
 H                     63.44     38.22     38.92 
 H                     64.91     36.69     37.85 
 H                     66.43     37.2      37.24 
 N                     64.43     42.12     39.1 
 C                     65.29     43.01     39.85 
 C                     66.76     42.63     39.72 
 O                     67.56     43.01     40.57 
 H                     64.09     42.46     38.21 
 H                     65.13     43.06     40.92 
 H                     65.03     43.97     39.42 
 N                     67.18     41.92     38.67 
 C                     68.59     41.69     38.42 
 C                     68.91     41.9      36.94 
 O                     68.15     41.55     36.04 
 C                     69.1      40.35     38.93 
 C                     68.91     40.01     40.39 
 C                     69.68     40.63     41.39 
 C                     67.9      39.12     40.76 
 C                     69.5      40.3      42.74 
 C                     67.76     38.77     42.11 
 C                     68.54     39.34     43.13 
 O                     68.23     39.04     44.42 
 H                     66.56     41.67     37.92 
 H                     69.04     42.56     38.89 
 H                     70.16     40.23     38.71 
 H                     68.63     39.62     38.28 
 H                     70.33     41.41     41.02 
 H                     67.24     38.62     40.07 
 H                     69.97     40.82     43.56 
 H                     67.01     38.04     42.4 
 H                     67.43     38.51     44.44 
 N                     70.1      42.41     36.62 
 C                     70.75     42.48     35.33 
 C                     71.94     41.53     35.36 
 O                     72.8      41.54     36.24 
 C                     71.25     43.9      35.07 
 C                     70.18     44.98     35.04 
 C                     72.05     43.85     33.78 
 C                     70.79     46.36     35.27 
 H                     70.65     42.77     37.39 
 H                     70.07     42.2      34.52 
 H                     71.94     44.07     35.9 
 H                     69.47     44.85     35.85 
 H                     69.76     44.97     34.03 
 H                     72.57     44.77     33.52 
 H                     72.88     43.15     33.88 
 H                     71.41     43.55     32.95 
 H                     71.59     46.68     34.6 
 H                     69.95     47.06     35.29 
 H                     71.27     46.39     36.24 
 N                     72.06     40.7      34.32 
 C                     73.19     39.82     34.1 
 C                     73.85     40.28     32.81 
 O                     73.39     41.17     32.08 
 C                     72.79     38.35     34.11 
 O                     71.93     38.05     33.04 
 H                     71.42     40.81     33.55 
 H                     74.01     40.06     34.78 
 H                     72.37     37.91     35.01 
 H                     73.64     37.72     33.85 
 H                     71.23     37.54     33.44 
 N                     75.07     39.8      32.53 
 C                     76.01     40.13     31.48 
 C                     75.35     40.1      30.11 
 O                     75.5      41.03     29.33 
 C                     77.28     39.29     31.56 
 H                     75.5      39.14     33.16 
 H                     76.35     41.14     31.72 
 H                     77.22     38.3      31.09 
 H                     77.98     39.81     30.91 
 H                     77.78     39.23     32.52 
 N                     74.75     38.98     29.69 
 C                     73.88     38.89     28.53 
 C                     72.68     39.83     28.47 
 O                     72.3      40.25     27.38 
 C                     73.42     37.44     28.49 
 H                     74.85     38.17     30.27 
 H                     74.44     39.08     27.62 
 H                     72.79     37.27     29.36 
 H                     72.9      37.22     27.55 
 H                     74.28     36.78     28.48 
 N                     72.19     40.35     29.6 
 C                     70.99     41.17     29.67 
 C                     71.45     42.61     29.47 
 O                     70.69     43.42     28.95 
 C                     70.22     41.02     30.97 
 C                     69.46     39.7      31.1 
 C                     68.68     39.7      32.41 
 O                     68.15     40.74     32.84 
 O                     68.7      38.67     33.12 
 H                     72.55     40.19     30.53 
 H                     70.33     40.9      28.84 
 H                     69.5      41.8      30.75 
 H                     70.85     41.1      31.86 
 H                     70.1      38.82     31.02 
 H                     68.69     39.55     30.35 
 N                     72.64     42.93     29.99 
 C                     73.35     44.17     29.79 
 H                     74.312    43.965    29.321 
 H                     72.764    44.825    29.145 
 H                     73.511    44.656    30.752 
 H                     73.04     42.3      30.66 
 Ca                    66.72     39.96     34.75 
 O                     69.09     39.01     35.82 
 H                     69.87     38.72     36.29 
 H                     69.29     38.84     34.89 
 
 Stoichiometry    C54H83CaN15O23
 Framework group  C1[X(C54H83CaN15O23)]
 Deg. of freedom   522
 Full point group                 C1      NOp   1
 Largest Abelian subgroup         C1      NOp   1
 Largest concise Abelian subgroup C1      NOp   1
                         Standard orientation:                         
 ---------------------------------------------------------------------
 Center     Atomic      Atomic             Coordinates (Angstroms)
 Number     Number       Type             X           Y           Z
 ---------------------------------------------------------------------
      1          6           0        2.091306    2.098409    5.507015
      2          6           0        1.457307    1.961397    4.132288
      3          8           0        2.160082    1.973858    3.118803
      4          1           0        3.094240    1.671865    5.487697
      5          1           0        2.150298    3.153238    5.777254
      6          1           0        1.485480    1.567665    6.241576
      7          7           0        0.124200    1.891497    4.084981
      8          6           0       -0.641221    1.895371    2.855096
      9          6           0       -0.572144    3.274178    2.211108
     10          8           0       -1.200334    4.197874    2.713764
     11          6           0       -2.063564    1.429120    3.155844
     12          6           0       -2.904178    1.319825    1.895319
     13          8           0       -4.109820    1.035839    2.051775
     14          8           0       -2.505682    1.582094    0.741795
     15          1           0       -0.265089    1.885559    5.023074
     16          1           0       -0.148602    1.182881    2.189000
     17          1           0       -2.506742    2.242628    3.712619
     18          1           0       -1.997743    0.473524    3.681110
     19          7           0        0.131145    3.395947    1.076579
     20          6           0        0.546873    4.687960    0.587833
     21          6           0       -0.563158    5.484928   -0.101640
     22          8           0       -0.270440    6.606860   -0.495828
     23          6           0        1.745650    4.445260   -0.321854
     24          6           0        2.675488    5.618587   -0.609093
     25          6           0        3.791450    5.109945   -1.514748
     26          6           0        4.565271    6.317732   -2.039203
     27          7           0        5.925284    5.964503   -2.463106
     28          1           0        0.584932    2.583078    0.680698
     29          1           0        0.885833    5.260481    1.463176
     30          1           0        1.477113    3.982713   -1.276860
     31          1           0        2.366446    3.660562    0.106471
     32          1           0        3.110269    5.985323    0.317929
     33          1           0        2.106010    6.417370   -1.088093
     34          1           0        3.431455    4.546364   -2.381281
     35          1           0        4.518903    4.595988   -0.879484
     36          1           0        4.510865    7.173583   -1.369011
     37          1           0        3.990381    6.646070   -2.905053
     38          1           0        6.646586    6.261691   -1.825686
     39          1           0        6.024879    4.966752   -2.586285
     40          1           0        6.204645    6.394506   -3.333482
     41          7           0       -1.752929    4.920348   -0.269551
     42          6           0       -2.781374    5.371867   -1.185538
     43          6           0       -4.224913    5.133159   -0.746318
     44          8           0       -5.132676    5.901755   -1.037565
     45          6           0       -2.524260    4.746231   -2.547474
     46          6           0       -2.415372    3.226251   -2.549859
     47          8           0       -1.292678    2.691060   -2.538482
     48          8           0       -3.429141    2.511839   -2.338464
     49          1           0       -1.837834    4.122890    0.348310
     50          1           0       -2.674374    6.454084   -1.267746
     51          1           0       -1.524969    5.133365   -2.767802
     52          1           0       -3.192055    5.093385   -3.336418
     53          7           0       -4.379772    4.199194    0.194920
     54          6           0       -5.672117    3.940729    0.799519
     55          6           0       -6.493616    2.753724    0.326379
     56          8           0       -7.684152    2.716793    0.620080
     57          1           0       -3.597934    3.612400    0.466402
     58          1           0       -6.326494    4.808179    0.774585
     59          1           0       -5.480176    3.855764    1.866167
     60          7           0       -5.957624    1.833834   -0.479732
     61          6           0       -6.629382    0.735746   -1.139612
     62          6           0       -6.831916   -0.526466   -0.308287
     63          8           0       -7.355482   -1.533733   -0.763252
     64          6           0       -5.940485    0.441712   -2.465456
     65          6           0       -4.612013   -0.299215   -2.571247
     66          7           0       -4.342843   -0.879148   -3.746459
     67          8           0       -3.832883   -0.460000   -1.637489
     68          1           0       -4.955733    1.811551   -0.369196
     69          1           0       -7.573339    1.119210   -1.535088
     70          1           0       -5.759029    1.412109   -2.937476
     71          1           0       -6.685157   -0.051722   -3.084396
     72          1           0       -4.877268   -0.560064   -4.540358
     73          1           0       -3.412165   -1.218497   -3.938245
     74          7           0       -6.221329   -0.526249    0.888285
     75          6           0       -6.212693   -1.576483    1.883842
     76          6           0       -5.120212   -2.605783    1.620731
     77          8           0       -5.216793   -3.727956    2.108889
     78          1           0       -5.798351    0.353781    1.152743
     79          1           0       -7.112291   -2.172592    1.975364
     80          1           0       -6.086973   -1.004689    2.795624
     81          7           0       -4.048593   -2.277412    0.894917
     82          6           0       -2.910470   -3.167670    0.769953
     83          6           0       -1.604706   -2.388909    0.929365
     84          8           0       -1.444769   -1.259679    0.471807
     85          6           0       -2.920251   -4.013304   -0.495198
     86          6           0       -4.121395   -4.886621   -0.774251
     87          6           0       -4.353341   -6.064468   -0.042009
     88          6           0       -5.058969   -4.478210   -1.724648
     89          6           0       -5.466614   -6.870313   -0.315937
     90          6           0       -6.144958   -5.315365   -2.015168
     91          6           0       -6.384065   -6.518781   -1.330831
     92          8           0       -7.541034   -7.185937   -1.588755
     93          1           0       -3.907079   -1.342190    0.556191
     94          1           0       -2.970498   -3.730538    1.697248
     95          1           0       -2.041887   -4.655981   -0.538136
     96          1           0       -2.743120   -3.301457   -1.294071
     97          1           0       -3.656156   -6.218891    0.769093
     98          1           0       -4.984279   -3.577846   -2.312412
     99          1           0       -5.765671   -7.716437    0.282677
    100          1           0       -6.851215   -5.028951   -2.788904
    101          1           0       -8.084922   -6.662318   -2.181468
    102          7           0       -0.576140   -2.999580    1.519053
    103          6           0        0.813819   -2.604303    1.576236
    104          6           0        1.609693   -3.589924    0.730874
    105          8           0        1.537926   -4.811793    0.857307
    106          6           0        1.317290   -2.661025    3.017519
    107          6           0        0.599880   -1.751122    4.002202
    108          6           0        2.810370   -2.387471    2.967698
    109          6           0        0.815886   -2.221526    5.437981
    110          1           0       -0.781525   -3.886251    1.962485
    111          1           0        0.959831   -1.587581    1.199598
    112          1           0        1.165188   -3.709068    3.286538
    113          1           0       -0.474561   -1.785757    3.855656
    114          1           0        1.063956   -0.765278    3.905531
    115          1           0        3.336225   -2.506812    3.913021
    116          1           0        3.307686   -3.131602    2.344925
    117          1           0        2.998451   -1.388629    2.573441
    118          1           0        1.844031   -2.328819    5.788274
    119          1           0        0.223128   -1.550624    6.066096
    120          1           0        0.421415   -3.222683    5.557470
    121          7           0        2.474101   -3.059326   -0.138704
    122          6           0        3.413147   -3.826282   -0.932223
    123          6           0        4.802881   -3.400973   -0.486070
    124          8           0        5.016984   -2.487486    0.324055
    125          6           0        3.162699   -3.679966   -2.427839
    126          8           0        3.380097   -2.358313   -2.852659
    127          1           0        2.610514   -2.061475   -0.121830
    128          1           0        3.458199   -4.862420   -0.590482
    129          1           0        2.222483   -4.017839   -2.854259
    130          1           0        3.938360   -4.190355   -2.997798
    131          1           0        2.622257   -2.161415   -3.397646
    132          7           0        5.839734   -4.155435   -0.877124
    133          6           0        7.242862   -4.109485   -0.524819
    134          6           0        7.811857   -2.707475   -0.679784
    135          8           0        8.472859   -2.204815    0.218108
    136          6           0        8.053668   -5.176920   -1.251508
    137          1           0        5.675256   -4.957686   -1.465971
    138          1           0        7.276312   -4.423668    0.520872
    139          1           0        8.378383   -4.912129   -2.265927
    140          1           0        8.996140   -5.204993   -0.709422
    141          1           0        7.681659   -6.194685   -1.220448
    142          7           0        7.738402   -2.091920   -1.865742
    143          6           0        8.011854   -0.682360   -2.087018
    144          6           0        7.231603    0.329794   -1.253979
    145          8           0        7.774076    1.381177   -0.923498
    146          6           0        7.757620   -0.456465   -3.570270
    147          1           0        7.391408   -2.632488   -2.633779
    148          1           0        9.058170   -0.464606   -1.898325
    149          1           0        6.693393   -0.594006   -3.746914
    150          1           0        8.106375    0.535729   -3.880625
    151          1           0        8.355736   -1.144945   -4.156405
    152          7           0        6.057110   -0.019069   -0.718946
    153          6           0        5.182898    0.894293    0.001349
    154          6           0        5.614730    0.828592    1.462309
    155          8           0        5.473059    1.813846    2.178762
    156          6           0        3.706190    0.572811   -0.144879
    157          6           0        3.122006    0.917459   -1.514859
    158          6           0        1.628497    0.610987   -1.512115
    159          8           0        0.935273    0.811384   -0.498862
    160          8           0        1.135470    0.020827   -2.499047
    161          1           0        5.614815   -0.923400   -0.800548
    162          1           0        5.356980    1.910707   -0.364709
    163          1           0        3.370208    1.324356    0.560455
    164          1           0        3.470947   -0.480058    0.032684
    165          1           0        3.627690    0.416554   -2.341768
    166          1           0        3.160756    1.972486   -1.766486
    167          7           0        6.025717   -0.364323    1.906090
    168          6           0        6.629416   -0.632895    3.188711
    169          1           0        7.627396   -1.044512    3.040259
    170          1           0        6.700053    0.293579    3.758889
    171          1           0        6.017975   -1.350571    3.735193
    172          1           0        5.810939   -1.168513    1.346672
    173         20           0       -1.425447    0.504897   -1.295394
    174          8           0       -0.604018   -2.046124   -1.989543
    175          1           0       -0.421197   -2.962661   -2.189387
    176          1           0        0.221155   -1.584915   -2.189982
 ---------------------------------------------------------------------
 Rotational constants (GHZ):           0.0244396           0.0151294           0.0117004
 Standard basis: SVP (5D, 7F)
 There are  1809 symmetry adapted cartesian basis functions of A   symmetry.
 There are  1717 symmetry adapted basis functions of A   symmetry.
  1717 basis functions,  2922 primitive gaussians,  1809 cartesian basis functions
   358 alpha electrons      358 beta electrons
       nuclear repulsion energy     21821.8630906626 Hartrees.
 NAtoms=  176 NActive=  176 NUniq=  176 SFac= 1.00D+00 NAtFMM=   60 NAOKFM=T Big=T
 Integral buffers will be    131072 words long.
 Raffenetti 2 integral format.
 Two-electron integral symmetry is turned on.
 One-electron integrals computed using PRISM.
 NBasis=  1717 RedAO= T EigKep=  2.72D-04  NBF=  1717
 NBsUse=  1717 1.00D-06 EigRej= -1.00D+00 NBFU=  1717
 ExpMin= 1.98D-02 ExpMax= 3.51D+04 ExpMxC= 5.28D+03 IAcc=3 IRadAn=         5 AccDes= 0.00D+00
 Harris functional with IExCor=  402 and IRadAn=       5 diagonalized for initial guess.
 HarFok:  IExCor=  402 AccDes= 0.00D+00 IRadAn=         5 IDoV= 1 UseB2=F ITyADJ=14
 ICtDFT=  3500011 ScaDFX=  1.000000  1.000000  1.000000  1.000000
 FoFCou: FMM=F IPFlag=           0 FMFlag=      100000 FMFlg1=        2001
         NFxFlg=           0 DoJE=T BraDBF=F KetDBF=T FulRan=T
         wScrn=  0.000000 ICntrl=       500 IOpCl=  0 I1Cent=   200000004 NGrid=           0
         NMat0=    1 NMatS0=      1 NMatT0=    0 NMatD0=    1 NMtDS0=    0 NMtDT0=    0
 Petite list used in FoFCou.
 Requested convergence on RMS density matrix=1.00D-08 within 128 cycles.
 Requested convergence on MAX density matrix=1.00D-06.
 Requested convergence on             energy=1.00D-06.
 No special actions if energy rises.
 EnCoef did     4 forward-backward iterations
 SCF Done:  E(RB3LYP) =  -5333.59136657     A.U. after   18 cycles
            NFock= 18  Conv=0.59D-08     -V/T= 2.0081
 SCF density gives NOpUse=  1 NOpAll=  1.
 Hyperfine terms turned off by default for NAtoms > 100.

 **********************************************************************

            Population analysis using the SCF density.

 **********************************************************************

 Orbital symmetries:
 BldTbl:  Degeneracy threshold= 1.00D-02
       Occupied  (A) (A) (A) (A) (A) (A) (A) (A) (A) (A) (A) (A)
                 (A) (A) (A) (A) (A) (A) (A) (A) (A) (A) (A) (A)
                 (A) (A) (A) (A) (A) (A) (A) (A) (A) (A) (A) (A)
                 (A) (A) (A) (A) (A) (A) (A) (A) (A) (A) (A) (A)
                 (A) (A) (A) (A) (A) (A) (A) (A) (A) (A) (A) (A)
                 (A) (A) (A) (A) (A) (A) (A) (A) (A) (A) (A) (A)
                 (A) (A) (A) (A) (A) (A) (A) (A) (A) (A) (A) (A)
                 (A) (A) (A) (A) (A) (A) (A) (A) (A) (A) (A) (A)
                 (A) (A) (A) (A) (A) (A) (A) (A) (A) (A) (A) (A)
                 (A) (A) (A) (A) (A) (A) (A) (A) (A) (A) (A) (A)
                 (A) (A) (A) (A) (A) (A) (A) (A) (A) (A) (A) (A)
                 (A) (A) (A) (A) (A) (A) (A) (A) (A) (A) (A) (A)
                 (A) (A) (A) (A) (A) (A) (A) (A) (A) (A) (A) (A)
                 (A) (A) (A) (A) (A) (A) (A) (A) (A) (A) (A) (A)
                 (A) (A) (A) (A) (A) (A) (A) (A) (A) (A) (A) (A)
                 (A) (A) (A) (A) (A) (A) (A) (A) (A) (A) (A) (A)
                 (A) (A) (A) (A) (A) (A) (A) (A) (A) (A) (A) (A)
                 (A) (A) (A) (A) (A) (A) (A) (A) (A) (A) (A) (A)
                 (A) (A) (A) (A) (A) (A) (A) (A) (A) (A) (A) (A)
                 (A) (A) (A) (A) (A) (A) (A) (A) (A) (A) (A) (A)
                 (A) (A) (A) (A) (A) (A) (A) (A) (A) (A) (A) (A)
                 (A) (A) (A) (A) (A) (A) (A) (A) (A) (A) (A) (A)
                 (A) (A) (A) (A) (A) (A) (A) (A) (A) (A) (A) (A)
                 (A) (A) (A) (A) (A) (A) (A) (A) (A) (A) (A) (A)
                 (A) (A) (A) (A) (A) (A) (A) (A) (A) (A) (A) (A)
                 (A) (A) (A) (A) (A) (A) (A) (A) (A) (A) (A) (A)
                 (A) (A) (A) (A) (A) (A) (A) (A) (A) (A) (A) (A)
                 (A) (A) (A) (A) (A) (A) (A) (A) (A) (A) (A) (A)
                 (A) (A) (A) (A) (A) (A) (A) (A) (A) (A) (A) (A)
                 (A) (A) (A) (A) (A) (A) (A) (A) (A) (A)
       Virtual   (A) (A) (A) (A) (A) (A) (A) (A) (A) (A) (A) (A)
                 (A) (A) (A) (A) (A) (A) (A) (A) (A) (A) (A) (A)
                 (A) (A) (A) (A) (A) (A) (A) (A) (A) (A) (A) (A)
                 (A) (A) (A) (A) (A) (A) (A) (A) (A) (A) (A) (A)
                 (A) (A) (A) (A) (A) (A) (A) (A) (A) (A) (A) (A)
                 (A) (A) (A) (A) (A) (A) (A) (A) (A) (A) (A) (A)
                 (A) (A) (A) (A) (A) (A) (A) (A) (A) (A) (A) (A)
                 (A) (A) (A) (A) (A) (A) (A) (A) (A) (A) (A) (A)
                 (A) (A) (A) (A) (A) (A) (A) (A) (A) (A) (A) (A)
                 (A) (A) (A) (A) (A) (A) (A) (A) (A) (A) (A) (A)
                 (A) (A) (A) (A) (A) (A) (A) (A) (A) (A) (A) (A)
                 (A) (A) (A) (A) (A) (A) (A) (A) (A) (A) (A) (A)
                 (A) (A) (A) (A) (A) (A) (A) (A) (A) (A) (A) (A)
                 (A) (A) (A) (A) (A) (A) (A) (A) (A) (A) (A) (A)
                 (A) (A) (A) (A) (A) (A) (A) (A) (A) (A) (A) (A)
                 (A) (A) (A) (A) (A) (A) (A) (A) (A) (A) (A) (A)
                 (A) (A) (A) (A) (A) (A) (A) (A) (A) (A) (A) (A)
                 (A) (A) (A) (A) (A) (A) (A) (A) (A) (A) (A) (A)
                 (A) (A) (A) (A) (A) (A) (A) (A) (A) (A) (A) (A)
                 (A) (A) (A) (A) (A) (A) (A) (A) (A) (A) (A) (A)
                 (A) (A) (A) (A) (A) (A) (A) (A) (A) (A) (A) (A)
                 (A) (A) (A) (A) (A) (A) (A) (A) (A) (A) (A) (A)
                 (A) (A) (A) (A) (A) (A) (A) (A) (A) (A) (A) (A)
                 (A) (A) (A) (A) (A) (A) (A) (A) (A) (A) (A) (A)
                 (A) (A) (A) (A) (A) (A) (A) (A) (A) (A) (A) (A)
                 (A) (A) (A) (A) (A) (A) (A) (A) (A) (A) (A) (A)
                 (A) (A) (A) (A) (A) (A) (A) (A) (A) (A) (A) (A)
                 (A) (A) (A) (A) (A) (A) (A) (A) (A) (A) (A) (A)
                 (A) (A) (A) (A) (A) (A) (A) (A) (A) (A) (A) (A)
                 (A) (A) (A) (A) (A) (A) (A) (A) (A) (A) (A) (A)
                 (A) (A) (A) (A) (A) (A) (A) (A) (A) (A) (A) (A)
                 (A) (A) (A) (A) (A) (A) (A) (A) (A) (A) (A) (A)
                 (A) (A) (A) (A) (A) (A) (A) (A) (A) (A) (A) (A)
                 (A) (A) (A) (A) (A) (A) (A) (A) (A) (A) (A) (A)
                 (A) (A) (A) (A) (A) (A) (A) (A) (A) (A) (A) (A)
                 (A) (A) (A) (A) (A) (A) (A) (A) (A) (A) (A) (A)
                 (A) (A) (A) (A) (A) (A) (A) (A) (A) (A) (A) (A)
                 (A) (A) (A) (A) (A) (A) (A) (A) (A) (A) (A) (A)
                 (A) (A) (A) (A) (A) (A) (A) (A) (A) (A) (A) (A)
                 (A) (A) (A) (A) (A) (A) (A) (A) (A) (A) (A) (A)
                 (A) (A) (A) (A) (A) (A) (A) (A) (A) (A) (A) (A)
                 (A) (A) (A) (A) (A) (A) (A) (A) (A) (A) (A) (A)
                 (A) (A) (A) (A) (A) (A) (A) (A) (A) (A) (A) (A)
                 (A) (A) (A) (A) (A) (A) (A) (A) (A) (A) (A) (A)
                 (A) (A) (A) (A) (A) (A) (A) (A) (A) (A) (A) (A)
                 (A) (A) (A) (A) (A) (A) (A) (A) (A) (A) (A) (A)
                 (A) (A) (A) (A) (A) (A) (A) (A) (A) (A) (A) (A)
                 (A) (A) (A) (A) (A) (A) (A) (A) (A) (A) (A) (A)
                 (A) (A) (A) (A) (A) (A) (A) (A) (A) (A) (A) (A)
                 (A) (A) (A) (A) (A) (A) (A) (A) (A) (A) (A) (A)
                 (A) (A) (A) (A) (A) (A) (A) (A) (A) (A) (A) (A)
                 (A) (A) (A) (A) (A) (A) (A) (A) (A) (A) (A) (A)
                 (A) (A) (A) (A) (A) (A) (A) (A) (A) (A) (A) (A)
                 (A) (A) (A) (A) (A) (A) (A) (A) (A) (A) (A) (A)
                 (A) (A) (A) (A) (A) (A) (A) (A) (A) (A) (A) (A)
                 (A) (A) (A) (A) (A) (A) (A) (A) (A) (A) (A) (A)
                 (A) (A) (A) (A) (A) (A) (A) (A) (A) (A) (A) (A)
                 (A) (A) (A) (A) (A) (A) (A) (A) (A) (A) (A) (A)
                 (A) (A) (A) (A) (A) (A) (A) (A) (A) (A) (A) (A)
                 (A) (A) (A) (A) (A) (A) (A) (A) (A) (A) (A) (A)
                 (A) (A) (A) (A) (A) (A) (A) (A) (A) (A) (A) (A)
                 (A) (A) (A) (A) (A) (A) (A) (A) (A) (A) (A) (A)
                 (A) (A) (A) (A) (A) (A) (A) (A) (A) (A) (A) (A)
                 (A) (A) (A) (A) (A) (A) (A) (A) (A) (A) (A) (A)
                 (A) (A) (A) (A) (A) (A) (A) (A) (A) (A) (A) (A)
                 (A) (A) (A) (A) (A) (A) (A) (A) (A) (A) (A) (A)
                 (A) (A) (A) (A) (A) (A) (A) (A) (A) (A) (A) (A)
                 (A) (A) (A) (A) (A) (A) (A) (A) (A) (A) (A) (A)
                 (A) (A) (A) (A) (A) (A) (A) (A) (A) (A) (A) (A)
                 (A) (A) (A) (A) (A) (A) (A) (A) (A) (A) (A) (A)
                 (A) (A) (A) (A) (A) (A) (A) (A) (A) (A) (A) (A)
                 (A) (A) (A) (A) (A) (A) (A) (A) (A) (A) (A) (A)
                 (A) (A) (A) (A) (A) (A) (A) (A) (A) (A) (A) (A)
                 (A) (A) (A) (A) (A) (A) (A) (A) (A) (A) (A) (A)
                 (A) (A) (A) (A) (A) (A) (A) (A) (A) (A) (A) (A)
                 (A) (A) (A) (A) (A) (A) (A) (A) (A) (A) (A) (A)
                 (A) (A) (A) (A) (A) (A) (A) (A) (A) (A) (A) (A)
                 (A) (A) (A) (A) (A) (A) (A) (A) (A) (A) (A) (A)
                 (A) (A) (A) (A) (A) (A) (A) (A) (A) (A) (A) (A)
                 (A) (A) (A) (A) (A) (A) (A) (A) (A) (A) (A) (A)
                 (A) (A) (A) (A) (A) (A) (A) (A) (A) (A) (A) (A)
                 (A) (A) (A) (A) (A) (A) (A) (A) (A) (A) (A) (A)
                 (A) (A) (A) (A) (A) (A) (A) (A) (A) (A) (A) (A)
                 (A) (A) (A) (A) (A) (A) (A) (A) (A) (A) (A) (A)
                 (A) (A) (A) (A) (A) (A) (A) (A) (A) (A) (A) (A)
                 (A) (A) (A) (A) (A) (A) (A) (A) (A) (A) (A) (A)
                 (A) (A) (A) (A) (A) (A) (A) (A) (A) (A) (A) (A)
                 (A) (A) (A) (A) (A) (A) (A) (A) (A) (A) (A) (A)
                 (A) (A) (A) (A) (A) (A) (A) (A) (A) (A) (A) (A)
                 (A) (A) (A) (A) (A) (A) (A) (A) (A) (A) (A) (A)
                 (A) (A) (A) (A) (A) (A) (A) (A) (A) (A) (A) (A)
                 (A) (A) (A) (A) (A) (A) (A) (A) (A) (A) (A) (A)
                 (A) (A) (A) (A) (A) (A) (A) (A) (A) (A) (A) (A)
                 (A) (A) (A) (A) (A) (A) (A) (A) (A) (A) (A) (A)
                 (A) (A) (A) (A) (A) (A) (A) (A) (A) (A) (A) (A)
                 (A) (A) (A) (A) (A) (A) (A) (A) (A) (A) (A) (A)
                 (A) (A) (A) (A) (A) (A) (A) (A) (A) (A) (A) (A)
                 (A) (A) (A) (A) (A) (A) (A) (A) (A) (A) (A) (A)
                 (A) (A) (A) (A) (A) (A) (A) (A) (A) (A) (A) (A)
                 (A) (A) (A) (A) (A) (A) (A) (A) (A) (A) (A) (A)
                 (A) (A) (A) (A) (A) (A) (A) (A) (A) (A) (A) (A)
                 (A) (A) (A) (A) (A) (A) (A) (A) (A) (A) (A) (A)
                 (A) (A) (A) (A) (A) (A) (A) (A) (A) (A) (A) (A)
                 (A) (A) (A) (A) (A) (A) (A) (A) (A) (A) (A) (A)
                 (A) (A) (A) (A) (A) (A) (A) (A) (A) (A) (A) (A)
                 (A) (A) (A) (A) (A) (A) (A) (A) (A) (A) (A) (A)
                 (A) (A) (A) (A) (A) (A) (A) (A) (A) (A) (A) (A)
                 (A) (A) (A) (A) (A) (A) (A) (A) (A) (A) (A) (A)
                 (A) (A) (A) (A) (A) (A) (A) (A) (A) (A) (A) (A)
                 (A) (A) (A) (A) (A) (A) (A) (A) (A) (A) (A) (A)
                 (A) (A) (A) (A) (A) (A) (A) (A) (A) (A) (A) (A)
                 (A) (A) (A) (A) (A) (A) (A) (A) (A) (A) (A) (A)
                 (A) (A) (A) (A) (A) (A) (A) (A) (A) (A) (A) (A)
                 (A) (A) (A)
 The electronic state is 1-A.
 Alpha  occ. eigenvalues -- -145.35162 -19.17249 -19.15959 -19.14913 -19.14114
 Alpha  occ. eigenvalues --  -19.12279 -19.11791 -19.11020 -19.10754 -19.10590
 Alpha  occ. eigenvalues --  -19.09162 -19.08676 -19.07561 -19.07349 -19.07089
 Alpha  occ. eigenvalues --  -19.06920 -19.05317 -19.04988 -19.04917 -19.04582
 Alpha  occ. eigenvalues --  -19.04373 -19.03711 -19.03037 -19.02631 -15.40957
 Alpha  occ. eigenvalues --  -14.58226 -14.41086 -14.38722 -14.38116 -14.36637
 Alpha  occ. eigenvalues --  -14.35778 -14.35592 -14.33925 -14.32589 -14.32435
 Alpha  occ. eigenvalues --  -14.32167 -14.31441 -14.30417 -14.29786 -14.29721
 Alpha  occ. eigenvalues --  -12.54577 -12.54526 -12.54507 -10.34591 -10.33675
 Alpha  occ. eigenvalues --  -10.31370 -10.30280 -10.29470 -10.29460 -10.29412
 Alpha  occ. eigenvalues --  -10.28501 -10.28266 -10.28115 -10.27929 -10.26377
 Alpha  occ. eigenvalues --  -10.26336 -10.25804 -10.25792 -10.25655 -10.25472
 Alpha  occ. eigenvalues --  -10.24197 -10.24145 -10.24001 -10.23595 -10.23569
 Alpha  occ. eigenvalues --  -10.23511 -10.22997 -10.22837 -10.22762 -10.22498
 Alpha  occ. eigenvalues --  -10.22348 -10.21968 -10.21840 -10.21792 -10.20521
 Alpha  occ. eigenvalues --  -10.20351 -10.20215 -10.19841 -10.19708 -10.19509
 Alpha  occ. eigenvalues --  -10.19501 -10.19008 -10.18500 -10.18077 -10.18021
 Alpha  occ. eigenvalues --  -10.17954 -10.17909 -10.17681 -10.17500 -10.17438
 Alpha  occ. eigenvalues --  -10.16858 -10.16645 -10.16484 -10.16394 -10.16163
 Alpha  occ. eigenvalues --  -10.16017 -10.14848  -1.77972  -1.13504  -1.08974
 Alpha  occ. eigenvalues --   -1.06367  -1.06047  -1.05812  -1.05703  -1.05638
 Alpha  occ. eigenvalues --   -1.04973  -1.03854  -1.03735  -1.03605  -1.03231
 Alpha  occ. eigenvalues --   -1.02912  -1.01249  -1.01203  -1.00218  -0.99994
 Alpha  occ. eigenvalues --   -0.99692  -0.99009  -0.98879  -0.98786  -0.98046
 Alpha  occ. eigenvalues --   -0.97939  -0.97760  -0.96884  -0.95361  -0.94844
 Alpha  occ. eigenvalues --   -0.93471  -0.93419  -0.92708  -0.90758  -0.90736
 Alpha  occ. eigenvalues --   -0.90360  -0.89391  -0.89109  -0.88799  -0.88256
 Alpha  occ. eigenvalues --   -0.88189  -0.87949  -0.87750  -0.86576  -0.85828
 Alpha  occ. eigenvalues --   -0.84061  -0.82502  -0.82179  -0.80796  -0.80460
 Alpha  occ. eigenvalues --   -0.79768  -0.79154  -0.76902  -0.76790  -0.75916
 Alpha  occ. eigenvalues --   -0.75014  -0.74887  -0.74192  -0.73159  -0.72336
 Alpha  occ. eigenvalues --   -0.71962  -0.71569  -0.71391  -0.71358  -0.71027
 Alpha  occ. eigenvalues --   -0.70531  -0.69543  -0.69010  -0.68520  -0.68192
 Alpha  occ. eigenvalues --   -0.67494  -0.67229  -0.65962  -0.65084  -0.63906
 Alpha  occ. eigenvalues --   -0.63581  -0.63437  -0.63207  -0.62997  -0.62237
 Alpha  occ. eigenvalues --   -0.62061  -0.61546  -0.61141  -0.60649  -0.60230
 Alpha  occ. eigenvalues --   -0.59466  -0.58625  -0.58473  -0.57802  -0.57499
 Alpha  occ. eigenvalues --   -0.56936  -0.56913  -0.56566  -0.56444  -0.56046
 Alpha  occ. eigenvalues --   -0.55590  -0.55455  -0.55242  -0.54976  -0.54838
 Alpha  occ. eigenvalues --   -0.54816  -0.54241  -0.53700  -0.53580  -0.53263
 Alpha  occ. eigenvalues --   -0.53030  -0.52841  -0.52419  -0.52219  -0.51986
 Alpha  occ. eigenvalues --   -0.51706  -0.51537  -0.51292  -0.50943  -0.50125
 Alpha  occ. eigenvalues --   -0.49969  -0.49477  -0.49369  -0.49006  -0.48463
 Alpha  occ. eigenvalues --   -0.48394  -0.48174  -0.47887  -0.47700  -0.47618
 Alpha  occ. eigenvalues --   -0.47296  -0.47206  -0.47019  -0.46744  -0.46553
 Alpha  occ. eigenvalues --   -0.46437  -0.46292  -0.45951  -0.45745  -0.45609
 Alpha  occ. eigenvalues --   -0.45470  -0.45442  -0.45225  -0.44747  -0.44600
 Alpha  occ. eigenvalues --   -0.44533  -0.44260  -0.43997  -0.43790  -0.43710
 Alpha  occ. eigenvalues --   -0.43509  -0.43412  -0.43367  -0.43293  -0.43042
 Alpha  occ. eigenvalues --   -0.42993  -0.42876  -0.42663  -0.42356  -0.42281
 Alpha  occ. eigenvalues --   -0.42070  -0.42003  -0.41919  -0.41853  -0.41649
 Alpha  occ. eigenvalues --   -0.41429  -0.41322  -0.41253  -0.41066  -0.40982
 Alpha  occ. eigenvalues --   -0.40851  -0.40650  -0.40566  -0.40400  -0.39877
 Alpha  occ. eigenvalues --   -0.39771  -0.39683  -0.39550  -0.39529  -0.39304
 Alpha  occ. eigenvalues --   -0.39228  -0.39069  -0.38894  -0.38750  -0.38670
 Alpha  occ. eigenvalues --   -0.38627  -0.38571  -0.38433  -0.38394  -0.37997
 Alpha  occ. eigenvalues --   -0.37851  -0.37753  -0.37657  -0.37507  -0.37347
 Alpha  occ. eigenvalues --   -0.37307  -0.37110  -0.36821  -0.36604  -0.36487
 Alpha  occ. eigenvalues --   -0.36433  -0.36132  -0.36027  -0.35768  -0.35691
 Alpha  occ. eigenvalues --   -0.35624  -0.34905  -0.34831  -0.34651  -0.34587
 Alpha  occ. eigenvalues --   -0.34481  -0.34105  -0.34031  -0.33883  -0.33675
 Alpha  occ. eigenvalues --   -0.33570  -0.33260  -0.33232  -0.32915  -0.32785
 Alpha  occ. eigenvalues --   -0.32706  -0.32441  -0.32255  -0.32130  -0.31947
 Alpha  occ. eigenvalues --   -0.31618  -0.31550  -0.31348  -0.31080  -0.30727
 Alpha  occ. eigenvalues --   -0.30664  -0.29816  -0.29014  -0.28661  -0.28465
 Alpha  occ. eigenvalues --   -0.27998  -0.27686  -0.27464  -0.27317  -0.26677
 Alpha  occ. eigenvalues --   -0.26443  -0.26287  -0.26268  -0.26203  -0.25320
 Alpha  occ. eigenvalues --   -0.24560  -0.24049  -0.23863  -0.23456  -0.23308
 Alpha  occ. eigenvalues --   -0.23170  -0.23047  -0.22860  -0.22596  -0.22443
 Alpha  occ. eigenvalues --   -0.22380  -0.22167  -0.22047  -0.21668  -0.21377
 Alpha  occ. eigenvalues --   -0.21115  -0.20196  -0.20018  -0.19597  -0.19535
 Alpha  occ. eigenvalues --   -0.18794  -0.18624  -0.18464
 Alpha virt. eigenvalues --   -0.09984  -0.04823  -0.04529  -0.03865  -0.02242
 Alpha virt. eigenvalues --   -0.01699  -0.00771  -0.00497  -0.00202   0.00376
 Alpha virt. eigenvalues --    0.00948   0.01430   0.01505   0.01980   0.02300
 Alpha virt. eigenvalues --    0.02519   0.02893   0.03098   0.03123   0.03549
 Alpha virt. eigenvalues --    0.03703   0.04232   0.04420   0.04508   0.04736
 Alpha virt. eigenvalues --    0.05053   0.05254   0.05691   0.05858   0.05882
 Alpha virt. eigenvalues --    0.06159   0.06327   0.06453   0.06544   0.07068
 Alpha virt. eigenvalues --    0.07205   0.07319   0.07465   0.07625   0.07674
 Alpha virt. eigenvalues --    0.07798   0.07875   0.08131   0.08293   0.08592
 Alpha virt. eigenvalues --    0.08964   0.09139   0.09336   0.09635   0.09765
 Alpha virt. eigenvalues --    0.10129   0.10161   0.10380   0.10506   0.10573
 Alpha virt. eigenvalues --    0.10766   0.10990   0.11344   0.11469   0.11654
 Alpha virt. eigenvalues --    0.11761   0.11857   0.12205   0.12303   0.12581
 Alpha virt. eigenvalues --    0.12860   0.13015   0.13314   0.13365   0.13549
 Alpha virt. eigenvalues --    0.13731   0.13908   0.14107   0.14430   0.14563
 Alpha virt. eigenvalues --    0.14721   0.14838   0.14927   0.15236   0.15286
 Alpha virt. eigenvalues --    0.15405   0.15563   0.15908   0.15975   0.16273
 Alpha virt. eigenvalues --    0.16604   0.16623   0.16836   0.16936   0.17179
 Alpha virt. eigenvalues --    0.17264   0.17427   0.17573   0.17625   0.17818
 Alpha virt. eigenvalues --    0.17889   0.18040   0.18187   0.18333   0.18400
 Alpha virt. eigenvalues --    0.18705   0.18815   0.18951   0.19127   0.19375
 Alpha virt. eigenvalues --    0.19605   0.19709   0.19908   0.20299   0.20360
 Alpha virt. eigenvalues --    0.20698   0.21057   0.21186   0.21645   0.21767
 Alpha virt. eigenvalues --    0.21912   0.22116   0.22234   0.22461   0.22646
 Alpha virt. eigenvalues --    0.22803   0.23088   0.23374   0.23589   0.23785
 Alpha virt. eigenvalues --    0.24028   0.24138   0.24385   0.24666   0.24764
 Alpha virt. eigenvalues --    0.24899   0.25250   0.25259   0.25472   0.25608
 Alpha virt. eigenvalues --    0.25862   0.26129   0.26355   0.26461   0.26597
 Alpha virt. eigenvalues --    0.26784   0.27028   0.27340   0.27503   0.27768
 Alpha virt. eigenvalues --    0.27960   0.28360   0.28519   0.28687   0.28918
 Alpha virt. eigenvalues --    0.28966   0.29288   0.29972   0.30097   0.30407
 Alpha virt. eigenvalues --    0.30822   0.31031   0.31324   0.31520   0.31671
 Alpha virt. eigenvalues --    0.32049   0.32347   0.32489   0.32828   0.32976
 Alpha virt. eigenvalues --    0.33213   0.33295   0.33595   0.33778   0.33965
 Alpha virt. eigenvalues --    0.34373   0.34574   0.34899   0.35201   0.35787
 Alpha virt. eigenvalues --    0.35915   0.36019   0.36389   0.36482   0.36826
 Alpha virt. eigenvalues --    0.37043   0.37366   0.37754   0.38033   0.38292
 Alpha virt. eigenvalues --    0.38533   0.38943   0.39207   0.39322   0.39751
 Alpha virt. eigenvalues --    0.39880   0.40143   0.40175   0.40409   0.40611
 Alpha virt. eigenvalues --    0.40812   0.41081   0.41207   0.41449   0.41865
 Alpha virt. eigenvalues --    0.42069   0.42116   0.42478   0.42931   0.43213
 Alpha virt. eigenvalues --    0.43547   0.43839   0.43965   0.44227   0.44478
 Alpha virt. eigenvalues --    0.44625   0.44690   0.44932   0.45053   0.45393
 Alpha virt. eigenvalues --    0.45640   0.45844   0.46005   0.46103   0.46234
 Alpha virt. eigenvalues --    0.46444   0.46853   0.47089   0.47155   0.47177
 Alpha virt. eigenvalues --    0.47394   0.47535   0.47814   0.48039   0.48140
 Alpha virt. eigenvalues --    0.48315   0.48465   0.49007   0.49246   0.49498
 Alpha virt. eigenvalues --    0.49708   0.49814   0.49993   0.50124   0.50452
 Alpha virt. eigenvalues --    0.50960   0.51204   0.51452   0.51510   0.51708
 Alpha virt. eigenvalues --    0.51989   0.52094   0.52241   0.52447   0.52748
 Alpha virt. eigenvalues --    0.52803   0.52934   0.53095   0.53197   0.53220
 Alpha virt. eigenvalues --    0.53671   0.53800   0.53971   0.54085   0.54306
 Alpha virt. eigenvalues --    0.54597   0.54770   0.54974   0.55149   0.55191
 Alpha virt. eigenvalues --    0.55449   0.55542   0.55600   0.55961   0.56012
 Alpha virt. eigenvalues --    0.56334   0.56390   0.56486   0.56564   0.56797
 Alpha virt. eigenvalues --    0.56925   0.57075   0.57216   0.57617   0.57671
 Alpha virt. eigenvalues --    0.57986   0.58124   0.58337   0.58498   0.58518
 Alpha virt. eigenvalues --    0.58637   0.58800   0.59061   0.59182   0.59459
 Alpha virt. eigenvalues --    0.59504   0.59646   0.59798   0.59842   0.60001
 Alpha virt. eigenvalues --    0.60158   0.60341   0.60451   0.60720   0.60864
 Alpha virt. eigenvalues --    0.60987   0.61077   0.61147   0.61292   0.61663
 Alpha virt. eigenvalues --    0.61720   0.61897   0.62018   0.62318   0.62461
 Alpha virt. eigenvalues --    0.62491   0.62741   0.62865   0.63081   0.63202
 Alpha virt. eigenvalues --    0.63205   0.63379   0.63530   0.63586   0.63728
 Alpha virt. eigenvalues --    0.63774   0.64054   0.64114   0.64179   0.64266
 Alpha virt. eigenvalues --    0.64431   0.64538   0.64613   0.64709   0.64815
 Alpha virt. eigenvalues --    0.64966   0.65006   0.65176   0.65302   0.65491
 Alpha virt. eigenvalues --    0.65521   0.65663   0.65761   0.65773   0.66013
 Alpha virt. eigenvalues --    0.66154   0.66264   0.66297   0.66456   0.66549
 Alpha virt. eigenvalues --    0.66696   0.66721   0.66823   0.66898   0.67015
 Alpha virt. eigenvalues --    0.67207   0.67289   0.67448   0.67625   0.67738
 Alpha virt. eigenvalues --    0.67939   0.68040   0.68166   0.68325   0.68384
 Alpha virt. eigenvalues --    0.68525   0.68693   0.68750   0.68902   0.68930
 Alpha virt. eigenvalues --    0.69087   0.69204   0.69305   0.69412   0.69702
 Alpha virt. eigenvalues --    0.69740   0.69912   0.69963   0.70066   0.70268
 Alpha virt. eigenvalues --    0.70386   0.70449   0.70605   0.70678   0.70823
 Alpha virt. eigenvalues --    0.71085   0.71234   0.71325   0.71387   0.71550
 Alpha virt. eigenvalues --    0.71595   0.71920   0.71997   0.72121   0.72279
 Alpha virt. eigenvalues --    0.72386   0.72484   0.72557   0.72703   0.73078
 Alpha virt. eigenvalues --    0.73206   0.73394   0.73493   0.73691   0.73862
 Alpha virt. eigenvalues --    0.74023   0.74328   0.74390   0.74540   0.74614
 Alpha virt. eigenvalues --    0.74922   0.75216   0.75419   0.75633   0.75783
 Alpha virt. eigenvalues --    0.76168   0.76309   0.76371   0.76559   0.76866
 Alpha virt. eigenvalues --    0.77054   0.77402   0.77717   0.77943   0.78180
 Alpha virt. eigenvalues --    0.78219   0.78567   0.78718   0.78950   0.79062
 Alpha virt. eigenvalues --    0.79233   0.79581   0.80226   0.80433   0.80538
 Alpha virt. eigenvalues --    0.80657   0.80872   0.81018   0.81276   0.81526
 Alpha virt. eigenvalues --    0.81773   0.81955   0.82262   0.82370   0.82658
 Alpha virt. eigenvalues --    0.83044   0.83367   0.83558   0.83835   0.84019
 Alpha virt. eigenvalues --    0.84200   0.84590   0.84672   0.85293   0.85731
 Alpha virt. eigenvalues --    0.85912   0.86134   0.86665   0.86923   0.87004
 Alpha virt. eigenvalues --    0.87149   0.87558   0.88083   0.88380   0.88488
 Alpha virt. eigenvalues --    0.89003   0.89275   0.89545   0.90102   0.90304
 Alpha virt. eigenvalues --    0.90697   0.90809   0.91008   0.91467   0.91665
 Alpha virt. eigenvalues --    0.92036   0.92251   0.92528   0.92757   0.93038
 Alpha virt. eigenvalues --    0.93096   0.93693   0.93819   0.93979   0.94539
 Alpha virt. eigenvalues --    0.94789   0.94922   0.95357   0.95812   0.96023
 Alpha virt. eigenvalues --    0.96518   0.96698   0.96796   0.97082   0.97387
 Alpha virt. eigenvalues --    0.97695   0.97981   0.98262   0.98368   0.98843
 Alpha virt. eigenvalues --    0.99033   0.99221   0.99477   0.99729   1.00133
 Alpha virt. eigenvalues --    1.00398   1.00685   1.01057   1.01200   1.01644
 Alpha virt. eigenvalues --    1.01729   1.01751   1.02257   1.02400   1.02847
 Alpha virt. eigenvalues --    1.02962   1.03375   1.03744   1.03977   1.04249
 Alpha virt. eigenvalues --    1.04628   1.04767   1.05059   1.05586   1.06031
 Alpha virt. eigenvalues --    1.06311   1.06509   1.06877   1.06895   1.07305
 Alpha virt. eigenvalues --    1.07788   1.08013   1.08198   1.08387   1.08491
 Alpha virt. eigenvalues --    1.08813   1.09090   1.09296   1.09638   1.09768
 Alpha virt. eigenvalues --    1.10279   1.10425   1.10848   1.10873   1.11313
 Alpha virt. eigenvalues --    1.11370   1.11631   1.11792   1.12215   1.12527
 Alpha virt. eigenvalues --    1.12642   1.12938   1.13065   1.13302   1.13832
 Alpha virt. eigenvalues --    1.14185   1.14770   1.14999   1.15217   1.15649
 Alpha virt. eigenvalues --    1.16032   1.16203   1.16358   1.16657   1.17277
 Alpha virt. eigenvalues --    1.17569   1.17632   1.17913   1.18389   1.18792
 Alpha virt. eigenvalues --    1.18922   1.19044   1.19408   1.19600   1.19768
 Alpha virt. eigenvalues --    1.20292   1.20577   1.20904   1.20919   1.21314
 Alpha virt. eigenvalues --    1.21654   1.21991   1.22024   1.22236   1.22542
 Alpha virt. eigenvalues --    1.22713   1.22940   1.23291   1.23674   1.23989
 Alpha virt. eigenvalues --    1.24172   1.24664   1.24884   1.25077   1.25193
 Alpha virt. eigenvalues --    1.25493   1.25581   1.26101   1.26228   1.26636
 Alpha virt. eigenvalues --    1.27051   1.27157   1.27376   1.27643   1.27884
 Alpha virt. eigenvalues --    1.28132   1.28266   1.28396   1.28891   1.29112
 Alpha virt. eigenvalues --    1.29520   1.29640   1.29811   1.30049   1.30095
 Alpha virt. eigenvalues --    1.30230   1.30638   1.30694   1.30877   1.31138
 Alpha virt. eigenvalues --    1.31272   1.31457   1.31839   1.32270   1.32697
 Alpha virt. eigenvalues --    1.32980   1.33228   1.33673   1.33813   1.34347
 Alpha virt. eigenvalues --    1.34383   1.34804   1.35128   1.35418   1.35689
 Alpha virt. eigenvalues --    1.35790   1.36266   1.36577   1.36733   1.36835
 Alpha virt. eigenvalues --    1.37008   1.37207   1.37560   1.38017   1.38231
 Alpha virt. eigenvalues --    1.38397   1.38839   1.39206   1.39580   1.39649
 Alpha virt. eigenvalues --    1.39822   1.40012   1.40112   1.40510   1.40550
 Alpha virt. eigenvalues --    1.40720   1.40910   1.41433   1.41498   1.41579
 Alpha virt. eigenvalues --    1.41833   1.41906   1.42239   1.42500   1.43221
 Alpha virt. eigenvalues --    1.43567   1.43814   1.44402   1.44687   1.45147
 Alpha virt. eigenvalues --    1.45161   1.45393   1.45664   1.45976   1.46167
 Alpha virt. eigenvalues --    1.46422   1.46872   1.47645   1.47792   1.47940
 Alpha virt. eigenvalues --    1.48526   1.48578   1.48837   1.49105   1.49164
 Alpha virt. eigenvalues --    1.49666   1.50374   1.50832   1.50980   1.51198
 Alpha virt. eigenvalues --    1.51330   1.51687   1.52078   1.52230   1.52444
 Alpha virt. eigenvalues --    1.52766   1.53011   1.53437   1.53664   1.53840
 Alpha virt. eigenvalues --    1.54156   1.54367   1.54598   1.55083   1.55406
 Alpha virt. eigenvalues --    1.55462   1.55513   1.56084   1.56508   1.56884
 Alpha virt. eigenvalues --    1.57596   1.57746   1.58524   1.58747   1.58850
 Alpha virt. eigenvalues --    1.59102   1.59254   1.59913   1.60007   1.60569
 Alpha virt. eigenvalues --    1.60656   1.60972   1.61147   1.61692   1.61878
 Alpha virt. eigenvalues --    1.62060   1.62826   1.62982   1.63464   1.63678
 Alpha virt. eigenvalues --    1.63921   1.64122   1.64243   1.64373   1.64843
 Alpha virt. eigenvalues --    1.65110   1.65845   1.66129   1.66525   1.66891
 Alpha virt. eigenvalues --    1.66957   1.67482   1.67615   1.68051   1.68137
 Alpha virt. eigenvalues --    1.68598   1.68699   1.69273   1.69495   1.69755
 Alpha virt. eigenvalues --    1.70011   1.70426   1.70697   1.70895   1.71262
 Alpha virt. eigenvalues --    1.71470   1.71665   1.71810   1.72198   1.72386
 Alpha virt. eigenvalues --    1.72483   1.72498   1.72935   1.73002   1.73350
 Alpha virt. eigenvalues --    1.73573   1.73735   1.73921   1.74075   1.74129
 Alpha virt. eigenvalues --    1.74459   1.74616   1.74965   1.75305   1.75445
 Alpha virt. eigenvalues --    1.75638   1.75879   1.75928   1.76046   1.76311
 Alpha virt. eigenvalues --    1.76478   1.76487   1.76650   1.76762   1.77170
 Alpha virt. eigenvalues --    1.77327   1.77447   1.77619   1.77811   1.78108
 Alpha virt. eigenvalues --    1.78241   1.78437   1.78653   1.78814   1.79016
 Alpha virt. eigenvalues --    1.79156   1.79231   1.79299   1.79496   1.79723
 Alpha virt. eigenvalues --    1.79769   1.80053   1.80370   1.80503   1.80606
 Alpha virt. eigenvalues --    1.80709   1.80813   1.81010   1.81179   1.81284
 Alpha virt. eigenvalues --    1.81568   1.81670   1.81835   1.82054   1.82315
 Alpha virt. eigenvalues --    1.82496   1.82565   1.82738   1.83066   1.83215
 Alpha virt. eigenvalues --    1.83236   1.83571   1.83686   1.83789   1.84061
 Alpha virt. eigenvalues --    1.84345   1.84653   1.84960   1.85004   1.85165
 Alpha virt. eigenvalues --    1.85387   1.85497   1.85734   1.85801   1.86071
 Alpha virt. eigenvalues --    1.86184   1.86459   1.86645   1.87032   1.87198
 Alpha virt. eigenvalues --    1.87401   1.87692   1.87852   1.88011   1.88260
 Alpha virt. eigenvalues --    1.88560   1.88637   1.88737   1.88910   1.89168
 Alpha virt. eigenvalues --    1.89227   1.89399   1.89521   1.89706   1.89929
 Alpha virt. eigenvalues --    1.89987   1.90191   1.90384   1.90761   1.90861
 Alpha virt. eigenvalues --    1.91036   1.91126   1.91356   1.91532   1.91645
 Alpha virt. eigenvalues --    1.91822   1.92171   1.92195   1.92353   1.92545
 Alpha virt. eigenvalues --    1.92725   1.93279   1.93461   1.93656   1.93744
 Alpha virt. eigenvalues --    1.93859   1.94006   1.94522   1.94807   1.94914
 Alpha virt. eigenvalues --    1.95023   1.95509   1.95880   1.96074   1.96252
 Alpha virt. eigenvalues --    1.96626   1.96643   1.97012   1.97509   1.97639
 Alpha virt. eigenvalues --    1.97831   1.97847   1.98099   1.98395   1.98403
 Alpha virt. eigenvalues --    1.98681   1.98920   1.98964   1.99202   1.99400
 Alpha virt. eigenvalues --    1.99816   2.00050   2.00231   2.00301   2.00495
 Alpha virt. eigenvalues --    2.00867   2.01028   2.01372   2.01611   2.01735
 Alpha virt. eigenvalues --    2.01807   2.02368   2.02643   2.02771   2.03031
 Alpha virt. eigenvalues --    2.03192   2.03485   2.03812   2.04070   2.04370
 Alpha virt. eigenvalues --    2.04618   2.04718   2.04846   2.05061   2.05250
 Alpha virt. eigenvalues --    2.05738   2.06119   2.06505   2.06719   2.07087
 Alpha virt. eigenvalues --    2.07149   2.07410   2.07591   2.07758   2.07991
 Alpha virt. eigenvalues --    2.08625   2.08681   2.09077   2.09191   2.09532
 Alpha virt. eigenvalues --    2.09759   2.10105   2.10615   2.10627   2.11017
 Alpha virt. eigenvalues --    2.11357   2.11508   2.11596   2.12295   2.12488
 Alpha virt. eigenvalues --    2.12688   2.12729   2.13274   2.13643   2.13973
 Alpha virt. eigenvalues --    2.14276   2.14600   2.14896   2.15208   2.15706
 Alpha virt. eigenvalues --    2.15842   2.16047   2.16581   2.16897   2.17120
 Alpha virt. eigenvalues --    2.17467   2.17821   2.18213   2.18291   2.18400
 Alpha virt. eigenvalues --    2.18457   2.18769   2.18849   2.19169   2.19387
 Alpha virt. eigenvalues --    2.20007   2.20316   2.20532   2.20651   2.20815
 Alpha virt. eigenvalues --    2.21044   2.21406   2.21696   2.21902   2.22381
 Alpha virt. eigenvalues --    2.22490   2.23027   2.23175   2.23200   2.23690
 Alpha virt. eigenvalues --    2.23784   2.24405   2.24769   2.24823   2.25062
 Alpha virt. eigenvalues --    2.25171   2.25707   2.25965   2.26377   2.26580
 Alpha virt. eigenvalues --    2.28239   2.28534   2.28946   2.29360   2.29509
 Alpha virt. eigenvalues --    2.29665   2.29950   2.30071   2.30513   2.31707
 Alpha virt. eigenvalues --    2.31814   2.32230   2.32397   2.32861   2.32915
 Alpha virt. eigenvalues --    2.33474   2.33814   2.33903   2.34398   2.34720
 Alpha virt. eigenvalues --    2.34911   2.35404   2.35470   2.35856   2.36200
 Alpha virt. eigenvalues --    2.36385   2.36642   2.36895   2.37110   2.37232
 Alpha virt. eigenvalues --    2.37559   2.37821   2.37962   2.38263   2.38669
 Alpha virt. eigenvalues --    2.38869   2.39023   2.39181   2.39549   2.40281
 Alpha virt. eigenvalues --    2.40575   2.40859   2.40991   2.41387   2.41720
 Alpha virt. eigenvalues --    2.42075   2.42182   2.42608   2.42759   2.43120
 Alpha virt. eigenvalues --    2.43804   2.43927   2.44310   2.44673   2.45109
 Alpha virt. eigenvalues --    2.45674   2.45983   2.46173   2.46584   2.46933
 Alpha virt. eigenvalues --    2.47409   2.47532   2.47593   2.47950   2.48072
 Alpha virt. eigenvalues --    2.48432   2.48656   2.48691   2.49479   2.49555
 Alpha virt. eigenvalues --    2.50117   2.50433   2.50759   2.51575   2.51721
 Alpha virt. eigenvalues --    2.52071   2.52632   2.52832   2.52949   2.53339
 Alpha virt. eigenvalues --    2.53937   2.54442   2.55004   2.55799   2.55946
 Alpha virt. eigenvalues --    2.56340   2.56356   2.56627   2.57189   2.57246
 Alpha virt. eigenvalues --    2.57493   2.57633   2.58015   2.58862   2.59020
 Alpha virt. eigenvalues --    2.59130   2.59179   2.59418   2.59557   2.59780
 Alpha virt. eigenvalues --    2.60290   2.60384   2.60835   2.61217   2.61408
 Alpha virt. eigenvalues --    2.62220   2.62627   2.62782   2.63200   2.63267
 Alpha virt. eigenvalues --    2.63511   2.64028   2.64234   2.64370   2.64592
 Alpha virt. eigenvalues --    2.64991   2.65356   2.65998   2.66462   2.66679
 Alpha virt. eigenvalues --    2.66870   2.66983   2.67157   2.67324   2.68156
 Alpha virt. eigenvalues --    2.68402   2.68462   2.68945   2.69079   2.69468
 Alpha virt. eigenvalues --    2.69971   2.70006   2.70104   2.70199   2.70330
 Alpha virt. eigenvalues --    2.70589   2.70843   2.71057   2.71387   2.71569
 Alpha virt. eigenvalues --    2.71915   2.72093   2.72269   2.72691   2.72808
 Alpha virt. eigenvalues --    2.72878   2.73372   2.73516   2.74171   2.74228
 Alpha virt. eigenvalues --    2.74415   2.74766   2.74949   2.75265   2.75474
 Alpha virt. eigenvalues --    2.75712   2.76104   2.76305   2.76487   2.76812
 Alpha virt. eigenvalues --    2.77026   2.77168   2.77255   2.77513   2.77908
 Alpha virt. eigenvalues --    2.78159   2.78980   2.79116   2.79544   2.79794
 Alpha virt. eigenvalues --    2.79892   2.80049   2.80550   2.81130   2.81443
 Alpha virt. eigenvalues --    2.81834   2.81882   2.82202   2.82702   2.83218
 Alpha virt. eigenvalues --    2.83300   2.83398   2.83836   2.84191   2.84460
 Alpha virt. eigenvalues --    2.84914   2.85102   2.85380   2.85890   2.86066
 Alpha virt. eigenvalues --    2.86197   2.86462   2.86787   2.87021   2.87266
 Alpha virt. eigenvalues --    2.87569   2.88468   2.88657   2.89329   2.89915
 Alpha virt. eigenvalues --    2.90094   2.90597   2.90756   2.90922   2.91560
 Alpha virt. eigenvalues --    2.91748   2.91863   2.92133   2.92365   2.92593
 Alpha virt. eigenvalues --    2.93195   2.93270   2.93484   2.93691   2.93904
 Alpha virt. eigenvalues --    2.94068   2.94199   2.94372   2.94606   2.94651
 Alpha virt. eigenvalues --    2.95049   2.95358   2.95778   2.95970   2.96198
 Alpha virt. eigenvalues --    2.96437   2.96531   2.96873   2.97305   2.98097
 Alpha virt. eigenvalues --    2.98514   2.98844   2.99005   2.99228   2.99485
 Alpha virt. eigenvalues --    3.00118   3.00492   3.00860   3.01004   3.01811
 Alpha virt. eigenvalues --    3.02501   3.02672   3.02913   3.03017   3.03281
 Alpha virt. eigenvalues --    3.03981   3.04191   3.04410   3.04484   3.05248
 Alpha virt. eigenvalues --    3.05327   3.05673   3.05986   3.06351   3.06555
 Alpha virt. eigenvalues --    3.07363   3.07605   3.07879   3.08678   3.08818
 Alpha virt. eigenvalues --    3.09412   3.11044   3.11492   3.12489   3.12837
 Alpha virt. eigenvalues --    3.13165   3.13305   3.13460   3.13511   3.13985
 Alpha virt. eigenvalues --    3.14497   3.14598   3.14774   3.15692   3.15863
 Alpha virt. eigenvalues --    3.16328   3.16534   3.16546   3.17063   3.17296
 Alpha virt. eigenvalues --    3.17771   3.18247   3.18582   3.19008   3.19332
 Alpha virt. eigenvalues --    3.19477   3.19882   3.20450   3.20515   3.20703
 Alpha virt. eigenvalues --    3.20992   3.21131   3.21446   3.23135   3.23148
 Alpha virt. eigenvalues --    3.23248   3.23388   3.23630   3.23887   3.24472
 Alpha virt. eigenvalues --    3.24621   3.25105   3.25730   3.26261   3.26887
 Alpha virt. eigenvalues --    3.28255   3.28663   3.29077   3.29251   3.29944
 Alpha virt. eigenvalues --    3.31721   3.32083   3.32793   3.32956   3.33808
 Alpha virt. eigenvalues --    3.35761   3.36921   3.37365   3.38360   3.39958
 Alpha virt. eigenvalues --    3.40601   3.41241   3.47049   3.50612   3.52553
 Alpha virt. eigenvalues --    3.54615   3.55304   3.55538   3.56041   3.56369
 Alpha virt. eigenvalues --    3.57336   3.57683   3.58326   3.59517   3.60137
 Alpha virt. eigenvalues --    3.61139   3.62809   3.63286   3.63555   3.64112
 Alpha virt. eigenvalues --    3.65058   3.65202   3.65510   3.66639   3.66819
 Alpha virt. eigenvalues --    3.68659   3.70039   3.70136   3.70428   3.70924
 Alpha virt. eigenvalues --    3.71458   3.71747   3.71976   3.72139   3.72762
 Alpha virt. eigenvalues --    3.73000   3.73122   3.73421   3.74179   3.75759
 Alpha virt. eigenvalues --    3.77919   3.78420   3.83163   3.88951
          Condensed to atoms (all electrons):
 Mulliken charges:
               1
     1  C    0.057701
     2  C    0.010665
     3  O   -0.292590
     4  H    0.037071
     5  H    0.045062
     6  H   -0.002217
     7  N   -0.133882
     8  C    0.116047
     9  C    0.059883
    10  O   -0.283812
    11  C    0.090208
    12  C    0.143171
    13  O   -0.380939
    14  O   -0.478454
    15  H    0.113874
    16  H    0.000147
    17  H    0.023246
    18  H    0.013993
    19  N   -0.165425
    20  C    0.176386
    21  C    0.065910
    22  O   -0.305179
    23  C   -0.036702
    24  C    0.025522
    25  C   -0.077016
    26  C    0.017150
    27  N    0.096041
    28  H    0.151146
    29  H    0.011410
    30  H    0.019359
    31  H    0.023127
    32  H    0.010571
    33  H    0.033488
    34  H    0.052174
    35  H    0.043665
    36  H    0.079914
    37  H    0.068900
    38  H    0.193266
    39  H    0.193750
    40  H    0.182827
    41  N   -0.125868
    42  C    0.091454
    43  C    0.096573
    44  O   -0.275704
    45  C    0.141929
    46  C    0.081116
    47  O   -0.454042
    48  O   -0.391746
    49  H    0.156895
    50  H    0.018466
    51  H   -0.022415
    52  H    0.009037
    53  N   -0.180399
    54  C    0.213344
    55  C    0.029439
    56  O   -0.297596
    57  H    0.138825
    58  H    0.030422
    59  H    0.019161
    60  N   -0.156667
    61  C    0.160440
    62  C    0.076981
    63  O   -0.282945
    64  C    0.014152
    65  C    0.115556
    66  N   -0.046704
    67  O   -0.349262
    68  H    0.148871
    69  H    0.016371
    70  H    0.056563
    71  H    0.016433
    72  H    0.122225
    73  H    0.121107
    74  N   -0.184785
    75  C    0.261361
    76  C    0.037164
    77  O   -0.298580
    78  H    0.149705
    79  H    0.022248
    80  H    0.029787
    81  N   -0.154364
    82  C    0.115724
    83  C    0.109947
    84  O   -0.361481
    85  C    0.170380
    86  C   -0.010878
    87  C    0.056260
    88  C    0.018489
    89  C   -0.027314
    90  C   -0.057007
    91  C    0.163112
    92  O   -0.189916
    93  H    0.155554
    94  H   -0.011042
    95  H   -0.027218
    96  H   -0.027384
    97  H   -0.040355
    98  H   -0.046863
    99  H   -0.030114
   100  H   -0.053151
   101  H    0.173825
   102  N   -0.110786
   103  C    0.152846
   104  C    0.046413
   105  O   -0.282487
   106  C   -0.121326
   107  C    0.052497
   108  C    0.037336
   109  C    0.017563
   110  H    0.130343
   111  H    0.024448
   112  H   -0.019774
   113  H    0.005968
   114  H    0.029981
   115  H    0.002870
   116  H    0.005544
   117  H    0.038029
   118  H    0.006911
   119  H    0.009739
   120  H   -0.005666
   121  N   -0.132188
   122  C    0.131566
   123  C    0.087368
   124  O   -0.307675
   125  C    0.242448
   126  O   -0.314131
   127  H    0.141363
   128  H    0.041586
   129  H    0.014977
   130  H   -0.027979
   131  H    0.174108
   132  N   -0.107401
   133  C    0.081803
   134  C    0.045424
   135  O   -0.236469
   136  C    0.024619
   137  H    0.112742
   138  H    0.023053
   139  H    0.017924
   140  H    0.043434
   141  H    0.035960
   142  N   -0.127650
   143  C    0.125959
   144  C    0.071368
   145  O   -0.291211
   146  C    0.007009
   147  H    0.101497
   148  H    0.018156
   149  H    0.023842
   150  H    0.019019
   151  H    0.018052
   152  N   -0.146266
   153  C    0.076496
   154  C    0.082560
   155  O   -0.272004
   156  C    0.043689
   157  C    0.110783
   158  C    0.123413
   159  O   -0.423223
   160  O   -0.420615
   161  H    0.125267
   162  H   -0.040949
   163  H    0.064314
   164  H   -0.025063
   165  H   -0.018984
   166  H   -0.036268
   167  N   -0.164814
   168  C    0.131205
   169  H    0.024822
   170  H    0.031532
   171  H    0.007097
   172  H    0.120563
   173  Ca   1.275886
   174  O   -0.295944
   175  H    0.162189
   176  H    0.150717
 Sum of Mulliken charges =  -0.00000
 Mulliken charges with hydrogens summed into heavy atoms:
               1
     1  C    0.137618
     2  C    0.010665
     3  O   -0.292590
     7  N   -0.020009
     8  C    0.116194
     9  C    0.059883
    10  O   -0.283812
    11  C    0.127447
    12  C    0.143171
    13  O   -0.380939
    14  O   -0.478454
    19  N   -0.014278
    20  C    0.187796
    21  C    0.065910
    22  O   -0.305179
    23  C    0.005784
    24  C    0.069581
    25  C    0.018823
    26  C    0.165964
    27  N    0.665884
    41  N    0.031027
    42  C    0.109920
    43  C    0.096573
    44  O   -0.275704
    45  C    0.128551
    46  C    0.081116
    47  O   -0.454042
    48  O   -0.391746
    53  N   -0.041574
    54  C    0.262927
    55  C    0.029439
    56  O   -0.297596
    60  N   -0.007795
    61  C    0.176812
    62  C    0.076981
    63  O   -0.282945
    64  C    0.087148
    65  C    0.115556
    66  N    0.196628
    67  O   -0.349262
    74  N   -0.035079
    75  C    0.313396
    76  C    0.037164
    77  O   -0.298580
    81  N    0.001189
    82  C    0.104682
    83  C    0.109947
    84  O   -0.361481
    85  C    0.115778
    86  C   -0.010878
    87  C    0.015904
    88  C   -0.028375
    89  C   -0.057428
    90  C   -0.110158
    91  C    0.163112
    92  O   -0.016091
   102  N    0.019557
   103  C    0.177294
   104  C    0.046413
   105  O   -0.282487
   106  C   -0.141100
   107  C    0.088446
   108  C    0.083780
   109  C    0.028547
   121  N    0.009174
   122  C    0.173153
   123  C    0.087368
   124  O   -0.307675
   125  C    0.229446
   126  O   -0.140023
   132  N    0.005341
   133  C    0.104855
   134  C    0.045424
   135  O   -0.236469
   136  C    0.121938
   142  N   -0.026153
   143  C    0.144114
   144  C    0.071368
   145  O   -0.291211
   146  C    0.067921
   152  N   -0.021000
   153  C    0.035547
   154  C    0.082560
   155  O   -0.272004
   156  C    0.082940
   157  C    0.055531
   158  C    0.123413
   159  O   -0.423223
   160  O   -0.420615
   167  N   -0.044251
   168  C    0.194656
   173  Ca   1.275886
   174  O    0.016961
 DipInt: DoE/N= T F RetVal/Mat= T F Init=T NMatP=  1 IDeriv=0 Min/MaxMlt=  0  4
 Entering OneElI...
 OneElI was handed  1333951383 working-precision words.
 Multipole integrals L=0 to 4 MinM= 0 MaxM= 0.
 Requested accuracy = 0.1000D-12
 ShPair: Thresh= 1.00D-13 NBox=     0 BxSize= 0.00D+00 RnKept= 2.55D+01
         NSMCal=               327645 NSMKep=              162947
 PrmmSu-InSpLW:  IPartL=    0 NPrtUS=    1 NPrtUL=    1 DoSpLW=F IThBeg=    0 IThEnd=    0 NThAct=    1.
 PrsmSu:  NPrtUS=   1 ThrOK=F IAlg=1 NPAlg=1 LenDen=           0 ISkipM=0 DoSpLW=F IThBeg=    0 IThEnd=    0.
 Prism:   IPart=     0 DynPar=F LinDyn=F Incr=         512.
 PRISM was handed  1323779209 working-precision words and162947 shell-pairs
 IPart=  0 NShTot=      162947 NBatch=         373 AvBLen=       436.9
 PrsmSu-ThDecC:  IPartSL=    0    0 NPrtUSL=    1    1 IThBeg=    0 IThEnd=    0 CPU=   -1 GPU=   -1 NThAct=    1.
 PrSmSu:  NxtVal=            513.
 Electronic moments (au):
       -716.00000000         15.06123387          0.09206148         -6.88575531
     -53652.78426064     -29562.48384488     -11237.49653023         69.89594767
        -50.61359804        -18.56583079     -75462.14293581      -8376.88376201
     -25857.20867471      43128.77593326      84404.31412679      52922.67768232
     -13398.18622505      -3154.19056057      26129.14509957       6327.34099577
   -7942167.19370184   -2809826.61615598    -533644.52490751     138227.73658445
     275998.36764091    -597210.79635712      45634.76775160     -77324.75003452
     -12374.45540818   -2262352.97828049    -617540.94911412    -306371.39996248
    -145212.45695744      -5882.83133826     -34667.97362543
 Electronic spatial extent (au):  <R**2>=          94452.7646
 DipInt: DoE/N= F T RetVal/Mat= T F Init=T NMatP=  1 IDeriv=0 Min/MaxMlt=  0  4
 Nuclear    moments (au):
        716.00000000         -0.00000000         -0.00000000          0.00000000
      53223.22284801      29186.39375101      10874.97451191          0.00000000
          0.00000000         -0.00000000      77425.96549268       9007.27903705
      25683.26874535     -40925.28648482     -84058.50432737     -54102.64886949
      13602.38148846       3255.55841323     -26753.32288351      -6835.16046558
    7745736.79070181    2708708.72498184     498465.51079817    -129154.85810735
    -283101.45318484     608773.12049968     -49974.26180007      77330.37774010
      12277.25623985    2225333.19567991     585856.14952600     285500.96085294
     142616.28850803      -1258.33061554      37044.66246010
 Total      moments (au):
         -0.00000000         15.06123387          0.09206148         -6.88575531
       -429.56141263       -376.09009387       -362.52201832         69.89594767
        -50.61359804        -18.56583079       1963.82255687        630.39527503
       -173.93992936       2203.48944844        345.80979942      -1179.97118717
        204.19526341        101.36785267       -624.17778394       -507.81946981
    -196430.40300004    -101117.89117414     -35179.01410934       9072.87847710
      -7103.08554393      11562.32414256      -4339.49404847          5.62770558
        -97.19916834     -37019.78260058     -31684.79958812     -20870.43910954
      -2596.16844941      -7141.16195380       2376.68883467
 Traceless Quadrup. (au):
        -40.17023769         13.30108107         26.86915662         69.89594767
        -50.61359804        -18.56583079
 Charge=             -0.0000 electrons
 Dipole moment (field-independent basis, Debye):
    X=             38.2818    Y=              0.2340    Z=            -17.5018  Tot=             42.0936
 Quadrupole moment (field-independent basis, Debye-Ang):
   XX=           -577.7748   YY=           -505.8541   ZZ=           -487.6045
   XY=             94.0124   XZ=            -68.0770   YZ=            -24.9717
 Traceless Quadrupole moment (field-independent basis, Debye-Ang):
   XX=            -54.0303   YY=             17.8904   ZZ=             36.1399
   XY=             94.0124   XZ=            -68.0770   YZ=            -24.9717
 Octapole moment (field-independent basis, Debye-Ang**2):
  XXX=           1397.7732  YYY=            448.6911  ZZZ=           -123.8037  XYY=           1568.3589
  XXY=            246.1341  XXZ=           -839.8580  XZZ=            145.3383  YZZ=             72.1497
  YYZ=           -444.2657  XYZ=           -361.4463
 Hexadecapole moment (field-independent basis, Debye-Ang**3):
 XXXX=         -73985.1089 YYYY=         -38085.8466 ZZZZ=         -13250.1036 XXXY=           3417.2811
 XXXZ=          -2675.3626 YYYX=           4354.9257 YYYZ=          -1634.4615 ZZZX=              2.1197
 ZZZY=            -36.6099 XXYY=         -13943.4253 XXZZ=         -11934.0149 YYZZ=          -7860.8081
 XXYZ=           -977.8415 YYXZ=          -2689.7040 ZZXY=            895.1750
 N-N= 2.182186309066D+04 E-N=-5.612582631711D+04  KE= 5.290695051597D+03
 Leave Link  601 at Sat Sep 14 23:49:58 2019, MaxMem=  1342177280 cpu:              53.5 elap:               1.4
 FitSet:  NAtFit=   176 NAtPot=   176 NAtFrz=     0 MDM=   180 TotChg=   0.00000
 Merz-Kollman atomic radii used.
 Read replacement radii for each type of atom:
 Rad(20) =   1.700000000000D+00
 Atom Element Radius
    1     6    1.50
    2     6    1.50
    3     8    1.40
    4     1    1.20
    5     1    1.20
    6     1    1.20
    7     7    1.50
    8     6    1.50
    9     6    1.50
   10     8    1.40
   11     6    1.50
   12     6    1.50
   13     8    1.40
   14     8    1.40
   15     1    1.20
   16     1    1.20
   17     1    1.20
   18     1    1.20
   19     7    1.50
   20     6    1.50
   21     6    1.50
   22     8    1.40
   23     6    1.50
   24     6    1.50
   25     6    1.50
   26     6    1.50
   27     7    1.50
   28     1    1.20
   29     1    1.20
   30     1    1.20
   31     1    1.20
   32     1    1.20
   33     1    1.20
   34     1    1.20
   35     1    1.20
   36     1    1.20
   37     1    1.20
   38     1    1.20
   39     1    1.20
   40     1    1.20
   41     7    1.50
   42     6    1.50
   43     6    1.50
   44     8    1.40
   45     6    1.50
   46     6    1.50
   47     8    1.40
   48     8    1.40
   49     1    1.20
   50     1    1.20
   51     1    1.20
   52     1    1.20
   53     7    1.50
   54     6    1.50
   55     6    1.50
   56     8    1.40
   57     1    1.20
   58     1    1.20
   59     1    1.20
   60     7    1.50
   61     6    1.50
   62     6    1.50
   63     8    1.40
   64     6    1.50
   65     6    1.50
   66     7    1.50
   67     8    1.40
   68     1    1.20
   69     1    1.20
   70     1    1.20
   71     1    1.20
   72     1    1.20
   73     1    1.20
   74     7    1.50
   75     6    1.50
   76     6    1.50
   77     8    1.40
   78     1    1.20
   79     1    1.20
   80     1    1.20
   81     7    1.50
   82     6    1.50
   83     6    1.50
   84     8    1.40
   85     6    1.50
   86     6    1.50
   87     6    1.50
   88     6    1.50
   89     6    1.50
   90     6    1.50
   91     6    1.50
   92     8    1.40
   93     1    1.20
   94     1    1.20
   95     1    1.20
   96     1    1.20
   97     1    1.20
   98     1    1.20
   99     1    1.20
  100     1    1.20
  101     1    1.20
  102     7    1.50
  103     6    1.50
  104     6    1.50
  105     8    1.40
  106     6    1.50
  107     6    1.50
  108     6    1.50
  109     6    1.50
  110     1    1.20
  111     1    1.20
  112     1    1.20
  113     1    1.20
  114     1    1.20
  115     1    1.20
  116     1    1.20
  117     1    1.20
  118     1    1.20
  119     1    1.20
  120     1    1.20
  121     7    1.50
  122     6    1.50
  123     6    1.50
  124     8    1.40
  125     6    1.50
  126     8    1.40
  127     1    1.20
  128     1    1.20
  129     1    1.20
  130     1    1.20
  131     1    1.20
  132     7    1.50
  133     6    1.50
  134     6    1.50
  135     8    1.40
  136     6    1.50
  137     1    1.20
  138     1    1.20
  139     1    1.20
  140     1    1.20
  141     1    1.20
  142     7    1.50
  143     6    1.50
  144     6    1.50
  145     8    1.40
  146     6    1.50
  147     1    1.20
  148     1    1.20
  149     1    1.20
  150     1    1.20
  151     1    1.20
  152     7    1.50
  153     6    1.50
  154     6    1.50
  155     8    1.40
  156     6    1.50
  157     6    1.50
  158     6    1.50
  159     8    1.40
  160     8    1.40
  161     1    1.20
  162     1    1.20
  163     1    1.20
  164     1    1.20
  165     1    1.20
  166     1    1.20
  167     7    1.50
  168     6    1.50
  169     1    1.20
  170     1    1.20
  171     1    1.20
  172     1    1.20
  173    20    1.70
  174     8    1.40
[...]
 **** Fit      -0.031368
 **** Fit      -0.027921
 **** Fit      -0.029895
 **** Fit      -0.031555
 **** Fit      -0.033198
 **** Fit      -0.026405
 **** Fit      -0.028215
 **** Fit      -0.029582
 **** Fit      -0.030924
 **** Fit      -0.032510
 **** Fit      -0.034489
 **** Fit      -0.025339
 **** Fit      -0.026850
 **** Fit      -0.027860
 **** Fit      -0.028757
 **** Fit      -0.029832
 **** Fit      -0.031307
 **** Fit      -0.033356
 **** Fit      -0.036141
 **** Fit      -0.024654
 **** Fit      -0.025714
 **** Fit      -0.026288
 **** Fit      -0.026713
 **** Fit      -0.027263
 **** Fit      -0.028167
 **** Fit      -0.029620
 **** Fit      -0.031797
 **** Fit      -0.034908
 **** Fit      -0.039276
 **** Fit      -0.024187
 **** Fit      -0.024704
 **** Fit      -0.024772
 **** Fit      -0.024664
 **** Fit      -0.024626
 **** Fit      -0.024875
 **** Fit      -0.025603
 **** Fit      -0.026975
 **** Fit      -0.029153
 **** Fit      -0.032346
 **** Fit      -0.036897
 **** Fit      -0.023416
 **** Fit      -0.023974
 **** Fit      -0.023871
 **** Fit      -0.023344
 **** Fit      -0.022629
 **** Fit      -0.021958
 **** Fit      -0.021549
 **** Fit      -0.021598
 **** Fit      -0.022272
 **** Fit      -0.023717
 **** Fit      -0.026082
 **** Fit      -0.029574
 **** Fit      -0.034556
 **** Fit      -0.024211
 **** Fit      -0.024004
 **** Fit      -0.023133
 **** Fit      -0.021824
 **** Fit      -0.020329
 **** Fit      -0.018903
 **** Fit      -0.017794
 **** Fit      -0.017226
 **** Fit      -0.017387
 **** Fit      -0.018425
 **** Fit      -0.020471
 **** Fit      -0.023684
 **** Fit      -0.028340
 **** Fit      -0.034975
 **** Fit      -0.025485
 **** Fit      -0.024433
 **** Fit      -0.022653
 **** Fit      -0.020392
 **** Fit      -0.017932
 **** Fit      -0.015559
 **** Fit      -0.013555
 **** Fit      -0.012179
 **** Fit      -0.011642
 **** Fit      -0.012098
 **** Fit      -0.013651
 **** Fit      -0.016396
 **** Fit      -0.020493
 **** Fit      -0.026261
 **** Fit      -0.027665
 **** Fit      -0.025534
 **** Fit      -0.022524
 **** Fit      -0.018967
 **** Fit      -0.015219
 **** Fit      -0.011627
 **** Fit      -0.008530
 **** Fit      -0.006235
 **** Fit      -0.004988
 **** Fit      -0.004948
 **** Fit      -0.006186
 **** Fit      -0.008737
 **** Fit      -0.012669
 **** Fit      -0.018143
 **** Fit      -0.022882
 **** Fit      -0.017473
 **** Fit      -0.011964
 **** Fit      -0.006797
 **** Fit      -0.002384
 **** Fit       0.000908
 **** Fit       0.002806
 **** Fit       0.003168
 **** Fit       0.001973
 **** Fit      -0.000744
 **** Fit      -0.004937
 **** Fit      -0.016417
 **** Fit      -0.008676
 **** Fit      -0.001610
 **** Fit       0.004333
 **** Fit       0.008763
 **** Fit       0.011418
 **** Fit      -0.003049
 **** Fit       0.006168
 **** Fit       0.013458
 **** Fit       0.059151
 **** Fit       0.043776
 **** Fit       0.050376
 **** Fit       0.057435
 **** Fit       0.048520
 **** Fit       0.053249
 **** Fit       0.044350
 **** Fit       0.046644
 **** Fit       0.004394
 **** Fit       0.038597
 **** Fit       0.037696
 **** Fit       0.015934
 **** Fit       0.004040
 **** Fit       0.030214
 **** Fit       0.025813
 **** Fit       0.018081
 **** Fit       0.007860
 **** Fit       0.017354
 **** Fit       0.008008
 **** Fit       0.008752
 **** Fit      -0.000063
 **** Fit      -0.014878
 **** Fit      -0.004531
 **** Fit      -0.017197
 **** Fit      -0.019788
 **** Fit      -0.002321
 **** Fit      -0.009599
 **** Fit      -0.018716
 **** Fit       0.002782
 **** Fit      -0.000025
 **** Fit      -0.004283
 **** Fit      -0.010138
 **** Fit      -0.017212
 **** Fit      -0.024529
 **** Fit       0.006710
 **** Fit       0.006090
 **** Fit       0.003134
 **** Fit       0.000658
 **** Fit      -0.002238
 **** Fit      -0.006139
 **** Fit      -0.011160
 **** Fit      -0.016748
 **** Fit      -0.021653
 **** Fit      -0.024175
 **** Fit      -0.022935
 **** Fit      -0.017966
 **** Fit      -0.010976
 **** Fit      -0.004221
 **** Fit       0.000959
 **** Fit       0.004799
 **** Fit       0.008595
 **** Fit       0.013384
 **** Fit       0.019254
 **** Fit       0.003569
 **** Fit      -0.000089
 **** Fit      -0.003515
 **** Fit      -0.007481
 **** Fit      -0.012011
 **** Fit      -0.016097
 **** Fit      -0.018015
 **** Fit      -0.016463
 **** Fit      -0.011859
 **** Fit      -0.006134
 **** Fit      -0.000922
 **** Fit       0.003684
 **** Fit       0.008401
 **** Fit       0.013279
 **** Fit       0.008339
 **** Fit       0.000893
 **** Fit      -0.003328
 **** Fit      -0.007508
 **** Fit      -0.011342
 **** Fit      -0.013050
 **** Fit      -0.011094
 **** Fit      -0.006426
 **** Fit      -0.001205
 **** Fit       0.003651
 **** Fit       0.007425
 **** Fit       0.008231
 **** Fit       0.005302
 **** Fit      -0.001683
 **** Fit      -0.006286
 **** Fit      -0.008548
 **** Fit      -0.005579
 **** Fit      -0.000540
 **** Fit       0.001432
 **** Fit      -0.003916
 **** Fit       0.011407
 **** Fit       0.042424
 **** Fit       0.040907
 **** Fit       0.042419
 **** Fit       0.036217
 **** Fit       0.037146
 **** Fit       0.036448
 **** Fit       0.031793
 **** Fit       0.032308
 **** Fit       0.031230
 **** Fit       0.027591
 **** Fit       0.026915
 **** Fit       0.027726
 **** Fit       0.026206
 **** Fit       0.021440
 **** Fit       0.013923
 **** Fit       0.006277
 **** Fit       0.024414
 **** Fit       0.022842
 **** Fit       0.021748
 **** Fit       0.015850
 **** Fit       0.011642
 **** Fit       0.015103
 **** Fit       0.019859
 **** Fit       0.017958
 **** Fit       0.068308
 **** Fit       0.065144
 **** Fit       0.009349
 **** Fit       0.051031
 **** Fit       0.013382
 **** Fit       0.040446
 **** Fit       0.034797
 **** Fit       0.024204
 **** Fit      -0.001321
 **** Fit      -0.001109
 **** Fit      -0.002077
 **** Fit      -0.002470
 **** Fit      -0.001583
 **** Fit      -0.000439
 **** Fit      -0.000352
 **** Fit      -0.000981
 **** Fit      -0.001854
 **** Fit      -0.003243
 **** Fit      -0.001872
 **** Fit       0.000816
 **** Fit       0.000463
 **** Fit      -0.000182
 **** Fit      -0.000965
 **** Fit      -0.001740
 **** Fit      -0.003882
 **** Fit       0.001129
 **** Fit       0.000491
 **** Fit      -0.000213
 **** Fit      -0.001078
 **** Fit      -0.001828
 **** Fit      -0.005546
 **** Fit      -0.003658
 **** Fit       0.001762
 **** Fit       0.001085
 **** Fit       0.000391
 **** Fit      -0.000331
 **** Fit      -0.001325
 **** Fit      -0.002045
 **** Fit      -0.002750
 **** Fit      -0.006559
 **** Fit       0.002151
 **** Fit       0.001457
 **** Fit       0.000782
 **** Fit       0.000100
 **** Fit      -0.000604
 **** Fit      -0.001706
 **** Fit      -0.002463
 **** Fit      -0.003203
 **** Fit       0.002685
 **** Fit       0.001910
 **** Fit       0.001187
 **** Fit       0.000491
 **** Fit      -0.000214
 **** Fit      -0.000949
 **** Fit      -0.002228
 **** Fit      -0.003028
 **** Fit      -0.003813
 **** Fit       0.003154
 **** Fit       0.002279
 **** Fit       0.001481
 **** Fit      -0.004635
 **** Fit      -0.005489
 **** Fit       0.003779
 **** Fit       0.002733
 **** Fit      -0.006574
 **** Fit      -0.007570
 **** Fit       0.004447
 **** Fit       0.003186
 **** Fit      -0.007995
 **** Fit      -0.009034
 **** Fit       0.005498
 **** Fit       0.003987
 **** Fit      -0.009938
 **** Fit      -0.011030
 **** Fit      -0.012502
 **** Fit       0.007324
 **** Fit       0.005856
 **** Fit       0.003793
 **** Fit      -0.013493
 **** Fit      -0.015035
 **** Fit      -0.017371
 **** Fit       0.007956
 **** Fit       0.006102
 **** Fit       0.003141
 **** Fit      -0.016596
 **** Fit      -0.018121
 **** Fit      -0.020483
 **** Fit      -0.024215
 **** Fit       0.008866
 **** Fit      -0.019813
 **** Fit      -0.020745
 **** Fit      -0.022414
 **** Fit      -0.024935
 **** Fit      -0.026011
 **** Fit      -0.001587
 **** Fit      -0.002312
 **** Fit       0.000548
 **** Fit      -0.000170
 **** Fit      -0.000877
 **** Fit      -0.002274
 **** Fit      -0.002985
 **** Fit      -0.003747
 **** Fit       0.001455
 **** Fit       0.000628
 **** Fit      -0.000164
 **** Fit      -0.000900
 **** Fit      -0.001592
 **** Fit      -0.003257
 **** Fit      -0.003900
 **** Fit      -0.004621
 **** Fit      -0.005442
 **** Fit       0.001460
 **** Fit       0.000459
 **** Fit      -0.000476
 **** Fit      -0.001301
 **** Fit      -0.002013
 **** Fit      -0.002647
 **** Fit      -0.004689
 **** Fit      -0.005243
 **** Fit      -0.005906
 **** Fit      -0.006726
 **** Fit       0.001726
 **** Fit       0.000367
 **** Fit      -0.000923
 **** Fit      -0.002034
 **** Fit      -0.002923
 **** Fit      -0.003614
 **** Fit      -0.004174
 **** Fit      -0.006768
 **** Fit      -0.007147
 **** Fit      -0.007668
 **** Fit      -0.008397
 **** Fit      -0.009382
 **** Fit       0.001942
 **** Fit       0.000076
 **** Fit      -0.001773
 **** Fit      -0.003379
 **** Fit      -0.004620
 **** Fit      -0.005488
 **** Fit      -0.006056
 **** Fit      -0.006441
 **** Fit      -0.009757
 **** Fit      -0.009850
 **** Fit      -0.010147
 **** Fit      -0.010729
 **** Fit      -0.011650
 **** Fit       0.000030
 **** Fit      -0.002743
 **** Fit      -0.005302
 **** Fit      -0.007316
 **** Fit      -0.008662
 **** Fit      -0.009401
 **** Fit      -0.009700
 **** Fit      -0.009757
 **** Fit      -0.014026
 **** Fit      -0.013624
 **** Fit      -0.013577
 **** Fit      -0.013977
 **** Fit      -0.014872
 **** Fit      -0.014632
 **** Fit      -0.018787
 **** Fit      -0.018146
 **** Fit      -0.018265
 **** Fit      -0.019144
 **** Fit      -0.023681
 **** Fit      -0.003746
 **** Fit      -0.003235
 **** Fit      -0.004534
 **** Fit      -0.005271
 **** Fit      -0.004434
 **** Fit      -0.002541
 **** Fit      -0.002917
 **** Fit      -0.004070
 **** Fit      -0.005457
 **** Fit      -0.006749
 **** Fit      -0.007294
 **** Fit      -0.006689
 **** Fit      -0.005296
 **** Fit      -0.002809
 **** Fit      -0.003815
 **** Fit      -0.005059
 **** Fit      -0.006568
 **** Fit      -0.008193
 **** Fit      -0.009542
 **** Fit      -0.010080
 **** Fit      -0.009492
 **** Fit      -0.008068
 **** Fit      -0.006370
 **** Fit      -0.002931
 **** Fit      -0.003867
 **** Fit      -0.005002
 **** Fit      -0.006446
 **** Fit      -0.008240
 **** Fit      -0.010283
 **** Fit      -0.012271
 **** Fit      -0.013695
 **** Fit      -0.013985
 **** Fit      -0.012876
 **** Fit      -0.004209
 **** Fit      -0.005281
 **** Fit      -0.006665
 **** Fit      -0.008481
 **** Fit      -0.010773
 **** Fit      -0.013455
 **** Fit      -0.016234
 **** Fit      -0.018583
 **** Fit      -0.019795
 **** Fit      -0.004826
 **** Fit      -0.005827
 **** Fit      -0.007116
 **** Fit      -0.008845
 **** Fit      -0.011143
 **** Fit      -0.014073
 **** Fit      -0.017576
 **** Fit      -0.021392
 **** Fit      -0.025005
 **** Fit      -0.027648
 **** Fit      -0.006828
 **** Fit      -0.008146
 **** Fit      -0.009966
 **** Fit      -0.012481
 **** Fit      -0.015860
 **** Fit      -0.020186
 **** Fit      -0.025367
 **** Fit      -0.008187
 **** Fit      -0.009517
 **** Fit      -0.011388
 **** Fit      -0.014050
 **** Fit      -0.017766
 **** Fit      -0.022781
 **** Fit      -0.011449
 **** Fit      -0.013469
 **** Fit      -0.016423
 **** Fit      -0.020694
 **** Fit      -0.014204
 **** Fit      -0.016665
 **** Fit      -0.020418
 **** Fit      -0.021027
 **** Fit       0.000651
 **** Fit       0.000610
 **** Fit      -0.000551
 **** Fit       0.000751
 **** Fit       0.001835
 **** Fit       0.001632
 **** Fit      -0.000824
 **** Fit       0.000909
 **** Fit       0.002393
 **** Fit       0.003078
 **** Fit       0.003006
 **** Fit       0.002434
 **** Fit       0.001586
 **** Fit      -0.002725
 **** Fit      -0.000944
 **** Fit       0.001100
 **** Fit       0.002932
 **** Fit       0.004040
 **** Fit       0.004378
 **** Fit       0.004221
 **** Fit       0.003761
 **** Fit       0.003089
 **** Fit       0.002295
 **** Fit      -0.004487
 **** Fit      -0.002447
 **** Fit      -0.000031
 **** Fit       0.005797
 **** Fit       0.005511
 **** Fit       0.005067
 **** Fit       0.004482
 **** Fit       0.003756
 **** Fit       0.002941
 **** Fit      -0.006095
 **** Fit      -0.003524
 **** Fit       0.006460
 **** Fit       0.005897
 **** Fit       0.005263
 **** Fit       0.004493
 **** Fit       0.003613
 **** Fit       0.007200
 **** Fit       0.006628
 **** Fit       0.005998
 **** Fit       0.005203
 **** Fit       0.004252
 **** Fit       0.007539
 **** Fit       0.007011
 **** Fit       0.006276
 **** Fit       0.005278
 **** Fit       0.008213
 **** Fit       0.007905
 **** Fit       0.007355
 **** Fit       0.006425
 **** Fit       0.005124
 **** Fit       0.008532
 **** Fit       0.008400
 **** Fit       0.007805
 **** Fit       0.006625
 **** Fit       0.008867
 **** Fit       0.008506
 **** Fit       0.008426
 **** Fit       0.008799
 **** Fit       0.008868
 **** Fit       0.007907
 **** Fit      -0.002031
 **** Fit      -0.005029
 **** Fit      -0.011212
 **** Fit      -0.007875
 **** Fit       0.003481
 **** Fit       0.004972
 **** Fit      -0.000278
 **** Fit       0.016305
 **** Fit       0.020438
 **** Fit       0.023051
 **** Fit       0.011845
 **** Fit       0.024303
 **** Fit       0.025514
 **** Fit       0.039550
 **** Fit       0.026392
 **** Fit       0.018108
 **** Fit       0.012555
 **** Fit       0.013396
 **** Fit       0.018449
 **** Fit       0.024251
 **** Fit       0.025173
 **** Fit       0.028170
 **** Fit       0.031029
 **** Fit       0.031157
 **** Fit       0.023037
 **** Fit       0.018053
 **** Fit       0.019166
 **** Fit       0.022219
 **** Fit       0.023941
 **** Fit       0.025715
 **** Fit       0.021661
 **** Fit       0.025432
 **** Fit       0.024246
 **** Fit       0.027998
 **** Fit       0.022051
 **** Fit       0.026341
 **** Fit       0.030893
 **** Fit       0.017568
 **** Fit       0.021985
 **** Fit       0.026564
 **** Fit       0.031412
 **** Fit       0.036923
 **** Fit       0.015023
 **** Fit       0.018145
 **** Fit       0.022025
 **** Fit       0.026356
 **** Fit       0.031061
 **** Fit       0.036320
 **** Fit       0.017915
 **** Fit       0.020245
 **** Fit       0.023659
 **** Fit       0.027815
 **** Fit       0.032556
 **** Fit       0.037975
 **** Fit       0.020986
 **** Fit       0.022364
 **** Fit       0.025127
 **** Fit       0.028908
 **** Fit       0.033459
 **** Fit       0.038731
 **** Fit       0.023824
 **** Fit       0.025409
 **** Fit       0.028417
 **** Fit       0.032529
 **** Fit       0.037439
 **** Fit       0.042863
 **** Fit       0.042709
 **** Fit       0.026813
 **** Fit       0.029939
 **** Fit       0.034382
 **** Fit       0.039250
 **** Fit       0.042902
 **** Fit       0.030775
 **** Fit       0.035200
 -----------------------------------------------------------------
 Leave Link  602 at Sat Sep 14 23:50:00 2019, MaxMem=  1342177280 cpu:             105.2 elap:               2.2

 Test job not archived.
 1\1\GINC-C503-034\SP\RB3LYP\SVP\C54H83Ca1N15O23\PENGZHI\14-Sep-2019\0\
 \#b3lyp/svp scf=(tight,noincore) Test #IOP(5/87=12) Density=Current Po
 p=(MK,readradii) iop(6/33=2) iop(6/42=6)\\CaMKII_loop3_61.0\\0,1\C,0,6
 8.48,46.82,31.43\C,0,68.04,45.45,31.92\O,0,68.42,44.43,31.34\H,0,69.46
 7,46.742,30.974\H,0,67.767,47.189,30.692\H,0,68.523,47.511,32.272\N,0,
 67.19,45.42,32.95\C,0,66.57,44.21,33.45\C,0,65.55,43.7,32.44\O,0,64.49
 ,44.3,32.31\C,0,65.98,44.49,34.83\C,0,65.39,43.24,35.46\O,0,64.8,43.39
 ,36.55\O,0,65.37,42.11,34.93\H,0,67.01,46.36,33.29\H,0,67.37,43.47,33.
 53\H,0,65.13,45.13,34.64\H,0,66.77,44.92,35.45\N,0,65.84,42.57,31.78\C
 ,0,65.13,42.2,30.58\C,0,63.74,41.61,30.83\O,0,63.08,41.32,29.84\C,0,66
 .04,41.25,29.81\C,0,65.78,41.06,28.32\C,0,66.83,40.09,27.79\C,0,66.42,
 39.67,26.38\N,0,67.56,39.19,25.59\H,0,66.71,42.09,31.97\H,0,65.01,43.1
 2,29.99\H,0,66.12,40.26,30.27\H,0,67.07,41.59,29.9\H,0,65.88,42.01,27.
 8\H,0,64.77,40.67,28.18\H,0,66.93,39.18,28.39\H,0,67.75,40.66,27.63\H,
 0,65.81,40.42,25.88\H,0,65.72,38.85,26.54\H,0,67.88,39.84,24.89\H,0,68
 .35,38.97,26.18\H,0,67.36,38.36,25.05\N,0,63.34,41.41,32.08\C,0,62.24,
 40.56,32.49\C,0,61.48,41.,33.74\O,0,60.28,40.8,33.88\C,0,62.76,39.14,3
 2.65\C,0,63.95,38.99,33.59\O,0,65.1,38.93,33.12\O,0,63.81,39.15,34.83\
 H,0,63.92,41.95,32.71\H,0,61.51,40.58,31.68\H,0,63.13,38.94,31.64\H,0,
 61.99,38.4,32.87\N,0,62.14,41.85,34.53\C,0,61.51,42.45,35.69\C,0,61.79
 ,41.88,37.07\O,0,61.04,42.19,37.99\H,0,63.12,42.05,34.36\H,0,60.43,42.
 52,35.59\H,0,61.79,43.5,35.66\N,0,62.76,40.98,37.25\C,0,63.06,40.23,38
 .45\C,0,63.92,40.94,39.49\O,0,64.27,40.4,40.53\C,0,63.63,38.87,38.07\C
 ,0,65.06,38.67,37.58\N,0,65.57,37.44,37.71\O,0,65.78,39.57,37.16\H,0,6
 3.46,41.07,36.53\H,0,62.11,39.89,38.87\H,0,63.,38.49,37.26\H,0,63.44,3
 8.22,38.92\H,0,64.91,36.69,37.85\H,0,66.43,37.2,37.24\N,0,64.43,42.12,
 39.1\C,0,65.29,43.01,39.85\C,0,66.76,42.63,39.72\O,0,67.56,43.01,40.57
 \H,0,64.09,42.46,38.21\H,0,65.13,43.06,40.92\H,0,65.03,43.97,39.42\N,0
 ,67.18,41.92,38.67\C,0,68.59,41.69,38.42\C,0,68.91,41.9,36.94\O,0,68.1
 5,41.55,36.04\C,0,69.1,40.35,38.93\C,0,68.91,40.01,40.39\C,0,69.68,40.
 63,41.39\C,0,67.9,39.12,40.76\C,0,69.5,40.3,42.74\C,0,67.76,38.77,42.1
 1\C,0,68.54,39.34,43.13\O,0,68.23,39.04,44.42\H,0,66.56,41.67,37.92\H,
 0,69.04,42.56,38.89\H,0,70.16,40.23,38.71\H,0,68.63,39.62,38.28\H,0,70
 .33,41.41,41.02\H,0,67.24,38.62,40.07\H,0,69.97,40.82,43.56\H,0,67.01,
 38.04,42.4\H,0,67.43,38.51,44.44\N,0,70.1,42.41,36.62\C,0,70.75,42.48,
 35.33\C,0,71.94,41.53,35.36\O,0,72.8,41.54,36.24\C,0,71.25,43.9,35.07\
 C,0,70.18,44.98,35.04\C,0,72.05,43.85,33.78\C,0,70.79,46.36,35.27\H,0,
 70.65,42.77,37.39\H,0,70.07,42.2,34.52\H,0,71.94,44.07,35.9\H,0,69.47,
 44.85,35.85\H,0,69.76,44.97,34.03\H,0,72.57,44.77,33.52\H,0,72.88,43.1
 5,33.88\H,0,71.41,43.55,32.95\H,0,71.59,46.68,34.6\H,0,69.95,47.06,35.
 29\H,0,71.27,46.39,36.24\N,0,72.06,40.7,34.32\C,0,73.19,39.82,34.1\C,0
 ,73.85,40.28,32.81\O,0,73.39,41.17,32.08\C,0,72.79,38.35,34.11\O,0,71.
 93,38.05,33.04\H,0,71.42,40.81,33.55\H,0,74.01,40.06,34.78\H,0,72.37,3
 7.91,35.01\H,0,73.64,37.72,33.85\H,0,71.23,37.54,33.44\N,0,75.07,39.8,
 32.53\C,0,76.01,40.13,31.48\C,0,75.35,40.1,30.11\O,0,75.5,41.03,29.33\
 C,0,77.28,39.29,31.56\H,0,75.5,39.14,33.16\H,0,76.35,41.14,31.72\H,0,7
 7.22,38.3,31.09\H,0,77.98,39.81,30.91\H,0,77.78,39.23,32.52\N,0,74.75,
 38.98,29.69\C,0,73.88,38.89,28.53\C,0,72.68,39.83,28.47\O,0,72.3,40.25
 ,27.38\C,0,73.42,37.44,28.49\H,0,74.85,38.17,30.27\H,0,74.44,39.08,27.
 62\H,0,72.79,37.27,29.36\H,0,72.9,37.22,27.55\H,0,74.28,36.78,28.48\N,
 0,72.19,40.35,29.6\C,0,70.99,41.17,29.67\C,0,71.45,42.61,29.47\O,0,70.
 69,43.42,28.95\C,0,70.22,41.02,30.97\C,0,69.46,39.7,31.1\C,0,68.68,39.
 7,32.41\O,0,68.15,40.74,32.84\O,0,68.7,38.67,33.12\H,0,72.55,40.19,30.
 53\H,0,70.33,40.9,28.84\H,0,69.5,41.8,30.75\H,0,70.85,41.1,31.86\H,0,7
 0.1,38.82,31.02\H,0,68.69,39.55,30.35\N,0,72.64,42.93,29.99\C,0,73.35,
 44.17,29.79\H,0,74.312,43.965,29.321\H,0,72.764,44.825,29.145\H,0,73.5
 11,44.656,30.752\H,0,73.04,42.3,30.66\Ca,0,66.72,39.96,34.75\O,0,69.09
 ,39.01,35.82\H,0,69.87,38.72,36.29\H,0,69.29,38.84,34.89\\Version=ES64
 L-G16RevA.03\State=1-A\HF=-5333.5913666\RMSD=5.902e-09\Dipole=9.501170
 6,-7.11281,-11.5498294\Quadrupole=-83.3744033,24.7394124,58.6349909,-1
 3.2190784,36.1225363,45.473635\PG=C01 [X(C54H83Ca1N15O23)]\\@


 MOST BUREAUCRACIES FUNCTION LIKE A SEPTIC TANK.
 THE LARGE CHUNKS RISE TO THE TOP.
 Job cpu time:       0 days  9 hours 33 minutes 19.1 seconds.
 Elapsed time:       0 days  0 hours 12 minutes  4.1 seconds.
 File lengths (MBytes):  RWF=   1517 Int=      0 D2E=      0 Chk=    171 Scr=      1
 Normal termination of Gaussian 16 at Sat Sep 14 23:50:02 2019.
