 Entering Gaussian System, Link 0=g16
 Initial command:
 /home1/apps/gaussian/16rA.03/g16/l1.exe "/scratch/01990/pengzhi/4329068/Gau-203767.inp" -scrdir="/scratch/01990/pengzhi/4329068/"
 Entering Link 1 = /home1/apps/gaussian/16rA.03/g16/l1.exe PID=    203768.
  
 Copyright (c) 1988,1990,1992,1993,1995,1998,2003,2009,2016,
            Gaussian, Inc.  All Rights Reserved.
  
 This is part of the Gaussian(R) 16 program.  It is based on
 the Gaussian(R) 09 system (copyright 2009, Gaussian, Inc.),
 the Gaussian(R) 03 system (copyright 2003, Gaussian, Inc.),
 the Gaussian(R) 98 system (copyright 1998, Gaussian, Inc.),
 the Gaussian(R) 94 system (copyright 1995, Gaussian, Inc.),
 the Gaussian 92(TM) system (copyright 1992, Gaussian, Inc.),
 the Gaussian 90(TM) system (copyright 1990, Gaussian, Inc.),
 the Gaussian 88(TM) system (copyright 1988, Gaussian, Inc.),
 the Gaussian 86(TM) system (copyright 1986, Carnegie Mellon
 University), and the Gaussian 82(TM) system (copyright 1983,
 Carnegie Mellon University). Gaussian is a federally registered
 trademark of Gaussian, Inc.
  
 This software contains proprietary and confidential information,
 including trade secrets, belonging to Gaussian, Inc.
  
 This software is provided under written license and may be
 used, copied, transmitted, or stored only in accord with that
 written license.
  
 The following legend is applicable only to US Government
 contracts under FAR:
  
                    RESTRICTED RIGHTS LEGEND
  
 Use, reproduction and disclosure by the US Government is
 subject to restrictions as set forth in subparagraphs (a)
 and (c) of the Commercial Computer Software - Restricted
 Rights clause in FAR 52.227-19.
  
 Gaussian, Inc.
 340 Quinnipiac St., Bldg. 40, Wallingford CT 06492
  
  
 ---------------------------------------------------------------
 Warning -- This program may not be used in any manner that
 competes with the business of Gaussian, Inc. or will provide
 assistance to any competitor of Gaussian, Inc.  The licensee
 of this program is prohibited from giving any competitor of
 Gaussian, Inc. access to this program.  By using this program,
 the user acknowledges that Gaussian, Inc. is engaged in the
 business of creating and licensing software in the field of
 computational chemistry and represents and warrants to the
 licensee that it is not a competitor of Gaussian, Inc. and that
 it will not use this program in any manner prohibited above.
 ---------------------------------------------------------------
  

 Cite this work as:
 Gaussian 16, Revision A.03,
 M. J. Frisch, G. W. Trucks, H. B. Schlegel, G. E. Scuseria, 
 M. A. Robb, J. R. Cheeseman, G. Scalmani, V. Barone, 
 G. A. Petersson, H. Nakatsuji, X. Li, M. Caricato, A. V. Marenich, 
 J. Bloino, B. G. Janesko, R. Gomperts, B. Mennucci, H. P. Hratchian, 
 J. V. Ortiz, A. F. Izmaylov, J. L. Sonnenberg, D. Williams-Young, 
 F. Ding, F. Lipparini, F. Egidi, J. Goings, B. Peng, A. Petrone, 
 T. Henderson, D. Ranasinghe, V. G. Zakrzewski, J. Gao, N. Rega, 
 G. Zheng, W. Liang, M. Hada, M. Ehara, K. Toyota, R. Fukuda, 
 J. Hasegawa, M. Ishida, T. Nakajima, Y. Honda, O. Kitao, H. Nakai, 
 T. Vreven, K. Throssell, J. A. Montgomery, Jr., J. E. Peralta, 
 F. Ogliaro, M. J. Bearpark, J. J. Heyd, E. N. Brothers, K. N. Kudin, 
 V. N. Staroverov, T. A. Keith, R. Kobayashi, J. Normand, 
 K. Raghavachari, A. P. Rendell, J. C. Burant, S. S. Iyengar, 
 J. Tomasi, M. Cossi, J. M. Millam, M. Klene, C. Adamo, R. Cammi, 
 J. W. Ochterski, R. L. Martin, K. Morokuma, O. Farkas, 
 J. B. Foresman, and D. J. Fox, Gaussian, Inc., Wallingford CT, 2016.
 
 ******************************************
 Gaussian 16:  ES64L-G16RevA.03 25-Dec-2016
                15-Sep-2019 
 ******************************************
 %chk=CaMKII_loop3_82.0.chk
 %nprocshared=48
 Will use up to   48 processors via shared memory.
 %mem=10GB
 %nosave
 ----------------------------------------------------------------------
 #b3lyp/svp scf=(tight,noincore) Test #IOP(5/87=12) Density=Current Pop
 =(MK,readradii) iop(6/33=2) iop(6/42=6)
 ----------------------------------------------------------------------
 1/30=1,38=1,172=1/1;
 2/12=2,17=6,18=5,40=1/2;
 3/5=18,7=101,11=2,25=1,30=1,74=-5/1,2,3;
 4//1;
 5/5=4,32=2,38=5,87=12/2;
 6/7=2,8=2,9=2,10=2,15=8,20=101,22=-1,28=1,33=2,42=6/1,2;
 99/5=1,9=1/99;
 -----------------
 CaMKII_loop3_82.0
 -----------------
 Symbolic Z-matrix:
 Charge =  0 Multiplicity = 1
 C                     81.29     65.31     36.65 
 C                     80.67     65.11     38.03 
 O                     80.96     64.16     38.75 
 H                     82.306    64.916    36.648 
 H                     80.695    64.783    35.904 
 H                     81.313    66.373    36.412 
 N                     79.82     66.08     38.4 
 C                     79.29     66.17     39.74 
 C                     78.1      65.22     39.87 
 O                     76.97     65.66     39.66 
 C                     78.89     67.62     39.96 
 C                     78.52     67.96     41.4 
 O                     78.59     67.07     42.27 
 O                     78.05     69.1      41.59 
 H                     79.5      66.76     37.73 
 H                     79.98     65.87     40.53 
 H                     78.05     67.84     39.29 
 H                     79.66     68.33     39.65 
 N                     78.44     63.96     40.15 
 C                     77.53     62.84     40.28 
 C                     76.27     63.23     41.03 
 O                     75.18     62.89     40.57 
 C                     78.28     61.64     40.85 
 C                     77.54     60.31     40.7 
 C                     78.43     59.17     41.19 
 C                     78.57     59.15     42.71 
 N                     79.4      58.01     43.15 
 H                     79.43     63.75     40.25 
 H                     77.26     62.55     39.26 
 H                     78.39     61.82     41.92 
 H                     79.24     61.57     40.35 
 H                     77.23     60.24     39.66 
 H                     76.68     60.21     41.37 
 H                     79.37     59.29     40.64 
 H                     78.       58.21     40.91 
 H                     77.65     59.29     43.28 
 H                     79.04     60.11     42.94 
 H                     80.31     58.01     42.7 
 H                     79.48     57.97     44.15 
 H                     78.91     57.23     42.73 
 N                     76.27     64.04     42.09 
 C                     75.11     64.43     42.88 
 C                     74.67     65.88     42.74 
 O                     73.78     66.38     43.42 
 C                     75.33     64.03     44.34 
 C                     76.61     64.51     45. 
 O                     77.26     65.43     44.45 
 O                     76.86     64.14     46.17 
 H                     77.17     64.32     42.45 
 H                     74.22     63.89     42.56 
 H                     75.4      62.94     44.37 
 H                     74.53     64.37     44.99 
 N                     75.28     66.59     41.79 
 C                     74.84     67.94     41.51 
 C                     74.97     68.91     42.68 
 O                     74.2      69.85     42.79 
 H                     75.96     66.12     41.2 
 H                     73.79     67.87     41.2 
 H                     75.53     68.15     40.69 
 N                     75.9      68.74     43.63 
 C                     75.99     69.52     44.85 
 C                     76.68     70.86     44.64 
 O                     76.44     71.76     45.43 
 C                     76.55     68.75     46.04 
 C                     78.06     68.64     46.18 
 N                     78.45     68.98     47.41 
 O                     78.84     68.32     45.29 
 H                     76.63     68.07     43.46 
 H                     74.97     69.75     45.16 
 H                     76.13     67.75     46.12 
 H                     76.14     69.21     46.94 
 H                     77.87     69.22     48.21 
 H                     79.43     69.2      47.45 
 N                     77.55     71.05     43.64 
 C                     78.45     72.12     43.26 
 C                     79.96     71.98     43.37 
 O                     80.73     72.92     43.17 
 H                     77.65     70.27     43. 
 H                     78.3      72.95     43.95 
 H                     78.24     72.51     42.27 
 N                     80.35     70.81     43.87 
 C                     81.74     70.42     43.73 
 C                     82.03     68.99     43.28 
 O                     81.21     68.11     43.5 
 C                     82.54     70.84     44.96 
 C                     81.84     70.62     46.28 
 C                     80.96     71.61     46.71 
 C                     82.23     69.58     47.14 
 C                     80.48     71.51     48.02 
 C                     81.68     69.45     48.42 
 C                     80.74     70.41     48.86 
 O                     80.08     70.29     50.05 
 H                     79.72     70.09     44.2 
 H                     82.2      71.       42.93 
 H                     82.7      71.91     44.86 
 H                     83.51     70.35     44.93 
 H                     80.72     72.49     46.11 
 H                     83.08     69.01     46.8 
 H                     79.88     72.33     48.38 
 H                     82.04     68.62     49.01 
 H                     80.5      69.61     50.58 
 N                     83.23     68.71     42.76 
 C                     83.56     67.38     42.28 
 C                     84.49     66.7      43.26 
 O                     85.34     67.41     43.8 
 C                     84.27     67.41     40.93 
 C                     83.38     68.04     39.86 
 C                     84.51     66.       40.4 
 C                     84.24     68.73     38.81 
 H                     83.81     69.49     42.49 
 H                     82.71     66.71     42.15 
 H                     85.2      67.96     41.01 
 H                     82.73     68.8      40.3 
 H                     82.67     67.33     39.42 
 H                     84.86     66.02     39.37 
 H                     85.29     65.51     40.99 
 H                     83.65     65.34     40.5 
 H                     83.78     69.45     38.14 
 H                     84.86     69.42     39.38 
 H                     84.81     68.       38.23 
 N                     84.42     65.4      43.55 
 C                     85.39     64.63     44.3 
 C                     86.32     63.8      43.43 
 O                     86.05     63.54     42.26 
 C                     84.72     63.79     45.38 
 O                     83.94     62.83     44.7 
 H                     83.8      64.82     43. 
 H                     86.01     65.28     44.92 
 H                     84.02     64.46     45.89 
 H                     85.57     63.33     45.88 
 H                     83.14     62.66     45.2 
 N                     87.43     63.39     44.05 
 C                     88.31     62.36     43.53 
 C                     87.58     61.09     43.11 
 O                     87.84     60.5      42.07 
 C                     89.43     62.08     44.52 
 H                     87.64     63.75     44.97 
 H                     88.77     62.77     42.63 
 H                     90.04     61.28     44.1 
 H                     90.08     62.94     44.63 
 H                     89.02     61.81     45.5 
 N                     86.66     60.52     43.89 
 C                     85.92     59.31     43.59 
 C                     84.99     59.56     42.41 
 O                     84.88     58.71     41.53 
 C                     85.1      58.93     44.81 
 H                     86.56     61.       44.77 
 H                     86.64     58.53     43.35 
 H                     84.17     59.49     44.91 
 H                     84.79     57.89     44.71 
 H                     85.61     58.97     45.77 
 N                     84.4      60.76     42.34 
 C                     83.58     61.24     41.25 
 C                     84.37     61.44     39.97 
 O                     83.78     61.2      38.92 
 C                     82.85     62.5      41.72 
 C                     81.58     62.33     42.54 
 C                     80.89     63.62     42.96 
 O                     81.39     64.75     42.81 
 O                     79.77     63.61     43.52 
 H                     84.6      61.36     43.13 
 H                     82.76     60.55     41.04 
 H                     82.53     63.07     40.85 
 H                     83.59     63.1      42.25 
 H                     81.78     61.9      43.52 
 H                     80.81     61.74     42.03 
 N                     85.66     61.77     40.02 
 C                     86.51     61.95     38.86 
 H                     87.484    61.498    39.05 
 H                     86.051    61.472    37.995 
 H                     86.637    63.015    38.663 
 H                     86.03     61.9      40.96 
 Ca                    79.81     66.1      44.25 
 O                     81.95     66.26     45.83 
 H                     82.23     65.77     46.61 
 H                     82.57     66.99     45.77 
 
 Stoichiometry    C54H83CaN15O23
 Framework group  C1[X(C54H83CaN15O23)]
 Deg. of freedom   522
 Full point group                 C1      NOp   1
 Largest Abelian subgroup         C1      NOp   1
 Largest concise Abelian subgroup C1      NOp   1
                         Standard orientation:                         
 ---------------------------------------------------------------------
 Center     Atomic      Atomic             Coordinates (Angstroms)
 Number     Number       Type             X           Y           Z
 ---------------------------------------------------------------------
      1          6           0        1.777955    2.455011    5.537480
      2          6           0        1.224004    2.433863    4.115688
      3          8           0        1.949250    2.463311    3.126673
      4          1           0        2.745810    1.954654    5.557396
      5          1           0        1.896430    3.487492    5.866442
      6          1           0        1.088742    1.937781    6.204264
      7          7           0       -0.112372    2.337298    4.044461
      8          6           0       -0.802574    2.105012    2.797759
      9          6           0       -0.962760    3.434671    2.061656
     10          8           0       -1.998148    4.078684    2.228442
     11          6           0       -2.143720    1.479524    3.145600
     12          6           0       -2.922347    0.950429    1.945642
     13          8           0       -2.418594    1.040124    0.808942
     14          8           0       -4.085569    0.562325    2.175617
     15          1           0       -0.676849    2.460790    4.868970
     16          1           0       -0.280177    1.453405    2.095826
     17          1           0       -2.735106    2.233075    3.679758
     18          1           0       -2.062454    0.659581    3.862669
     19          7           0        0.103525    3.787059    1.340227
     20          6           0        0.253426    5.013269    0.583034
     21          6           0       -1.026178    5.377652   -0.146375
     22          8           0       -1.432590    6.537815   -0.081951
     23          6           0        1.497294    4.918800   -0.295184
     24          6           0        1.966884    6.259285   -0.862271
     25          6           0        3.279137    6.064601   -1.618504
     26          6           0        3.084990    5.342138   -2.949201
     27          7           0        4.366550    5.211045   -3.672056
     28          1           0        0.903197    3.158795    1.343116
     29          1           0        0.479111    5.794769    1.314966
     30          1           0        1.231036    4.292502   -1.147392
     31          1           0        2.297236    4.483144    0.293710
     32          1           0        2.013755    6.953414   -0.026455
     33          1           0        1.321118    6.648781   -1.655857
     34          1           0        3.941035    5.556780   -0.908217
     35          1           0        3.722924    7.029635   -1.856546
     36          1           0        2.248658    5.680587   -3.563125
     37          1           0        2.678288    4.369472   -2.659522
     38          1           0        5.073091    4.750625   -3.106890
     39          1           0        4.249613    4.759516   -4.561127
     40          1           0        4.670211    6.175590   -3.720454
     41          7           0       -1.810842    4.478199   -0.742182
     42          6           0       -3.030647    4.754674   -1.488800
     43          6           0       -4.327096    4.307843   -0.829055
     44          8           0       -5.419804    4.375799   -1.382111
     45          6           0       -2.889680    4.214793   -2.913109
     46          6           0       -2.493460    2.756841   -3.060707
     47          8           0       -2.594270    2.003919   -2.063538
     48          8           0       -2.295545    2.299624   -4.209656
     49          1           0       -1.470800    3.528946   -0.778116
     50          1           0       -3.187890    5.826904   -1.596952
     51          1           0       -2.076838    4.767792   -3.389951
     52          1           0       -3.802174    4.321491   -3.491098
     53          7           0       -4.226615    3.868822    0.426279
     54          6           0       -5.424370    3.536846    1.167680
     55          6           0       -6.256094    2.408588    0.566041
     56          8           0       -7.465156    2.380436    0.727215
     57          1           0       -3.315424    3.895956    0.873933
     58          1           0       -6.024667    4.453519    1.221098
     59          1           0       -4.941753    3.268898    2.109956
     60          7           0       -5.694944    1.445912   -0.178717
     61          6           0       -6.429291    0.432553   -0.912704
     62          6           0       -6.868039   -0.727798   -0.031292
     63          8           0       -7.825206   -1.394500   -0.393284
     64          6           0       -5.742178   -0.027974   -2.192700
     65          6           0       -4.668808   -1.099740   -2.087853
     66          7           0       -4.890432   -2.082534   -2.962838
     67          8           0       -3.736152   -1.103373   -1.292215
     68          1           0       -4.692102    1.375150   -0.179300
     69          1           0       -7.345232    0.899869   -1.276117
     70          1           0       -5.335114    0.802351   -2.765115
     71          1           0       -6.525126   -0.371076   -2.870176
     72          1           0       -5.612964   -2.138640   -3.676140
     73          1           0       -4.389877   -2.921409   -2.725914
     74          7           0       -6.213363   -1.037572    1.094958
     75          6           0       -6.284791   -2.124148    2.050756
     76          6           0       -5.184206   -3.166463    2.169461
     77          8           0       -5.287649   -4.162140    2.886696
     78          1           0       -5.465928   -0.401474    1.349359
     79          1           0       -7.111473   -2.773719    1.764131
     80          1           0       -6.505652   -1.781796    3.055901
     81          7           0       -4.191607   -2.992266    1.300321
     82          6           0       -2.945566   -3.703691    1.512589
     83          6           0       -1.647253   -2.915208    1.357097
     84          8           0       -1.624149   -1.926136    0.638486
     85          6           0       -2.945915   -5.023664    0.746449
     86          6           0       -3.527967   -4.951514   -0.645245
     87          6           0       -4.910799   -5.063031   -0.766655
     88          6           0       -2.699176   -5.000877   -1.778368
     89          6           0       -5.426666   -5.211149   -2.058337
     90          6           0       -3.235274   -5.069688   -3.068974
     91          6           0       -4.639537   -5.125705   -3.222951
     92          8           0       -5.239315   -5.084274   -4.449592
     93          1           0       -4.174896   -2.274732    0.586833
     94          1           0       -2.884673   -4.025055    2.552308
     95          1           0       -3.574752   -5.699986    1.318859
     96          1           0       -1.935715   -5.425380    0.742014
     97          1           0       -5.576553   -5.138628    0.095352
     98          1           0       -1.651860   -5.142650   -1.563825
     99          1           0       -6.485449   -5.396916   -2.138769
    100          1           0       -2.521575   -5.103615   -3.878964
    101          1           0       -4.579135   -5.220591   -5.131707
    102          7           0       -0.532039   -3.394900    1.918340
    103          6           0        0.728601   -2.678849    1.839232
    104          6           0        1.644689   -3.366114    0.851229
    105          8           0        1.610631   -4.597600    0.829222
    106          6           0        1.457876   -2.638341    3.178641
    107          6           0        0.622235   -1.913795    4.232509
    108          6           0        2.724104   -1.792168    3.093451
    109          6           0        0.926261   -2.477870    5.613664
    110          1           0       -0.637068   -4.135725    2.594985
    111          1           0        0.652570   -1.640971    1.514689
    112          1           0        1.683025   -3.644594    3.511150
    113          1           0       -0.443933   -2.063448    4.046525
    114          1           0        0.731236   -0.823736    4.191411
    115          1           0        3.152624   -1.623093    4.079140
    116          1           0        3.481856   -2.317182    2.504578
    117          1           0        2.588340   -0.848753    2.567392
    118          1           0        0.238588   -2.277247    6.429602
    119          1           0        0.744483   -3.546765    5.514564
    120          1           0        1.944901   -2.229777    5.921920
    121          7           0        2.459396   -2.703300    0.029080
    122          6           0        3.512165   -3.272303   -0.785912
    123          6           0        4.903421   -3.103189   -0.197264
    124          8           0        5.137796   -2.276056    0.680415
    125          6           0        3.437087   -2.771382   -2.222694
    126          8           0        3.723438   -1.390215   -2.169967
    127          1           0        2.559339   -1.704849    0.157173
    128          1           0        3.348722   -4.339472   -0.946338
    129          1           0        2.386760   -2.863813   -2.518107
    130          1           0        4.239005   -3.325648   -2.706240
    131          1           0        3.201786   -0.933021   -2.831597
    132          7           0        5.822242   -3.920919   -0.718499
    133          6           0        7.251333   -3.749277   -0.534278
    134          6           0        7.739095   -2.337163   -0.834646
    135          8           0        8.540301   -1.755435   -0.115645
    136          6           0        8.011129   -4.801861   -1.326539
    137          1           0        5.526298   -4.657491   -1.342982
    138          1           0        7.452480   -3.932953    0.521896
    139          1           0        9.074504   -4.609479   -1.182584
    140          1           0        7.821132   -5.796217   -0.940070
    141          1           0        7.728838   -4.766205   -2.385047
    142          7           0        7.363335   -1.685475   -1.936375
    143          6           0        7.777922   -0.350167   -2.319483
    144          6           0        7.206034    0.663285   -1.336804
    145          8           0        7.908546    1.588582   -0.937677
    146          6           0        7.247714   -0.060507   -3.712385
    147          1           0        6.780335   -2.252317   -2.531018
    148          1           0        8.865795   -0.322506   -2.306551
    149          1           0        6.201124    0.244001   -3.732979
    150          1           0        7.793546    0.789139   -4.122103
    151          1           0        7.373587   -0.846775   -4.453492
    152          7           0        5.970878    0.435229   -0.872714
    153          6           0        5.292825    1.202945    0.147951
    154          6           0        5.942052    1.061301    1.512114
    155          8           0        5.921447    2.055001    2.233457
    156          6           0        3.812605    0.815477    0.133155
    157          6           0        2.908567    1.473937   -0.898032
    158          6           0        1.444202    1.061900   -0.848446
    159          8           0        1.013323    0.130402   -0.144134
    160          8           0        0.580462    1.631650   -1.553739
    161          1           0        5.524241   -0.375487   -1.281803
    162          1           0        5.267238    2.264119   -0.108675
    163          1           0        3.365868    1.084498    1.088274
    164          1           0        3.783832   -0.271390    0.053202
    165          1           0        3.152953    1.165461   -1.913127
    166          1           0        2.905941    2.568183   -0.837043
    167          7           0        6.572879   -0.064638    1.843502
    168          6           0        7.252991   -0.287781    3.103722
    169          1           0        8.195127   -0.805569    2.921088
    170          1           0        7.452704    0.669812    3.583847
    171          1           0        6.624674   -0.897315    3.753991
    172          1           0        6.544159   -0.793661    1.132797
    173         20           0       -1.300186   -0.107098   -1.135986
    174          8           0       -0.278122   -2.380673   -2.078242
    175          1           0        0.102841   -2.628827   -2.926880
    176          1           0       -0.362543   -3.209356   -1.601737
 ---------------------------------------------------------------------
 Rotational constants (GHZ):           0.0251318           0.0154130           0.0125862
 Standard basis: SVP (5D, 7F)
 There are  1809 symmetry adapted cartesian basis functions of A   symmetry.
 There are  1717 symmetry adapted basis functions of A   symmetry.
  1717 basis functions,  2922 primitive gaussians,  1809 cartesian basis functions
   358 alpha electrons      358 beta electrons
       nuclear repulsion energy     22011.4575713727 Hartrees.
 NAtoms=  176 NActive=  176 NUniq=  176 SFac= 1.00D+00 NAtFMM=   60 NAOKFM=T Big=T
 Integral buffers will be    131072 words long.
 Raffenetti 2 integral format.
 Two-electron integral symmetry is turned on.
 One-electron integrals computed using PRISM.
 NBasis=  1717 RedAO= T EigKep=  2.73D-04  NBF=  1717
 NBsUse=  1717 1.00D-06 EigRej= -1.00D+00 NBFU=  1717
 ExpMin= 1.98D-02 ExpMax= 3.51D+04 ExpMxC= 5.28D+03 IAcc=3 IRadAn=         5 AccDes= 0.00D+00
 Harris functional with IExCor=  402 and IRadAn=       5 diagonalized for initial guess.
 HarFok:  IExCor=  402 AccDes= 0.00D+00 IRadAn=         5 IDoV= 1 UseB2=F ITyADJ=14
 ICtDFT=  3500011 ScaDFX=  1.000000  1.000000  1.000000  1.000000
 FoFCou: FMM=F IPFlag=           0 FMFlag=      100000 FMFlg1=        2001
         NFxFlg=           0 DoJE=T BraDBF=F KetDBF=T FulRan=T
         wScrn=  0.000000 ICntrl=       500 IOpCl=  0 I1Cent=   200000004 NGrid=           0
         NMat0=    1 NMatS0=      1 NMatT0=    0 NMatD0=    1 NMtDS0=    0 NMtDT0=    0
 Petite list used in FoFCou.
 Requested convergence on RMS density matrix=1.00D-08 within 128 cycles.
 Requested convergence on MAX density matrix=1.00D-06.
 Requested convergence on             energy=1.00D-06.
 No special actions if energy rises.
 EnCoef did     4 forward-backward iterations
 EnCoef did   100 forward-backward iterations
 EnCoef did     5 forward-backward iterations
 SCF Done:  E(RB3LYP) =  -5333.56783488     A.U. after   20 cycles
            NFock= 20  Conv=0.24D-08     -V/T= 2.0081
 SCF density gives NOpUse=  1 NOpAll=  1.
 Hyperfine terms turned off by default for NAtoms > 100.

 **********************************************************************

            Population analysis using the SCF density.

 **********************************************************************

 Orbital symmetries:
 BldTbl:  Degeneracy threshold= 1.00D-02
       Occupied  (A) (A) (A) (A) (A) (A) (A) (A) (A) (A) (A) (A)
                 (A) (A) (A) (A) (A) (A) (A) (A) (A) (A) (A) (A)
                 (A) (A) (A) (A) (A) (A) (A) (A) (A) (A) (A) (A)
                 (A) (A) (A) (A) (A) (A) (A) (A) (A) (A) (A) (A)
                 (A) (A) (A) (A) (A) (A) (A) (A) (A) (A) (A) (A)
                 (A) (A) (A) (A) (A) (A) (A) (A) (A) (A) (A) (A)
                 (A) (A) (A) (A) (A) (A) (A) (A) (A) (A) (A) (A)
                 (A) (A) (A) (A) (A) (A) (A) (A) (A) (A) (A) (A)
                 (A) (A) (A) (A) (A) (A) (A) (A) (A) (A) (A) (A)
                 (A) (A) (A) (A) (A) (A) (A) (A) (A) (A) (A) (A)
                 (A) (A) (A) (A) (A) (A) (A) (A) (A) (A) (A) (A)
                 (A) (A) (A) (A) (A) (A) (A) (A) (A) (A) (A) (A)
                 (A) (A) (A) (A) (A) (A) (A) (A) (A) (A) (A) (A)
                 (A) (A) (A) (A) (A) (A) (A) (A) (A) (A) (A) (A)
                 (A) (A) (A) (A) (A) (A) (A) (A) (A) (A) (A) (A)
                 (A) (A) (A) (A) (A) (A) (A) (A) (A) (A) (A) (A)
                 (A) (A) (A) (A) (A) (A) (A) (A) (A) (A) (A) (A)
                 (A) (A) (A) (A) (A) (A) (A) (A) (A) (A) (A) (A)
                 (A) (A) (A) (A) (A) (A) (A) (A) (A) (A) (A) (A)
                 (A) (A) (A) (A) (A) (A) (A) (A) (A) (A) (A) (A)
                 (A) (A) (A) (A) (A) (A) (A) (A) (A) (A) (A) (A)
                 (A) (A) (A) (A) (A) (A) (A) (A) (A) (A) (A) (A)
                 (A) (A) (A) (A) (A) (A) (A) (A) (A) (A) (A) (A)
                 (A) (A) (A) (A) (A) (A) (A) (A) (A) (A) (A) (A)
                 (A) (A) (A) (A) (A) (A) (A) (A) (A) (A) (A) (A)
                 (A) (A) (A) (A) (A) (A) (A) (A) (A) (A) (A) (A)
                 (A) (A) (A) (A) (A) (A) (A) (A) (A) (A) (A) (A)
                 (A) (A) (A) (A) (A) (A) (A) (A) (A) (A) (A) (A)
                 (A) (A) (A) (A) (A) (A) (A) (A) (A) (A) (A) (A)
                 (A) (A) (A) (A) (A) (A) (A) (A) (A) (A)
       Virtual   (A) (A) (A) (A) (A) (A) (A) (A) (A) (A) (A) (A)
                 (A) (A) (A) (A) (A) (A) (A) (A) (A) (A) (A) (A)
                 (A) (A) (A) (A) (A) (A) (A) (A) (A) (A) (A) (A)
                 (A) (A) (A) (A) (A) (A) (A) (A) (A) (A) (A) (A)
                 (A) (A) (A) (A) (A) (A) (A) (A) (A) (A) (A) (A)
                 (A) (A) (A) (A) (A) (A) (A) (A) (A) (A) (A) (A)
                 (A) (A) (A) (A) (A) (A) (A) (A) (A) (A) (A) (A)
                 (A) (A) (A) (A) (A) (A) (A) (A) (A) (A) (A) (A)
                 (A) (A) (A) (A) (A) (A) (A) (A) (A) (A) (A) (A)
                 (A) (A) (A) (A) (A) (A) (A) (A) (A) (A) (A) (A)
                 (A) (A) (A) (A) (A) (A) (A) (A) (A) (A) (A) (A)
                 (A) (A) (A) (A) (A) (A) (A) (A) (A) (A) (A) (A)
                 (A) (A) (A) (A) (A) (A) (A) (A) (A) (A) (A) (A)
                 (A) (A) (A) (A) (A) (A) (A) (A) (A) (A) (A) (A)
                 (A) (A) (A) (A) (A) (A) (A) (A) (A) (A) (A) (A)
                 (A) (A) (A) (A) (A) (A) (A) (A) (A) (A) (A) (A)
                 (A) (A) (A) (A) (A) (A) (A) (A) (A) (A) (A) (A)
                 (A) (A) (A) (A) (A) (A) (A) (A) (A) (A) (A) (A)
                 (A) (A) (A) (A) (A) (A) (A) (A) (A) (A) (A) (A)
                 (A) (A) (A) (A) (A) (A) (A) (A) (A) (A) (A) (A)
                 (A) (A) (A) (A) (A) (A) (A) (A) (A) (A) (A) (A)
                 (A) (A) (A) (A) (A) (A) (A) (A) (A) (A) (A) (A)
                 (A) (A) (A) (A) (A) (A) (A) (A) (A) (A) (A) (A)
                 (A) (A) (A) (A) (A) (A) (A) (A) (A) (A) (A) (A)
                 (A) (A) (A) (A) (A) (A) (A) (A) (A) (A) (A) (A)
                 (A) (A) (A) (A) (A) (A) (A) (A) (A) (A) (A) (A)
                 (A) (A) (A) (A) (A) (A) (A) (A) (A) (A) (A) (A)
                 (A) (A) (A) (A) (A) (A) (A) (A) (A) (A) (A) (A)
                 (A) (A) (A) (A) (A) (A) (A) (A) (A) (A) (A) (A)
                 (A) (A) (A) (A) (A) (A) (A) (A) (A) (A) (A) (A)
                 (A) (A) (A) (A) (A) (A) (A) (A) (A) (A) (A) (A)
                 (A) (A) (A) (A) (A) (A) (A) (A) (A) (A) (A) (A)
                 (A) (A) (A) (A) (A) (A) (A) (A) (A) (A) (A) (A)
                 (A) (A) (A) (A) (A) (A) (A) (A) (A) (A) (A) (A)
                 (A) (A) (A) (A) (A) (A) (A) (A) (A) (A) (A) (A)
                 (A) (A) (A) (A) (A) (A) (A) (A) (A) (A) (A) (A)
                 (A) (A) (A) (A) (A) (A) (A) (A) (A) (A) (A) (A)
                 (A) (A) (A) (A) (A) (A) (A) (A) (A) (A) (A) (A)
                 (A) (A) (A) (A) (A) (A) (A) (A) (A) (A) (A) (A)
                 (A) (A) (A) (A) (A) (A) (A) (A) (A) (A) (A) (A)
                 (A) (A) (A) (A) (A) (A) (A) (A) (A) (A) (A) (A)
                 (A) (A) (A) (A) (A) (A) (A) (A) (A) (A) (A) (A)
                 (A) (A) (A) (A) (A) (A) (A) (A) (A) (A) (A) (A)
                 (A) (A) (A) (A) (A) (A) (A) (A) (A) (A) (A) (A)
                 (A) (A) (A) (A) (A) (A) (A) (A) (A) (A) (A) (A)
                 (A) (A) (A) (A) (A) (A) (A) (A) (A) (A) (A) (A)
                 (A) (A) (A) (A) (A) (A) (A) (A) (A) (A) (A) (A)
                 (A) (A) (A) (A) (A) (A) (A) (A) (A) (A) (A) (A)
                 (A) (A) (A) (A) (A) (A) (A) (A) (A) (A) (A) (A)
                 (A) (A) (A) (A) (A) (A) (A) (A) (A) (A) (A) (A)
                 (A) (A) (A) (A) (A) (A) (A) (A) (A) (A) (A) (A)
                 (A) (A) (A) (A) (A) (A) (A) (A) (A) (A) (A) (A)
                 (A) (A) (A) (A) (A) (A) (A) (A) (A) (A) (A) (A)
                 (A) (A) (A) (A) (A) (A) (A) (A) (A) (A) (A) (A)
                 (A) (A) (A) (A) (A) (A) (A) (A) (A) (A) (A) (A)
                 (A) (A) (A) (A) (A) (A) (A) (A) (A) (A) (A) (A)
                 (A) (A) (A) (A) (A) (A) (A) (A) (A) (A) (A) (A)
                 (A) (A) (A) (A) (A) (A) (A) (A) (A) (A) (A) (A)
                 (A) (A) (A) (A) (A) (A) (A) (A) (A) (A) (A) (A)
                 (A) (A) (A) (A) (A) (A) (A) (A) (A) (A) (A) (A)
                 (A) (A) (A) (A) (A) (A) (A) (A) (A) (A) (A) (A)
                 (A) (A) (A) (A) (A) (A) (A) (A) (A) (A) (A) (A)
                 (A) (A) (A) (A) (A) (A) (A) (A) (A) (A) (A) (A)
                 (A) (A) (A) (A) (A) (A) (A) (A) (A) (A) (A) (A)
                 (A) (A) (A) (A) (A) (A) (A) (A) (A) (A) (A) (A)
                 (A) (A) (A) (A) (A) (A) (A) (A) (A) (A) (A) (A)
                 (A) (A) (A) (A) (A) (A) (A) (A) (A) (A) (A) (A)
                 (A) (A) (A) (A) (A) (A) (A) (A) (A) (A) (A) (A)
                 (A) (A) (A) (A) (A) (A) (A) (A) (A) (A) (A) (A)
                 (A) (A) (A) (A) (A) (A) (A) (A) (A) (A) (A) (A)
                 (A) (A) (A) (A) (A) (A) (A) (A) (A) (A) (A) (A)
                 (A) (A) (A) (A) (A) (A) (A) (A) (A) (A) (A) (A)
                 (A) (A) (A) (A) (A) (A) (A) (A) (A) (A) (A) (A)
                 (A) (A) (A) (A) (A) (A) (A) (A) (A) (A) (A) (A)
                 (A) (A) (A) (A) (A) (A) (A) (A) (A) (A) (A) (A)
                 (A) (A) (A) (A) (A) (A) (A) (A) (A) (A) (A) (A)
                 (A) (A) (A) (A) (A) (A) (A) (A) (A) (A) (A) (A)
                 (A) (A) (A) (A) (A) (A) (A) (A) (A) (A) (A) (A)
                 (A) (A) (A) (A) (A) (A) (A) (A) (A) (A) (A) (A)
                 (A) (A) (A) (A) (A) (A) (A) (A) (A) (A) (A) (A)
                 (A) (A) (A) (A) (A) (A) (A) (A) (A) (A) (A) (A)
                 (A) (A) (A) (A) (A) (A) (A) (A) (A) (A) (A) (A)
                 (A) (A) (A) (A) (A) (A) (A) (A) (A) (A) (A) (A)
                 (A) (A) (A) (A) (A) (A) (A) (A) (A) (A) (A) (A)
                 (A) (A) (A) (A) (A) (A) (A) (A) (A) (A) (A) (A)
                 (A) (A) (A) (A) (A) (A) (A) (A) (A) (A) (A) (A)
                 (A) (A) (A) (A) (A) (A) (A) (A) (A) (A) (A) (A)
                 (A) (A) (A) (A) (A) (A) (A) (A) (A) (A) (A) (A)
                 (A) (A) (A) (A) (A) (A) (A) (A) (A) (A) (A) (A)
                 (A) (A) (A) (A) (A) (A) (A) (A) (A) (A) (A) (A)
                 (A) (A) (A) (A) (A) (A) (A) (A) (A) (A) (A) (A)
                 (A) (A) (A) (A) (A) (A) (A) (A) (A) (A) (A) (A)
                 (A) (A) (A) (A) (A) (A) (A) (A) (A) (A) (A) (A)
                 (A) (A) (A) (A) (A) (A) (A) (A) (A) (A) (A) (A)
                 (A) (A) (A) (A) (A) (A) (A) (A) (A) (A) (A) (A)
                 (A) (A) (A) (A) (A) (A) (A) (A) (A) (A) (A) (A)
                 (A) (A) (A) (A) (A) (A) (A) (A) (A) (A) (A) (A)
                 (A) (A) (A) (A) (A) (A) (A) (A) (A) (A) (A) (A)
                 (A) (A) (A) (A) (A) (A) (A) (A) (A) (A) (A) (A)
                 (A) (A) (A) (A) (A) (A) (A) (A) (A) (A) (A) (A)
                 (A) (A) (A) (A) (A) (A) (A) (A) (A) (A) (A) (A)
                 (A) (A) (A) (A) (A) (A) (A) (A) (A) (A) (A) (A)
                 (A) (A) (A) (A) (A) (A) (A) (A) (A) (A) (A) (A)
                 (A) (A) (A) (A) (A) (A) (A) (A) (A) (A) (A) (A)
                 (A) (A) (A) (A) (A) (A) (A) (A) (A) (A) (A) (A)
                 (A) (A) (A) (A) (A) (A) (A) (A) (A) (A) (A) (A)
                 (A) (A) (A) (A) (A) (A) (A) (A) (A) (A) (A) (A)
                 (A) (A) (A) (A) (A) (A) (A) (A) (A) (A) (A) (A)
                 (A) (A) (A) (A) (A) (A) (A) (A) (A) (A) (A) (A)
                 (A) (A) (A) (A) (A) (A) (A) (A) (A) (A) (A) (A)
                 (A) (A) (A) (A) (A) (A) (A) (A) (A) (A) (A) (A)
                 (A) (A) (A) (A) (A) (A) (A) (A) (A) (A) (A) (A)
                 (A) (A) (A) (A) (A) (A) (A) (A) (A) (A) (A) (A)
                 (A) (A) (A)
 The electronic state is 1-A.
 Alpha  occ. eigenvalues -- -145.35594 -19.21122 -19.20440 -19.18209 -19.15663
 Alpha  occ. eigenvalues --  -19.12721 -19.12411 -19.11042 -19.10802 -19.10769
 Alpha  occ. eigenvalues --  -19.09374 -19.08760 -19.08055 -19.07829 -19.07720
 Alpha  occ. eigenvalues --  -19.06790 -19.05404 -19.03615 -19.03518 -19.02576
 Alpha  occ. eigenvalues --  -19.01841 -19.01665 -19.01420 -18.99194 -15.41392
 Alpha  occ. eigenvalues --  -14.58734 -14.41586 -14.39367 -14.37823 -14.37621
 Alpha  occ. eigenvalues --  -14.36529 -14.34765 -14.34574 -14.34097 -14.33316
 Alpha  occ. eigenvalues --  -14.33133 -14.30945 -14.29260 -14.27293 -14.27293
 Alpha  occ. eigenvalues --  -12.55005 -12.54956 -12.54946 -10.34171 -10.33862
 Alpha  occ. eigenvalues --  -10.31752 -10.30722 -10.30357 -10.29826 -10.29600
 Alpha  occ. eigenvalues --  -10.28757 -10.28367 -10.27922 -10.27832 -10.27784
 Alpha  occ. eigenvalues --  -10.27307 -10.27006 -10.26947 -10.26317 -10.26223
 Alpha  occ. eigenvalues --  -10.25963 -10.24908 -10.24304 -10.24120 -10.23700
 Alpha  occ. eigenvalues --  -10.23541 -10.23372 -10.23283 -10.22836 -10.22822
 Alpha  occ. eigenvalues --  -10.22337 -10.21476 -10.21228 -10.21005 -10.20910
 Alpha  occ. eigenvalues --  -10.20884 -10.20866 -10.20521 -10.20216 -10.20112
 Alpha  occ. eigenvalues --  -10.20062 -10.19988 -10.19751 -10.19669 -10.19433
 Alpha  occ. eigenvalues --  -10.19388 -10.18943 -10.18666 -10.18649 -10.18295
 Alpha  occ. eigenvalues --  -10.17953 -10.17598 -10.17517 -10.16726 -10.15921
 Alpha  occ. eigenvalues --  -10.14813 -10.12692  -1.78354  -1.13735  -1.09187
 Alpha  occ. eigenvalues --   -1.08169  -1.07104  -1.06754  -1.06747  -1.06473
 Alpha  occ. eigenvalues --   -1.06255  -1.05550  -1.05202  -1.04306  -1.03703
 Alpha  occ. eigenvalues --   -1.03675  -1.02963  -1.02268  -1.00830  -1.00600
 Alpha  occ. eigenvalues --   -1.00053  -0.98786  -0.98583  -0.97325  -0.97145
 Alpha  occ. eigenvalues --   -0.96032  -0.95957  -0.95051  -0.94773  -0.94718
 Alpha  occ. eigenvalues --   -0.94031  -0.93291  -0.92286  -0.91682  -0.91408
 Alpha  occ. eigenvalues --   -0.90821  -0.90096  -0.89184  -0.88572  -0.87785
 Alpha  occ. eigenvalues --   -0.87374  -0.86497  -0.86048  -0.84713  -0.84610
 Alpha  occ. eigenvalues --   -0.84541  -0.83885  -0.83014  -0.81834  -0.81244
 Alpha  occ. eigenvalues --   -0.80566  -0.79830  -0.79233  -0.76942  -0.75921
 Alpha  occ. eigenvalues --   -0.75719  -0.75631  -0.74262  -0.74102  -0.74050
 Alpha  occ. eigenvalues --   -0.73803  -0.72199  -0.71885  -0.71789  -0.71031
 Alpha  occ. eigenvalues --   -0.70898  -0.70252  -0.69544  -0.69050  -0.68111
 Alpha  occ. eigenvalues --   -0.68061  -0.66738  -0.66314  -0.65398  -0.63653
 Alpha  occ. eigenvalues --   -0.63629  -0.63525  -0.63381  -0.63168  -0.62812
 Alpha  occ. eigenvalues --   -0.62584  -0.62517  -0.61982  -0.61029  -0.60390
 Alpha  occ. eigenvalues --   -0.60310  -0.60154  -0.60143  -0.59873  -0.59054
 Alpha  occ. eigenvalues --   -0.58743  -0.58122  -0.57697  -0.57577  -0.57198
 Alpha  occ. eigenvalues --   -0.56615  -0.56494  -0.56021  -0.55544  -0.54884
 Alpha  occ. eigenvalues --   -0.54697  -0.54423  -0.54366  -0.54009  -0.53419
 Alpha  occ. eigenvalues --   -0.53105  -0.52568  -0.52411  -0.52356  -0.52275
 Alpha  occ. eigenvalues --   -0.51960  -0.51900  -0.51516  -0.51225  -0.50525
 Alpha  occ. eigenvalues --   -0.50411  -0.50238  -0.49775  -0.49397  -0.49312
 Alpha  occ. eigenvalues --   -0.49279  -0.48970  -0.48216  -0.48128  -0.47946
 Alpha  occ. eigenvalues --   -0.47815  -0.47747  -0.47635  -0.47540  -0.47378
 Alpha  occ. eigenvalues --   -0.47039  -0.46911  -0.46784  -0.46545  -0.46476
 Alpha  occ. eigenvalues --   -0.46427  -0.46279  -0.45700  -0.45413  -0.45227
 Alpha  occ. eigenvalues --   -0.45058  -0.44812  -0.44654  -0.44537  -0.44173
 Alpha  occ. eigenvalues --   -0.44068  -0.44018  -0.43863  -0.43742  -0.43542
 Alpha  occ. eigenvalues --   -0.43417  -0.43307  -0.43256  -0.43031  -0.42956
 Alpha  occ. eigenvalues --   -0.42811  -0.42704  -0.42593  -0.42421  -0.42310
 Alpha  occ. eigenvalues --   -0.41910  -0.41678  -0.41479  -0.41171  -0.41073
 Alpha  occ. eigenvalues --   -0.40966  -0.40794  -0.40573  -0.40490  -0.40350
 Alpha  occ. eigenvalues --   -0.40304  -0.40126  -0.39970  -0.39949  -0.39659
 Alpha  occ. eigenvalues --   -0.39496  -0.39465  -0.39360  -0.39328  -0.39154
 Alpha  occ. eigenvalues --   -0.39079  -0.38887  -0.38786  -0.38721  -0.38644
 Alpha  occ. eigenvalues --   -0.38360  -0.38153  -0.38101  -0.37987  -0.37605
 Alpha  occ. eigenvalues --   -0.37328  -0.37019  -0.36960  -0.36818  -0.36723
 Alpha  occ. eigenvalues --   -0.36574  -0.36105  -0.36045  -0.35945  -0.35749
 Alpha  occ. eigenvalues --   -0.35612  -0.35593  -0.35300  -0.35258  -0.35037
 Alpha  occ. eigenvalues --   -0.34836  -0.34545  -0.34508  -0.34265  -0.33990
 Alpha  occ. eigenvalues --   -0.33900  -0.33824  -0.33716  -0.33468  -0.33217
 Alpha  occ. eigenvalues --   -0.32797  -0.32377  -0.31964  -0.31756  -0.31426
 Alpha  occ. eigenvalues --   -0.31138  -0.31026  -0.30746  -0.30623  -0.30260
 Alpha  occ. eigenvalues --   -0.29213  -0.29171  -0.28623  -0.28468  -0.28381
 Alpha  occ. eigenvalues --   -0.28266  -0.28186  -0.28048  -0.27797  -0.27159
 Alpha  occ. eigenvalues --   -0.26960  -0.26653  -0.26111  -0.25978  -0.25912
 Alpha  occ. eigenvalues --   -0.25521  -0.24764  -0.24674  -0.24537  -0.23787
 Alpha  occ. eigenvalues --   -0.23567  -0.23372  -0.22829  -0.22652  -0.22442
 Alpha  occ. eigenvalues --   -0.21739  -0.21495  -0.20869  -0.20214  -0.20160
 Alpha  occ. eigenvalues --   -0.19711  -0.18821  -0.18415  -0.18034  -0.17878
 Alpha  occ. eigenvalues --   -0.17356  -0.17077  -0.15303
 Alpha virt. eigenvalues --   -0.10370  -0.05316  -0.04599  -0.04284  -0.03829
 Alpha virt. eigenvalues --   -0.03090  -0.02383  -0.02341  -0.01869  -0.00959
 Alpha virt. eigenvalues --   -0.00372  -0.00049   0.00072   0.00165   0.02022
 Alpha virt. eigenvalues --    0.02206   0.02471   0.02518   0.02916   0.03043
 Alpha virt. eigenvalues --    0.03289   0.03407   0.03695   0.03822   0.03917
 Alpha virt. eigenvalues --    0.04115   0.04393   0.04549   0.04890   0.05016
 Alpha virt. eigenvalues --    0.05451   0.05716   0.05966   0.06012   0.06772
 Alpha virt. eigenvalues --    0.06922   0.07069   0.07192   0.07358   0.07446
 Alpha virt. eigenvalues --    0.07706   0.08098   0.08272   0.08464   0.08662
 Alpha virt. eigenvalues --    0.08890   0.08969   0.09135   0.09265   0.09382
 Alpha virt. eigenvalues --    0.09472   0.09553   0.09785   0.10273   0.10438
 Alpha virt. eigenvalues --    0.10672   0.10717   0.10950   0.11065   0.11249
 Alpha virt. eigenvalues --    0.11341   0.11593   0.11647   0.11839   0.12194
 Alpha virt. eigenvalues --    0.12321   0.12688   0.12823   0.12978   0.13076
 Alpha virt. eigenvalues --    0.13238   0.13378   0.13610   0.13947   0.13976
 Alpha virt. eigenvalues --    0.14046   0.14347   0.14405   0.14642   0.14692
 Alpha virt. eigenvalues --    0.14894   0.14958   0.14976   0.15256   0.15379
 Alpha virt. eigenvalues --    0.15515   0.15562   0.15816   0.15972   0.16205
 Alpha virt. eigenvalues --    0.16270   0.16516   0.16661   0.16782   0.17079
 Alpha virt. eigenvalues --    0.17267   0.17630   0.17736   0.17990   0.18240
 Alpha virt. eigenvalues --    0.18566   0.18603   0.18855   0.18984   0.19211
 Alpha virt. eigenvalues --    0.19297   0.19586   0.19853   0.19881   0.19976
 Alpha virt. eigenvalues --    0.20174   0.20466   0.20808   0.20987   0.21109
 Alpha virt. eigenvalues --    0.21353   0.21695   0.21801   0.22064   0.22234
 Alpha virt. eigenvalues --    0.22254   0.22458   0.22580   0.22731   0.23069
 Alpha virt. eigenvalues --    0.23113   0.23327   0.23440   0.23616   0.24058
 Alpha virt. eigenvalues --    0.24196   0.24495   0.24638   0.24912   0.25218
 Alpha virt. eigenvalues --    0.25291   0.25682   0.25815   0.26160   0.26337
 Alpha virt. eigenvalues --    0.26561   0.27084   0.27360   0.27470   0.27689
 Alpha virt. eigenvalues --    0.28208   0.28246   0.28420   0.28833   0.29120
 Alpha virt. eigenvalues --    0.29348   0.29540   0.29847   0.30000   0.30273
 Alpha virt. eigenvalues --    0.30595   0.30776   0.30888   0.30955   0.31025
 Alpha virt. eigenvalues --    0.31515   0.31647   0.31756   0.32054   0.32370
 Alpha virt. eigenvalues --    0.32476   0.32734   0.32924   0.33148   0.33419
 Alpha virt. eigenvalues --    0.33915   0.33954   0.34117   0.34575   0.35038
 Alpha virt. eigenvalues --    0.35405   0.35479   0.35864   0.35979   0.36395
 Alpha virt. eigenvalues --    0.36575   0.36854   0.37103   0.37686   0.37826
 Alpha virt. eigenvalues --    0.38279   0.38313   0.38670   0.39050   0.39095
 Alpha virt. eigenvalues --    0.39346   0.39526   0.39879   0.40009   0.40364
 Alpha virt. eigenvalues --    0.40618   0.40697   0.40893   0.41298   0.41571
 Alpha virt. eigenvalues --    0.41804   0.41979   0.42140   0.42415   0.42596
 Alpha virt. eigenvalues --    0.42838   0.43232   0.43593   0.43610   0.43912
 Alpha virt. eigenvalues --    0.44093   0.44382   0.44435   0.44554   0.44907
 Alpha virt. eigenvalues --    0.45093   0.45299   0.45464   0.45649   0.45894
 Alpha virt. eigenvalues --    0.46065   0.46267   0.46506   0.46597   0.46673
 Alpha virt. eigenvalues --    0.46712   0.47050   0.47101   0.47222   0.47450
 Alpha virt. eigenvalues --    0.47972   0.48238   0.48404   0.48640   0.48780
 Alpha virt. eigenvalues --    0.49156   0.49275   0.49409   0.49447   0.50071
 Alpha virt. eigenvalues --    0.50274   0.50440   0.50915   0.51124   0.51335
 Alpha virt. eigenvalues --    0.51430   0.51509   0.51770   0.51983   0.52108
 Alpha virt. eigenvalues --    0.52305   0.52512   0.52559   0.52866   0.52967
 Alpha virt. eigenvalues --    0.53211   0.53550   0.53806   0.53961   0.54060
 Alpha virt. eigenvalues --    0.54159   0.54425   0.54486   0.54675   0.54793
 Alpha virt. eigenvalues --    0.54880   0.55181   0.55220   0.55480   0.55542
 Alpha virt. eigenvalues --    0.55671   0.55859   0.56312   0.56377   0.56577
 Alpha virt. eigenvalues --    0.56879   0.57182   0.57323   0.57378   0.57486
 Alpha virt. eigenvalues --    0.57699   0.57853   0.58012   0.58055   0.58248
 Alpha virt. eigenvalues --    0.58426   0.58629   0.58770   0.58922   0.59018
 Alpha virt. eigenvalues --    0.59059   0.59339   0.59440   0.59632   0.59708
 Alpha virt. eigenvalues --    0.59773   0.60127   0.60278   0.60554   0.60621
 Alpha virt. eigenvalues --    0.60719   0.60908   0.60988   0.61142   0.61265
 Alpha virt. eigenvalues --    0.61448   0.61651   0.61893   0.61964   0.62137
 Alpha virt. eigenvalues --    0.62325   0.62341   0.62517   0.62635   0.62788
 Alpha virt. eigenvalues --    0.62817   0.62891   0.63137   0.63213   0.63399
 Alpha virt. eigenvalues --    0.63486   0.63595   0.63742   0.63774   0.63820
 Alpha virt. eigenvalues --    0.64025   0.64089   0.64209   0.64294   0.64476
 Alpha virt. eigenvalues --    0.64611   0.64766   0.64869   0.64962   0.65194
 Alpha virt. eigenvalues --    0.65268   0.65345   0.65554   0.65828   0.65984
 Alpha virt. eigenvalues --    0.66070   0.66113   0.66145   0.66277   0.66425
 Alpha virt. eigenvalues --    0.66483   0.66681   0.66689   0.66800   0.66908
 Alpha virt. eigenvalues --    0.66986   0.67114   0.67215   0.67483   0.67543
 Alpha virt. eigenvalues --    0.67571   0.67743   0.68022   0.68174   0.68189
 Alpha virt. eigenvalues --    0.68290   0.68528   0.68696   0.68704   0.68767
 Alpha virt. eigenvalues --    0.69159   0.69180   0.69414   0.69560   0.69707
 Alpha virt. eigenvalues --    0.69760   0.69917   0.70084   0.70118   0.70286
 Alpha virt. eigenvalues --    0.70353   0.70412   0.70618   0.70754   0.71016
 Alpha virt. eigenvalues --    0.71100   0.71251   0.71431   0.71473   0.71597
 Alpha virt. eigenvalues --    0.71722   0.71881   0.71971   0.72079   0.72212
 Alpha virt. eigenvalues --    0.72351   0.72710   0.72732   0.72786   0.73156
 Alpha virt. eigenvalues --    0.73231   0.73668   0.73899   0.73935   0.74071
 Alpha virt. eigenvalues --    0.74158   0.74347   0.74364   0.74679   0.74759
 Alpha virt. eigenvalues --    0.75083   0.75378   0.75423   0.75550   0.75754
 Alpha virt. eigenvalues --    0.75904   0.76063   0.76286   0.76680   0.76775
 Alpha virt. eigenvalues --    0.76822   0.77203   0.77390   0.77723   0.77875
 Alpha virt. eigenvalues --    0.78145   0.78389   0.78764   0.79093   0.79122
 Alpha virt. eigenvalues --    0.79266   0.79712   0.79994   0.80230   0.80530
 Alpha virt. eigenvalues --    0.80819   0.81043   0.81136   0.81553   0.81764
 Alpha virt. eigenvalues --    0.81933   0.82143   0.82437   0.82784   0.83177
 Alpha virt. eigenvalues --    0.83381   0.83557   0.83791   0.84084   0.84307
 Alpha virt. eigenvalues --    0.84440   0.84749   0.84960   0.85558   0.85693
 Alpha virt. eigenvalues --    0.85984   0.86063   0.86343   0.86600   0.86940
 Alpha virt. eigenvalues --    0.87226   0.87534   0.87781   0.87943   0.88284
 Alpha virt. eigenvalues --    0.88615   0.89117   0.89236   0.89537   0.89778
 Alpha virt. eigenvalues --    0.89931   0.90037   0.90534   0.91068   0.91526
 Alpha virt. eigenvalues --    0.91700   0.91751   0.91968   0.92280   0.92781
 Alpha virt. eigenvalues --    0.93242   0.93406   0.93951   0.94256   0.94423
 Alpha virt. eigenvalues --    0.94658   0.95036   0.95321   0.95776   0.96057
 Alpha virt. eigenvalues --    0.96131   0.96311   0.96470   0.97000   0.97271
 Alpha virt. eigenvalues --    0.97645   0.97866   0.97975   0.98006   0.98339
 Alpha virt. eigenvalues --    0.98567   0.98820   0.99033   0.99325   0.99375
 Alpha virt. eigenvalues --    0.99642   0.99901   1.00221   1.00522   1.01058
 Alpha virt. eigenvalues --    1.01479   1.01709   1.01878   1.02151   1.02182
 Alpha virt. eigenvalues --    1.02569   1.02725   1.03137   1.03559   1.03946
 Alpha virt. eigenvalues --    1.04301   1.04719   1.05082   1.05126   1.05316
 Alpha virt. eigenvalues --    1.05742   1.05803   1.06637   1.06841   1.06877
 Alpha virt. eigenvalues --    1.07508   1.07713   1.07788   1.08287   1.08545
 Alpha virt. eigenvalues --    1.09149   1.09215   1.09808   1.09982   1.10159
 Alpha virt. eigenvalues --    1.10375   1.10797   1.11087   1.11597   1.11908
 Alpha virt. eigenvalues --    1.11999   1.12176   1.12490   1.13016   1.13342
 Alpha virt. eigenvalues --    1.13593   1.13638   1.13744   1.14169   1.14281
 Alpha virt. eigenvalues --    1.14368   1.14992   1.15186   1.15521   1.15746
 Alpha virt. eigenvalues --    1.16201   1.16304   1.16430   1.16511   1.16952
 Alpha virt. eigenvalues --    1.17501   1.17577   1.18103   1.18211   1.18629
 Alpha virt. eigenvalues --    1.18929   1.19055   1.19127   1.19533   1.19959
 Alpha virt. eigenvalues --    1.20204   1.20408   1.20729   1.21125   1.21251
 Alpha virt. eigenvalues --    1.21721   1.21847   1.22145   1.22399   1.22628
 Alpha virt. eigenvalues --    1.22782   1.22910   1.23001   1.23217   1.23451
 Alpha virt. eigenvalues --    1.23621   1.24052   1.24140   1.24316   1.24429
 Alpha virt. eigenvalues --    1.24723   1.25073   1.25278   1.25570   1.25805
 Alpha virt. eigenvalues --    1.26145   1.26310   1.26447   1.26830   1.26991
 Alpha virt. eigenvalues --    1.27105   1.27389   1.27659   1.28203   1.28889
 Alpha virt. eigenvalues --    1.29042   1.29198   1.29583   1.29902   1.30005
 Alpha virt. eigenvalues --    1.30244   1.30736   1.31159   1.31438   1.32085
 Alpha virt. eigenvalues --    1.32503   1.32626   1.32752   1.32877   1.32940
 Alpha virt. eigenvalues --    1.33552   1.33590   1.34061   1.34216   1.34512
 Alpha virt. eigenvalues --    1.34872   1.35022   1.35407   1.35500   1.35749
 Alpha virt. eigenvalues --    1.35901   1.35939   1.36297   1.36339   1.36894
 Alpha virt. eigenvalues --    1.37154   1.37280   1.37720   1.37838   1.38104
 Alpha virt. eigenvalues --    1.38381   1.38840   1.39135   1.39186   1.39424
 Alpha virt. eigenvalues --    1.39697   1.40364   1.40408   1.40758   1.40792
 Alpha virt. eigenvalues --    1.41143   1.41404   1.41826   1.41958   1.42214
 Alpha virt. eigenvalues --    1.42331   1.42712   1.43250   1.43556   1.43742
 Alpha virt. eigenvalues --    1.44289   1.45019   1.45143   1.45236   1.45309
 Alpha virt. eigenvalues --    1.45773   1.45947   1.46226   1.46507   1.46836
 Alpha virt. eigenvalues --    1.47028   1.47333   1.47832   1.48194   1.48318
 Alpha virt. eigenvalues --    1.48614   1.48651   1.48978   1.49308   1.49596
 Alpha virt. eigenvalues --    1.49928   1.50380   1.50574   1.51090   1.51194
 Alpha virt. eigenvalues --    1.51635   1.51890   1.52538   1.52720   1.53249
 Alpha virt. eigenvalues --    1.53512   1.53699   1.53975   1.54079   1.54275
 Alpha virt. eigenvalues --    1.54335   1.55010   1.55196   1.55216   1.55990
 Alpha virt. eigenvalues --    1.56164   1.56988   1.57201   1.57296   1.57851
 Alpha virt. eigenvalues --    1.57912   1.58317   1.58619   1.58844   1.58988
 Alpha virt. eigenvalues --    1.59469   1.59584   1.59933   1.60340   1.60810
 Alpha virt. eigenvalues --    1.61193   1.61492   1.61653   1.62192   1.62753
 Alpha virt. eigenvalues --    1.63030   1.63369   1.63593   1.63939   1.64036
 Alpha virt. eigenvalues --    1.64483   1.64670   1.65141   1.65230   1.65540
 Alpha virt. eigenvalues --    1.65630   1.65864   1.66062   1.66204   1.66797
 Alpha virt. eigenvalues --    1.67346   1.67564   1.67859   1.67959   1.68209
 Alpha virt. eigenvalues --    1.68832   1.69242   1.69449   1.69823   1.69853
 Alpha virt. eigenvalues --    1.70082   1.70311   1.70392   1.70690   1.70776
 Alpha virt. eigenvalues --    1.70967   1.71129   1.71175   1.71286   1.71507
 Alpha virt. eigenvalues --    1.71756   1.71891   1.72100   1.72168   1.72295
 Alpha virt. eigenvalues --    1.72521   1.72610   1.73002   1.73194   1.73250
 Alpha virt. eigenvalues --    1.73407   1.73570   1.73653   1.74083   1.74807
 Alpha virt. eigenvalues --    1.74983   1.75083   1.75211   1.75289   1.75502
 Alpha virt. eigenvalues --    1.75583   1.75707   1.75982   1.76134   1.76379
 Alpha virt. eigenvalues --    1.76480   1.76526   1.76756   1.76880   1.77350
 Alpha virt. eigenvalues --    1.77538   1.77622   1.77813   1.77963   1.78059
 Alpha virt. eigenvalues --    1.78322   1.78407   1.78542   1.78887   1.78949
 Alpha virt. eigenvalues --    1.79221   1.79396   1.79615   1.79670   1.79758
 Alpha virt. eigenvalues --    1.80019   1.80189   1.80397   1.80498   1.80609
 Alpha virt. eigenvalues --    1.80699   1.80890   1.81173   1.81215   1.81710
 Alpha virt. eigenvalues --    1.81887   1.81965   1.82082   1.82272   1.82550
 Alpha virt. eigenvalues --    1.82828   1.83023   1.83270   1.83568   1.83655
 Alpha virt. eigenvalues --    1.83825   1.84144   1.84196   1.84286   1.84522
 Alpha virt. eigenvalues --    1.84656   1.84698   1.84969   1.85238   1.85512
 Alpha virt. eigenvalues --    1.85772   1.85801   1.86031   1.86239   1.87067
 Alpha virt. eigenvalues --    1.87137   1.87186   1.87445   1.87540   1.87805
 Alpha virt. eigenvalues --    1.88096   1.88349   1.88615   1.88846   1.88888
 Alpha virt. eigenvalues --    1.89086   1.89352   1.89409   1.89564   1.89644
 Alpha virt. eigenvalues --    1.89885   1.90063   1.90241   1.90500   1.90530
 Alpha virt. eigenvalues --    1.90694   1.91180   1.91239   1.91651   1.91810
 Alpha virt. eigenvalues --    1.91957   1.92395   1.92580   1.92743   1.92986
 Alpha virt. eigenvalues --    1.93336   1.93473   1.93630   1.93690   1.93981
 Alpha virt. eigenvalues --    1.94226   1.94383   1.94662   1.95073   1.95287
 Alpha virt. eigenvalues --    1.95545   1.95721   1.95976   1.96136   1.96309
 Alpha virt. eigenvalues --    1.96489   1.96595   1.96878   1.97200   1.97595
 Alpha virt. eigenvalues --    1.97761   1.97975   1.98143   1.98225   1.98387
 Alpha virt. eigenvalues --    1.98562   1.98683   1.98903   1.99236   1.99382
 Alpha virt. eigenvalues --    1.99662   1.99759   2.00188   2.00297   2.00398
 Alpha virt. eigenvalues --    2.00481   2.00677   2.00972   2.01346   2.01452
 Alpha virt. eigenvalues --    2.01725   2.01836   2.01961   2.02109   2.02358
 Alpha virt. eigenvalues --    2.02492   2.03339   2.03549   2.03875   2.04332
 Alpha virt. eigenvalues --    2.04618   2.04789   2.04997   2.05166   2.05396
 Alpha virt. eigenvalues --    2.05648   2.05770   2.05941   2.06733   2.06932
 Alpha virt. eigenvalues --    2.07128   2.07646   2.07698   2.07917   2.08191
 Alpha virt. eigenvalues --    2.08364   2.08799   2.09099   2.09385   2.09811
 Alpha virt. eigenvalues --    2.10119   2.10222   2.10590   2.10847   2.10992
 Alpha virt. eigenvalues --    2.11100   2.11573   2.11826   2.12086   2.12226
 Alpha virt. eigenvalues --    2.12441   2.12708   2.12846   2.13049   2.13497
 Alpha virt. eigenvalues --    2.13797   2.14178   2.14342   2.14549   2.14634
 Alpha virt. eigenvalues --    2.14888   2.15206   2.15875   2.15980   2.16255
 Alpha virt. eigenvalues --    2.16472   2.16713   2.16859   2.16888   2.17266
 Alpha virt. eigenvalues --    2.17513   2.17683   2.18271   2.18519   2.19113
 Alpha virt. eigenvalues --    2.19294   2.19611   2.19678   2.19892   2.20397
 Alpha virt. eigenvalues --    2.20807   2.20982   2.21245   2.21298   2.21660
 Alpha virt. eigenvalues --    2.21766   2.21932   2.22638   2.23243   2.23275
 Alpha virt. eigenvalues --    2.23516   2.24187   2.24562   2.25132   2.25315
 Alpha virt. eigenvalues --    2.25416   2.25878   2.26130   2.26827   2.27044
 Alpha virt. eigenvalues --    2.27763   2.27889   2.28391   2.28751   2.28979
 Alpha virt. eigenvalues --    2.29128   2.29551   2.29651   2.30275   2.30587
 Alpha virt. eigenvalues --    2.31013   2.31193   2.31716   2.31919   2.32090
 Alpha virt. eigenvalues --    2.32386   2.33264   2.33340   2.33500   2.33549
 Alpha virt. eigenvalues --    2.33774   2.34173   2.34455   2.34836   2.34955
 Alpha virt. eigenvalues --    2.35238   2.35482   2.35867   2.36116   2.36499
 Alpha virt. eigenvalues --    2.36688   2.37015   2.37124   2.37293   2.37700
 Alpha virt. eigenvalues --    2.37993   2.38114   2.38985   2.38996   2.39019
 Alpha virt. eigenvalues --    2.39292   2.39684   2.40168   2.40324   2.40429
 Alpha virt. eigenvalues --    2.40866   2.41316   2.41418   2.42022   2.42303
 Alpha virt. eigenvalues --    2.42326   2.42736   2.43391   2.43643   2.43829
 Alpha virt. eigenvalues --    2.44351   2.44695   2.44971   2.45184   2.45815
 Alpha virt. eigenvalues --    2.46043   2.46123   2.47253   2.47554   2.47883
 Alpha virt. eigenvalues --    2.48604   2.48848   2.48884   2.49163   2.49681
 Alpha virt. eigenvalues --    2.49952   2.50391   2.51006   2.51539   2.51705
 Alpha virt. eigenvalues --    2.51811   2.52239   2.52843   2.53095   2.53309
 Alpha virt. eigenvalues --    2.53541   2.53842   2.53925   2.54678   2.55079
 Alpha virt. eigenvalues --    2.55723   2.55831   2.56054   2.56422   2.56544
 Alpha virt. eigenvalues --    2.57144   2.57259   2.57542   2.58155   2.58468
 Alpha virt. eigenvalues --    2.58978   2.59580   2.59952   2.60384   2.60488
 Alpha virt. eigenvalues --    2.60887   2.61033   2.61230   2.61613   2.61894
 Alpha virt. eigenvalues --    2.62033   2.62178   2.62510   2.62859   2.62978
 Alpha virt. eigenvalues --    2.63329   2.63941   2.64723   2.64838   2.65300
 Alpha virt. eigenvalues --    2.65652   2.65810   2.65965   2.66196   2.66542
 Alpha virt. eigenvalues --    2.66848   2.66962   2.67293   2.67468   2.68038
 Alpha virt. eigenvalues --    2.68198   2.68397   2.68590   2.68939   2.69354
 Alpha virt. eigenvalues --    2.69660   2.69887   2.69975   2.70167   2.70416
 Alpha virt. eigenvalues --    2.70848   2.70896   2.71127   2.71470   2.72516
 Alpha virt. eigenvalues --    2.72600   2.72717   2.72995   2.73049   2.73259
 Alpha virt. eigenvalues --    2.73672   2.74219   2.74362   2.74535   2.75165
 Alpha virt. eigenvalues --    2.75341   2.75587   2.75728   2.75863   2.76147
 Alpha virt. eigenvalues --    2.76205   2.76797   2.76913   2.77231   2.77361
 Alpha virt. eigenvalues --    2.77730   2.78001   2.78282   2.78411   2.78489
 Alpha virt. eigenvalues --    2.78525   2.79050   2.79205   2.79552   2.79724
 Alpha virt. eigenvalues --    2.79960   2.80248   2.81172   2.81245   2.81354
 Alpha virt. eigenvalues --    2.81551   2.81670   2.82328   2.82593   2.83033
 Alpha virt. eigenvalues --    2.83563   2.83637   2.83810   2.83920   2.84091
 Alpha virt. eigenvalues --    2.84193   2.84564   2.84704   2.85527   2.85632
 Alpha virt. eigenvalues --    2.85670   2.85997   2.86334   2.86559   2.87202
 Alpha virt. eigenvalues --    2.87258   2.87326   2.87915   2.88471   2.88712
 Alpha virt. eigenvalues --    2.88847   2.89055   2.89654   2.89858   2.90201
 Alpha virt. eigenvalues --    2.90543   2.90815   2.91130   2.91269   2.91676
 Alpha virt. eigenvalues --    2.91850   2.92245   2.92690   2.92849   2.93234
 Alpha virt. eigenvalues --    2.93279   2.94011   2.94165   2.94293   2.95223
 Alpha virt. eigenvalues --    2.95691   2.95751   2.95969   2.96312   2.96715
 Alpha virt. eigenvalues --    2.97130   2.97192   2.97300   2.97594   2.97689
 Alpha virt. eigenvalues --    2.98134   2.98220   2.98473   2.99249   2.99395
 Alpha virt. eigenvalues --    3.00067   3.00245   3.00360   3.00568   3.00796
 Alpha virt. eigenvalues --    3.01257   3.01415   3.01732   3.02016   3.02501
 Alpha virt. eigenvalues --    3.02610   3.02957   3.03364   3.03557   3.04052
 Alpha virt. eigenvalues --    3.04587   3.05035   3.05801   3.06444   3.06774
 Alpha virt. eigenvalues --    3.06790   3.07233   3.07601   3.08173   3.09712
 Alpha virt. eigenvalues --    3.09760   3.09923   3.10222   3.10674   3.10937
 Alpha virt. eigenvalues --    3.11153   3.12039   3.12349   3.12497   3.13120
 Alpha virt. eigenvalues --    3.13341   3.14132   3.14442   3.14782   3.14948
 Alpha virt. eigenvalues --    3.15303   3.15769   3.15948   3.16461   3.17130
 Alpha virt. eigenvalues --    3.17519   3.18015   3.18686   3.19642   3.20055
 Alpha virt. eigenvalues --    3.20148   3.20479   3.21033   3.21426   3.22138
 Alpha virt. eigenvalues --    3.22731   3.23124   3.23206   3.23572   3.24169
 Alpha virt. eigenvalues --    3.24294   3.24702   3.24803   3.24938   3.25198
 Alpha virt. eigenvalues --    3.25792   3.25868   3.26739   3.26821   3.28165
 Alpha virt. eigenvalues --    3.29197   3.29544   3.30217   3.30375   3.30582
 Alpha virt. eigenvalues --    3.32180   3.32657   3.33153   3.33296   3.34865
 Alpha virt. eigenvalues --    3.34996   3.35717   3.38253   3.38571   3.40169
 Alpha virt. eigenvalues --    3.41122   3.44247   3.48121   3.49448   3.51212
 Alpha virt. eigenvalues --    3.51651   3.52225   3.53699   3.54525   3.56739
 Alpha virt. eigenvalues --    3.56765   3.57671   3.57821   3.57940   3.58259
 Alpha virt. eigenvalues --    3.59720   3.59798   3.62637   3.64429   3.65706
 Alpha virt. eigenvalues --    3.66389   3.66918   3.67180   3.68031   3.68791
 Alpha virt. eigenvalues --    3.68900   3.69286   3.69472   3.70323   3.70484
 Alpha virt. eigenvalues --    3.70849   3.71265   3.72209   3.73296   3.73961
 Alpha virt. eigenvalues --    3.74714   3.74754   3.74913   3.75284   3.75640
 Alpha virt. eigenvalues --    3.78194   3.78678   3.78776   3.82027
          Condensed to atoms (all electrons):
 Mulliken charges:
               1
     1  C    0.047739
     2  C    0.045319
     3  O   -0.292692
     4  H    0.040674
     5  H    0.042064
     6  H    0.008232
     7  N   -0.122219
     8  C    0.069799
     9  C    0.101372
    10  O   -0.294646
    11  C    0.045863
    12  C    0.168952
    13  O   -0.458706
    14  O   -0.382377
    15  H    0.122915
    16  H    0.013534
    17  H    0.014003
    18  H   -0.010042
    19  N   -0.125555
    20  C    0.203924
    21  C    0.018326
    22  O   -0.287262
    23  C   -0.091122
    24  C    0.049892
    25  C   -0.036873
    26  C   -0.030969
    27  N    0.092195
    28  H    0.148589
    29  H   -0.001057
    30  H    0.034635
    31  H    0.038357
    32  H    0.032446
    33  H    0.023598
    34  H    0.042571
    35  H    0.011805
    36  H    0.089903
    37  H    0.090019
    38  H    0.202098
    39  H    0.199526
    40  H    0.190360
    41  N   -0.152340
    42  C    0.184137
    43  C    0.039970
    44  O   -0.287841
    45  C    0.064224
    46  C    0.092109
    47  O   -0.454752
    48  O   -0.394021
    49  H    0.141124
    50  H    0.010948
    51  H   -0.039857
    52  H    0.027884
    53  N   -0.189125
    54  C    0.263062
    55  C    0.046851
    56  O   -0.291063
    57  H    0.150958
    58  H    0.012683
    59  H    0.009842
    60  N   -0.151207
    61  C    0.158069
    62  C    0.032486
    63  O   -0.288007
    64  C    0.066959
    65  C    0.091082
    66  N   -0.062664
    67  O   -0.349358
    68  H    0.148381
    69  H    0.020294
    70  H    0.068757
    71  H   -0.010167
    72  H    0.142166
    73  H    0.136815
    74  N   -0.170406
    75  C    0.243209
    76  C    0.027666
    77  O   -0.296631
    78  H    0.139639
    79  H    0.018412
    80  H    0.034614
    81  N   -0.145039
    82  C    0.116735
    83  C    0.113513
    84  O   -0.336846
    85  C    0.134842
    86  C   -0.045008
    87  C   -0.008140
    88  C   -0.015600
    89  C   -0.013222
    90  C   -0.056397
    91  C    0.141635
    92  O   -0.192935
    93  H    0.167489
    94  H   -0.003470
    95  H    0.018490
    96  H   -0.021850
    97  H    0.020247
    98  H   -0.038360
    99  H   -0.006802
   100  H   -0.049681
   101  H    0.175635
   102  N   -0.099161
   103  C    0.152256
   104  C    0.031102
   105  O   -0.304228
   106  C   -0.128310
   107  C    0.035213
   108  C    0.041809
   109  C    0.033020
   110  H    0.133672
   111  H    0.036247
   112  H   -0.014983
   113  H   -0.015034
   114  H    0.013043
   115  H    0.005062
   116  H    0.011316
   117  H    0.032808
   118  H    0.006531
   119  H   -0.009092
   120  H    0.013562
   121  N   -0.106297
   122  C    0.051715
   123  C    0.105925
   124  O   -0.255114
   125  C    0.271787
   126  O   -0.315919
   127  H    0.146347
   128  H    0.014468
   129  H   -0.025596
   130  H   -0.027116
   131  H    0.189106
   132  N   -0.123235
   133  C    0.108460
   134  C    0.023091
   135  O   -0.253553
   136  C    0.034350
   137  H    0.123107
   138  H    0.026188
   139  H    0.050970
   140  H    0.038366
   141  H    0.008055
   142  N   -0.139374
   143  C    0.132686
   144  C    0.031539
   145  O   -0.254591
   146  C    0.039729
   147  H    0.094982
   148  H    0.024783
   149  H   -0.010938
   150  H    0.019814
   151  H    0.016444
   152  N   -0.161373
   153  C    0.180946
   154  C    0.050921
   155  O   -0.287217
   156  C   -0.036755
   157  C    0.094179
   158  C    0.078575
   159  O   -0.423104
   160  O   -0.410211
   161  H    0.123765
   162  H   -0.041030
   163  H    0.063753
   164  H    0.004310
   165  H   -0.047612
   166  H   -0.026341
   167  N   -0.159826
   168  C    0.136160
   169  H    0.021881
   170  H    0.036690
   171  H    0.013783
   172  H    0.145505
   173  Ca   1.287286
   174  O   -0.285625
   175  H    0.187528
   176  H    0.193472
 Sum of Mulliken charges =  -0.00000
 Mulliken charges with hydrogens summed into heavy atoms:
               1
     1  C    0.138709
     2  C    0.045319
     3  O   -0.292692
     7  N    0.000696
     8  C    0.083332
     9  C    0.101372
    10  O   -0.294646
    11  C    0.049824
    12  C    0.168952
    13  O   -0.458706
    14  O   -0.382377
    19  N    0.023034
    20  C    0.202867
    21  C    0.018326
    22  O   -0.287262
    23  C   -0.018129
    24  C    0.105936
    25  C    0.017503
    26  C    0.148953
    27  N    0.684178
    41  N   -0.011216
    42  C    0.195086
    43  C    0.039970
    44  O   -0.287841
    45  C    0.052251
    46  C    0.092109
    47  O   -0.454752
    48  O   -0.394021
    53  N   -0.038167
    54  C    0.285586
    55  C    0.046851
    56  O   -0.291063
    60  N   -0.002826
    61  C    0.178363
    62  C    0.032486
    63  O   -0.288007
    64  C    0.125549
    65  C    0.091082
    66  N    0.216316
    67  O   -0.349358
    74  N   -0.030767
    75  C    0.296235
    76  C    0.027666
    77  O   -0.296631
    81  N    0.022450
    82  C    0.113265
    83  C    0.113513
    84  O   -0.336846
    85  C    0.131482
    86  C   -0.045008
    87  C    0.012107
    88  C   -0.053960
    89  C   -0.020025
    90  C   -0.106078
    91  C    0.141635
    92  O   -0.017300
   102  N    0.034511
   103  C    0.188504
   104  C    0.031102
   105  O   -0.304228
   106  C   -0.143293
   107  C    0.033222
   108  C    0.090995
   109  C    0.044022
   121  N    0.040050
   122  C    0.066184
   123  C    0.105925
   124  O   -0.255114
   125  C    0.219075
   126  O   -0.126813
   132  N   -0.000127
   133  C    0.134649
   134  C    0.023091
   135  O   -0.253553
   136  C    0.131741
   142  N   -0.044392
   143  C    0.157469
   144  C    0.031539
   145  O   -0.254591
   146  C    0.065049
   152  N   -0.037608
   153  C    0.139916
   154  C    0.050921
   155  O   -0.287217
   156  C    0.031307
   157  C    0.020225
   158  C    0.078575
   159  O   -0.423104
   160  O   -0.410211
   167  N   -0.014321
   168  C    0.208514
   173  Ca   1.287286
   174  O    0.095375
 DipInt: DoE/N= T F RetVal/Mat= T F Init=T NMatP=  1 IDeriv=0 Min/MaxMlt=  0  4
 Entering OneElI...
 OneElI was handed  1333951383 working-precision words.
 Multipole integrals L=0 to 4 MinM= 0 MaxM= 0.
 Requested accuracy = 0.1000D-12
 ShPair: Thresh= 1.00D-13 NBox=     0 BxSize= 0.00D+00 RnKept= 2.55D+01
         NSMCal=               327645 NSMKep=              165641
 PrmmSu-InSpLW:  IPartL=    0 NPrtUS=    1 NPrtUL=    1 DoSpLW=F IThBeg=    0 IThEnd=    0 NThAct=    1.
 PrsmSu:  NPrtUS=   1 ThrOK=F IAlg=1 NPAlg=1 LenDen=           0 ISkipM=0 DoSpLW=F IThBeg=    0 IThEnd=    0.
 Prism:   IPart=     0 DynPar=F LinDyn=F Incr=         512.
 PRISM was handed  1323685617 working-precision words and165641 shell-pairs
 IPart=  0 NShTot=      165641 NBatch=         380 AvBLen=       435.9
 PrsmSu-ThDecC:  IPartSL=    0    0 NPrtUSL=    1    1 IThBeg=    0 IThEnd=    0 CPU=   -1 GPU=   -1 NThAct=    1.
 PrSmSu:  NxtVal=            513.
 Electronic moments (au):
       -716.00000000         14.51936857         -2.88545865         -7.58129371
     -50672.32104914     -26786.19555839     -13010.96621370         55.35237429
        -67.61657820        -10.81771385    -102274.71083051     -25296.04573251
     -17758.19340912      27069.07182214      60902.20746070      40483.12520807
      -3709.82285666       1868.70180719      25634.12055572       8996.96802287
   -7270639.96235391   -2097789.31748262    -669460.34714298     373644.82983317
     283174.85865705    -219869.92962602      32320.88550381    -111223.48856950
     -18982.27028878   -1475581.70806004    -702037.87201642    -457381.59020613
    -119872.71869706     -20495.63685225    -149068.07525553
 Electronic spatial extent (au):  <R**2>=          90469.4828
 DipInt: DoE/N= F T RetVal/Mat= T F Init=T NMatP=  1 IDeriv=0 Min/MaxMlt=  0  4
 Nuclear    moments (au):
        716.00000000         -0.00000000         -0.00000000          0.00000000
      50159.65770640      26422.27884991      12659.59514400         -0.00000000
          0.00000000         -0.00000000     103771.57760929      25556.03157422
      17544.88521615     -25775.61720840     -61288.44220555     -41410.06510054
       4238.49427491      -1703.22297779     -26400.50861117      -9572.24020426
    7063118.19054299    2006973.43526459     629108.00697483    -375320.42580371
    -288614.29329982     227238.62604078     -36083.46218888     108687.99848362
      19540.75713807    1434732.59906067     669570.18486271     439264.43327113
     118250.02293907      15264.95746444     152455.24123063
 Total      moments (au):
         -0.00000000         14.51936857         -2.88545865         -7.58129371
       -512.66334274       -363.91670848       -351.37106970         55.35237429
        -67.61657820        -10.81771385       1496.86677878        259.98584171
       -213.30819296       1293.45461374       -386.23474486       -926.93989247
        528.67141824        165.47882941       -766.38805545       -575.27218139
    -207521.77181092     -90815.88221803     -40352.34016815      -1675.59597054
      -5439.43464277       7368.69641476      -3762.57668507      -2535.49008588
        558.48684930     -40849.10899937     -32467.68715371     -18117.15693499
      -1622.69575798      -5230.67938781       3387.16597510
 Traceless Quadrup. (au):
       -103.34630243         45.40033183         57.94597061         55.35237429
        -67.61657820        -10.81771385
 Charge=             -0.0000 electrons
 Dipole moment (field-independent basis, Debye):
    X=             36.9046    Y=             -7.3341    Z=            -19.2697  Tot=             42.2736
 Quadrupole moment (field-independent basis, Debye-Ang):
   XX=           -689.5498   YY=           -489.4804   ZZ=           -472.6061
   XY=             74.4508   XZ=            -90.9466   YZ=            -14.5502
 Traceless Quadrupole moment (field-independent basis, Debye-Ang):
   XX=           -139.0043   YY=             61.0650   ZZ=             77.9393
   XY=             74.4508   XZ=            -90.9466   YZ=            -14.5502
 Octapole moment (field-independent basis, Debye-Ang**2):
  XXX=           1065.4121  YYY=            185.0479  ZZZ=           -151.8246  XYY=            920.6312
  XXY=           -274.9070  XXZ=           -659.7601  XZZ=            376.2879  YZZ=            117.7815
  YYZ=           -545.4855  XYZ=           -409.4566
 Hexadecapole moment (field-independent basis, Debye-Ang**3):
 XXXX=         -78162.6503 YYYY=         -34205.6160 ZZZZ=         -15198.6263 XXXY=           -631.1098
 XXXZ=          -2048.7519 YYYX=           2775.4044 YYYZ=          -1417.1668 ZZZX=           -954.9871
 ZZZY=            210.3529 XXYY=         -15385.7332 XXZZ=         -12228.8879 YYZZ=          -6823.7900
 XXYZ=           -611.1850 YYXZ=          -1970.1247 ZZXY=           1275.7691
 N-N= 2.201145757137D+04 E-N=-5.650267405120D+04  KE= 5.290468990440D+03
 Leave Link  601 at Sun Sep 15 01:04:07 2019, MaxMem=  1342177280 cpu:              43.9 elap:               1.1
 FitSet:  NAtFit=   176 NAtPot=   176 NAtFrz=     0 MDM=   180 TotChg=   0.00000
 Merz-Kollman atomic radii used.
 Read replacement radii for each type of atom:
 Rad(20) =   1.700000000000D+00
 Atom Element Radius
    1     6    1.50
    2     6    1.50
    3     8    1.40
    4     1    1.20
    5     1    1.20
    6     1    1.20
    7     7    1.50
    8     6    1.50
    9     6    1.50
   10     8    1.40
   11     6    1.50
   12     6    1.50
   13     8    1.40
   14     8    1.40
   15     1    1.20
   16     1    1.20
   17     1    1.20
   18     1    1.20
   19     7    1.50
   20     6    1.50
   21     6    1.50
   22     8    1.40
   23     6    1.50
   24     6    1.50
   25     6    1.50
   26     6    1.50
   27     7    1.50
   28     1    1.20
   29     1    1.20
   30     1    1.20
   31     1    1.20
   32     1    1.20
   33     1    1.20
   34     1    1.20
   35     1    1.20
   36     1    1.20
   37     1    1.20
   38     1    1.20
   39     1    1.20
   40     1    1.20
   41     7    1.50
   42     6    1.50
   43     6    1.50
   44     8    1.40
   45     6    1.50
   46     6    1.50
   47     8    1.40
   48     8    1.40
   49     1    1.20
   50     1    1.20
   51     1    1.20
   52     1    1.20
   53     7    1.50
   54     6    1.50
   55     6    1.50
   56     8    1.40
   57     1    1.20
   58     1    1.20
   59     1    1.20
   60     7    1.50
   61     6    1.50
   62     6    1.50
   63     8    1.40
   64     6    1.50
   65     6    1.50
   66     7    1.50
   67     8    1.40
   68     1    1.20
   69     1    1.20
   70     1    1.20
   71     1    1.20
   72     1    1.20
   73     1    1.20
   74     7    1.50
   75     6    1.50
   76     6    1.50
   77     8    1.40
   78     1    1.20
   79     1    1.20
   80     1    1.20
   81     7    1.50
   82     6    1.50
   83     6    1.50
   84     8    1.40
   85     6    1.50
   86     6    1.50
   87     6    1.50
   88     6    1.50
   89     6    1.50
   90     6    1.50
   91     6    1.50
   92     8    1.40
   93     1    1.20
   94     1    1.20
   95     1    1.20
   96     1    1.20
   97     1    1.20
   98     1    1.20
   99     1    1.20
  100     1    1.20
  101     1    1.20
  102     7    1.50
  103     6    1.50
  104     6    1.50
  105     8    1.40
  106     6    1.50
  107     6    1.50
  108     6    1.50
  109     6    1.50
  110     1    1.20
  111     1    1.20
  112     1    1.20
  113     1    1.20
  114     1    1.20
  115     1    1.20
  116     1    1.20
  117     1    1.20
  118     1    1.20
  119     1    1.20
  120     1    1.20
  121     7    1.50
  122     6    1.50
  123     6    1.50
  124     8    1.40
  125     6    1.50
  126     8    1.40
  127     1    1.20
  128     1    1.20
  129     1    1.20
  130     1    1.20
  131     1    1.20
  132     7    1.50
  133     6    1.50
  134     6    1.50
  135     8    1.40
  136     6    1.50
  137     1    1.20
  138     1    1.20
  139     1    1.20
  140     1    1.20
  141     1    1.20
  142     7    1.50
  143     6    1.50
  144     6    1.50
  145     8    1.40
  146     6    1.50
  147     1    1.20
  148     1    1.20
  149     1    1.20
  150     1    1.20
  151     1    1.20
  152     7    1.50
  153     6    1.50
  154     6    1.50
  155     8    1.40
  156     6    1.50
  157     6    1.50
  158     6    1.50
  159     8    1.40
  160     8    1.40
  161     1    1.20
  162     1    1.20
  163     1    1.20
  164     1    1.20
  165     1    1.20
  166     1    1.20
  167     7    1.50
  168     6    1.50
  169     1    1.20
  170     1    1.20
[...]
 **** Fit      -0.031121
 **** Fit      -0.031521
 **** Fit      -0.031596
 **** Fit      -0.031530
 **** Fit      -0.031484
 **** Fit      -0.031617
 **** Fit      -0.032102
 **** Fit      -0.033166
 **** Fit      -0.035133
 **** Fit      -0.038494
 **** Fit      -0.029093
 **** Fit      -0.030419
 **** Fit      -0.030990
 **** Fit      -0.031050
 **** Fit      -0.030792
 **** Fit      -0.030376
 **** Fit      -0.029939
 **** Fit      -0.029616
 **** Fit      -0.029546
 **** Fit      -0.029904
 **** Fit      -0.030930
 **** Fit      -0.032986
 **** Fit      -0.036656
 **** Fit      -0.030381
 **** Fit      -0.031045
 **** Fit      -0.031049
 **** Fit      -0.030592
 **** Fit      -0.029845
 **** Fit      -0.028955
 **** Fit      -0.028054
 **** Fit      -0.027263
 **** Fit      -0.026716
 **** Fit      -0.026574
 **** Fit      -0.027057
 **** Fit      -0.028497
 **** Fit      -0.031420
 **** Fit      -0.031345
 **** Fit      -0.032032
 **** Fit      -0.031947
 **** Fit      -0.031272
 **** Fit      -0.030182
 **** Fit      -0.028835
 **** Fit      -0.027365
 **** Fit      -0.025892
 **** Fit      -0.024525
 **** Fit      -0.023379
 **** Fit      -0.022591
 **** Fit      -0.022348
 **** Fit      -0.022914
 **** Fit      -0.024688
 **** Fit      -0.028292
 **** Fit      -0.034566
 **** Fit      -0.034291
 **** Fit      -0.033263
 **** Fit      -0.031679
 **** Fit      -0.029727
 **** Fit      -0.027567
 **** Fit      -0.025331
 **** Fit      -0.023128
 **** Fit      -0.021056
 **** Fit      -0.019216
 **** Fit      -0.017734
 **** Fit      -0.016779
 **** Fit      -0.016587
 **** Fit      -0.017481
 **** Fit      -0.019902
 **** Fit      -0.037457
 **** Fit      -0.035107
 **** Fit      -0.032228
 **** Fit      -0.029062
 **** Fit      -0.025787
 **** Fit      -0.022530
 **** Fit      -0.019385
 **** Fit      -0.016434
 **** Fit      -0.013768
 **** Fit      -0.011507
 **** Fit      -0.009831
 **** Fit      -0.008978
 **** Fit      -0.009207
 **** Fit      -0.033202
 **** Fit      -0.028420
 **** Fit      -0.023719
 **** Fit      -0.019198
 **** Fit      -0.014916
 **** Fit      -0.010924
 **** Fit      -0.007290
 **** Fit      -0.004133
 **** Fit      -0.001652
 **** Fit      -0.000102
 **** Fit      -0.026096
 **** Fit      -0.019406
 **** Fit      -0.013217
 **** Fit      -0.007512
 **** Fit      -0.002310
 **** Fit       0.002302
 **** Fit      -0.011866
 **** Fit       0.035039
 **** Fit       0.008611
 **** Fit      -0.008468
 **** Fit       0.033471
 **** Fit       0.038253
 **** Fit       0.026564
 **** Fit       0.024257
 **** Fit       0.019242
 **** Fit       0.009520
 **** Fit      -0.005457
 **** Fit       0.008120
 **** Fit       0.017937
 **** Fit       0.024197
 **** Fit       0.027321
 **** Fit       0.027698
 **** Fit       0.014210
 **** Fit       0.009465
 **** Fit      -0.001190
 **** Fit      -0.018334
 **** Fit      -0.015124
 **** Fit       0.001255
 **** Fit       0.010756
 **** Fit       0.014695
 **** Fit       0.000349
 **** Fit      -0.009697
 **** Fit      -0.017541
 **** Fit      -0.002399
 **** Fit      -0.015416
 **** Fit       0.003789
 **** Fit       0.011158
 **** Fit      -0.004577
 **** Fit       0.005983
 **** Fit       0.015384
 **** Fit       0.004722
 **** Fit       0.016976
 **** Fit       0.027698
 **** Fit       0.017992
 **** Fit       0.032120
 **** Fit       0.035518
 **** Fit       0.051590
 **** Fit       0.086173
 **** Fit       0.084511
 **** Fit       0.087507
 **** Fit       0.083723
 **** Fit       0.072280
 **** Fit       0.056676
 **** Fit       0.042240
 **** Fit       0.034192
 **** Fit       0.035595
 **** Fit       0.074242
 **** Fit       0.076783
 **** Fit       0.077512
 **** Fit       0.071380
 **** Fit       0.059454
 **** Fit       0.049368
 **** Fit       0.048321
 **** Fit       0.071278
 **** Fit       0.070145
 **** Fit       0.062423
 **** Fit       0.058442
 **** Fit       0.066068
 **** Fit      -0.001752
 **** Fit      -0.001435
 **** Fit      -0.002776
 **** Fit      -0.003303
 **** Fit      -0.002073
 **** Fit      -0.000484
 **** Fit      -0.001159
 **** Fit      -0.002385
 **** Fit      -0.003718
 **** Fit      -0.004886
 **** Fit      -0.005234
 **** Fit      -0.004267
 **** Fit       0.000558
 **** Fit      -0.000148
 **** Fit      -0.000967
 **** Fit      -0.002054
 **** Fit      -0.007713
 **** Fit      -0.006877
 **** Fit       0.001415
 **** Fit       0.000797
 **** Fit      -0.000002
 **** Fit      -0.000888
 **** Fit      -0.001937
 **** Fit      -0.009587
 **** Fit      -0.007239
 **** Fit       0.002210
 **** Fit       0.001640
 **** Fit       0.000937
 **** Fit       0.000086
 **** Fit      -0.000941
 **** Fit      -0.001946
 **** Fit      -0.014089
 **** Fit      -0.011517
 **** Fit       0.002805
 **** Fit       0.002283
 **** Fit       0.001659
 **** Fit       0.000904
 **** Fit       0.000026
 **** Fit      -0.001132
 **** Fit      -0.002201
 **** Fit      -0.003250
 **** Fit      -0.018081
 **** Fit      -0.014220
 **** Fit       0.003492
 **** Fit       0.003007
 **** Fit       0.002432
 **** Fit       0.001732
 **** Fit       0.000888
 **** Fit      -0.000083
 **** Fit      -0.001466
 **** Fit      -0.002620
 **** Fit      -0.003737
 **** Fit      -0.022831
 **** Fit      -0.017542
 **** Fit       0.004134
 **** Fit       0.003678
 **** Fit       0.003145
 **** Fit      -0.000316
 **** Fit      -0.003248
 **** Fit      -0.004483
 **** Fit      -0.018792
 **** Fit       0.004842
 **** Fit       0.004398
 **** Fit      -0.005448
 **** Fit      -0.006755
 **** Fit       0.005842
 **** Fit       0.005576
 **** Fit       0.005110
 **** Fit      -0.006753
 **** Fit      -0.008193
 **** Fit       0.006530
 **** Fit       0.006465
 **** Fit       0.005979
 **** Fit      -0.010179
 **** Fit      -0.011866
 **** Fit       0.006556
 **** Fit       0.007392
 **** Fit       0.007300
 **** Fit      -0.012650
 **** Fit      -0.014510
 **** Fit      -0.016704
 **** Fit       0.007185
 **** Fit       0.008518
 **** Fit       0.008237
 **** Fit      -0.015765
 **** Fit      -0.017745
 **** Fit      -0.020132
 **** Fit      -0.023171
 **** Fit      -0.019986
 **** Fit      -0.022208
 **** Fit      -0.024983
 **** Fit      -0.028511
 **** Fit      -0.033192
 **** Fit      -0.023573
 **** Fit      -0.025460
 **** Fit      -0.028106
 **** Fit      -0.031479
 **** Fit      -0.030151
 **** Fit      -0.032257
 **** Fit      -0.000140
 **** Fit       0.003248
 **** Fit       0.002616
 **** Fit       0.001814
 **** Fit       0.000883
 **** Fit      -0.000621
 **** Fit      -0.001763
 **** Fit       0.003870
 **** Fit       0.003216
 **** Fit       0.002406
 **** Fit       0.001482
 **** Fit       0.000468
 **** Fit      -0.001308
 **** Fit      -0.002484
 **** Fit      -0.003708
 **** Fit       0.004956
 **** Fit       0.004432
 **** Fit       0.003694
 **** Fit       0.002820
 **** Fit       0.001868
 **** Fit       0.000862
 **** Fit      -0.000195
 **** Fit      -0.002314
 **** Fit      -0.003550
 **** Fit      -0.004869
 **** Fit       0.005794
 **** Fit       0.005214
 **** Fit       0.004325
 **** Fit       0.003277
 **** Fit       0.002175
 **** Fit       0.001070
 **** Fit      -0.000032
 **** Fit      -0.001150
 **** Fit      -0.003781
 **** Fit      -0.005016
 **** Fit      -0.006366
 **** Fit      -0.007844
 **** Fit       0.006699
 **** Fit       0.006035
 **** Fit       0.004892
 **** Fit       0.003535
 **** Fit       0.002154
 **** Fit       0.000846
 **** Fit      -0.000365
 **** Fit      -0.001506
 **** Fit      -0.002627
 **** Fit      -0.005901
 **** Fit      -0.007098
 **** Fit      -0.008450
 **** Fit      -0.009994
 **** Fit       0.007173
 **** Fit       0.005727
 **** Fit       0.003840
 **** Fit       0.001911
 **** Fit       0.000160
 **** Fit      -0.001341
 **** Fit      -0.002617
 **** Fit      -0.003741
 **** Fit      -0.004807
 **** Fit      -0.008944
 **** Fit      -0.010058
 **** Fit      -0.011415
 **** Fit      -0.013069
 **** Fit       0.002207
 **** Fit      -0.000643
 **** Fit      -0.002974
 **** Fit      -0.004740
 **** Fit      -0.006048
 **** Fit      -0.007072
 **** Fit      -0.007988
 **** Fit      -0.013300
 **** Fit      -0.014171
 **** Fit      -0.015453
 **** Fit      -0.017220
 **** Fit      -0.012244
 **** Fit      -0.012718
 **** Fit      -0.019818
 **** Fit      -0.020796
 **** Fit      -0.022554
 **** Fit      -0.005061
 **** Fit      -0.004282
 **** Fit      -0.006063
 **** Fit      -0.007168
 **** Fit      -0.006095
 **** Fit      -0.003750
 **** Fit      -0.005315
 **** Fit      -0.007159
 **** Fit      -0.008923
 **** Fit      -0.009871
 **** Fit      -0.009326
 **** Fit      -0.003466
 **** Fit      -0.004848
 **** Fit      -0.006489
 **** Fit      -0.008409
 **** Fit      -0.010483
 **** Fit      -0.012348
 **** Fit      -0.013435
 **** Fit      -0.013221
 **** Fit      -0.011622
 **** Fit      -0.003440
 **** Fit      -0.004751
 **** Fit      -0.006267
 **** Fit      -0.008085
 **** Fit      -0.010255
 **** Fit      -0.012719
 **** Fit      -0.015237
 **** Fit      -0.017349
 **** Fit      -0.018446
 **** Fit      -0.018030
 **** Fit      -0.016055
 **** Fit      -0.003685
 **** Fit      -0.004983
 **** Fit      -0.006443
 **** Fit      -0.008192
 **** Fit      -0.010344
 **** Fit      -0.012969
 **** Fit      -0.016040
 **** Fit      -0.019364
 **** Fit      -0.022504
 **** Fit      -0.024777
 **** Fit      -0.025430
 **** Fit      -0.024025
 **** Fit      -0.005507
 **** Fit      -0.006907
 **** Fit      -0.008559
 **** Fit      -0.010601
 **** Fit      -0.013161
 **** Fit      -0.016336
 **** Fit      -0.020151
 **** Fit      -0.024480
 **** Fit      -0.028945
 **** Fit      -0.006445
 **** Fit      -0.007891
 **** Fit      -0.009591
 **** Fit      -0.011713
 **** Fit      -0.014434
 **** Fit      -0.017932
 **** Fit      -0.022368
 **** Fit      -0.027814
 **** Fit      -0.007765
 **** Fit      -0.009248
 **** Fit      -0.010977
 **** Fit      -0.013139
 **** Fit      -0.015942
 **** Fit      -0.019629
 **** Fit      -0.024478
 **** Fit      -0.011154
 **** Fit      -0.012972
 **** Fit      -0.015260
 **** Fit      -0.018264
 **** Fit      -0.022295
 **** Fit      -0.027765
 **** Fit      -0.013826
 **** Fit      -0.015886
 **** Fit      -0.018544
 **** Fit      -0.022130
 **** Fit      -0.027114
 **** Fit      -0.019780
 **** Fit      -0.023017
 **** Fit      -0.027542
 **** Fit      -0.028491
 **** Fit       0.000153
 **** Fit       0.000182
 **** Fit      -0.001094
 **** Fit      -0.001209
 **** Fit       0.000212
 **** Fit       0.001339
 **** Fit       0.001238
 **** Fit      -0.002955
 **** Fit      -0.001484
 **** Fit       0.000360
 **** Fit       0.001749
 **** Fit       0.002422
 **** Fit       0.002505
 **** Fit       0.002120
 **** Fit       0.001358
 **** Fit      -0.005255
 **** Fit      -0.003649
 **** Fit      -0.001487
 **** Fit       0.000593
 **** Fit       0.002119
 **** Fit       0.002975
 **** Fit       0.003357
 **** Fit       0.003440
 **** Fit       0.003267
 **** Fit       0.002851
 **** Fit       0.002229
 **** Fit      -0.005623
 **** Fit      -0.002922
 **** Fit      -0.000268
 **** Fit       0.001884
 **** Fit       0.003191
 **** Fit       0.003782
 **** Fit       0.004035
 **** Fit       0.004150
 **** Fit       0.004133
 **** Fit       0.003939
 **** Fit       0.003554
 **** Fit       0.003010
 **** Fit      -0.007008
 **** Fit      -0.003548
 **** Fit       0.004429
 **** Fit       0.004530
 **** Fit       0.004654
 **** Fit       0.004694
 **** Fit       0.004567
 **** Fit       0.004244
 **** Fit       0.003757
 **** Fit      -0.008821
 **** Fit       0.004466
 **** Fit       0.004684
 **** Fit       0.004953
 **** Fit       0.005125
 **** Fit       0.005106
 **** Fit       0.004863
 **** Fit       0.004428
 **** Fit       0.004194
 **** Fit       0.004771
 **** Fit       0.005264
 **** Fit       0.005540
 **** Fit       0.005521
 **** Fit       0.005209
 **** Fit       0.002900
 **** Fit       0.003943
 **** Fit       0.004897
 **** Fit       0.005615
 **** Fit       0.005970
 **** Fit       0.005906
 **** Fit       0.001647
 **** Fit       0.003276
 **** Fit       0.004733
 **** Fit       0.005817
 **** Fit       0.006353
 **** Fit       0.000691
 **** Fit       0.003138
 **** Fit       0.005166
 **** Fit       0.033577
 **** Fit       0.025532
 **** Fit       0.009666
 **** Fit      -0.009367
 **** Fit       0.013586
 **** Fit       0.038082
 **** Fit       0.016238
 **** Fit      -0.001369
 **** Fit      -0.019040
 **** Fit      -0.003118
 **** Fit       0.009850
 **** Fit       0.028797
 **** Fit       0.005676
 **** Fit      -0.013374
 **** Fit       0.003313
 **** Fit       0.015153
 **** Fit       0.020928
 **** Fit       0.017971
 **** Fit      -0.005797
 **** Fit      -0.005900
 **** Fit       0.003642
 **** Fit       0.017321
 **** Fit       0.021906
 **** Fit       0.022143
 **** Fit       0.024032
 **** Fit       0.027664
 **** Fit       0.032996
 **** Fit       0.064461
 **** Fit       0.061308
 **** Fit       0.062626
 **** Fit       0.064474
 **** Fit       0.061849
 **** Fit       0.063660
 **** Fit       0.066021
 **** Fit       0.052141
 **** Fit       0.042971
 **** Fit       0.060960
 **** Fit       0.062617
 **** Fit       0.064716
 **** Fit       0.067204
 **** Fit       0.071695
 **** Fit       0.063406
 **** Fit       0.053761
 **** Fit       0.044582
 **** Fit       0.036968
 **** Fit       0.031401
 **** Fit       0.035020
 **** Fit       0.060437
 **** Fit       0.062328
 **** Fit       0.064535
 **** Fit       0.066982
 **** Fit       0.071033
 **** Fit       0.068292
 **** Fit       0.062659
 **** Fit       0.054970
 **** Fit       0.046785
 **** Fit       0.039538
 **** Fit       0.034214
 **** Fit       0.031278
 **** Fit       0.030653
 **** Fit       0.031989
 **** Fit       0.035007
 **** Fit       0.039432
 **** Fit       0.057260
 **** Fit       0.059495
 **** Fit       0.061653
 **** Fit       0.063912
 **** Fit       0.066205
 **** Fit       0.068357
 **** Fit       0.066334
 **** Fit       0.064879
 **** Fit       0.060895
 **** Fit       0.054661
 **** Fit       0.047581
 **** Fit       0.041412
 **** Fit       0.037493
 **** Fit       0.036342
 **** Fit       0.037731
 **** Fit       0.041099
 **** Fit       0.045675
 **** Fit       0.050425
 **** Fit       0.054406
 **** Fit       0.057464
 **** Fit       0.060026
 **** Fit       0.062373
 **** Fit       0.064441
 **** Fit       0.065930
 **** Fit       0.061631
 **** Fit       0.058977
 **** Fit       0.053602
 **** Fit       0.047405
 **** Fit       0.043155
 **** Fit       0.042438
 **** Fit       0.044973
 **** Fit       0.049286
 **** Fit       0.053640
 **** Fit       0.057169
 **** Fit       0.059886
 **** Fit       0.061616
 **** Fit       0.057171
 **** Fit       0.053059
 **** Fit       0.048378
 **** Fit       0.048881
 **** Fit       0.053141
 **** Fit       0.056759
 **** Fit       0.052931
 **** Fit       0.047553
 **** Fit       0.050449
 **** Fit       0.057514
 **** Fit       0.062650
 -----------------------------------------------------------------
 Leave Link  602 at Sun Sep 15 01:04:09 2019, MaxMem=  1342177280 cpu:             107.6 elap:               2.3

 Test job not archived.
 1\1\GINC-C506-104\SP\RB3LYP\SVP\C54H83Ca1N15O23\PENGZHI\15-Sep-2019\0\
 \#b3lyp/svp scf=(tight,noincore) Test #IOP(5/87=12) Density=Current Po
 p=(MK,readradii) iop(6/33=2) iop(6/42=6)\\CaMKII_loop3_82.0\\0,1\C,0,8
 1.29,65.31,36.65\C,0,80.67,65.11,38.03\O,0,80.96,64.16,38.75\H,0,82.30
 6,64.916,36.648\H,0,80.695,64.783,35.904\H,0,81.313,66.373,36.412\N,0,
 79.82,66.08,38.4\C,0,79.29,66.17,39.74\C,0,78.1,65.22,39.87\O,0,76.97,
 65.66,39.66\C,0,78.89,67.62,39.96\C,0,78.52,67.96,41.4\O,0,78.59,67.07
 ,42.27\O,0,78.05,69.1,41.59\H,0,79.5,66.76,37.73\H,0,79.98,65.87,40.53
 \H,0,78.05,67.84,39.29\H,0,79.66,68.33,39.65\N,0,78.44,63.96,40.15\C,0
 ,77.53,62.84,40.28\C,0,76.27,63.23,41.03\O,0,75.18,62.89,40.57\C,0,78.
 28,61.64,40.85\C,0,77.54,60.31,40.7\C,0,78.43,59.17,41.19\C,0,78.57,59
 .15,42.71\N,0,79.4,58.01,43.15\H,0,79.43,63.75,40.25\H,0,77.26,62.55,3
 9.26\H,0,78.39,61.82,41.92\H,0,79.24,61.57,40.35\H,0,77.23,60.24,39.66
 \H,0,76.68,60.21,41.37\H,0,79.37,59.29,40.64\H,0,78.,58.21,40.91\H,0,7
 7.65,59.29,43.28\H,0,79.04,60.11,42.94\H,0,80.31,58.01,42.7\H,0,79.48,
 57.97,44.15\H,0,78.91,57.23,42.73\N,0,76.27,64.04,42.09\C,0,75.11,64.4
 3,42.88\C,0,74.67,65.88,42.74\O,0,73.78,66.38,43.42\C,0,75.33,64.03,44
 .34\C,0,76.61,64.51,45.\O,0,77.26,65.43,44.45\O,0,76.86,64.14,46.17\H,
 0,77.17,64.32,42.45\H,0,74.22,63.89,42.56\H,0,75.4,62.94,44.37\H,0,74.
 53,64.37,44.99\N,0,75.28,66.59,41.79\C,0,74.84,67.94,41.51\C,0,74.97,6
 8.91,42.68\O,0,74.2,69.85,42.79\H,0,75.96,66.12,41.2\H,0,73.79,67.87,4
 1.2\H,0,75.53,68.15,40.69\N,0,75.9,68.74,43.63\C,0,75.99,69.52,44.85\C
 ,0,76.68,70.86,44.64\O,0,76.44,71.76,45.43\C,0,76.55,68.75,46.04\C,0,7
 8.06,68.64,46.18\N,0,78.45,68.98,47.41\O,0,78.84,68.32,45.29\H,0,76.63
 ,68.07,43.46\H,0,74.97,69.75,45.16\H,0,76.13,67.75,46.12\H,0,76.14,69.
 21,46.94\H,0,77.87,69.22,48.21\H,0,79.43,69.2,47.45\N,0,77.55,71.05,43
 .64\C,0,78.45,72.12,43.26\C,0,79.96,71.98,43.37\O,0,80.73,72.92,43.17\
 H,0,77.65,70.27,43.\H,0,78.3,72.95,43.95\H,0,78.24,72.51,42.27\N,0,80.
 35,70.81,43.87\C,0,81.74,70.42,43.73\C,0,82.03,68.99,43.28\O,0,81.21,6
 8.11,43.5\C,0,82.54,70.84,44.96\C,0,81.84,70.62,46.28\C,0,80.96,71.61,
 46.71\C,0,82.23,69.58,47.14\C,0,80.48,71.51,48.02\C,0,81.68,69.45,48.4
 2\C,0,80.74,70.41,48.86\O,0,80.08,70.29,50.05\H,0,79.72,70.09,44.2\H,0
 ,82.2,71.,42.93\H,0,82.7,71.91,44.86\H,0,83.51,70.35,44.93\H,0,80.72,7
 2.49,46.11\H,0,83.08,69.01,46.8\H,0,79.88,72.33,48.38\H,0,82.04,68.62,
 49.01\H,0,80.5,69.61,50.58\N,0,83.23,68.71,42.76\C,0,83.56,67.38,42.28
 \C,0,84.49,66.7,43.26\O,0,85.34,67.41,43.8\C,0,84.27,67.41,40.93\C,0,8
 3.38,68.04,39.86\C,0,84.51,66.,40.4\C,0,84.24,68.73,38.81\H,0,83.81,69
 .49,42.49\H,0,82.71,66.71,42.15\H,0,85.2,67.96,41.01\H,0,82.73,68.8,40
 .3\H,0,82.67,67.33,39.42\H,0,84.86,66.02,39.37\H,0,85.29,65.51,40.99\H
 ,0,83.65,65.34,40.5\H,0,83.78,69.45,38.14\H,0,84.86,69.42,39.38\H,0,84
 .81,68.,38.23\N,0,84.42,65.4,43.55\C,0,85.39,64.63,44.3\C,0,86.32,63.8
 ,43.43\O,0,86.05,63.54,42.26\C,0,84.72,63.79,45.38\O,0,83.94,62.83,44.
 7\H,0,83.8,64.82,43.\H,0,86.01,65.28,44.92\H,0,84.02,64.46,45.89\H,0,8
 5.57,63.33,45.88\H,0,83.14,62.66,45.2\N,0,87.43,63.39,44.05\C,0,88.31,
 62.36,43.53\C,0,87.58,61.09,43.11\O,0,87.84,60.5,42.07\C,0,89.43,62.08
 ,44.52\H,0,87.64,63.75,44.97\H,0,88.77,62.77,42.63\H,0,90.04,61.28,44.
 1\H,0,90.08,62.94,44.63\H,0,89.02,61.81,45.5\N,0,86.66,60.52,43.89\C,0
 ,85.92,59.31,43.59\C,0,84.99,59.56,42.41\O,0,84.88,58.71,41.53\C,0,85.
 1,58.93,44.81\H,0,86.56,61.,44.77\H,0,86.64,58.53,43.35\H,0,84.17,59.4
 9,44.91\H,0,84.79,57.89,44.71\H,0,85.61,58.97,45.77\N,0,84.4,60.76,42.
 34\C,0,83.58,61.24,41.25\C,0,84.37,61.44,39.97\O,0,83.78,61.2,38.92\C,
 0,82.85,62.5,41.72\C,0,81.58,62.33,42.54\C,0,80.89,63.62,42.96\O,0,81.
 39,64.75,42.81\O,0,79.77,63.61,43.52\H,0,84.6,61.36,43.13\H,0,82.76,60
 .55,41.04\H,0,82.53,63.07,40.85\H,0,83.59,63.1,42.25\H,0,81.78,61.9,43
 .52\H,0,80.81,61.74,42.03\N,0,85.66,61.77,40.02\C,0,86.51,61.95,38.86\
 H,0,87.484,61.498,39.05\H,0,86.051,61.472,37.995\H,0,86.637,63.015,38.
 663\H,0,86.03,61.9,40.96\Ca,0,79.81,66.1,44.25\O,0,81.95,66.26,45.83\H
 ,0,82.23,65.77,46.61\H,0,82.57,66.99,45.77\\Version=ES64L-G16RevA.03\S
 tate=1-A\HF=-5333.5678349\RMSD=2.376e-09\Dipole=10.5118047,-11.8666706
 ,5.0297159\Quadrupole=-89.877377,63.2407769,26.6366001,72.6974089,47.3
 839873,-43.3476958\PG=C01 [X(C54H83Ca1N15O23)]\\@


 BOOKS ARE LIGHTHOUSES ERECTED IN THE GREAT SEA OF TIME.
     -- E.P.WHIPPLE
 Job cpu time:       0 days 10 hours 21 minutes 28.8 seconds.
 Elapsed time:       0 days  0 hours 13 minutes  5.2 seconds.
 File lengths (MBytes):  RWF=   1517 Int=      0 D2E=      0 Chk=    171 Scr=      1
 Normal termination of Gaussian 16 at Sun Sep 15 01:04:11 2019.
