 Entering Gaussian System, Link 0=g16
 Initial command:
 /home1/apps/gaussian/16rA.03/g16/l1.exe "/scratch/01990/pengzhi/4328938/Gau-158631.inp" -scrdir="/scratch/01990/pengzhi/4328938/"
 Entering Link 1 = /home1/apps/gaussian/16rA.03/g16/l1.exe PID=    158632.
  
 Copyright (c) 1988,1990,1992,1993,1995,1998,2003,2009,2016,
            Gaussian, Inc.  All Rights Reserved.
  
 This is part of the Gaussian(R) 16 program.  It is based on
 the Gaussian(R) 09 system (copyright 2009, Gaussian, Inc.),
 the Gaussian(R) 03 system (copyright 2003, Gaussian, Inc.),
 the Gaussian(R) 98 system (copyright 1998, Gaussian, Inc.),
 the Gaussian(R) 94 system (copyright 1995, Gaussian, Inc.),
 the Gaussian 92(TM) system (copyright 1992, Gaussian, Inc.),
 the Gaussian 90(TM) system (copyright 1990, Gaussian, Inc.),
 the Gaussian 88(TM) system (copyright 1988, Gaussian, Inc.),
 the Gaussian 86(TM) system (copyright 1986, Carnegie Mellon
 University), and the Gaussian 82(TM) system (copyright 1983,
 Carnegie Mellon University). Gaussian is a federally registered
 trademark of Gaussian, Inc.
  
 This software contains proprietary and confidential information,
 including trade secrets, belonging to Gaussian, Inc.
  
 This software is provided under written license and may be
 used, copied, transmitted, or stored only in accord with that
 written license.
  
 The following legend is applicable only to US Government
 contracts under FAR:
  
                    RESTRICTED RIGHTS LEGEND
  
 Use, reproduction and disclosure by the US Government is
 subject to restrictions as set forth in subparagraphs (a)
 and (c) of the Commercial Computer Software - Restricted
 Rights clause in FAR 52.227-19.
  
 Gaussian, Inc.
 340 Quinnipiac St., Bldg. 40, Wallingford CT 06492
  
  
 ---------------------------------------------------------------
 Warning -- This program may not be used in any manner that
 competes with the business of Gaussian, Inc. or will provide
 assistance to any competitor of Gaussian, Inc.  The licensee
 of this program is prohibited from giving any competitor of
 Gaussian, Inc. access to this program.  By using this program,
 the user acknowledges that Gaussian, Inc. is engaged in the
 business of creating and licensing software in the field of
 computational chemistry and represents and warrants to the
 licensee that it is not a competitor of Gaussian, Inc. and that
 it will not use this program in any manner prohibited above.
 ---------------------------------------------------------------
  

 Cite this work as:
 Gaussian 16, Revision A.03,
 M. J. Frisch, G. W. Trucks, H. B. Schlegel, G. E. Scuseria, 
 M. A. Robb, J. R. Cheeseman, G. Scalmani, V. Barone, 
 G. A. Petersson, H. Nakatsuji, X. Li, M. Caricato, A. V. Marenich, 
 J. Bloino, B. G. Janesko, R. Gomperts, B. Mennucci, H. P. Hratchian, 
 J. V. Ortiz, A. F. Izmaylov, J. L. Sonnenberg, D. Williams-Young, 
 F. Ding, F. Lipparini, F. Egidi, J. Goings, B. Peng, A. Petrone, 
 T. Henderson, D. Ranasinghe, V. G. Zakrzewski, J. Gao, N. Rega, 
 G. Zheng, W. Liang, M. Hada, M. Ehara, K. Toyota, R. Fukuda, 
 J. Hasegawa, M. Ishida, T. Nakajima, Y. Honda, O. Kitao, H. Nakai, 
 T. Vreven, K. Throssell, J. A. Montgomery, Jr., J. E. Peralta, 
 F. Ogliaro, M. J. Bearpark, J. J. Heyd, E. N. Brothers, K. N. Kudin, 
 V. N. Staroverov, T. A. Keith, R. Kobayashi, J. Normand, 
 K. Raghavachari, A. P. Rendell, J. C. Burant, S. S. Iyengar, 
 J. Tomasi, M. Cossi, J. M. Millam, M. Klene, C. Adamo, R. Cammi, 
 J. W. Ochterski, R. L. Martin, K. Morokuma, O. Farkas, 
 J. B. Foresman, and D. J. Fox, Gaussian, Inc., Wallingford CT, 2016.
 
 ******************************************
 Gaussian 16:  ES64L-G16RevA.03 25-Dec-2016
                14-Sep-2019 
 ******************************************
 %chk=CaMKII_loop3_65.0.chk
 %nprocshared=48
 Will use up to   48 processors via shared memory.
 %mem=10GB
 %nosave
 ----------------------------------------------------------------------
 #b3lyp/svp scf=(tight,noincore) Test #IOP(5/87=12) Density=Current Pop
 =(MK,readradii) iop(6/33=2) iop(6/42=6)
 ----------------------------------------------------------------------
 1/30=1,38=1,172=1/1;
 2/12=2,17=6,18=5,40=1/2;
 3/5=18,7=101,11=2,25=1,30=1,74=-5/1,2,3;
 4//1;
 5/5=4,32=2,38=5,87=12/2;
 6/7=2,8=2,9=2,10=2,15=8,20=101,22=-1,28=1,33=2,42=6/1,2;
 99/5=1,9=1/99;
 -----------------
 CaMKII_loop3_65.0
 -----------------
 Symbolic Z-matrix:
 Charge =  0 Multiplicity = 1
 C                     85.47     65.83     29.76 
 C                     84.91     65.44     31.13 
 O                     85.49     64.54     31.73 
 H                     86.491    65.46     29.667 
 H                     84.852    65.392    28.976 
 H                     85.467    66.916    29.661 
 N                     83.8      65.99     31.64 
 C                     83.26     65.68     32.95 
 C                     82.51     64.35     32.98 
 O                     81.49     64.2      32.3 
 C                     82.46     66.92     33.33 
 C                     81.92     66.91     34.75 
 O                     82.13     65.9      35.45 
 O                     81.41     67.99     35.14 
 H                     83.5      66.83     31.17 
 H                     84.06     65.62     33.69 
 H                     81.61     67.08     32.67 
 H                     83.12     67.78     33.27 
 N                     82.98     63.45     33.84 
 C                     82.49     62.09     33.82 
 C                     81.14     61.97     34.52 
 O                     80.3      61.18     34.1 
 C                     83.58     61.12     34.28 
 C                     83.51     59.8      33.52 
 C                     84.46     58.77     34.13 
 C                     84.44     57.53     33.23 
 N                     85.16     56.39     33.83 
 H                     83.72     63.72     34.46 
 H                     82.3      61.85     32.77 
 H                     83.42     60.89     35.33 
 H                     84.59     61.5      34.11 
 H                     83.75     60.01     32.47 
 H                     82.47     59.48     33.44 
 H                     84.07     58.62     35.14 
 H                     85.48     59.13     34.23 
 H                     84.85     57.86     32.28 
 H                     83.39     57.3      33.08 
 H                     84.72     56.16     34.71 
 H                     85.08     55.67     33.12 
 H                     86.15     56.52     33.97 
 N                     80.84     62.81     35.5 
 C                     79.65     62.77     36.32 
 C                     78.73     63.96     36.06 
 O                     77.52     63.79     36.18 
 C                     79.84     62.43     37.79 
 C                     80.78     63.42     38.46 
 O                     81.09     64.53     37.97 
 O                     81.33     63.05     39.52 
 H                     81.57     63.49     35.69 
 H                     79.17     61.86     35.96 
 H                     80.25     61.43     37.93 
 H                     78.86     62.6      38.24 
 N                     79.27     65.12     35.69 
 C                     78.46     66.27     35.37 
 C                     78.23     67.32     36.45 
 O                     77.22     68.02     36.5 
 H                     80.27     65.19     35.81 
 H                     77.49     65.88     35.07 
 H                     78.82     66.74     34.45 
 N                     79.18     67.43     37.39 
 C                     79.16     68.29     38.55 
 C                     79.81     69.65     38.34 
 O                     79.87     70.47     39.26 
 C                     79.66     67.56     39.8 
 C                     81.17     67.36     39.88 
 N                     81.71     67.3      41.1 
 O                     81.86     67.26     38.86 
 H                     80.02     66.88     37.28 
 H                     78.11     68.55     38.69 
 H                     79.17     66.61     40. 
 H                     79.42     68.18     40.66 
 H                     81.16     67.74     41.82 
 H                     82.72     67.34     41.2 
 N                     80.16     69.91     37.08 
 C                     80.79     71.12     36.61 
 C                     82.26     71.2      37.01 
 O                     82.82     72.29     36.99 
 H                     80.26     69.11     36.46 
 H                     80.28     72.02     36.96 
 H                     80.81     71.09     35.52 
 N                     82.89     70.05     37.29 
 C                     84.29     69.9      37.63 
 C                     84.98     68.7      36.99 
 O                     84.38     67.64     36.89 
 C                     84.59     69.9      39.13 
 C                     83.97     70.99     39.97 
 C                     84.26     72.3      39.57 
 C                     83.3      70.86     41.19 
 C                     83.83     73.42     40.3 
 C                     82.87     71.92     42. 
 C                     83.1      73.21     41.49 
 O                     82.7      74.31     42.18 
 H                     82.39     69.26     36.91 
 H                     84.82     70.73     37.15 
 H                     85.66     69.97     39.26 
 H                     84.31     68.92     39.52 
 H                     84.9      72.47     38.71 
 H                     83.11     69.86     41.56 
 H                     84.04     74.4      39.91 
 H                     82.36     71.65     42.91 
 H                     82.18     74.17     42.98 
 N                     86.21     68.82     36.47 
 C                     86.98     67.73     35.89 
 C                     88.26     67.45     36.68 
 O                     89.03     68.36     36.96 
 C                     87.26     67.97     34.41 
 C                     86.09     68.23     33.46 
 C                     88.21     67.02     33.68 
 C                     86.41     69.31     32.43 
 H                     86.58     69.75     36.44 
 H                     86.36     66.84     35.9 
 H                     87.77     68.93     34.47 
 H                     85.22     68.54     34.05 
 H                     85.88     67.26     33.02 
 H                     87.71     66.05     33.66 
 H                     88.56     67.37     32.71 
 H                     89.09     66.94     34.31 
 H                     87.33     69.12     31.88 
 H                     85.58     69.34     31.72 
 H                     86.49     70.3      32.88 
 N                     88.53     66.19     37.02 
 C                     89.71     65.67     37.68 
 C                     90.64     64.91     36.75 
 O                     90.16     64.44     35.72 
 C                     89.33     64.84     38.91 
 O                     88.89     63.54     38.6 
 H                     87.94     65.5      36.6 
 H                     90.34     66.47     38.09 
 H                     88.51     65.4      39.36 
 H                     90.22     64.72     39.53 
 H                     88.71     63.12     39.45 
 N                     91.89     64.59     37.1 
 C                     92.82     63.86     36.26 
 C                     92.43     62.43     35.91 
 O                     92.48     62.11     34.72 
 C                     94.21     63.97     36.87 
 H                     92.26     64.93     37.97 
 H                     92.84     64.32     35.27 
 H                     94.34     64.87     37.47 
 H                     94.42     63.23     37.64 
 H                     94.93     63.85     36.05 
 N                     91.72     61.85     36.88 
 C                     91.07     60.57     36.68 
 C                     89.94     60.62     35.66 
 O                     89.9      59.75     34.79 
 C                     90.45     60.17     38.02 
 H                     91.54     62.32     37.76 
 H                     91.75     59.79     36.35 
 H                     91.24     60.       38.76 
 H                     89.64     60.85     38.28 
 H                     90.02     59.18     37.94 
 N                     89.11     61.66     35.71 
 C                     88.12     61.88     34.67 
 C                     88.8      62.15     33.33 
 O                     88.45     61.54     32.32 
 C                     87.13     62.99     35.02 
 C                     86.35     62.48     36.23 
 C                     85.12     63.31     36.56 
 O                     84.26     63.05     37.44 
 O                     84.89     64.31     35.85 
 H                     89.32     62.47     36.27 
 H                     87.55     60.96     34.59 
 H                     86.42     63.17     34.22 
 H                     87.69     63.91     35.24 
 H                     87.07     62.36     37.03 
 H                     86.08     61.44     36.03 
 N                     89.67     63.15     33.31 
 C                     90.33     63.54     32.08 
 H                     91.337    63.122    32.06 
 H                     89.764    63.163    31.228 
 H                     90.387    64.627    32.027 
 H                     89.85     63.58     34.21 
 Ca                    83.4      65.47     37.67 
 O                     85.91     65.3      38.66 
 H                     86.57     64.74     38.25 
 H                     85.93     65.06     39.59 
 
 Stoichiometry    C54H83CaN15O23
 Framework group  C1[X(C54H83CaN15O23)]
 Deg. of freedom   522
 Full point group                 C1      NOp   1
 Largest Abelian subgroup         C1      NOp   1
 Largest concise Abelian subgroup C1      NOp   1
                         Standard orientation:                         
 ---------------------------------------------------------------------
 Center     Atomic      Atomic             Coordinates (Angstroms)
 Number     Number       Type             X           Y           Z
 ---------------------------------------------------------------------
      1          6           0        2.227745    1.536793    5.937442
      2          6           0        1.674411    1.687353    4.518375
      3          8           0        2.484921    1.629764    3.598507
      4          1           0        3.219097    1.085872    5.894055
      5          1           0        2.295131    2.517892    6.407897
      6          1           0        1.563856    0.898519    6.521448
      7          7           0        0.382771    1.941409    4.269732
      8          6           0       -0.189581    2.049415    2.941370
      9          6           0        0.112291    3.390214    2.275464
     10          8           0       -0.320933    4.436577    2.768153
     11          6           0       -1.660733    1.703552    3.136544
     12          6           0       -2.456161    1.586190    1.847506
     13          8           0       -1.869091    1.820392    0.772938
     14          8           0       -3.621486    1.133542    1.972915
     15          1           0       -0.227844    1.794674    5.058477
     16          1           0        0.202601    1.266272    2.290154
     17          1           0       -2.175667    2.431237    3.760257
     18          1           0       -1.719091    0.728522    3.610581
     19          7           0        0.768053    3.317776    1.119943
     20          6           0        1.289243    4.513100    0.495714
     21          6           0        0.196763    5.284525   -0.237970
     22          8           0        0.222865    6.511262   -0.261115
     23          6           0        2.549339    4.191886   -0.310250
     24          6           0        3.561839    5.329844   -0.240993
     25          6           0        4.716193    5.090883   -1.213548
     26          6           0        5.754545    6.193543   -0.981240
     27          7           0        6.817637    6.187314   -2.004858
     28          1           0        0.942692    2.413726    0.723593
     29          1           0        1.614165    5.165717    1.311015
     30          1           0        2.273561    4.076227   -1.355032
     31          1           0        3.078362    3.309456    0.056973
     32          1           0        3.907439    5.402009    0.798022
     33          1           0        3.046544    6.284162   -0.359935
     34          1           0        4.237095    5.100394   -2.195931
     35          1           0        5.185906    4.118616   -1.094945
     36          1           0        6.115831    6.036946    0.030911
     37          1           0        5.195390    7.123591   -0.997287
     38          1           0        6.391856    6.327406   -2.910389
     39          1           0        7.426694    6.941520   -1.706323
     40          1           0        7.400506    5.364927   -2.028142
     41          7           0       -0.839015    4.626089   -0.737596
     42          6           0       -1.903367    5.193557   -1.534612
     43          6           0       -3.240706    5.188537   -0.798677
     44          8           0       -4.031393    6.097854   -1.033958
     45          6           0       -1.982517    4.753385   -2.988085
     46          6           0       -2.137763    3.244144   -3.091483
     47          8           0       -2.478869    2.510100   -2.135907
     48          8           0       -1.820664    2.715626   -4.179194
     49          1           0       -0.806221    3.625824   -0.564980
     50          1           0       -1.561580    6.222051   -1.650724
     51          1           0       -1.094857    5.039165   -3.552079
     52          1           0       -2.922068    5.174023   -3.351550
     53          7           0       -3.484639    4.220252    0.082811
     54          6           0       -4.700430    4.184374    0.858417
     55          6           0       -5.849143    3.311124    0.368831
     56          8           0       -7.029940    3.564324    0.601659
     57          1           0       -2.850604    3.435241    0.050307
     58          1           0       -5.056731    5.210918    0.905920
     59          1           0       -4.472678    3.965090    1.905767
     60          7           0       -5.516675    2.246820   -0.376100
     61          6           0       -6.418104    1.316668   -1.014726
     62          6           0       -6.757654    0.090649   -0.179392
     63          8           0       -7.506169   -0.785866   -0.619674
     64          6           0       -5.963416    0.979915   -2.437841
     65          6           0       -4.781901    0.020355   -2.536670
     66          7           0       -4.716037   -0.750403   -3.625336
     67          8           0       -3.926729   -0.039910   -1.646980
     68          1           0       -4.535033    2.040372   -0.494248
     69          1           0       -7.373967    1.839679   -1.064578
     70          1           0       -5.767524    1.842651   -3.070228
     71          1           0       -6.781247    0.458681   -2.928828
     72          1           0       -5.599585   -0.893570   -4.087229
     73          1           0       -4.049917   -1.516692   -3.653355
     74          7           0       -6.303771    0.128926    1.073694
     75          6           0       -6.485949   -0.898083    2.070671
     76          6           0       -5.604914   -2.116717    1.813752
     77          8           0       -5.892672   -3.178970    2.353116
     78          1           0       -5.541743    0.775273    1.263296
     79          1           0       -7.525052   -1.224685    2.149384
     80          1           0       -6.132987   -0.508753    3.026307
     81          7           0       -4.505868   -1.940878    1.066102
     82          6           0       -3.510905   -2.946378    0.754464
     83          6           0       -2.067473   -2.456731    0.803948
     84          8           0       -1.792161   -1.342820    0.383229
     85          6           0       -3.736605   -3.685465   -0.565692
     86          6           0       -5.118750   -4.226230   -0.840189
     87          6           0       -5.627735   -5.102418    0.125952
     88          6           0       -5.871994   -4.107506   -2.011824
     89          6           0       -6.861096   -5.755855   -0.029093
     90          6           0       -7.090648   -4.751865   -2.265364
     91          6           0       -7.597482   -5.534850   -1.213151
     92          8           0       -8.784981   -6.182708   -1.340529
     93          1           0       -4.248821   -0.965964    1.021743
     94          1           0       -3.519818   -3.663649    1.582500
     95          1           0       -3.055540   -4.522944   -0.604132
     96          1           0       -3.427455   -3.017943   -1.371757
     97          1           0       -5.026904   -5.352085    0.994727
     98          1           0       -5.480021   -3.483411   -2.805463
     99          1           0       -7.220208   -6.374438    0.774022
    100          1           0       -7.549745   -4.548548   -3.218775
    101          1           0       -9.301652   -6.014419   -2.137228
    102          7           0       -1.113422   -3.207781    1.372639
    103          6           0        0.299549   -2.863639    1.422439
    104          6           0        1.159605   -3.863209    0.646510
    105          8           0        1.048262   -5.066220    0.845926
    106          6           0        0.780699   -2.686349    2.858914
    107          6           0        0.058792   -1.694784    3.772505
    108          6           0        2.277077   -2.502173    3.113541
    109          6           0       -0.097758   -2.226600    5.194604
    110          1           0       -1.432088   -4.034176    1.839782
    111          1           0        0.420200   -1.880275    0.980807
    112          1           0        0.516486   -3.661039    3.265694
    113          1           0       -0.932348   -1.487513    3.353243
    114          1           0        0.654912   -0.789515    3.711440
    115          1           0        2.543060   -1.542372    2.667072
    116          1           0        2.588681   -2.622201    4.150072
    117          1           0        2.771334   -3.289991    2.554298
    118          1           0        0.841012   -2.557564    5.635257
    119          1           0       -0.501066   -1.414416    5.804192
    120          1           0       -0.802318   -3.056947    5.250443
    121          7           0        2.054077   -3.388454   -0.219877
    122          6           0        3.033534   -4.122994   -0.994161
    123          6           0        4.453425   -3.972404   -0.475864
    124          8           0        4.711794   -2.981075    0.204365
    125          6           0        2.929597   -3.775266   -2.482275
    126          8           0        3.533342   -2.549869   -2.819310
    127          1           0        2.195008   -2.398684   -0.186801
    128          1           0        2.854116   -5.205601   -0.966410
    129          1           0        1.856176   -3.709004   -2.660816
    130          1           0        3.459366   -4.541673   -3.050486
    131          1           0        3.422785   -2.462818   -3.774035
    132          7           0        5.446527   -4.770851   -0.880378
    133          6           0        6.820946   -4.670677   -0.428343
    134          6           0        7.554797   -3.385283   -0.787124
    135          8           0        8.142955   -2.801306    0.126135
    136          6           0        7.564224   -5.926144   -0.861518
    137          1           0        5.239250   -5.547974   -1.482471
    138          1           0        6.832911   -4.621334    0.662310
    139          1           0        6.908615   -6.788418   -0.977970
    140          1           0        7.959030   -5.884539   -1.874927
    141          1           0        8.394887   -6.065526   -0.157408
    142          7           0        7.132541   -2.870545   -1.943906
    143          6           0        7.541424   -1.549585   -2.378392
    144          6           0        7.002167   -0.430698   -1.496862
    145          8           0        7.782099    0.445281   -1.123008
    146          6           0        6.960422   -1.340271   -3.777900
    147          1           0        6.447082   -3.347511   -2.518667
    148          1           0        8.619671   -1.423513   -2.412886
    149          1           0        7.415434   -2.048020   -4.479793
    150          1           0        5.873520   -1.288569   -3.732374
    151          1           0        7.306682   -0.395798   -4.177245
    152          7           0        5.733579   -0.514764   -1.101112
    153          6           0        5.191978    0.407590   -0.118243
    154          6           0        5.898494    0.237166    1.224400
    155          8           0        6.332836    1.217606    1.828373
    156          6           0        3.676701    0.285988    0.036187
    157          6           0        3.089586    0.721442   -1.304811
    158          6           0        1.586975    0.948803   -1.270649
    159          8           0        0.880502    1.401186   -2.207584
    160          8           0        0.994922    0.738330   -0.192607
    161          1           0        5.204045   -1.362888   -1.219770
    162          1           0        5.393788    1.406413   -0.491506
    163          1           0        3.290020    0.952762    0.799332
    164          1           0        3.426703   -0.755249    0.284634
    165          1           0        3.445239    0.010366   -2.040122
    166          1           0        3.617034    1.627492   -1.613634
    167          7           0        5.889244   -0.985855    1.735707
    168          6           0        6.472903   -1.255734    3.034594
    169          1           0        7.463389   -1.692781    2.903824
    170          1           0        6.558542   -0.324925    3.595530
    171          1           0        5.837714   -1.952812    3.580713
    172          1           0        5.480312   -1.696694    1.140071
    173         20           0       -1.340059    0.416446   -1.342544
    174          8           0        0.269293   -1.582041   -2.194092
    175          1           0        1.216786   -1.550557   -2.057833
    176          1           0        0.163536   -1.774979   -3.129233
 ---------------------------------------------------------------------
 Rotational constants (GHZ):           0.0244319           0.0148710           0.0116990
 Standard basis: SVP (5D, 7F)
 There are  1809 symmetry adapted cartesian basis functions of A   symmetry.
 There are  1717 symmetry adapted basis functions of A   symmetry.
  1717 basis functions,  2922 primitive gaussians,  1809 cartesian basis functions
   358 alpha electrons      358 beta electrons
       nuclear repulsion energy     21783.6016750318 Hartrees.
 NAtoms=  176 NActive=  176 NUniq=  176 SFac= 1.00D+00 NAtFMM=   60 NAOKFM=T Big=T
 Integral buffers will be    131072 words long.
 Raffenetti 2 integral format.
 Two-electron integral symmetry is turned on.
 One-electron integrals computed using PRISM.
 NBasis=  1717 RedAO= T EigKep=  2.79D-04  NBF=  1717
 NBsUse=  1717 1.00D-06 EigRej= -1.00D+00 NBFU=  1717
 ExpMin= 1.98D-02 ExpMax= 3.51D+04 ExpMxC= 5.28D+03 IAcc=3 IRadAn=         5 AccDes= 0.00D+00
 Harris functional with IExCor=  402 and IRadAn=       5 diagonalized for initial guess.
 HarFok:  IExCor=  402 AccDes= 0.00D+00 IRadAn=         5 IDoV= 1 UseB2=F ITyADJ=14
 ICtDFT=  3500011 ScaDFX=  1.000000  1.000000  1.000000  1.000000
 FoFCou: FMM=F IPFlag=           0 FMFlag=      100000 FMFlg1=        2001
         NFxFlg=           0 DoJE=T BraDBF=F KetDBF=T FulRan=T
         wScrn=  0.000000 ICntrl=       500 IOpCl=  0 I1Cent=   200000004 NGrid=           0
         NMat0=    1 NMatS0=      1 NMatT0=    0 NMatD0=    1 NMtDS0=    0 NMtDT0=    0
 Petite list used in FoFCou.
 Requested convergence on RMS density matrix=1.00D-08 within 128 cycles.
 Requested convergence on MAX density matrix=1.00D-06.
 Requested convergence on             energy=1.00D-06.
 No special actions if energy rises.
 EnCoef did     5 forward-backward iterations
 SCF Done:  E(RB3LYP) =  -5333.57066944     A.U. after   19 cycles
            NFock= 19  Conv=0.21D-08     -V/T= 2.0082
 SCF density gives NOpUse=  1 NOpAll=  1.
 Hyperfine terms turned off by default for NAtoms > 100.

 **********************************************************************

            Population analysis using the SCF density.

 **********************************************************************

 Orbital symmetries:
 BldTbl:  Degeneracy threshold= 1.00D-02
       Occupied  (A) (A) (A) (A) (A) (A) (A) (A) (A) (A) (A) (A)
                 (A) (A) (A) (A) (A) (A) (A) (A) (A) (A) (A) (A)
                 (A) (A) (A) (A) (A) (A) (A) (A) (A) (A) (A) (A)
                 (A) (A) (A) (A) (A) (A) (A) (A) (A) (A) (A) (A)
                 (A) (A) (A) (A) (A) (A) (A) (A) (A) (A) (A) (A)
                 (A) (A) (A) (A) (A) (A) (A) (A) (A) (A) (A) (A)
                 (A) (A) (A) (A) (A) (A) (A) (A) (A) (A) (A) (A)
                 (A) (A) (A) (A) (A) (A) (A) (A) (A) (A) (A) (A)
                 (A) (A) (A) (A) (A) (A) (A) (A) (A) (A) (A) (A)
                 (A) (A) (A) (A) (A) (A) (A) (A) (A) (A) (A) (A)
                 (A) (A) (A) (A) (A) (A) (A) (A) (A) (A) (A) (A)
                 (A) (A) (A) (A) (A) (A) (A) (A) (A) (A) (A) (A)
                 (A) (A) (A) (A) (A) (A) (A) (A) (A) (A) (A) (A)
                 (A) (A) (A) (A) (A) (A) (A) (A) (A) (A) (A) (A)
                 (A) (A) (A) (A) (A) (A) (A) (A) (A) (A) (A) (A)
                 (A) (A) (A) (A) (A) (A) (A) (A) (A) (A) (A) (A)
                 (A) (A) (A) (A) (A) (A) (A) (A) (A) (A) (A) (A)
                 (A) (A) (A) (A) (A) (A) (A) (A) (A) (A) (A) (A)
                 (A) (A) (A) (A) (A) (A) (A) (A) (A) (A) (A) (A)
                 (A) (A) (A) (A) (A) (A) (A) (A) (A) (A) (A) (A)
                 (A) (A) (A) (A) (A) (A) (A) (A) (A) (A) (A) (A)
                 (A) (A) (A) (A) (A) (A) (A) (A) (A) (A) (A) (A)
                 (A) (A) (A) (A) (A) (A) (A) (A) (A) (A) (A) (A)
                 (A) (A) (A) (A) (A) (A) (A) (A) (A) (A) (A) (A)
                 (A) (A) (A) (A) (A) (A) (A) (A) (A) (A) (A) (A)
                 (A) (A) (A) (A) (A) (A) (A) (A) (A) (A) (A) (A)
                 (A) (A) (A) (A) (A) (A) (A) (A) (A) (A) (A) (A)
                 (A) (A) (A) (A) (A) (A) (A) (A) (A) (A) (A) (A)
                 (A) (A) (A) (A) (A) (A) (A) (A) (A) (A) (A) (A)
                 (A) (A) (A) (A) (A) (A) (A) (A) (A) (A)
       Virtual   (A) (A) (A) (A) (A) (A) (A) (A) (A) (A) (A) (A)
                 (A) (A) (A) (A) (A) (A) (A) (A) (A) (A) (A) (A)
                 (A) (A) (A) (A) (A) (A) (A) (A) (A) (A) (A) (A)
                 (A) (A) (A) (A) (A) (A) (A) (A) (A) (A) (A) (A)
                 (A) (A) (A) (A) (A) (A) (A) (A) (A) (A) (A) (A)
                 (A) (A) (A) (A) (A) (A) (A) (A) (A) (A) (A) (A)
                 (A) (A) (A) (A) (A) (A) (A) (A) (A) (A) (A) (A)
                 (A) (A) (A) (A) (A) (A) (A) (A) (A) (A) (A) (A)
                 (A) (A) (A) (A) (A) (A) (A) (A) (A) (A) (A) (A)
                 (A) (A) (A) (A) (A) (A) (A) (A) (A) (A) (A) (A)
                 (A) (A) (A) (A) (A) (A) (A) (A) (A) (A) (A) (A)
                 (A) (A) (A) (A) (A) (A) (A) (A) (A) (A) (A) (A)
                 (A) (A) (A) (A) (A) (A) (A) (A) (A) (A) (A) (A)
                 (A) (A) (A) (A) (A) (A) (A) (A) (A) (A) (A) (A)
                 (A) (A) (A) (A) (A) (A) (A) (A) (A) (A) (A) (A)
                 (A) (A) (A) (A) (A) (A) (A) (A) (A) (A) (A) (A)
                 (A) (A) (A) (A) (A) (A) (A) (A) (A) (A) (A) (A)
                 (A) (A) (A) (A) (A) (A) (A) (A) (A) (A) (A) (A)
                 (A) (A) (A) (A) (A) (A) (A) (A) (A) (A) (A) (A)
                 (A) (A) (A) (A) (A) (A) (A) (A) (A) (A) (A) (A)
                 (A) (A) (A) (A) (A) (A) (A) (A) (A) (A) (A) (A)
                 (A) (A) (A) (A) (A) (A) (A) (A) (A) (A) (A) (A)
                 (A) (A) (A) (A) (A) (A) (A) (A) (A) (A) (A) (A)
                 (A) (A) (A) (A) (A) (A) (A) (A) (A) (A) (A) (A)
                 (A) (A) (A) (A) (A) (A) (A) (A) (A) (A) (A) (A)
                 (A) (A) (A) (A) (A) (A) (A) (A) (A) (A) (A) (A)
                 (A) (A) (A) (A) (A) (A) (A) (A) (A) (A) (A) (A)
                 (A) (A) (A) (A) (A) (A) (A) (A) (A) (A) (A) (A)
                 (A) (A) (A) (A) (A) (A) (A) (A) (A) (A) (A) (A)
                 (A) (A) (A) (A) (A) (A) (A) (A) (A) (A) (A) (A)
                 (A) (A) (A) (A) (A) (A) (A) (A) (A) (A) (A) (A)
                 (A) (A) (A) (A) (A) (A) (A) (A) (A) (A) (A) (A)
                 (A) (A) (A) (A) (A) (A) (A) (A) (A) (A) (A) (A)
                 (A) (A) (A) (A) (A) (A) (A) (A) (A) (A) (A) (A)
                 (A) (A) (A) (A) (A) (A) (A) (A) (A) (A) (A) (A)
                 (A) (A) (A) (A) (A) (A) (A) (A) (A) (A) (A) (A)
                 (A) (A) (A) (A) (A) (A) (A) (A) (A) (A) (A) (A)
                 (A) (A) (A) (A) (A) (A) (A) (A) (A) (A) (A) (A)
                 (A) (A) (A) (A) (A) (A) (A) (A) (A) (A) (A) (A)
                 (A) (A) (A) (A) (A) (A) (A) (A) (A) (A) (A) (A)
                 (A) (A) (A) (A) (A) (A) (A) (A) (A) (A) (A) (A)
                 (A) (A) (A) (A) (A) (A) (A) (A) (A) (A) (A) (A)
                 (A) (A) (A) (A) (A) (A) (A) (A) (A) (A) (A) (A)
                 (A) (A) (A) (A) (A) (A) (A) (A) (A) (A) (A) (A)
                 (A) (A) (A) (A) (A) (A) (A) (A) (A) (A) (A) (A)
                 (A) (A) (A) (A) (A) (A) (A) (A) (A) (A) (A) (A)
                 (A) (A) (A) (A) (A) (A) (A) (A) (A) (A) (A) (A)
                 (A) (A) (A) (A) (A) (A) (A) (A) (A) (A) (A) (A)
                 (A) (A) (A) (A) (A) (A) (A) (A) (A) (A) (A) (A)
                 (A) (A) (A) (A) (A) (A) (A) (A) (A) (A) (A) (A)
                 (A) (A) (A) (A) (A) (A) (A) (A) (A) (A) (A) (A)
                 (A) (A) (A) (A) (A) (A) (A) (A) (A) (A) (A) (A)
                 (A) (A) (A) (A) (A) (A) (A) (A) (A) (A) (A) (A)
                 (A) (A) (A) (A) (A) (A) (A) (A) (A) (A) (A) (A)
                 (A) (A) (A) (A) (A) (A) (A) (A) (A) (A) (A) (A)
                 (A) (A) (A) (A) (A) (A) (A) (A) (A) (A) (A) (A)
                 (A) (A) (A) (A) (A) (A) (A) (A) (A) (A) (A) (A)
                 (A) (A) (A) (A) (A) (A) (A) (A) (A) (A) (A) (A)
                 (A) (A) (A) (A) (A) (A) (A) (A) (A) (A) (A) (A)
                 (A) (A) (A) (A) (A) (A) (A) (A) (A) (A) (A) (A)
                 (A) (A) (A) (A) (A) (A) (A) (A) (A) (A) (A) (A)
                 (A) (A) (A) (A) (A) (A) (A) (A) (A) (A) (A) (A)
                 (A) (A) (A) (A) (A) (A) (A) (A) (A) (A) (A) (A)
                 (A) (A) (A) (A) (A) (A) (A) (A) (A) (A) (A) (A)
                 (A) (A) (A) (A) (A) (A) (A) (A) (A) (A) (A) (A)
                 (A) (A) (A) (A) (A) (A) (A) (A) (A) (A) (A) (A)
                 (A) (A) (A) (A) (A) (A) (A) (A) (A) (A) (A) (A)
                 (A) (A) (A) (A) (A) (A) (A) (A) (A) (A) (A) (A)
                 (A) (A) (A) (A) (A) (A) (A) (A) (A) (A) (A) (A)
                 (A) (A) (A) (A) (A) (A) (A) (A) (A) (A) (A) (A)
                 (A) (A) (A) (A) (A) (A) (A) (A) (A) (A) (A) (A)
                 (A) (A) (A) (A) (A) (A) (A) (A) (A) (A) (A) (A)
                 (A) (A) (A) (A) (A) (A) (A) (A) (A) (A) (A) (A)
                 (A) (A) (A) (A) (A) (A) (A) (A) (A) (A) (A) (A)
                 (A) (A) (A) (A) (A) (A) (A) (A) (A) (A) (A) (A)
                 (A) (A) (A) (A) (A) (A) (A) (A) (A) (A) (A) (A)
                 (A) (A) (A) (A) (A) (A) (A) (A) (A) (A) (A) (A)
                 (A) (A) (A) (A) (A) (A) (A) (A) (A) (A) (A) (A)
                 (A) (A) (A) (A) (A) (A) (A) (A) (A) (A) (A) (A)
                 (A) (A) (A) (A) (A) (A) (A) (A) (A) (A) (A) (A)
                 (A) (A) (A) (A) (A) (A) (A) (A) (A) (A) (A) (A)
                 (A) (A) (A) (A) (A) (A) (A) (A) (A) (A) (A) (A)
                 (A) (A) (A) (A) (A) (A) (A) (A) (A) (A) (A) (A)
                 (A) (A) (A) (A) (A) (A) (A) (A) (A) (A) (A) (A)
                 (A) (A) (A) (A) (A) (A) (A) (A) (A) (A) (A) (A)
                 (A) (A) (A) (A) (A) (A) (A) (A) (A) (A) (A) (A)
                 (A) (A) (A) (A) (A) (A) (A) (A) (A) (A) (A) (A)
                 (A) (A) (A) (A) (A) (A) (A) (A) (A) (A) (A) (A)
                 (A) (A) (A) (A) (A) (A) (A) (A) (A) (A) (A) (A)
                 (A) (A) (A) (A) (A) (A) (A) (A) (A) (A) (A) (A)
                 (A) (A) (A) (A) (A) (A) (A) (A) (A) (A) (A) (A)
                 (A) (A) (A) (A) (A) (A) (A) (A) (A) (A) (A) (A)
                 (A) (A) (A) (A) (A) (A) (A) (A) (A) (A) (A) (A)
                 (A) (A) (A) (A) (A) (A) (A) (A) (A) (A) (A) (A)
                 (A) (A) (A) (A) (A) (A) (A) (A) (A) (A) (A) (A)
                 (A) (A) (A) (A) (A) (A) (A) (A) (A) (A) (A) (A)
                 (A) (A) (A) (A) (A) (A) (A) (A) (A) (A) (A) (A)
                 (A) (A) (A) (A) (A) (A) (A) (A) (A) (A) (A) (A)
                 (A) (A) (A) (A) (A) (A) (A) (A) (A) (A) (A) (A)
                 (A) (A) (A) (A) (A) (A) (A) (A) (A) (A) (A) (A)
                 (A) (A) (A) (A) (A) (A) (A) (A) (A) (A) (A) (A)
                 (A) (A) (A) (A) (A) (A) (A) (A) (A) (A) (A) (A)
                 (A) (A) (A) (A) (A) (A) (A) (A) (A) (A) (A) (A)
                 (A) (A) (A) (A) (A) (A) (A) (A) (A) (A) (A) (A)
                 (A) (A) (A) (A) (A) (A) (A) (A) (A) (A) (A) (A)
                 (A) (A) (A) (A) (A) (A) (A) (A) (A) (A) (A) (A)
                 (A) (A) (A) (A) (A) (A) (A) (A) (A) (A) (A) (A)
                 (A) (A) (A) (A) (A) (A) (A) (A) (A) (A) (A) (A)
                 (A) (A) (A) (A) (A) (A) (A) (A) (A) (A) (A) (A)
                 (A) (A) (A) (A) (A) (A) (A) (A) (A) (A) (A) (A)
                 (A) (A) (A) (A) (A) (A) (A) (A) (A) (A) (A) (A)
                 (A) (A) (A) (A) (A) (A) (A) (A) (A) (A) (A) (A)
                 (A) (A) (A) (A) (A) (A) (A) (A) (A) (A) (A) (A)
                 (A) (A) (A)
 The electronic state is 1-A.
 Alpha  occ. eigenvalues -- -145.35742 -19.21742 -19.20400 -19.16201 -19.14299
 Alpha  occ. eigenvalues --  -19.12942 -19.12917 -19.12515 -19.11561 -19.10224
 Alpha  occ. eigenvalues --  -19.07519 -19.06789 -19.06458 -19.06436 -19.06067
 Alpha  occ. eigenvalues --  -19.05658 -19.05218 -19.04845 -19.04610 -19.03848
 Alpha  occ. eigenvalues --  -19.03459 -19.02526 -19.01846 -18.99002 -15.41511
 Alpha  occ. eigenvalues --  -14.58325 -14.42222 -14.39616 -14.39227 -14.38358
 Alpha  occ. eigenvalues --  -14.36511 -14.35999 -14.32837 -14.32666 -14.31939
 Alpha  occ. eigenvalues --  -14.30723 -14.30671 -14.29941 -14.29761 -14.28138
 Alpha  occ. eigenvalues --  -12.55133 -12.55078 -12.55064 -10.34923 -10.33901
 Alpha  occ. eigenvalues --  -10.31382 -10.31372 -10.31371 -10.30938 -10.29818
 Alpha  occ. eigenvalues --  -10.29724 -10.28849 -10.27208 -10.26783 -10.25934
 Alpha  occ. eigenvalues --  -10.25658 -10.25531 -10.25178 -10.25118 -10.24834
 Alpha  occ. eigenvalues --  -10.24126 -10.23949 -10.23793 -10.23671 -10.23522
 Alpha  occ. eigenvalues --  -10.23420 -10.23418 -10.22817 -10.22462 -10.22183
 Alpha  occ. eigenvalues --  -10.21542 -10.21282 -10.20364 -10.20021 -10.19791
 Alpha  occ. eigenvalues --  -10.19563 -10.19547 -10.19526 -10.19427 -10.19337
 Alpha  occ. eigenvalues --  -10.19170 -10.18875 -10.18813 -10.18535 -10.18007
 Alpha  occ. eigenvalues --  -10.17917 -10.17855 -10.17831 -10.17657 -10.17503
 Alpha  occ. eigenvalues --  -10.17434 -10.17089 -10.16669 -10.16666 -10.16520
 Alpha  occ. eigenvalues --  -10.14816 -10.13027  -1.78506  -1.13331  -1.10325
 Alpha  occ. eigenvalues --   -1.09368  -1.06897  -1.06804  -1.06329  -1.05935
 Alpha  occ. eigenvalues --   -1.05569  -1.05398  -1.05262  -1.03597  -1.03117
 Alpha  occ. eigenvalues --   -1.02877  -1.02580  -0.99855  -0.99680  -0.99135
 Alpha  occ. eigenvalues --   -0.98660  -0.98630  -0.98320  -0.98190  -0.97346
 Alpha  occ. eigenvalues --   -0.96776  -0.96359  -0.95964  -0.95750  -0.95321
 Alpha  occ. eigenvalues --   -0.94713  -0.92955  -0.91593  -0.91303  -0.90253
 Alpha  occ. eigenvalues --   -0.89239  -0.89156  -0.88737  -0.88518  -0.88299
 Alpha  occ. eigenvalues --   -0.87582  -0.86809  -0.86513  -0.84767  -0.84533
 Alpha  occ. eigenvalues --   -0.84524  -0.83321  -0.82603  -0.81552  -0.80279
 Alpha  occ. eigenvalues --   -0.80050  -0.79021  -0.78462  -0.75703  -0.75434
 Alpha  occ. eigenvalues --   -0.75403  -0.74349  -0.73184  -0.72636  -0.72528
 Alpha  occ. eigenvalues --   -0.72432  -0.72322  -0.71814  -0.71052  -0.70754
 Alpha  occ. eigenvalues --   -0.70268  -0.70197  -0.69716  -0.68096  -0.67679
 Alpha  occ. eigenvalues --   -0.67108  -0.66485  -0.66220  -0.65266  -0.64338
 Alpha  occ. eigenvalues --   -0.63988  -0.63588  -0.63318  -0.63163  -0.62308
 Alpha  occ. eigenvalues --   -0.61929  -0.61539  -0.60905  -0.60765  -0.60589
 Alpha  occ. eigenvalues --   -0.60400  -0.59722  -0.59376  -0.58949  -0.58584
 Alpha  occ. eigenvalues --   -0.58215  -0.58019  -0.56987  -0.56953  -0.56394
 Alpha  occ. eigenvalues --   -0.56009  -0.55514  -0.55482  -0.55170  -0.54885
 Alpha  occ. eigenvalues --   -0.54867  -0.54687  -0.54026  -0.53887  -0.53447
 Alpha  occ. eigenvalues --   -0.53379  -0.52972  -0.52872  -0.52496  -0.51959
 Alpha  occ. eigenvalues --   -0.51539  -0.51508  -0.50953  -0.50668  -0.50250
 Alpha  occ. eigenvalues --   -0.49902  -0.49472  -0.49261  -0.48946  -0.48882
 Alpha  occ. eigenvalues --   -0.48629  -0.48215  -0.47908  -0.47540  -0.47529
 Alpha  occ. eigenvalues --   -0.47320  -0.47226  -0.47130  -0.46879  -0.46640
 Alpha  occ. eigenvalues --   -0.46580  -0.46140  -0.46123  -0.45918  -0.45757
 Alpha  occ. eigenvalues --   -0.45399  -0.45341  -0.44907  -0.44689  -0.44645
 Alpha  occ. eigenvalues --   -0.44344  -0.44331  -0.44022  -0.43937  -0.43873
 Alpha  occ. eigenvalues --   -0.43770  -0.43418  -0.43298  -0.42998  -0.42950
 Alpha  occ. eigenvalues --   -0.42807  -0.42737  -0.42627  -0.42566  -0.42314
 Alpha  occ. eigenvalues --   -0.42196  -0.41914  -0.41789  -0.41691  -0.41461
 Alpha  occ. eigenvalues --   -0.41435  -0.41077  -0.41064  -0.41038  -0.40866
 Alpha  occ. eigenvalues --   -0.40679  -0.40631  -0.40358  -0.40045  -0.39898
 Alpha  occ. eigenvalues --   -0.39661  -0.39398  -0.39347  -0.39276  -0.39164
 Alpha  occ. eigenvalues --   -0.39004  -0.38710  -0.38688  -0.38604  -0.38512
 Alpha  occ. eigenvalues --   -0.38371  -0.38269  -0.38104  -0.38076  -0.37725
 Alpha  occ. eigenvalues --   -0.37606  -0.37433  -0.37396  -0.37344  -0.37068
 Alpha  occ. eigenvalues --   -0.36944  -0.36845  -0.36730  -0.36655  -0.36425
 Alpha  occ. eigenvalues --   -0.36224  -0.36020  -0.35417  -0.35402  -0.35247
 Alpha  occ. eigenvalues --   -0.35207  -0.35144  -0.35141  -0.34781  -0.34647
 Alpha  occ. eigenvalues --   -0.34485  -0.34187  -0.33865  -0.33606  -0.33567
 Alpha  occ. eigenvalues --   -0.33327  -0.33224  -0.33047  -0.32788  -0.32522
 Alpha  occ. eigenvalues --   -0.32338  -0.32288  -0.32173  -0.31924  -0.31853
 Alpha  occ. eigenvalues --   -0.31327  -0.31229  -0.31025  -0.30548  -0.30487
 Alpha  occ. eigenvalues --   -0.30440  -0.30410  -0.29551  -0.29492  -0.28971
 Alpha  occ. eigenvalues --   -0.28638  -0.27911  -0.27653  -0.27574  -0.26852
 Alpha  occ. eigenvalues --   -0.26667  -0.25497  -0.25245  -0.24920  -0.24440
 Alpha  occ. eigenvalues --   -0.24132  -0.23416  -0.23248  -0.23161  -0.22582
 Alpha  occ. eigenvalues --   -0.22462  -0.22306  -0.22247  -0.21988  -0.21860
 Alpha  occ. eigenvalues --   -0.21617  -0.21247  -0.20690  -0.20427  -0.20387
 Alpha  occ. eigenvalues --   -0.19967  -0.19800  -0.19448  -0.19261  -0.18224
 Alpha  occ. eigenvalues --   -0.18154  -0.17527  -0.14863
 Alpha virt. eigenvalues --   -0.10141  -0.05329  -0.04509  -0.03942  -0.03661
 Alpha virt. eigenvalues --   -0.02778  -0.02235  -0.01577  -0.00529  -0.00175
 Alpha virt. eigenvalues --   -0.00101   0.00473   0.00557   0.00824   0.01811
 Alpha virt. eigenvalues --    0.02005   0.02774   0.03350   0.03694   0.03840
 Alpha virt. eigenvalues --    0.03972   0.04229   0.04401   0.04647   0.04698
 Alpha virt. eigenvalues --    0.05293   0.05385   0.05498   0.05625   0.05826
 Alpha virt. eigenvalues --    0.05941   0.06103   0.06164   0.06553   0.06692
 Alpha virt. eigenvalues --    0.07049   0.07191   0.07305   0.07572   0.07793
 Alpha virt. eigenvalues --    0.08029   0.08081   0.08407   0.08555   0.08620
 Alpha virt. eigenvalues --    0.08854   0.09155   0.09404   0.09527   0.09630
 Alpha virt. eigenvalues --    0.09768   0.09873   0.10361   0.10626   0.10685
 Alpha virt. eigenvalues --    0.10957   0.11248   0.11469   0.11658   0.11847
 Alpha virt. eigenvalues --    0.11891   0.12068   0.12208   0.12380   0.12501
 Alpha virt. eigenvalues --    0.12743   0.12921   0.13110   0.13441   0.13534
 Alpha virt. eigenvalues --    0.13598   0.13712   0.13804   0.13945   0.14363
 Alpha virt. eigenvalues --    0.14481   0.14671   0.14782   0.15108   0.15173
 Alpha virt. eigenvalues --    0.15403   0.15551   0.15638   0.15883   0.16016
 Alpha virt. eigenvalues --    0.16115   0.16388   0.16675   0.16740   0.16941
 Alpha virt. eigenvalues --    0.17128   0.17333   0.17431   0.17635   0.17727
 Alpha virt. eigenvalues --    0.17978   0.18190   0.18356   0.18503   0.18651
 Alpha virt. eigenvalues --    0.19021   0.19250   0.19434   0.19608   0.19788
 Alpha virt. eigenvalues --    0.19946   0.20089   0.20304   0.20480   0.20641
 Alpha virt. eigenvalues --    0.20742   0.20923   0.21698   0.21875   0.21909
 Alpha virt. eigenvalues --    0.22003   0.22108   0.22254   0.22417   0.22816
 Alpha virt. eigenvalues --    0.23137   0.23246   0.23631   0.23873   0.24074
 Alpha virt. eigenvalues --    0.24108   0.24408   0.24412   0.24557   0.24812
 Alpha virt. eigenvalues --    0.25033   0.25305   0.25334   0.25559   0.25698
 Alpha virt. eigenvalues --    0.25874   0.26197   0.26331   0.26612   0.26929
 Alpha virt. eigenvalues --    0.27526   0.27627   0.27813   0.27975   0.28028
 Alpha virt. eigenvalues --    0.28259   0.28402   0.28593   0.28764   0.28874
 Alpha virt. eigenvalues --    0.29293   0.29442   0.29966   0.30136   0.30684
 Alpha virt. eigenvalues --    0.30784   0.30895   0.31200   0.31420   0.31898
 Alpha virt. eigenvalues --    0.31962   0.32195   0.32304   0.32578   0.32712
 Alpha virt. eigenvalues --    0.33103   0.33255   0.33674   0.33862   0.34283
 Alpha virt. eigenvalues --    0.34462   0.34916   0.34946   0.35368   0.35644
 Alpha virt. eigenvalues --    0.35878   0.36054   0.36513   0.36795   0.36886
 Alpha virt. eigenvalues --    0.37313   0.37463   0.37690   0.37923   0.38108
 Alpha virt. eigenvalues --    0.38453   0.38745   0.38844   0.39093   0.39482
 Alpha virt. eigenvalues --    0.39560   0.39849   0.39999   0.40142   0.40167
 Alpha virt. eigenvalues --    0.40588   0.40871   0.41262   0.41573   0.41946
 Alpha virt. eigenvalues --    0.42020   0.42538   0.42745   0.43170   0.43281
 Alpha virt. eigenvalues --    0.43322   0.43557   0.43758   0.43924   0.44389
 Alpha virt. eigenvalues --    0.44537   0.44621   0.44939   0.45179   0.45441
 Alpha virt. eigenvalues --    0.45572   0.45712   0.45903   0.45928   0.46217
 Alpha virt. eigenvalues --    0.46332   0.46478   0.46836   0.46923   0.47066
 Alpha virt. eigenvalues --    0.47370   0.47669   0.48042   0.48237   0.48396
 Alpha virt. eigenvalues --    0.48557   0.48715   0.48802   0.49018   0.49155
 Alpha virt. eigenvalues --    0.49478   0.49751   0.49964   0.50167   0.50432
 Alpha virt. eigenvalues --    0.50681   0.50811   0.51000   0.51143   0.51290
 Alpha virt. eigenvalues --    0.51402   0.51722   0.51973   0.52045   0.52194
 Alpha virt. eigenvalues --    0.52581   0.52622   0.52782   0.52803   0.53487
 Alpha virt. eigenvalues --    0.53558   0.53628   0.53842   0.53884   0.54288
 Alpha virt. eigenvalues --    0.54659   0.54901   0.55044   0.55192   0.55305
 Alpha virt. eigenvalues --    0.55416   0.55529   0.55866   0.56088   0.56174
 Alpha virt. eigenvalues --    0.56365   0.56493   0.56582   0.56688   0.56943
 Alpha virt. eigenvalues --    0.57044   0.57182   0.57470   0.57584   0.57791
 Alpha virt. eigenvalues --    0.57949   0.58065   0.58136   0.58437   0.58543
 Alpha virt. eigenvalues --    0.58667   0.58861   0.59021   0.59185   0.59319
 Alpha virt. eigenvalues --    0.59538   0.59611   0.59773   0.60001   0.60053
 Alpha virt. eigenvalues --    0.60277   0.60371   0.60471   0.60574   0.60681
 Alpha virt. eigenvalues --    0.60886   0.61065   0.61161   0.61227   0.61446
 Alpha virt. eigenvalues --    0.61513   0.61621   0.61724   0.62101   0.62136
 Alpha virt. eigenvalues --    0.62311   0.62428   0.62584   0.62815   0.63113
 Alpha virt. eigenvalues --    0.63306   0.63383   0.63507   0.63637   0.63673
 Alpha virt. eigenvalues --    0.63836   0.63893   0.64082   0.64184   0.64387
 Alpha virt. eigenvalues --    0.64529   0.64579   0.64729   0.64866   0.64926
 Alpha virt. eigenvalues --    0.65065   0.65257   0.65298   0.65531   0.65642
 Alpha virt. eigenvalues --    0.65704   0.65818   0.65900   0.65981   0.66186
 Alpha virt. eigenvalues --    0.66275   0.66349   0.66531   0.66641   0.66763
 Alpha virt. eigenvalues --    0.67000   0.67041   0.67104   0.67146   0.67418
 Alpha virt. eigenvalues --    0.67583   0.67628   0.67731   0.68009   0.68069
 Alpha virt. eigenvalues --    0.68241   0.68412   0.68424   0.68600   0.68667
 Alpha virt. eigenvalues --    0.68671   0.68949   0.68995   0.69061   0.69209
 Alpha virt. eigenvalues --    0.69371   0.69477   0.69540   0.69620   0.69750
 Alpha virt. eigenvalues --    0.69832   0.70000   0.70112   0.70237   0.70276
 Alpha virt. eigenvalues --    0.70559   0.70718   0.70860   0.71019   0.71186
 Alpha virt. eigenvalues --    0.71276   0.71577   0.71652   0.71666   0.71763
 Alpha virt. eigenvalues --    0.71870   0.72074   0.72244   0.72489   0.72575
 Alpha virt. eigenvalues --    0.72624   0.72854   0.73060   0.73102   0.73343
 Alpha virt. eigenvalues --    0.73566   0.73687   0.73963   0.74042   0.74202
 Alpha virt. eigenvalues --    0.74315   0.74417   0.74659   0.74786   0.74880
 Alpha virt. eigenvalues --    0.75013   0.75232   0.75552   0.75735   0.76103
 Alpha virt. eigenvalues --    0.76175   0.76284   0.76515   0.76680   0.76881
 Alpha virt. eigenvalues --    0.76890   0.77417   0.77798   0.77930   0.78068
 Alpha virt. eigenvalues --    0.78128   0.78370   0.78534   0.78965   0.79283
 Alpha virt. eigenvalues --    0.79590   0.79733   0.80053   0.80480   0.80512
 Alpha virt. eigenvalues --    0.80922   0.81077   0.81428   0.81661   0.81830
 Alpha virt. eigenvalues --    0.82277   0.82452   0.82859   0.82954   0.83395
 Alpha virt. eigenvalues --    0.83459   0.83855   0.84148   0.84214   0.84828
 Alpha virt. eigenvalues --    0.84882   0.85159   0.85539   0.85727   0.85994
 Alpha virt. eigenvalues --    0.86091   0.86368   0.86596   0.86742   0.86874
 Alpha virt. eigenvalues --    0.87681   0.87985   0.88176   0.88528   0.88612
 Alpha virt. eigenvalues --    0.88803   0.89387   0.89614   0.89804   0.90307
 Alpha virt. eigenvalues --    0.90530   0.90715   0.91063   0.91590   0.91868
 Alpha virt. eigenvalues --    0.92044   0.92179   0.92615   0.92979   0.93141
 Alpha virt. eigenvalues --    0.93642   0.93986   0.94238   0.94772   0.94814
 Alpha virt. eigenvalues --    0.95098   0.95367   0.95657   0.95915   0.96211
 Alpha virt. eigenvalues --    0.96368   0.96813   0.96988   0.97289   0.97381
 Alpha virt. eigenvalues --    0.97586   0.97694   0.97910   0.98400   0.98712
 Alpha virt. eigenvalues --    0.98876   0.99041   0.99190   0.99793   0.99958
 Alpha virt. eigenvalues --    1.00106   1.00374   1.00531   1.00906   1.00981
 Alpha virt. eigenvalues --    1.01331   1.01727   1.02258   1.02301   1.02868
 Alpha virt. eigenvalues --    1.03031   1.03574   1.03776   1.04050   1.04344
 Alpha virt. eigenvalues --    1.04470   1.04864   1.05204   1.05360   1.05434
 Alpha virt. eigenvalues --    1.06299   1.06367   1.06920   1.06963   1.07251
 Alpha virt. eigenvalues --    1.07614   1.07809   1.07831   1.08300   1.08502
 Alpha virt. eigenvalues --    1.09112   1.09236   1.09331   1.09688   1.09857
 Alpha virt. eigenvalues --    1.10182   1.10405   1.10791   1.11119   1.11635
 Alpha virt. eigenvalues --    1.12090   1.12393   1.12923   1.13100   1.13209
 Alpha virt. eigenvalues --    1.13431   1.13665   1.13773   1.14530   1.14731
 Alpha virt. eigenvalues --    1.15481   1.15573   1.15981   1.16388   1.16512
 Alpha virt. eigenvalues --    1.16747   1.16984   1.17120   1.17503   1.17670
 Alpha virt. eigenvalues --    1.17817   1.18027   1.18194   1.18363   1.18686
 Alpha virt. eigenvalues --    1.18844   1.19224   1.19287   1.19767   1.20010
 Alpha virt. eigenvalues --    1.20297   1.20727   1.21013   1.21133   1.21582
 Alpha virt. eigenvalues --    1.21777   1.21912   1.22268   1.22388   1.22537
 Alpha virt. eigenvalues --    1.22820   1.23226   1.23623   1.23705   1.23838
 Alpha virt. eigenvalues --    1.24183   1.24464   1.25058   1.25188   1.25423
 Alpha virt. eigenvalues --    1.25527   1.25618   1.25932   1.26085   1.26363
 Alpha virt. eigenvalues --    1.26570   1.26671   1.26776   1.27290   1.27424
 Alpha virt. eigenvalues --    1.27727   1.28015   1.28579   1.28909   1.28993
 Alpha virt. eigenvalues --    1.29277   1.29556   1.29662   1.30110   1.30353
 Alpha virt. eigenvalues --    1.30756   1.31204   1.31361   1.31497   1.31907
 Alpha virt. eigenvalues --    1.32094   1.32277   1.32571   1.32734   1.32904
 Alpha virt. eigenvalues --    1.33397   1.33514   1.33561   1.33999   1.34143
 Alpha virt. eigenvalues --    1.34377   1.34518   1.35281   1.35471   1.35706
 Alpha virt. eigenvalues --    1.36099   1.36317   1.36510   1.36698   1.36721
 Alpha virt. eigenvalues --    1.36963   1.37037   1.37614   1.37777   1.37907
 Alpha virt. eigenvalues --    1.38212   1.38483   1.39013   1.39198   1.39467
 Alpha virt. eigenvalues --    1.39774   1.39991   1.40225   1.40428   1.40779
 Alpha virt. eigenvalues --    1.41288   1.41400   1.41670   1.41895   1.42298
 Alpha virt. eigenvalues --    1.42359   1.42568   1.42838   1.43041   1.43714
 Alpha virt. eigenvalues --    1.44099   1.44247   1.44458   1.44549   1.45270
 Alpha virt. eigenvalues --    1.45643   1.46292   1.46620   1.46652   1.47203
 Alpha virt. eigenvalues --    1.47546   1.47578   1.47878   1.47945   1.48159
 Alpha virt. eigenvalues --    1.48626   1.49080   1.49402   1.49630   1.49755
 Alpha virt. eigenvalues --    1.49904   1.50415   1.50889   1.51105   1.51631
 Alpha virt. eigenvalues --    1.52217   1.52278   1.52693   1.52828   1.53406
 Alpha virt. eigenvalues --    1.53472   1.53775   1.54209   1.54284   1.54348
 Alpha virt. eigenvalues --    1.54852   1.55118   1.55372   1.55485   1.55832
 Alpha virt. eigenvalues --    1.56095   1.56576   1.56855   1.57029   1.57641
 Alpha virt. eigenvalues --    1.57988   1.58267   1.58543   1.58780   1.58870
 Alpha virt. eigenvalues --    1.59177   1.59835   1.60302   1.60635   1.61129
 Alpha virt. eigenvalues --    1.61378   1.61941   1.62025   1.62165   1.62272
 Alpha virt. eigenvalues --    1.62711   1.62934   1.63289   1.63677   1.64157
 Alpha virt. eigenvalues --    1.64304   1.64510   1.64776   1.65082   1.65302
 Alpha virt. eigenvalues --    1.65623   1.65847   1.66071   1.66315   1.66528
 Alpha virt. eigenvalues --    1.66782   1.66840   1.67403   1.68040   1.68173
 Alpha virt. eigenvalues --    1.68621   1.68921   1.69082   1.69558   1.69605
 Alpha virt. eigenvalues --    1.69825   1.70216   1.70821   1.71046   1.71191
 Alpha virt. eigenvalues --    1.71254   1.71436   1.71626   1.71911   1.72224
 Alpha virt. eigenvalues --    1.72411   1.72803   1.73178   1.73274   1.73468
 Alpha virt. eigenvalues --    1.73672   1.73979   1.74347   1.74456   1.74483
 Alpha virt. eigenvalues --    1.74627   1.74656   1.74902   1.75063   1.75151
 Alpha virt. eigenvalues --    1.75409   1.75721   1.75815   1.75942   1.75985
 Alpha virt. eigenvalues --    1.76142   1.76239   1.76261   1.76672   1.76865
 Alpha virt. eigenvalues --    1.77184   1.77230   1.77692   1.77912   1.78030
 Alpha virt. eigenvalues --    1.78134   1.78224   1.78396   1.78435   1.78737
 Alpha virt. eigenvalues --    1.78897   1.79135   1.79298   1.79482   1.79575
 Alpha virt. eigenvalues --    1.79772   1.79837   1.80026   1.80173   1.80346
 Alpha virt. eigenvalues --    1.80455   1.80715   1.80851   1.81077   1.81156
 Alpha virt. eigenvalues --    1.81261   1.81463   1.81690   1.81818   1.81996
 Alpha virt. eigenvalues --    1.82140   1.82227   1.82731   1.82853   1.82922
 Alpha virt. eigenvalues --    1.83112   1.83222   1.83436   1.83560   1.83641
 Alpha virt. eigenvalues --    1.83809   1.84076   1.84428   1.84467   1.84667
 Alpha virt. eigenvalues --    1.84694   1.84996   1.85198   1.85357   1.85415
 Alpha virt. eigenvalues --    1.85775   1.85956   1.86130   1.86347   1.86452
 Alpha virt. eigenvalues --    1.86786   1.87040   1.87144   1.87296   1.87534
 Alpha virt. eigenvalues --    1.87607   1.87998   1.88167   1.88550   1.88656
 Alpha virt. eigenvalues --    1.88792   1.88847   1.89148   1.89329   1.89519
 Alpha virt. eigenvalues --    1.89665   1.90152   1.90198   1.90325   1.90481
 Alpha virt. eigenvalues --    1.90758   1.91176   1.91239   1.91338   1.91576
 Alpha virt. eigenvalues --    1.91801   1.92121   1.92340   1.92503   1.92927
 Alpha virt. eigenvalues --    1.92971   1.93183   1.93586   1.93657   1.94042
 Alpha virt. eigenvalues --    1.94355   1.94626   1.94889   1.95031   1.95053
 Alpha virt. eigenvalues --    1.95348   1.95422   1.95731   1.95850   1.96114
 Alpha virt. eigenvalues --    1.96388   1.96449   1.96555   1.97180   1.97265
 Alpha virt. eigenvalues --    1.97418   1.97711   1.98031   1.98387   1.98525
 Alpha virt. eigenvalues --    1.98736   1.99209   1.99580   1.99949   2.00126
 Alpha virt. eigenvalues --    2.00214   2.00341   2.00567   2.00820   2.01043
 Alpha virt. eigenvalues --    2.01559   2.01845   2.01948   2.02291   2.02811
 Alpha virt. eigenvalues --    2.02854   2.03055   2.03259   2.03505   2.03688
 Alpha virt. eigenvalues --    2.03968   2.04014   2.04357   2.04732   2.04923
 Alpha virt. eigenvalues --    2.04939   2.05191   2.05454   2.05566   2.06065
 Alpha virt. eigenvalues --    2.06349   2.06775   2.06961   2.07317   2.07494
 Alpha virt. eigenvalues --    2.07654   2.07937   2.08235   2.08478   2.08561
 Alpha virt. eigenvalues --    2.08687   2.08826   2.08934   2.09462   2.09646
 Alpha virt. eigenvalues --    2.09706   2.10190   2.10386   2.10762   2.10961
 Alpha virt. eigenvalues --    2.11178   2.11525   2.11717   2.12108   2.12541
 Alpha virt. eigenvalues --    2.12712   2.13026   2.13392   2.13832   2.14531
 Alpha virt. eigenvalues --    2.14749   2.15009   2.15317   2.15617   2.15851
 Alpha virt. eigenvalues --    2.16072   2.16324   2.16489   2.16643   2.17207
 Alpha virt. eigenvalues --    2.17320   2.17411   2.17800   2.18064   2.18126
 Alpha virt. eigenvalues --    2.18587   2.18763   2.18914   2.19202   2.19392
 Alpha virt. eigenvalues --    2.19734   2.19929   2.20200   2.20463   2.20556
 Alpha virt. eigenvalues --    2.20971   2.21284   2.21594   2.21986   2.22079
 Alpha virt. eigenvalues --    2.22419   2.22615   2.22723   2.22952   2.23705
 Alpha virt. eigenvalues --    2.23911   2.24330   2.24717   2.24955   2.25177
 Alpha virt. eigenvalues --    2.25698   2.25891   2.26058   2.26634   2.27011
 Alpha virt. eigenvalues --    2.27175   2.27461   2.27812   2.28769   2.28933
 Alpha virt. eigenvalues --    2.29029   2.29318   2.29638   2.29892   2.30436
 Alpha virt. eigenvalues --    2.30968   2.31300   2.31514   2.31871   2.32484
 Alpha virt. eigenvalues --    2.32507   2.32846   2.33118   2.33543   2.33801
 Alpha virt. eigenvalues --    2.34090   2.34394   2.34990   2.35091   2.35739
 Alpha virt. eigenvalues --    2.35980   2.36364   2.36555   2.37133   2.37332
 Alpha virt. eigenvalues --    2.37751   2.38177   2.38237   2.38438   2.38840
 Alpha virt. eigenvalues --    2.39123   2.39616   2.39960   2.40382   2.40653
 Alpha virt. eigenvalues --    2.40699   2.41014   2.41346   2.41558   2.41769
 Alpha virt. eigenvalues --    2.42195   2.42556   2.42608   2.42888   2.43128
 Alpha virt. eigenvalues --    2.43349   2.43887   2.44595   2.44746   2.44956
 Alpha virt. eigenvalues --    2.45334   2.45683   2.45998   2.46224   2.46621
 Alpha virt. eigenvalues --    2.46944   2.47320   2.47379   2.47617   2.47912
 Alpha virt. eigenvalues --    2.48576   2.48845   2.49271   2.49560   2.49825
 Alpha virt. eigenvalues --    2.50175   2.50361   2.50471   2.51298   2.51621
 Alpha virt. eigenvalues --    2.51715   2.52481   2.53196   2.53358   2.53492
 Alpha virt. eigenvalues --    2.53530   2.54187   2.54230   2.54579   2.55484
 Alpha virt. eigenvalues --    2.55558   2.55867   2.56275   2.56807   2.57335
 Alpha virt. eigenvalues --    2.57607   2.57842   2.58029   2.58400   2.59056
 Alpha virt. eigenvalues --    2.59213   2.59384   2.59540   2.60015   2.60041
 Alpha virt. eigenvalues --    2.60514   2.60598   2.60718   2.60736   2.61279
 Alpha virt. eigenvalues --    2.62275   2.62460   2.62654   2.62818   2.63035
 Alpha virt. eigenvalues --    2.63182   2.63327   2.64221   2.64582   2.64926
 Alpha virt. eigenvalues --    2.65382   2.65589   2.65931   2.66586   2.66910
 Alpha virt. eigenvalues --    2.67098   2.67380   2.67814   2.68406   2.68705
 Alpha virt. eigenvalues --    2.69117   2.69295   2.69587   2.69683   2.69791
 Alpha virt. eigenvalues --    2.69981   2.70350   2.70516   2.70584   2.71081
 Alpha virt. eigenvalues --    2.71372   2.71569   2.72205   2.72519   2.72758
 Alpha virt. eigenvalues --    2.73033   2.73159   2.73539   2.73931   2.74181
 Alpha virt. eigenvalues --    2.74569   2.74636   2.74873   2.75164   2.75526
 Alpha virt. eigenvalues --    2.75692   2.75923   2.76116   2.76324   2.76500
 Alpha virt. eigenvalues --    2.76992   2.77062   2.77233   2.77546   2.77691
 Alpha virt. eigenvalues --    2.78044   2.78202   2.78268   2.78659   2.79094
 Alpha virt. eigenvalues --    2.79313   2.79677   2.79898   2.80179   2.80283
 Alpha virt. eigenvalues --    2.80566   2.80633   2.80780   2.81180   2.81485
 Alpha virt. eigenvalues --    2.81903   2.82129   2.82223   2.82395   2.82898
 Alpha virt. eigenvalues --    2.83120   2.83545   2.84030   2.84144   2.84241
 Alpha virt. eigenvalues --    2.84711   2.84946   2.85152   2.85637   2.85976
 Alpha virt. eigenvalues --    2.86356   2.87068   2.87164   2.87785   2.87943
 Alpha virt. eigenvalues --    2.87982   2.88351   2.88473   2.88823   2.88994
 Alpha virt. eigenvalues --    2.89213   2.89958   2.90027   2.90464   2.91005
 Alpha virt. eigenvalues --    2.91259   2.91639   2.91680   2.91825   2.92081
 Alpha virt. eigenvalues --    2.92525   2.92766   2.93016   2.93566   2.93722
 Alpha virt. eigenvalues --    2.94025   2.94414   2.94899   2.95027   2.95474
 Alpha virt. eigenvalues --    2.95606   2.95688   2.95815   2.96358   2.96645
 Alpha virt. eigenvalues --    2.96927   2.97104   2.97260   2.97517   2.97652
 Alpha virt. eigenvalues --    2.98227   2.98551   2.98799   2.99037   2.99131
 Alpha virt. eigenvalues --    2.99616   3.00057   3.00546   3.00669   3.00989
 Alpha virt. eigenvalues --    3.01374   3.01568   3.02329   3.02382   3.02850
 Alpha virt. eigenvalues --    3.03083   3.03653   3.04045   3.04471   3.04579
 Alpha virt. eigenvalues --    3.04900   3.05251   3.05572   3.06296   3.06644
 Alpha virt. eigenvalues --    3.06910   3.07113   3.07539   3.08995   3.09220
 Alpha virt. eigenvalues --    3.09515   3.09812   3.10005   3.10733   3.11094
 Alpha virt. eigenvalues --    3.11279   3.11679   3.12076   3.12831   3.13716
 Alpha virt. eigenvalues --    3.14126   3.14430   3.14743   3.14805   3.15549
 Alpha virt. eigenvalues --    3.15692   3.16570   3.17201   3.17277   3.17437
 Alpha virt. eigenvalues --    3.17911   3.18094   3.18442   3.18912   3.19722
 Alpha virt. eigenvalues --    3.20016   3.20461   3.20628   3.21064   3.21466
 Alpha virt. eigenvalues --    3.22055   3.22530   3.22896   3.23367   3.23516
 Alpha virt. eigenvalues --    3.23633   3.24405   3.24710   3.24811   3.25325
 Alpha virt. eigenvalues --    3.25645   3.26751   3.27139   3.27288   3.27682
 Alpha virt. eigenvalues --    3.28236   3.28942   3.29858   3.30682   3.31336
 Alpha virt. eigenvalues --    3.31389   3.31517   3.32359   3.33668   3.34444
 Alpha virt. eigenvalues --    3.34629   3.36463   3.37662   3.39655   3.39903
 Alpha virt. eigenvalues --    3.41019   3.42427   3.48524   3.49885   3.51080
 Alpha virt. eigenvalues --    3.51536   3.52171   3.52545   3.53457   3.54197
 Alpha virt. eigenvalues --    3.56166   3.57367   3.57880   3.59388   3.59781
 Alpha virt. eigenvalues --    3.61484   3.61602   3.63969   3.64630   3.65318
 Alpha virt. eigenvalues --    3.65790   3.65834   3.66041   3.67255   3.68078
 Alpha virt. eigenvalues --    3.68910   3.69850   3.70431   3.70493   3.70744
 Alpha virt. eigenvalues --    3.71031   3.71446   3.72056   3.72262   3.72542
 Alpha virt. eigenvalues --    3.72631   3.73080   3.73727   3.74287   3.75671
 Alpha virt. eigenvalues --    3.77274   3.80863   3.81632   3.82032
          Condensed to atoms (all electrons):
 Mulliken charges:
               1
     1  C    0.066287
     2  C    0.010305
     3  O   -0.296782
     4  H    0.028651
     5  H    0.039871
     6  H   -0.000116
     7  N   -0.114208
     8  C    0.112660
     9  C    0.095029
    10  O   -0.282240
    11  C    0.030599
    12  C    0.172751
    13  O   -0.459925
    14  O   -0.394889
    15  H    0.109053
    16  H    0.001214
    17  H    0.018280
    18  H   -0.004269
    19  N   -0.148814
    20  C    0.131726
    21  C    0.040792
    22  O   -0.295362
    23  C    0.062210
    24  C   -0.059737
    25  C   -0.033553
    26  C   -0.000935
    27  N    0.093395
    28  H    0.153990
    29  H    0.002461
    30  H    0.018178
    31  H    0.023325
    32  H    0.014381
    33  H    0.028432
    34  H    0.029023
    35  H    0.041894
    36  H    0.090742
    37  H    0.078173
    38  H    0.200120
    39  H    0.196871
    40  H    0.198509
    41  N   -0.128522
    42  C    0.118437
    43  C    0.069261
    44  O   -0.296446
    45  C    0.113019
    46  C    0.084742
    47  O   -0.484154
    48  O   -0.381699
    49  H    0.133581
    50  H   -0.000250
    51  H   -0.005693
    52  H    0.020074
    53  N   -0.169451
    54  C    0.220211
    55  C    0.043503
    56  O   -0.287138
    57  H    0.162740
    58  H    0.018622
    59  H    0.027985
    60  N   -0.183060
    61  C    0.148453
    62  C    0.041932
    63  O   -0.293398
    64  C    0.072786
    65  C    0.093488
    66  N   -0.036209
    67  O   -0.350281
    68  H    0.143184
    69  H    0.030660
    70  H    0.066024
    71  H    0.003071
    72  H    0.133993
    73  H    0.125488
    74  N   -0.167511
    75  C    0.243571
    76  C    0.011545
    77  O   -0.290738
    78  H    0.160787
    79  H    0.036116
    80  H    0.033882
    81  N   -0.136214
    82  C    0.137234
    83  C    0.101429
    84  O   -0.359069
    85  C    0.190820
    86  C    0.030727
    87  C    0.005216
    88  C   -0.012330
    89  C   -0.005145
    90  C   -0.024960
    91  C    0.190798
    92  O   -0.214295
    93  H    0.139736
    94  H   -0.011657
    95  H   -0.007261
    96  H   -0.058711
    97  H   -0.032151
    98  H   -0.102653
    99  H   -0.027484
   100  H   -0.051324
   101  H    0.175609
   102  N   -0.119765
   103  C    0.179070
   104  C    0.056880
   105  O   -0.269053
   106  C   -0.137474
   107  C   -0.001539
   108  C    0.053324
   109  C    0.028456
   110  H    0.129869
   111  H    0.012376
   112  H   -0.028420
   113  H    0.016440
   114  H    0.034579
   115  H    0.048355
   116  H    0.018849
   117  H   -0.003891
   118  H    0.004726
   119  H    0.007515
   120  H    0.008719
   121  N   -0.122583
   122  C    0.096632
   123  C    0.115710
   124  O   -0.287166
   125  C    0.190248
   126  O   -0.301984
   127  H    0.141890
   128  H    0.034776
   129  H    0.016055
   130  H   -0.001986
   131  H    0.192259
   132  N   -0.121742
   133  C    0.044238
   134  C    0.106272
   135  O   -0.239684
   136  C    0.043934
   137  H    0.116506
   138  H    0.037843
   139  H    0.011679
   140  H    0.006739
   141  H    0.059938
   142  N   -0.142261
   143  C    0.105897
   144  C    0.060401
   145  O   -0.265759
   146  C    0.025311
   147  H    0.109036
   148  H    0.011049
   149  H    0.019198
   150  H    0.007583
   151  H    0.012280
   152  N   -0.168659
   153  C    0.092189
   154  C    0.076200
   155  O   -0.287177
   156  C    0.018065
   157  C    0.037385
   158  C    0.103106
   159  O   -0.387928
   160  O   -0.420327
   161  H    0.129452
   162  H   -0.037933
   163  H    0.061343
   164  H   -0.010789
   165  H   -0.031888
   166  H   -0.019438
   167  N   -0.158571
   168  C    0.140993
   169  H    0.021511
   170  H    0.038361
   171  H    0.001811
   172  H    0.120318
   173  Ca   1.271699
   174  O   -0.289035
   175  H    0.183958
   176  H    0.185022
 Sum of Mulliken charges =  -0.00000
 Mulliken charges with hydrogens summed into heavy atoms:
               1
     1  C    0.134693
     2  C    0.010305
     3  O   -0.296782
     7  N   -0.005155
     8  C    0.113875
     9  C    0.095029
    10  O   -0.282240
    11  C    0.044610
    12  C    0.172751
    13  O   -0.459925
    14  O   -0.394889
    19  N    0.005176
    20  C    0.134188
    21  C    0.040792
    22  O   -0.295362
    23  C    0.103713
    24  C   -0.016924
    25  C    0.037364
    26  C    0.167980
    27  N    0.688896
    41  N    0.005059
    42  C    0.118187
    43  C    0.069261
    44  O   -0.296446
    45  C    0.127400
    46  C    0.084742
    47  O   -0.484154
    48  O   -0.381699
    53  N   -0.006712
    54  C    0.266818
    55  C    0.043503
    56  O   -0.287138
    60  N   -0.039876
    61  C    0.179113
    62  C    0.041932
    63  O   -0.293398
    64  C    0.141881
    65  C    0.093488
    66  N    0.223273
    67  O   -0.350281
    74  N   -0.006724
    75  C    0.313568
    76  C    0.011545
    77  O   -0.290738
    81  N    0.003521
    82  C    0.125577
    83  C    0.101429
    84  O   -0.359069
    85  C    0.124848
    86  C    0.030727
    87  C   -0.026935
    88  C   -0.114984
    89  C   -0.032629
    90  C   -0.076284
    91  C    0.190798
    92  O   -0.038685
   102  N    0.010103
   103  C    0.191446
   104  C    0.056880
   105  O   -0.269053
   106  C   -0.165894
   107  C    0.049479
   108  C    0.116637
   109  C    0.049415
   121  N    0.019307
   122  C    0.131408
   123  C    0.115710
   124  O   -0.287166
   125  C    0.204316
   126  O   -0.109725
   132  N   -0.005236
   133  C    0.082081
   134  C    0.106272
   135  O   -0.239684
   136  C    0.122290
   142  N   -0.033225
   143  C    0.116945
   144  C    0.060401
   145  O   -0.265759
   146  C    0.064371
   152  N   -0.039207
   153  C    0.054256
   154  C    0.076200
   155  O   -0.287177
   156  C    0.068619
   157  C   -0.013941
   158  C    0.103106
   159  O   -0.387928
   160  O   -0.420327
   167  N   -0.038254
   168  C    0.202676
   173  Ca   1.271699
   174  O    0.079944
 DipInt: DoE/N= T F RetVal/Mat= T F Init=T NMatP=  1 IDeriv=0 Min/MaxMlt=  0  4
 Entering OneElI...
 OneElI was handed  1333951383 working-precision words.
 Multipole integrals L=0 to 4 MinM= 0 MaxM= 0.
 Requested accuracy = 0.1000D-12
 ShPair: Thresh= 1.00D-13 NBox=     0 BxSize= 0.00D+00 RnKept= 2.55D+01
         NSMCal=               327645 NSMKep=              162575
 PrmmSu-InSpLW:  IPartL=    0 NPrtUS=    1 NPrtUL=    1 DoSpLW=F IThBeg=    0 IThEnd=    0 NThAct=    1.
 PrsmSu:  NPrtUS=   1 ThrOK=F IAlg=1 NPAlg=1 LenDen=           0 ISkipM=0 DoSpLW=F IThBeg=    0 IThEnd=    0.
 Prism:   IPart=     0 DynPar=F LinDyn=F Incr=         512.
 PRISM was handed  1323793207 working-precision words and162575 shell-pairs
 IPart=  0 NShTot=      162575 NBatch=         373 AvBLen=       435.9
 PrsmSu-ThDecC:  IPartSL=    0    0 NPrtUSL=    1    1 IThBeg=    0 IThEnd=    0 CPU=   -1 GPU=   -1 NThAct=    1.
 PrSmSu:  NxtVal=            513.
 Electronic moments (au):
       -716.00000000         14.59598402         -3.48120383         -6.61309529
     -54159.68566143     -29033.40217470     -11780.55633266        110.18917707
        -51.20350289          4.53606734     -24202.76403647     -23115.96273101
     -24985.37559019       7784.50374131     108304.15016646      51547.25625885
      -8842.54848651      -3635.61775411      22295.17134605       -921.73605489
   -8083047.33993113   -2512582.53835255    -607357.73595475    -321709.14641838
     175155.54352993    -401433.90396014      53166.10173130     -89562.20694371
     -12302.95471652   -2480914.23231497    -620925.86703870    -295452.56701323
    -175699.81846883      24934.73776685      -5879.70023185
 Electronic spatial extent (au):  <R**2>=          94973.6442
 DipInt: DoE/N= F T RetVal/Mat= T F Init=T NMatP=  1 IDeriv=0 Min/MaxMlt=  0  4
 Nuclear    moments (au):
        716.00000000         -0.00000000          0.00000000         -0.00000000
      53768.06592595      28666.27072224      11402.24801674         -0.00000000
         -0.00000000          0.00000000      26052.02797249      23438.18265087
      24994.95983765      -5333.56809676    -107463.69962792     -52873.41196129
       9053.78613313       3458.20032951     -22952.50353482        397.97824515
    7894479.55673635    2416818.07781261     568645.00699730     341756.84259702
    -179930.18490384     419266.26552291     -56316.10550350      88878.04183142
      14126.95649613    2452067.57004125     588990.84020928     273908.08440165
     173717.41836390     -31333.34139545       7944.82325144
 Total      moments (au):
         -0.00000000         14.59598402         -3.48120383         -6.61309529
       -391.61973547       -367.13145246       -378.30831593        110.18917707
        -51.20350289          4.53606734       1849.26393602        322.21991986
          9.58424746       2450.93564455        840.45053855      -1326.15570244
        211.23764661       -177.41742461       -657.33218877       -523.75780974
    -188567.78319478     -95764.46053994     -38712.72895744      20047.69617864
      -4774.64137392      17832.36156277      -3150.00377220       -684.16511230
       1824.00177961     -28846.66227372     -31935.02682943     -21544.48261158
      -1982.40010493      -6398.60362860       2065.12301960
 Traceless Quadrup. (au):
        -12.59990085         11.88838216          0.71151870        110.18917707
        -51.20350289          4.53606734
 Charge=             -0.0000 electrons
 Dipole moment (field-independent basis, Debye):
    X=             37.0993    Y=             -8.8483    Z=            -16.8088  Tot=             41.6796
 Quadrupole moment (field-independent basis, Debye-Ang):
   XX=           -526.7420   YY=           -493.8044   ZZ=           -508.8376
   XY=            148.2082   XZ=            -68.8705   YZ=              6.1012
 Traceless Quadrupole moment (field-independent basis, Debye-Ang):
   XX=            -16.9473   YY=             15.9903   ZZ=              0.9570
   XY=            148.2082   XZ=            -68.8705   YZ=              6.1012
 Octapole moment (field-independent basis, Debye-Ang**2):
  XXX=           1316.2348  YYY=            229.3437  ZZZ=              6.8217  XYY=           1744.4816
  XXY=            598.2003  XXZ=           -943.9065  XZZ=            150.3508  YZZ=           -126.2789
  YYZ=           -467.8637  XYZ=           -372.7906
 Hexadecapole moment (field-independent basis, Debye-Ang**3):
 XXXX=         -71023.6693 YYYY=         -36069.4879 ZZZZ=         -14581.0701 XXXY=           7550.9237
 XXXZ=          -1798.3589 YYYX=           6716.5225 YYYZ=          -1186.4425 ZZZX=           -257.6894
 ZZZY=            687.0065 XXYY=         -10865.0363 XXZZ=         -12028.2624 YYZZ=          -8114.6852
 XXYZ=           -746.6669 YYXZ=          -2410.0209 ZZXY=            777.8244
 N-N= 2.178360167503D+04 E-N=-5.604958768168D+04  KE= 5.290417774220D+03
 Leave Link  601 at Sat Sep 14 23:50:04 2019, MaxMem=  1342177280 cpu:              59.6 elap:               1.5
 FitSet:  NAtFit=   176 NAtPot=   176 NAtFrz=     0 MDM=   180 TotChg=   0.00000
 Merz-Kollman atomic radii used.
 Read replacement radii for each type of atom:
 Rad(20) =   1.700000000000D+00
 Atom Element Radius
    1     6    1.50
    2     6    1.50
    3     8    1.40
    4     1    1.20
    5     1    1.20
    6     1    1.20
    7     7    1.50
    8     6    1.50
    9     6    1.50
   10     8    1.40
   11     6    1.50
   12     6    1.50
   13     8    1.40
   14     8    1.40
   15     1    1.20
   16     1    1.20
   17     1    1.20
   18     1    1.20
   19     7    1.50
   20     6    1.50
   21     6    1.50
   22     8    1.40
   23     6    1.50
   24     6    1.50
   25     6    1.50
   26     6    1.50
   27     7    1.50
   28     1    1.20
   29     1    1.20
   30     1    1.20
   31     1    1.20
   32     1    1.20
   33     1    1.20
   34     1    1.20
   35     1    1.20
   36     1    1.20
   37     1    1.20
   38     1    1.20
   39     1    1.20
   40     1    1.20
   41     7    1.50
   42     6    1.50
   43     6    1.50
   44     8    1.40
   45     6    1.50
   46     6    1.50
   47     8    1.40
   48     8    1.40
   49     1    1.20
   50     1    1.20
   51     1    1.20
   52     1    1.20
   53     7    1.50
   54     6    1.50
   55     6    1.50
   56     8    1.40
   57     1    1.20
   58     1    1.20
   59     1    1.20
   60     7    1.50
   61     6    1.50
   62     6    1.50
   63     8    1.40
   64     6    1.50
   65     6    1.50
   66     7    1.50
   67     8    1.40
   68     1    1.20
   69     1    1.20
   70     1    1.20
   71     1    1.20
   72     1    1.20
   73     1    1.20
   74     7    1.50
   75     6    1.50
   76     6    1.50
   77     8    1.40
   78     1    1.20
   79     1    1.20
   80     1    1.20
   81     7    1.50
   82     6    1.50
   83     6    1.50
   84     8    1.40
   85     6    1.50
   86     6    1.50
   87     6    1.50
   88     6    1.50
   89     6    1.50
   90     6    1.50
   91     6    1.50
   92     8    1.40
   93     1    1.20
   94     1    1.20
   95     1    1.20
   96     1    1.20
   97     1    1.20
   98     1    1.20
   99     1    1.20
  100     1    1.20
  101     1    1.20
  102     7    1.50
  103     6    1.50
  104     6    1.50
  105     8    1.40
  106     6    1.50
  107     6    1.50
  108     6    1.50
  109     6    1.50
  110     1    1.20
  111     1    1.20
  112     1    1.20
  113     1    1.20
  114     1    1.20
  115     1    1.20
  116     1    1.20
  117     1    1.20
  118     1    1.20
  119     1    1.20
  120     1    1.20
  121     7    1.50
  122     6    1.50
  123     6    1.50
  124     8    1.40
  125     6    1.50
  126     8    1.40
  127     1    1.20
  128     1    1.20
  129     1    1.20
  130     1    1.20
  131     1    1.20
  132     7    1.50
  133     6    1.50
  134     6    1.50
  135     8    1.40
  136     6    1.50
  137     1    1.20
  138     1    1.20
  139     1    1.20
  140     1    1.20
  141     1    1.20
  142     7    1.50
  143     6    1.50
  144     6    1.50
  145     8    1.40
  146     6    1.50
  147     1    1.20
  148     1    1.20
  149     1    1.20
  150     1    1.20
  151     1    1.20
  152     7    1.50
  153     6    1.50
  154     6    1.50
  155     8    1.40
  156     6    1.50
  157     6    1.50
  158     6    1.50
  159     8    1.40
  160     8    1.40
  161     1    1.20
  162     1    1.20
  163     1    1.20
  164     1    1.20
  165     1    1.20
  166     1    1.20
  167     7    1.50
  168     6    1.50
  169     1    1.20
  170     1    1.20
  171     1    1.20
  172     1    1.20
  173    20    1.70
  174     8    1.40
[...]
 **** Fit      -0.028262
 **** Fit      -0.028728
 **** Fit      -0.030175
 **** Fit      -0.032824
 **** Fit      -0.036895
 **** Fit      -0.042690
 **** Fit      -0.032005
 **** Fit      -0.031559
 **** Fit      -0.030569
 **** Fit      -0.029215
 **** Fit      -0.027691
 **** Fit      -0.026216
 **** Fit      -0.025032
 **** Fit      -0.024395
 **** Fit      -0.024561
 **** Fit      -0.025762
 **** Fit      -0.028186
 **** Fit      -0.031997
 **** Fit      -0.037411
 **** Fit      -0.044831
 **** Fit      -0.031739
 **** Fit      -0.032816
 **** Fit      -0.031797
 **** Fit      -0.030244
 **** Fit      -0.028299
 **** Fit      -0.026122
 **** Fit      -0.023902
 **** Fit      -0.021856
 **** Fit      -0.020233
 **** Fit      -0.019297
 **** Fit      -0.019312
 **** Fit      -0.020499
 **** Fit      -0.023006
 **** Fit      -0.026919
 **** Fit      -0.032351
 **** Fit      -0.039575
 **** Fit      -0.033169
 **** Fit      -0.033840
 **** Fit      -0.032164
 **** Fit      -0.029908
 **** Fit      -0.027202
 **** Fit      -0.024198
 **** Fit      -0.021084
 **** Fit      -0.018088
 **** Fit      -0.015484
 **** Fit      -0.013580
 **** Fit      -0.012702
 **** Fit      -0.013145
 **** Fit      -0.015088
 **** Fit      -0.018546
 **** Fit      -0.023456
 **** Fit      -0.029845
 **** Fit      -0.037936
 **** Fit      -0.035012
 **** Fit      -0.034829
 **** Fit      -0.035331
 **** Fit      -0.032928
 **** Fit      -0.029896
 **** Fit      -0.026346
 **** Fit      -0.022425
 **** Fit      -0.018317
 **** Fit      -0.014254
 **** Fit      -0.010528
 **** Fit      -0.007483
 **** Fit      -0.005507
 **** Fit      -0.004988
 **** Fit      -0.006194
 **** Fit      -0.009116
 **** Fit      -0.013486
 **** Fit      -0.025647
 **** Fit      -0.037922
 **** Fit      -0.037016
 **** Fit      -0.037647
 **** Fit      -0.034340
 **** Fit      -0.030306
 **** Fit      -0.025670
 **** Fit      -0.020587
 **** Fit      -0.015254
 **** Fit      -0.009931
 **** Fit      -0.004952
 **** Fit      -0.000726
 **** Fit       0.002273
 **** Fit       0.003544
 **** Fit       0.002720
 **** Fit      -0.000131
 **** Fit      -0.041800
 **** Fit      -0.040142
 **** Fit      -0.036828
 **** Fit      -0.031414
 **** Fit      -0.025304
 **** Fit      -0.018694
 **** Fit      -0.011818
 **** Fit      -0.004995
 **** Fit       0.001350
 **** Fit       0.006690
 **** Fit       0.010429
 **** Fit       0.011963
 **** Fit      -0.026000
 **** Fit      -0.017582
 **** Fit      -0.008987
 **** Fit      -0.000597
 **** Fit       0.007056
 **** Fit       0.013324
 **** Fit       0.017541
 **** Fit      -0.015635
 **** Fit      -0.004747
 **** Fit       0.005379
 **** Fit       0.013995
 **** Fit       0.000361
 **** Fit       0.011702
 **** Fit       0.029588
 **** Fit       0.027893
 **** Fit      -0.003691
 **** Fit       0.024643
 **** Fit       0.020671
 **** Fit       0.014687
 **** Fit       0.005675
 **** Fit       0.019464
 **** Fit       0.012311
 **** Fit       0.002365
 **** Fit       0.011727
 **** Fit       0.002772
 **** Fit       0.004546
 **** Fit       0.013186
 **** Fit      -0.005515
 **** Fit      -0.010311
 **** Fit      -0.033200
 **** Fit      -0.042922
 **** Fit      -0.005717
 **** Fit      -0.009538
 **** Fit      -0.014382
 **** Fit      -0.020580
 **** Fit      -0.028273
 **** Fit      -0.037430
 **** Fit      -0.048071
 **** Fit      -0.004185
 **** Fit      -0.008307
 **** Fit      -0.012574
 **** Fit      -0.017552
 **** Fit      -0.023711
 **** Fit      -0.031366
 **** Fit      -0.040730
 **** Fit      -0.052170
 **** Fit       0.024390
 **** Fit       0.018162
 **** Fit       0.011692
 **** Fit      -0.009679
 **** Fit      -0.014697
 **** Fit      -0.020176
 **** Fit      -0.026709
 **** Fit      -0.034805
 **** Fit      -0.044909
 **** Fit       0.014353
 **** Fit       0.011061
 **** Fit       0.006245
 **** Fit       0.000796
 **** Fit      -0.004593
 **** Fit      -0.015684
 **** Fit      -0.021917
 **** Fit      -0.029269
 **** Fit      -0.038440
 **** Fit      -0.050066
 **** Fit      -0.013079
 **** Fit      -0.003689
 **** Fit      -0.000263
 **** Fit      -0.001239
 **** Fit      -0.004945
 **** Fit      -0.010023
 **** Fit      -0.022285
 **** Fit      -0.030224
 **** Fit      -0.040513
 **** Fit      -0.053299
 **** Fit      -0.024862
 **** Fit      -0.015444
 **** Fit      -0.013394
 **** Fit      -0.016396
 **** Fit      -0.029692
 **** Fit      -0.040605
 **** Fit      -0.033156
 **** Fit      -0.025619
 **** Fit      -0.038286
 **** Fit       0.037649
 **** Fit       0.028511
 **** Fit       0.031162
 **** Fit       0.024570
 **** Fit       0.017555
 **** Fit       0.013104
 **** Fit       0.023270
 **** Fit       0.036238
 **** Fit       0.027767
 **** Fit       0.022844
 **** Fit       0.028909
 **** Fit       0.033241
 **** Fit       0.036788
 **** Fit       0.043905
 **** Fit       0.037254
 **** Fit       0.042312
 **** Fit       0.045917
 **** Fit       0.032269
 **** Fit       0.035536
 **** Fit       0.038392
 **** Fit       0.039223
 **** Fit       0.036801
 **** Fit       0.020826
 **** Fit       0.007810
 **** Fit       0.030184
 **** Fit       0.031978
 **** Fit       0.032408
 **** Fit       0.029823
 **** Fit       0.023314
 **** Fit       0.013006
 **** Fit      -0.000149
 **** Fit       0.026376
 **** Fit       0.026413
 **** Fit       0.023109
 **** Fit       0.015098
 **** Fit       0.003590
 **** Fit       0.017551
 **** Fit      -0.004408
 **** Fit      -0.004483
 **** Fit      -0.005618
 **** Fit      -0.005705
 **** Fit      -0.004398
 **** Fit      -0.003140
 **** Fit      -0.003312
 **** Fit      -0.004657
 **** Fit      -0.005854
 **** Fit      -0.006178
 **** Fit      -0.004439
 **** Fit      -0.001733
 **** Fit      -0.002393
 **** Fit      -0.003438
 **** Fit      -0.004959
 **** Fit      -0.006132
 **** Fit      -0.008245
 **** Fit      -0.006604
 **** Fit      -0.000801
 **** Fit      -0.001638
 **** Fit      -0.002648
 **** Fit      -0.003773
 **** Fit      -0.005406
 **** Fit      -0.006632
 **** Fit      -0.008449
 **** Fit      -0.000868
 **** Fit      -0.001900
 **** Fit      -0.003007
 **** Fit      -0.004183
 **** Fit      -0.006006
 **** Fit      -0.007252
 **** Fit      -0.008489
 **** Fit      -0.000392
 **** Fit      -0.001422
 **** Fit      -0.002489
 **** Fit      -0.003606
 **** Fit      -0.004781
 **** Fit      -0.006756
 **** Fit      -0.008129
 **** Fit      -0.009531
 **** Fit       0.000353
 **** Fit      -0.000746
 **** Fit      -0.001853
 **** Fit      -0.002986
 **** Fit      -0.004172
 **** Fit      -0.005431
 **** Fit      -0.007663
 **** Fit      -0.009170
 **** Fit      -0.010747
 **** Fit       0.001073
 **** Fit      -0.000116
 **** Fit      -0.001291
 **** Fit      -0.012234
 **** Fit      -0.014194
 **** Fit       0.002066
 **** Fit       0.000716
 **** Fit      -0.013947
 **** Fit      -0.016170
 **** Fit       0.003212
 **** Fit       0.001646
 **** Fit      -0.018568
 **** Fit      -0.021598
 **** Fit       0.004984
 **** Fit       0.003160
 **** Fit      -0.021723
 **** Fit      -0.025365
 **** Fit      -0.030235
 **** Fit       0.007961
 **** Fit       0.006243
 **** Fit       0.003732
 **** Fit      -0.025410
 **** Fit      -0.029587
 **** Fit      -0.034274
 **** Fit      -0.035325
 **** Fit      -0.006227
 **** Fit      -0.007652
 **** Fit      -0.001504
 **** Fit      -0.002545
 **** Fit      -0.003682
 **** Fit      -0.004906
 **** Fit      -0.007031
 **** Fit      -0.008520
 **** Fit      -0.010182
 **** Fit      -0.000896
 **** Fit      -0.002018
 **** Fit      -0.003200
 **** Fit      -0.004416
 **** Fit      -0.005680
 **** Fit      -0.008125
 **** Fit      -0.009605
 **** Fit      -0.011313
 **** Fit       0.000770
 **** Fit      -0.000415
 **** Fit      -0.001702
 **** Fit      -0.003011
 **** Fit      -0.004291
 **** Fit      -0.005539
 **** Fit      -0.006795
 **** Fit      -0.009662
 **** Fit      -0.011161
 **** Fit      -0.012951
 **** Fit      -0.015158
 **** Fit       0.000522
 **** Fit      -0.001119
 **** Fit      -0.002778
 **** Fit      -0.004340
 **** Fit      -0.005761
 **** Fit      -0.007068
 **** Fit      -0.008335
 **** Fit      -0.011837
 **** Fit      -0.013266
 **** Fit      -0.015033
 **** Fit      -0.017306
 **** Fit      -0.020291
 **** Fit       0.001613
 **** Fit      -0.000568
 **** Fit      -0.002806
 **** Fit      -0.004872
 **** Fit      -0.006650
 **** Fit      -0.008138
 **** Fit      -0.009414
 **** Fit      -0.010601
 **** Fit      -0.014909
 **** Fit      -0.016193
 **** Fit      -0.017887
 **** Fit      -0.020189
 **** Fit      -0.023358
 **** Fit       0.000654
 **** Fit      -0.002618
 **** Fit      -0.005691
 **** Fit      -0.008264
 **** Fit      -0.010250
 **** Fit      -0.011727
 **** Fit      -0.012864
 **** Fit      -0.013860
 **** Fit      -0.019235
 **** Fit      -0.020267
 **** Fit      -0.021869
 **** Fit      -0.024281
 **** Fit      -0.027829
 **** Fit      -0.017962
 **** Fit      -0.018550
 **** Fit      -0.025799
 **** Fit      -0.027148
 **** Fit      -0.029629
 **** Fit      -0.033597
 **** Fit      -0.036108
 **** Fit      -0.007679
 **** Fit      -0.007546
 **** Fit      -0.008996
 **** Fit      -0.009339
 **** Fit      -0.008032
 **** Fit      -0.007652
 **** Fit      -0.009147
 **** Fit      -0.010588
 **** Fit      -0.011565
 **** Fit      -0.011548
 **** Fit      -0.010382
 **** Fit      -0.008625
 **** Fit      -0.008028
 **** Fit      -0.009472
 **** Fit      -0.011007
 **** Fit      -0.012549
 **** Fit      -0.013892
 **** Fit      -0.014705
 **** Fit      -0.014605
 **** Fit      -0.013415
 **** Fit      -0.011549
 **** Fit      -0.009584
 **** Fit      -0.008713
 **** Fit      -0.010188
 **** Fit      -0.011786
 **** Fit      -0.013514
 **** Fit      -0.015302
 **** Fit      -0.016992
 **** Fit      -0.018343
 **** Fit      -0.019039
 **** Fit      -0.018700
 **** Fit      -0.011319
 **** Fit      -0.013038
 **** Fit      -0.014952
 **** Fit      -0.017048
 **** Fit      -0.019237
 **** Fit      -0.021357
 **** Fit      -0.023204
 **** Fit      -0.024547
 **** Fit      -0.025077
 **** Fit      -0.012864
 **** Fit      -0.014714
 **** Fit      -0.016811
 **** Fit      -0.019181
 **** Fit      -0.021777
 **** Fit      -0.024476
 **** Fit      -0.027097
 **** Fit      -0.029456
 **** Fit      -0.031427
 **** Fit      -0.032916
 **** Fit      -0.015016
 **** Fit      -0.017181
 **** Fit      -0.019691
 **** Fit      -0.022609
 **** Fit      -0.025908
 **** Fit      -0.029451
 **** Fit      -0.020308
 **** Fit      -0.023331
 **** Fit      -0.026944
 **** Fit      -0.028224
 **** Fit      -0.001601
 **** Fit      -0.002926
 **** Fit      -0.001231
 **** Fit      -0.000076
 **** Fit      -0.000525
 **** Fit      -0.002915
 **** Fit      -0.000799
 **** Fit       0.000801
 **** Fit       0.001417
 **** Fit       0.001195
 **** Fit       0.000358
 **** Fit      -0.000865
 **** Fit      -0.005104
 **** Fit      -0.002782
 **** Fit      -0.000275
 **** Fit       0.001653
 **** Fit       0.002617
 **** Fit       0.002846
 **** Fit       0.002615
 **** Fit       0.002015
 **** Fit       0.001092
 **** Fit      -0.000057
 **** Fit      -0.007267
 **** Fit      -0.004495
 **** Fit       0.004213
 **** Fit       0.004211
 **** Fit       0.003983
 **** Fit       0.003549
 **** Fit       0.002855
 **** Fit       0.001896
 **** Fit       0.000736
 **** Fit      -0.009485
 **** Fit       0.005258
 **** Fit       0.004946
 **** Fit       0.004506
 **** Fit       0.003816
 **** Fit       0.002841
 **** Fit       0.001630
 **** Fit       0.005988
 **** Fit       0.005780
 **** Fit       0.005418
 **** Fit       0.004772
 **** Fit       0.003796
 **** Fit       0.002532
 **** Fit       0.006534
 **** Fit       0.006601
 **** Fit       0.006518
 **** Fit       0.006106
 **** Fit       0.005272
 **** Fit       0.004008
 **** Fit       0.007116
 **** Fit       0.007442
 **** Fit       0.007392
 **** Fit       0.006839
 **** Fit       0.005712
 **** Fit       0.007903
 **** Fit       0.008469
 **** Fit       0.008505
 **** Fit       0.007852
 **** Fit       0.006403
 **** Fit       0.009248
 **** Fit       0.009800
 **** Fit       0.009471
 **** Fit       0.008771
 **** Fit       0.010363
 **** Fit       0.029179
 **** Fit       0.005083
 **** Fit       0.013856
 **** Fit      -0.000236
 **** Fit       0.027682
 **** Fit       0.031083
 **** Fit       0.032567
 **** Fit       0.036482
 **** Fit       0.036218
 **** Fit       0.037439
 **** Fit       0.045248
 **** Fit       0.050920
 **** Fit       0.047082
 **** Fit       0.045066
 **** Fit       0.044822
 **** Fit       0.046245
 **** Fit       0.049380
 **** Fit       0.051063
 **** Fit       0.048530
 **** Fit       0.047486
 **** Fit       0.048015
 **** Fit       0.050090
 **** Fit       0.053744
 **** Fit       0.038780
 **** Fit       0.051380
 **** Fit       0.050164
 **** Fit       0.049227
 **** Fit       0.049299
 **** Fit       0.050615
 **** Fit       0.053233
 **** Fit       0.057165
 **** Fit       0.035927
 **** Fit       0.022248
 **** Fit       0.010779
 **** Fit       0.003098
 **** Fit       0.000202
 **** Fit       0.002148
 **** Fit       0.008319
 **** Fit       0.017242
 **** Fit       0.026895
 **** Fit       0.035721
 **** Fit       0.042644
 **** Fit       0.046852
 **** Fit       0.048578
 **** Fit       0.049123
 **** Fit       0.049754
 **** Fit       0.051181
 **** Fit       0.053690
 **** Fit       0.057355
 **** Fit       0.062138
 **** Fit       0.058365
 **** Fit       0.045963
 **** Fit       0.033756
 **** Fit       0.023108
 **** Fit       0.015402
 **** Fit       0.011758
 **** Fit       0.012604
 **** Fit       0.017443
 **** Fit       0.024753
 **** Fit       0.032582
 **** Fit       0.039334
 **** Fit       0.044086
 **** Fit       0.046930
 **** Fit       0.048810
 **** Fit       0.050731
 **** Fit       0.053303
 **** Fit       0.056760
 **** Fit       0.061077
 **** Fit       0.066029
 **** Fit       0.071085
 **** Fit       0.060348
 **** Fit       0.051636
 **** Fit       0.041244
 **** Fit       0.031588
 **** Fit       0.024654
 **** Fit       0.021860
 **** Fit       0.023542
 **** Fit       0.028608
 **** Fit       0.034975
 **** Fit       0.040721
 **** Fit       0.044985
 **** Fit       0.048128
 **** Fit       0.051033
 **** Fit       0.054330
 **** Fit       0.058140
 **** Fit       0.062052
 **** Fit       0.064973
 **** Fit       0.064976
 **** Fit       0.053834
 **** Fit       0.045845
 **** Fit       0.037143
 **** Fit       0.031622
 **** Fit       0.031372
 **** Fit       0.035475
 **** Fit       0.040992
 **** Fit       0.045801
 **** Fit       0.049821
 **** Fit       0.053613
 **** Fit       0.056806
 **** Fit       0.057609
 **** Fit       0.048881
 **** Fit       0.041616
 **** Fit       0.038584
 **** Fit       0.042522
 **** Fit       0.047871
 **** Fit       0.051194
 **** Fit       0.045157
 -----------------------------------------------------------------
 Leave Link  602 at Sat Sep 14 23:50:07 2019, MaxMem=  1342177280 cpu:             111.4 elap:               2.4

 Test job not archived.
 1\1\GINC-C506-134\SP\RB3LYP\SVP\C54H83Ca1N15O23\PENGZHI\14-Sep-2019\0\
 \#b3lyp/svp scf=(tight,noincore) Test #IOP(5/87=12) Density=Current Po
 p=(MK,readradii) iop(6/33=2) iop(6/42=6)\\CaMKII_loop3_65.0\\0,1\C,0,8
 5.47,65.83,29.76\C,0,84.91,65.44,31.13\O,0,85.49,64.54,31.73\H,0,86.49
 1,65.46,29.667\H,0,84.852,65.392,28.976\H,0,85.467,66.916,29.661\N,0,8
 3.8,65.99,31.64\C,0,83.26,65.68,32.95\C,0,82.51,64.35,32.98\O,0,81.49,
 64.2,32.3\C,0,82.46,66.92,33.33\C,0,81.92,66.91,34.75\O,0,82.13,65.9,3
 5.45\O,0,81.41,67.99,35.14\H,0,83.5,66.83,31.17\H,0,84.06,65.62,33.69\
 H,0,81.61,67.08,32.67\H,0,83.12,67.78,33.27\N,0,82.98,63.45,33.84\C,0,
 82.49,62.09,33.82\C,0,81.14,61.97,34.52\O,0,80.3,61.18,34.1\C,0,83.58,
 61.12,34.28\C,0,83.51,59.8,33.52\C,0,84.46,58.77,34.13\C,0,84.44,57.53
 ,33.23\N,0,85.16,56.39,33.83\H,0,83.72,63.72,34.46\H,0,82.3,61.85,32.7
 7\H,0,83.42,60.89,35.33\H,0,84.59,61.5,34.11\H,0,83.75,60.01,32.47\H,0
 ,82.47,59.48,33.44\H,0,84.07,58.62,35.14\H,0,85.48,59.13,34.23\H,0,84.
 85,57.86,32.28\H,0,83.39,57.3,33.08\H,0,84.72,56.16,34.71\H,0,85.08,55
 .67,33.12\H,0,86.15,56.52,33.97\N,0,80.84,62.81,35.5\C,0,79.65,62.77,3
 6.32\C,0,78.73,63.96,36.06\O,0,77.52,63.79,36.18\C,0,79.84,62.43,37.79
 \C,0,80.78,63.42,38.46\O,0,81.09,64.53,37.97\O,0,81.33,63.05,39.52\H,0
 ,81.57,63.49,35.69\H,0,79.17,61.86,35.96\H,0,80.25,61.43,37.93\H,0,78.
 86,62.6,38.24\N,0,79.27,65.12,35.69\C,0,78.46,66.27,35.37\C,0,78.23,67
 .32,36.45\O,0,77.22,68.02,36.5\H,0,80.27,65.19,35.81\H,0,77.49,65.88,3
 5.07\H,0,78.82,66.74,34.45\N,0,79.18,67.43,37.39\C,0,79.16,68.29,38.55
 \C,0,79.81,69.65,38.34\O,0,79.87,70.47,39.26\C,0,79.66,67.56,39.8\C,0,
 81.17,67.36,39.88\N,0,81.71,67.3,41.1\O,0,81.86,67.26,38.86\H,0,80.02,
 66.88,37.28\H,0,78.11,68.55,38.69\H,0,79.17,66.61,40.\H,0,79.42,68.18,
 40.66\H,0,81.16,67.74,41.82\H,0,82.72,67.34,41.2\N,0,80.16,69.91,37.08
 \C,0,80.79,71.12,36.61\C,0,82.26,71.2,37.01\O,0,82.82,72.29,36.99\H,0,
 80.26,69.11,36.46\H,0,80.28,72.02,36.96\H,0,80.81,71.09,35.52\N,0,82.8
 9,70.05,37.29\C,0,84.29,69.9,37.63\C,0,84.98,68.7,36.99\O,0,84.38,67.6
 4,36.89\C,0,84.59,69.9,39.13\C,0,83.97,70.99,39.97\C,0,84.26,72.3,39.5
 7\C,0,83.3,70.86,41.19\C,0,83.83,73.42,40.3\C,0,82.87,71.92,42.\C,0,83
 .1,73.21,41.49\O,0,82.7,74.31,42.18\H,0,82.39,69.26,36.91\H,0,84.82,70
 .73,37.15\H,0,85.66,69.97,39.26\H,0,84.31,68.92,39.52\H,0,84.9,72.47,3
 8.71\H,0,83.11,69.86,41.56\H,0,84.04,74.4,39.91\H,0,82.36,71.65,42.91\
 H,0,82.18,74.17,42.98\N,0,86.21,68.82,36.47\C,0,86.98,67.73,35.89\C,0,
 88.26,67.45,36.68\O,0,89.03,68.36,36.96\C,0,87.26,67.97,34.41\C,0,86.0
 9,68.23,33.46\C,0,88.21,67.02,33.68\C,0,86.41,69.31,32.43\H,0,86.58,69
 .75,36.44\H,0,86.36,66.84,35.9\H,0,87.77,68.93,34.47\H,0,85.22,68.54,3
 4.05\H,0,85.88,67.26,33.02\H,0,87.71,66.05,33.66\H,0,88.56,67.37,32.71
 \H,0,89.09,66.94,34.31\H,0,87.33,69.12,31.88\H,0,85.58,69.34,31.72\H,0
 ,86.49,70.3,32.88\N,0,88.53,66.19,37.02\C,0,89.71,65.67,37.68\C,0,90.6
 4,64.91,36.75\O,0,90.16,64.44,35.72\C,0,89.33,64.84,38.91\O,0,88.89,63
 .54,38.6\H,0,87.94,65.5,36.6\H,0,90.34,66.47,38.09\H,0,88.51,65.4,39.3
 6\H,0,90.22,64.72,39.53\H,0,88.71,63.12,39.45\N,0,91.89,64.59,37.1\C,0
 ,92.82,63.86,36.26\C,0,92.43,62.43,35.91\O,0,92.48,62.11,34.72\C,0,94.
 21,63.97,36.87\H,0,92.26,64.93,37.97\H,0,92.84,64.32,35.27\H,0,94.34,6
 4.87,37.47\H,0,94.42,63.23,37.64\H,0,94.93,63.85,36.05\N,0,91.72,61.85
 ,36.88\C,0,91.07,60.57,36.68\C,0,89.94,60.62,35.66\O,0,89.9,59.75,34.7
 9\C,0,90.45,60.17,38.02\H,0,91.54,62.32,37.76\H,0,91.75,59.79,36.35\H,
 0,91.24,60.,38.76\H,0,89.64,60.85,38.28\H,0,90.02,59.18,37.94\N,0,89.1
 1,61.66,35.71\C,0,88.12,61.88,34.67\C,0,88.8,62.15,33.33\O,0,88.45,61.
 54,32.32\C,0,87.13,62.99,35.02\C,0,86.35,62.48,36.23\C,0,85.12,63.31,3
 6.56\O,0,84.26,63.05,37.44\O,0,84.89,64.31,35.85\H,0,89.32,62.47,36.27
 \H,0,87.55,60.96,34.59\H,0,86.42,63.17,34.22\H,0,87.69,63.91,35.24\H,0
 ,87.07,62.36,37.03\H,0,86.08,61.44,36.03\N,0,89.67,63.15,33.31\C,0,90.
 33,63.54,32.08\H,0,91.337,63.122,32.06\H,0,89.764,63.163,31.228\H,0,90
 .387,64.627,32.027\H,0,89.85,63.58,34.21\Ca,0,83.4,65.47,37.67\O,0,85.
 91,65.3,38.66\H,0,86.57,64.74,38.25\H,0,85.93,65.06,39.59\\Version=ES6
 4L-G16RevA.03\State=1-A\HF=-5333.5706694\RMSD=2.109e-09\Dipole=12.5730
 005,-10.1407793,2.8246789\Quadrupole=-113.9238963,113.9968378,-0.07294
 15,-5.8939508,36.2331503,24.4903852\PG=C01 [X(C54H83Ca1N15O23)]\\@


 IT CANNOT BE MY BEAUTY, FOR I HAVE NONE; AND IT CANNOT BE MY WIT,
 FOR HE HAS NOT ENOUGH TO KNOW THAT I HAVE ANY.
 -- CATHARINE SEDLEY, PUZZLED ABOUT WHY SHE WAS MISTRESS TO JAMES II
 Job cpu time:       0 days  9 hours 30 minutes  4.2 seconds.
 Elapsed time:       0 days  0 hours 12 minutes  0.5 seconds.
 File lengths (MBytes):  RWF=   1517 Int=      0 D2E=      0 Chk=    171 Scr=      1
 Normal termination of Gaussian 16 at Sat Sep 14 23:50:08 2019.
