 Entering Gaussian System, Link 0=g16
 Initial command:
 /home1/apps/gaussian/16rA.03/g16/l1.exe "/scratch/01990/pengzhi/4329073/Gau-422907.inp" -scrdir="/scratch/01990/pengzhi/4329073/"
 Entering Link 1 = /home1/apps/gaussian/16rA.03/g16/l1.exe PID=    422908.
  
 Copyright (c) 1988,1990,1992,1993,1995,1998,2003,2009,2016,
            Gaussian, Inc.  All Rights Reserved.
  
 This is part of the Gaussian(R) 16 program.  It is based on
 the Gaussian(R) 09 system (copyright 2009, Gaussian, Inc.),
 the Gaussian(R) 03 system (copyright 2003, Gaussian, Inc.),
 the Gaussian(R) 98 system (copyright 1998, Gaussian, Inc.),
 the Gaussian(R) 94 system (copyright 1995, Gaussian, Inc.),
 the Gaussian 92(TM) system (copyright 1992, Gaussian, Inc.),
 the Gaussian 90(TM) system (copyright 1990, Gaussian, Inc.),
 the Gaussian 88(TM) system (copyright 1988, Gaussian, Inc.),
 the Gaussian 86(TM) system (copyright 1986, Carnegie Mellon
 University), and the Gaussian 82(TM) system (copyright 1983,
 Carnegie Mellon University). Gaussian is a federally registered
 trademark of Gaussian, Inc.
  
 This software contains proprietary and confidential information,
 including trade secrets, belonging to Gaussian, Inc.
  
 This software is provided under written license and may be
 used, copied, transmitted, or stored only in accord with that
 written license.
  
 The following legend is applicable only to US Government
 contracts under FAR:
  
                    RESTRICTED RIGHTS LEGEND
  
 Use, reproduction and disclosure by the US Government is
 subject to restrictions as set forth in subparagraphs (a)
 and (c) of the Commercial Computer Software - Restricted
 Rights clause in FAR 52.227-19.
  
 Gaussian, Inc.
 340 Quinnipiac St., Bldg. 40, Wallingford CT 06492
  
  
 ---------------------------------------------------------------
 Warning -- This program may not be used in any manner that
 competes with the business of Gaussian, Inc. or will provide
 assistance to any competitor of Gaussian, Inc.  The licensee
 of this program is prohibited from giving any competitor of
 Gaussian, Inc. access to this program.  By using this program,
 the user acknowledges that Gaussian, Inc. is engaged in the
 business of creating and licensing software in the field of
 computational chemistry and represents and warrants to the
 licensee that it is not a competitor of Gaussian, Inc. and that
 it will not use this program in any manner prohibited above.
 ---------------------------------------------------------------
  

 Cite this work as:
 Gaussian 16, Revision A.03,
 M. J. Frisch, G. W. Trucks, H. B. Schlegel, G. E. Scuseria, 
 M. A. Robb, J. R. Cheeseman, G. Scalmani, V. Barone, 
 G. A. Petersson, H. Nakatsuji, X. Li, M. Caricato, A. V. Marenich, 
 J. Bloino, B. G. Janesko, R. Gomperts, B. Mennucci, H. P. Hratchian, 
 J. V. Ortiz, A. F. Izmaylov, J. L. Sonnenberg, D. Williams-Young, 
 F. Ding, F. Lipparini, F. Egidi, J. Goings, B. Peng, A. Petrone, 
 T. Henderson, D. Ranasinghe, V. G. Zakrzewski, J. Gao, N. Rega, 
 G. Zheng, W. Liang, M. Hada, M. Ehara, K. Toyota, R. Fukuda, 
 J. Hasegawa, M. Ishida, T. Nakajima, Y. Honda, O. Kitao, H. Nakai, 
 T. Vreven, K. Throssell, J. A. Montgomery, Jr., J. E. Peralta, 
 F. Ogliaro, M. J. Bearpark, J. J. Heyd, E. N. Brothers, K. N. Kudin, 
 V. N. Staroverov, T. A. Keith, R. Kobayashi, J. Normand, 
 K. Raghavachari, A. P. Rendell, J. C. Burant, S. S. Iyengar, 
 J. Tomasi, M. Cossi, J. M. Millam, M. Klene, C. Adamo, R. Cammi, 
 J. W. Ochterski, R. L. Martin, K. Morokuma, O. Farkas, 
 J. B. Foresman, and D. J. Fox, Gaussian, Inc., Wallingford CT, 2016.
 
 ******************************************
 Gaussian 16:  ES64L-G16RevA.03 25-Dec-2016
                15-Sep-2019 
 ******************************************
 %chk=CaMKII_loop3_87.0.chk
 %nprocshared=48
 Will use up to   48 processors via shared memory.
 %mem=10GB
 %nosave
 ----------------------------------------------------------------------
 #b3lyp/svp scf=(tight,noincore) Test #IOP(5/87=12) Density=Current Pop
 =(MK,readradii) iop(6/33=2) iop(6/42=6)
 ----------------------------------------------------------------------
 1/30=1,38=1,172=1/1;
 2/12=2,17=6,18=5,40=1/2;
 3/5=18,7=101,11=2,25=1,30=1,74=-5/1,2,3;
 4//1;
 5/5=4,32=2,38=5,87=12/2;
 6/7=2,8=2,9=2,10=2,15=8,20=101,22=-1,28=1,33=2,42=6/1,2;
 99/5=1,9=1/99;
 -----------------
 CaMKII_loop3_87.0
 -----------------
 Symbolic Z-matrix:
 Charge =  0 Multiplicity = 1
 C                     77.33     53.45     31.15 
 C                     76.55     52.93     32.35 
 O                     77.09     51.96     32.88 
 H                     78.323    53.001    31.141 
 H                     76.804    53.187    30.232 
 H                     77.423    54.534    31.218 
 N                     75.31     53.32     32.64 
 C                     74.37     52.69     33.56 
 C                     73.71     51.5      32.9 
 O                     73.01     51.5      31.89 
 C                     73.32     53.67     34.08 
 C                     72.27     53.12     35.03 
 O                     72.33     51.96     35.48 
 O                     71.34     53.92     35.26 
 H                     74.88     54.02     32.06 
 H                     75.       52.38     34.39 
 H                     72.74     54.06     33.25 
 H                     73.82     54.48     34.62 
 N                     74.04     50.31     33.4 
 C                     73.69     49.07     32.73 
 C                     72.21     48.73     32.84 
 O                     71.72     48.28     31.81 
 C                     74.6      47.98     33.29 
 C                     74.38     46.61     32.64 
 C                     75.38     45.62     33.23 
 C                     75.35     44.3      32.47 
 N                     76.19     43.29     33.12 
 H                     74.65     50.34     34.21 
 H                     73.94     49.18     31.68 
 H                     74.42     47.84     34.35 
 H                     75.66     48.22     33.28 
 H                     74.56     46.65     31.57 
 H                     73.36     46.31     32.88 
 H                     75.13     45.47     34.28 
 H                     76.4      46.01     33.22 
 H                     75.73     44.44     31.45 
 H                     74.41     43.75     32.44 
 H                     76.1      42.38     32.69 
 H                     77.18     43.5      33.13 
 H                     75.85     43.19     34.07 
 N                     71.57     48.94     34. 
 C                     70.19     48.58     34.24 
 C                     69.21     49.73     34.11 
 O                     68.       49.53     33.98 
 C                     70.01     47.86     35.58 
 C                     70.51     48.56     36.83 
 O                     71.68     49.       36.97 
 O                     69.62     48.74     37.68 
 H                     72.16     49.29     34.74 
 H                     69.76     47.88     33.52 
 H                     70.53     46.91     35.51 
 H                     69.01     47.43     35.7 
 N                     69.68     50.98     34.01 
 C                     68.8      52.12     33.9 
 C                     68.25     52.71     35.2 
 O                     67.09     53.1      35.19 
 H                     70.67     51.13     33.91 
 H                     67.9      51.84     33.36 
 H                     69.19     52.87     33.22 
 N                     69.04     52.81     36.27 
 C                     68.64     53.21     37.61 
 C                     68.87     54.68     37.93 
 O                     68.26     55.2      38.87 
 C                     69.25     52.24     38.61 
 C                     70.55     52.77     39.2 
 N                     70.6      52.93     40.52 
 O                     71.56     52.77     38.5 
 H                     70.02     52.63     36.11 
 H                     67.57     53.06     37.74 
 H                     69.44     51.21     38.3 
 H                     68.58     52.05     39.45 
 H                     69.79     52.73     41.09 
 H                     71.52     52.88     40.94 
 N                     69.79     55.28     37.18 
 C                     70.24     56.66     37.23 
 C                     71.7      56.75     37.64 
 O                     72.23     57.84     37.87 
 H                     70.2      54.78     36.4 
 H                     69.76     57.19     38.06 
 H                     69.97     57.08     36.27 
 N                     72.43     55.65     37.81 
 C                     73.74     55.49     38.41 
 C                     74.65     54.48     37.72 
 O                     74.31     53.34     37.4 
 C                     73.76     55.2      39.91 
 C                     73.04     56.25     40.73 
 C                     73.89     57.12     41.43 
 C                     71.66     56.37     40.89 
 C                     73.4      58.09     42.31 
 C                     71.14     57.39     41.7 
 C                     72.       58.22     42.45 
 O                     71.38     59.09     43.28 
 H                     71.93     54.79     37.68 
 H                     74.26     56.44     38.33 
 H                     74.8      55.06     40.2 
 H                     73.22     54.25     40. 
 H                     74.96     57.       41.35 
 H                     71.04     55.66     40.35 
 H                     74.13     58.63     42.9 
 H                     70.07     57.53     41.76 
 H                     70.43     58.96     43.28 
 N                     75.93     54.85     37.66 
 C                     76.97     53.96     37.17 
 C                     77.84     53.51     38.33 
 O                     78.41     54.34     39.04 
 C                     77.79     54.68     36.11 
 C                     77.1      55.64     35.15 
 C                     78.75     53.73     35.4 
 C                     78.11     56.67     34.64 
 H                     76.21     55.81     37.83 
 H                     76.6      53.05     36.69 
 H                     78.47     55.28     36.72 
 H                     76.23     56.18     35.56 
 H                     76.63     55.11     34.33 
 H                     79.34     54.21     34.62 
 H                     79.49     53.34     36.1 
 H                     78.16     52.95     34.93 
 H                     78.08     57.55     35.29 
 H                     79.1      56.22     34.6 
 H                     77.83     56.97     33.64 
 N                     77.97     52.19     38.49 
 C                     78.96     51.51     39.29 
 C                     80.1      50.89     38.49 
 O                     80.05     50.69     37.28 
 C                     78.29     50.49     40.22 
 O                     78.04     49.37     39.41 
 H                     77.32     51.57     38.03 
 H                     79.4      52.25     39.96 
 H                     77.33     50.78     40.65 
 H                     79.04     50.25     40.97 
 H                     77.28     49.47     38.82 
 N                     81.23     50.58     39.13 
 C                     82.45     50.24     38.43 
 C                     82.33     49.09     37.43 
 O                     82.79     49.22     36.3 
 C                     83.56     50.09     39.46 
 H                     81.3      50.71     40.13 
 H                     82.65     51.16     37.9 
 H                     83.63     50.97     40.11 
 H                     83.39     49.26     40.16 
 H                     84.44     50.1      38.83 
 N                     81.75     47.96     37.84 
 C                     81.51     46.83     36.97 
 C                     80.65     47.21     35.77 
 O                     80.76     46.57     34.72 
 C                     80.72     45.77     37.74 
 H                     81.4      47.95     38.79 
 H                     82.37     46.31     36.54 
 H                     81.36     45.49     38.58 
 H                     79.76     46.08     38.14 
 H                     80.43     44.97     37.06 
 N                     79.84     48.26     35.85 
 C                     79.07     48.75     34.73 
 C                     79.91     49.52     33.71 
 O                     79.58     49.39     32.53 
 C                     77.83     49.52     35.16 
 C                     76.9      48.81     36.14 
 C                     75.87     49.76     36.73 
 O                     75.98     50.19     37.9 
 O                     74.86     50.08     36.06 
 H                     79.66     48.66     36.76 
 H                     78.78     47.85     34.18 
 H                     77.2      49.67     34.28 
 H                     78.12     50.48     35.6 
 H                     77.51     48.42     36.96 
 H                     76.4      48.07     35.53 
 N                     81.       50.15     34.14 
 C                     81.91     50.82     33.23 
 H                     82.863    50.291    33.215 
 H                     81.483    50.827    32.227 
 H                     82.07     51.845    33.564 
 H                     81.22     50.17     35.13 
 Ca                    73.24     50.87     37.79 
 O                     73.93     48.84     39.25 
 H                     74.67     48.41     39.68 
 H                     73.16     48.37     39.58 
 
 Stoichiometry    C54H83CaN15O23
 Framework group  C1[X(C54H83CaN15O23)]
 Deg. of freedom   522
 Full point group                 C1      NOp   1
 Largest Abelian subgroup         C1      NOp   1
 Largest concise Abelian subgroup C1      NOp   1
                         Standard orientation:                         
 ---------------------------------------------------------------------
 Center     Atomic      Atomic             Coordinates (Angstroms)
 Number     Number       Type             X           Y           Z
 ---------------------------------------------------------------------
      1          6           0        2.212759    0.682436    5.690447
      2          6           0        1.579932    0.700230    4.305523
      3          8           0        2.416736    0.695196    3.403783
      4          1           0        3.271554    0.439824    5.602001
      5          1           0        2.102181    1.662977    6.153999
      6          1           0        1.719032   -0.068957    6.306866
      7          7           0        0.287161    0.942505    4.096133
      8          6           0       -0.363730    1.277341    2.834735
      9          6           0       -0.163528    2.742010    2.515417
     10          8           0       -0.534759    3.707830    3.178348
     11          6           0       -1.849612    0.923142    2.835170
     12          6           0       -2.639403    1.249202    1.579218
     13          8           0       -2.087654    1.660028    0.540712
     14          8           0       -3.872316    1.113468    1.718146
     15          1           0       -0.308950    1.084224    4.893546
     16          1           0        0.146156    0.644237    2.112865
     17          1           0       -2.358993    1.481075    3.614041
     18          1           0       -1.962631   -0.154217    2.990811
     19          7           0        0.617836    2.999576    1.467500
     20          6           0        1.103758    4.337673    1.180484
     21          6           0        0.023959    5.258661    0.629200
     22          8           0        0.062827    6.400789    1.073648
     23          6           0        2.303802    4.193606    0.248315
     24          6           0        2.960497    5.530917   -0.109667
     25          6           0        4.177780    5.260672   -0.989092
     26          6           0        4.989885    6.532605   -1.197832
     27          7           0        6.071764    6.323221   -2.164216
     28          1           0        0.940594    2.181113    0.962481
     29          1           0        1.474850    4.760334    2.108250
     30          1           0        2.004277    3.746540   -0.692969
     31          1           0        3.064592    3.495422    0.587488
     32          1           0        3.313487    6.044993    0.779166
     33          1           0        2.215715    6.108615   -0.656991
     34          1           0        3.827238    4.862448   -1.940952
     35          1           0        4.828227    4.491887   -0.566614
     36          1           0        5.447460    6.850816   -0.252440
     37          1           0        4.496567    7.380734   -1.671449
     38          1           0        6.554302    7.180950   -2.393470
     39          1           0        6.785539    5.668344   -1.871021
     40          1           0        5.641562    6.000959   -3.023968
     41          7           0       -0.859039    4.780521   -0.260180
     42          6           0       -1.872542    5.584208   -0.907094
     43          6           0       -3.251580    5.473978   -0.285883
     44          8           0       -4.128452    6.309460   -0.518405
     45          6           0       -1.932657    5.325786   -2.415738
     46          6           0       -2.137646    3.895482   -2.879105
     47          8           0       -1.419445    2.928498   -2.516849
     48          8           0       -3.148420    3.750595   -3.589276
     49          1           0       -0.702679    3.818503   -0.521470
     50          1           0       -1.720146    6.664066   -0.844004
     51          1           0       -0.997293    5.674107   -2.841844
     52          1           0       -2.568917    6.043397   -2.944423
     53          7           0       -3.481763    4.522314    0.627764
     54          6           0       -4.776639    4.353767    1.245006
     55          6           0       -5.809248    3.513296    0.491396
     56          8           0       -6.972716    3.891025    0.529661
     57          1           0       -2.714161    3.969187    0.970454
     58          1           0       -5.268728    5.317706    1.338122
     59          1           0       -4.695226    4.092857    2.294910
     60          7           0       -5.427053    2.403545   -0.142148
     61          6           0       -6.245606    1.576591   -1.014913
     62          6           0       -6.876341    0.368208   -0.338021
     63          8           0       -7.847627   -0.184910   -0.864105
     64          6           0       -5.448848    1.256618   -2.270219
     65          6           0       -4.762821   -0.100009   -2.181171
     66          7           0       -5.079464   -1.005171   -3.103624
     67          8           0       -3.776040   -0.216963   -1.458202
     68          1           0       -4.485690    2.092787    0.046708
     69          1           0       -7.086048    2.154040   -1.395057
     70          1           0       -4.696778    1.969389   -2.615831
     71          1           0       -6.084393    1.227988   -3.156708
     72          1           0       -5.769897   -0.794289   -3.810611
     73          1           0       -4.376106   -1.707013   -3.298575
     74          7           0       -6.262231   -0.038379    0.769434
     75          6           0       -6.607210   -1.147709    1.641086
     76          6           0       -5.524366   -2.213161    1.633424
     77          8           0       -5.691439   -3.293912    2.204357
     78          1           0       -5.501095    0.513024    1.147754
     79          1           0       -7.452460   -1.710213    1.229574
     80          1           0       -6.846875   -0.694211    2.593872
     81          7           0       -4.387397   -2.025667    0.967130
     82          6           0       -3.340663   -2.971933    0.634520
     83          6           0       -1.920308   -2.425179    0.723688
     84          8           0       -1.550633   -1.360549    0.226191
     85          6           0       -3.488731   -3.692918   -0.704418
     86          6           0       -4.798728   -4.440963   -0.837212
     87          6           0       -4.684807   -5.833732   -0.708306
     88          6           0       -6.042095   -3.883180   -1.132709
     89          6           0       -5.774877   -6.689372   -0.895465
     90          6           0       -7.168175   -4.712165   -1.240539
     91          6           0       -7.035840   -6.115344   -1.172892
     92          8           0       -8.172249   -6.811933   -1.404273
     93          1           0       -4.334434   -1.160382    0.462178
     94          1           0       -3.379305   -3.778451    1.360699
     95          1           0       -2.612101   -4.325959   -0.831226
     96          1           0       -3.468822   -2.881799   -1.441907
     97          1           0       -3.716113   -6.275819   -0.529727
     98          1           0       -6.080298   -2.803803   -1.249262
     99          1           0       -5.568268   -7.752331   -0.900853
    100          1           0       -8.142961   -4.270461   -1.391501
    101          1           0       -8.895931   -6.232885   -1.650013
    102          7           0       -1.032792   -3.288898    1.218869
    103          6           0        0.392259   -3.002176    1.247529
    104          6           0        1.104753   -3.871251    0.226715
    105          8           0        1.004152   -5.098241    0.274393
    106          6           0        0.926343   -3.246037    2.650984
    107          6           0        0.059791   -2.901551    3.855026
    108          6           0        2.361660   -2.750399    2.800676
    109          6           0        0.477691   -3.760191    5.050517
    110          1           0       -1.328549   -4.123243    1.714143
    111          1           0        0.652273   -1.967600    1.007852
    112          1           0        1.056342   -4.331191    2.657355
    113          1           0       -1.027270   -3.016516    3.707780
    114          1           0        0.112482   -1.845337    4.091320
    115          1           0        2.769109   -2.892368    3.801041
    116          1           0        3.031360   -3.315552    2.151211
    117          1           0        2.369742   -1.685458    2.592748
    118          1           0       -0.135291   -4.666668    5.069277
    119          1           0        1.540987   -3.982269    4.985074
    120          1           0        0.299718   -3.204453    5.960396
    121          7           0        1.857592   -3.227882   -0.670062
    122          6           0        2.863379   -3.806523   -1.528005
    123          6           0        4.297758   -3.553898   -1.077740
    124          8           0        4.611946   -2.689392   -0.265019
    125          6           0        2.635413   -3.381344   -2.984526
    126          8           0        3.172172   -2.086305   -3.072641
    127          1           0        1.731460   -2.235050   -0.799971
    128          1           0        2.709211   -4.886490   -1.526312
    129          1           0        1.597717   -3.308080   -3.313797
    130          1           0        3.225916   -4.072982   -3.580800
    131          1           0        2.611810   -1.398559   -2.687024
    132          7           0        5.263414   -4.337529   -1.563569
    133          6           0        6.599600   -4.357213   -1.008394
    134          6           0        7.299675   -2.999783   -0.943749
    135          8           0        7.851956   -2.652444    0.095357
    136          6           0        7.384857   -5.458859   -1.704991
    137          1           0        5.045746   -5.045521   -2.251442
    138          1           0        6.404216   -4.710817   -0.006351
    139          1           0        6.855082   -6.417929   -1.668606
    140          1           0        7.523416   -5.276614   -2.779881
    141          1           0        8.243693   -5.554975   -1.053406
    142          7           0        7.311852   -2.247023   -2.045839
    143          6           0        7.874617   -0.915628   -2.091504
    144          6           0        7.214770    0.014622   -1.079953
    145          8           0        7.854672    0.969106   -0.628638
    146          6           0        7.600811   -0.308221   -3.468706
    147          1           0        6.827093   -2.619008   -2.853141
    148          1           0        8.947265   -0.795787   -1.918402
    149          1           0        8.101515   -0.970829   -4.178528
    150          1           0        6.559114   -0.229423   -3.762574
    151          1           0        7.912706    0.735431   -3.472320
    152          7           0        5.984640   -0.248190   -0.652505
    153          6           0        5.326439    0.520185    0.378887
    154          6           0        5.843113    0.211589    1.784844
    155          8           0        5.882086    1.162836    2.567027
    156          6           0        3.809170    0.447464    0.289404
    157          6           0        3.195151    0.790408   -1.065132
    158          6           0        1.726684    0.402596   -1.133740
    159          8           0        1.352626   -0.610308   -1.766200
    160          8           0        0.862013    1.134760   -0.597382
    161          1           0        5.439067   -0.936392   -1.151733
    162          1           0        5.662520    1.548001    0.213829
    163          1           0        3.391938    1.207903    0.953821
    164          1           0        3.465269   -0.551914    0.576241
    165          1           0        3.731586    0.222615   -1.830931
    166          1           0        3.286847    1.866426   -1.124111
    167          7           0        6.336492   -1.001006    2.021680
    168          6           0        6.939780   -1.350418    3.294101
    169          1           0        8.007646   -1.519568    3.155087
    170          1           0        6.790645   -0.536593    4.003915
    171          1           0        6.476484   -2.258410    3.679703
    172          1           0        6.302236   -1.714766    1.301769
    173         20           0       -1.253584    0.480388   -1.753863
    174          8           0        0.058101    0.493713   -3.991698
    175          1           0        0.804814    0.112772   -4.455058
    176          1           0       -0.410150    0.990529   -4.667431
 ---------------------------------------------------------------------
 Rotational constants (GHZ):           0.0238941           0.0152948           0.0117841
 Standard basis: SVP (5D, 7F)
 There are  1809 symmetry adapted cartesian basis functions of A   symmetry.
 There are  1717 symmetry adapted basis functions of A   symmetry.
  1717 basis functions,  2922 primitive gaussians,  1809 cartesian basis functions
   358 alpha electrons      358 beta electrons
       nuclear repulsion energy     21776.0959849629 Hartrees.
 NAtoms=  176 NActive=  176 NUniq=  176 SFac= 1.00D+00 NAtFMM=   60 NAOKFM=T Big=T
 Integral buffers will be    131072 words long.
 Raffenetti 2 integral format.
 Two-electron integral symmetry is turned on.
 One-electron integrals computed using PRISM.
 NBasis=  1717 RedAO= T EigKep=  2.61D-04  NBF=  1717
 NBsUse=  1717 1.00D-06 EigRej= -1.00D+00 NBFU=  1717
 ExpMin= 1.98D-02 ExpMax= 3.51D+04 ExpMxC= 5.28D+03 IAcc=3 IRadAn=         5 AccDes= 0.00D+00
 Harris functional with IExCor=  402 and IRadAn=       5 diagonalized for initial guess.
 HarFok:  IExCor=  402 AccDes= 0.00D+00 IRadAn=         5 IDoV= 1 UseB2=F ITyADJ=14
 ICtDFT=  3500011 ScaDFX=  1.000000  1.000000  1.000000  1.000000
 FoFCou: FMM=F IPFlag=           0 FMFlag=      100000 FMFlg1=        2001
         NFxFlg=           0 DoJE=T BraDBF=F KetDBF=T FulRan=T
         wScrn=  0.000000 ICntrl=       500 IOpCl=  0 I1Cent=   200000004 NGrid=           0
         NMat0=    1 NMatS0=      1 NMatT0=    0 NMatD0=    1 NMtDS0=    0 NMtDT0=    0
 Petite list used in FoFCou.
 Requested convergence on RMS density matrix=1.00D-08 within 128 cycles.
 Requested convergence on MAX density matrix=1.00D-06.
 Requested convergence on             energy=1.00D-06.
 No special actions if energy rises.
 EnCoef did     3 forward-backward iterations
 EnCoef did     2 forward-backward iterations
 EnCoef did     5 forward-backward iterations
 SCF Done:  E(RB3LYP) =  -5333.58136039     A.U. after   20 cycles
            NFock= 20  Conv=0.57D-08     -V/T= 2.0081
 SCF density gives NOpUse=  1 NOpAll=  1.
 Hyperfine terms turned off by default for NAtoms > 100.

 **********************************************************************

            Population analysis using the SCF density.

 **********************************************************************

 Orbital symmetries:
 BldTbl:  Degeneracy threshold= 1.00D-02
       Occupied  (A) (A) (A) (A) (A) (A) (A) (A) (A) (A) (A) (A)
                 (A) (A) (A) (A) (A) (A) (A) (A) (A) (A) (A) (A)
                 (A) (A) (A) (A) (A) (A) (A) (A) (A) (A) (A) (A)
                 (A) (A) (A) (A) (A) (A) (A) (A) (A) (A) (A) (A)
                 (A) (A) (A) (A) (A) (A) (A) (A) (A) (A) (A) (A)
                 (A) (A) (A) (A) (A) (A) (A) (A) (A) (A) (A) (A)
                 (A) (A) (A) (A) (A) (A) (A) (A) (A) (A) (A) (A)
                 (A) (A) (A) (A) (A) (A) (A) (A) (A) (A) (A) (A)
                 (A) (A) (A) (A) (A) (A) (A) (A) (A) (A) (A) (A)
                 (A) (A) (A) (A) (A) (A) (A) (A) (A) (A) (A) (A)
                 (A) (A) (A) (A) (A) (A) (A) (A) (A) (A) (A) (A)
                 (A) (A) (A) (A) (A) (A) (A) (A) (A) (A) (A) (A)
                 (A) (A) (A) (A) (A) (A) (A) (A) (A) (A) (A) (A)
                 (A) (A) (A) (A) (A) (A) (A) (A) (A) (A) (A) (A)
                 (A) (A) (A) (A) (A) (A) (A) (A) (A) (A) (A) (A)
                 (A) (A) (A) (A) (A) (A) (A) (A) (A) (A) (A) (A)
                 (A) (A) (A) (A) (A) (A) (A) (A) (A) (A) (A) (A)
                 (A) (A) (A) (A) (A) (A) (A) (A) (A) (A) (A) (A)
                 (A) (A) (A) (A) (A) (A) (A) (A) (A) (A) (A) (A)
                 (A) (A) (A) (A) (A) (A) (A) (A) (A) (A) (A) (A)
                 (A) (A) (A) (A) (A) (A) (A) (A) (A) (A) (A) (A)
                 (A) (A) (A) (A) (A) (A) (A) (A) (A) (A) (A) (A)
                 (A) (A) (A) (A) (A) (A) (A) (A) (A) (A) (A) (A)
                 (A) (A) (A) (A) (A) (A) (A) (A) (A) (A) (A) (A)
                 (A) (A) (A) (A) (A) (A) (A) (A) (A) (A) (A) (A)
                 (A) (A) (A) (A) (A) (A) (A) (A) (A) (A) (A) (A)
                 (A) (A) (A) (A) (A) (A) (A) (A) (A) (A) (A) (A)
                 (A) (A) (A) (A) (A) (A) (A) (A) (A) (A) (A) (A)
                 (A) (A) (A) (A) (A) (A) (A) (A) (A) (A) (A) (A)
                 (A) (A) (A) (A) (A) (A) (A) (A) (A) (A)
       Virtual   (A) (A) (A) (A) (A) (A) (A) (A) (A) (A) (A) (A)
                 (A) (A) (A) (A) (A) (A) (A) (A) (A) (A) (A) (A)
                 (A) (A) (A) (A) (A) (A) (A) (A) (A) (A) (A) (A)
                 (A) (A) (A) (A) (A) (A) (A) (A) (A) (A) (A) (A)
                 (A) (A) (A) (A) (A) (A) (A) (A) (A) (A) (A) (A)
                 (A) (A) (A) (A) (A) (A) (A) (A) (A) (A) (A) (A)
                 (A) (A) (A) (A) (A) (A) (A) (A) (A) (A) (A) (A)
                 (A) (A) (A) (A) (A) (A) (A) (A) (A) (A) (A) (A)
                 (A) (A) (A) (A) (A) (A) (A) (A) (A) (A) (A) (A)
                 (A) (A) (A) (A) (A) (A) (A) (A) (A) (A) (A) (A)
                 (A) (A) (A) (A) (A) (A) (A) (A) (A) (A) (A) (A)
                 (A) (A) (A) (A) (A) (A) (A) (A) (A) (A) (A) (A)
                 (A) (A) (A) (A) (A) (A) (A) (A) (A) (A) (A) (A)
                 (A) (A) (A) (A) (A) (A) (A) (A) (A) (A) (A) (A)
                 (A) (A) (A) (A) (A) (A) (A) (A) (A) (A) (A) (A)
                 (A) (A) (A) (A) (A) (A) (A) (A) (A) (A) (A) (A)
                 (A) (A) (A) (A) (A) (A) (A) (A) (A) (A) (A) (A)
                 (A) (A) (A) (A) (A) (A) (A) (A) (A) (A) (A) (A)
                 (A) (A) (A) (A) (A) (A) (A) (A) (A) (A) (A) (A)
                 (A) (A) (A) (A) (A) (A) (A) (A) (A) (A) (A) (A)
                 (A) (A) (A) (A) (A) (A) (A) (A) (A) (A) (A) (A)
                 (A) (A) (A) (A) (A) (A) (A) (A) (A) (A) (A) (A)
                 (A) (A) (A) (A) (A) (A) (A) (A) (A) (A) (A) (A)
                 (A) (A) (A) (A) (A) (A) (A) (A) (A) (A) (A) (A)
                 (A) (A) (A) (A) (A) (A) (A) (A) (A) (A) (A) (A)
                 (A) (A) (A) (A) (A) (A) (A) (A) (A) (A) (A) (A)
                 (A) (A) (A) (A) (A) (A) (A) (A) (A) (A) (A) (A)
                 (A) (A) (A) (A) (A) (A) (A) (A) (A) (A) (A) (A)
                 (A) (A) (A) (A) (A) (A) (A) (A) (A) (A) (A) (A)
                 (A) (A) (A) (A) (A) (A) (A) (A) (A) (A) (A) (A)
                 (A) (A) (A) (A) (A) (A) (A) (A) (A) (A) (A) (A)
                 (A) (A) (A) (A) (A) (A) (A) (A) (A) (A) (A) (A)
                 (A) (A) (A) (A) (A) (A) (A) (A) (A) (A) (A) (A)
                 (A) (A) (A) (A) (A) (A) (A) (A) (A) (A) (A) (A)
                 (A) (A) (A) (A) (A) (A) (A) (A) (A) (A) (A) (A)
                 (A) (A) (A) (A) (A) (A) (A) (A) (A) (A) (A) (A)
                 (A) (A) (A) (A) (A) (A) (A) (A) (A) (A) (A) (A)
                 (A) (A) (A) (A) (A) (A) (A) (A) (A) (A) (A) (A)
                 (A) (A) (A) (A) (A) (A) (A) (A) (A) (A) (A) (A)
                 (A) (A) (A) (A) (A) (A) (A) (A) (A) (A) (A) (A)
                 (A) (A) (A) (A) (A) (A) (A) (A) (A) (A) (A) (A)
                 (A) (A) (A) (A) (A) (A) (A) (A) (A) (A) (A) (A)
                 (A) (A) (A) (A) (A) (A) (A) (A) (A) (A) (A) (A)
                 (A) (A) (A) (A) (A) (A) (A) (A) (A) (A) (A) (A)
                 (A) (A) (A) (A) (A) (A) (A) (A) (A) (A) (A) (A)
                 (A) (A) (A) (A) (A) (A) (A) (A) (A) (A) (A) (A)
                 (A) (A) (A) (A) (A) (A) (A) (A) (A) (A) (A) (A)
                 (A) (A) (A) (A) (A) (A) (A) (A) (A) (A) (A) (A)
                 (A) (A) (A) (A) (A) (A) (A) (A) (A) (A) (A) (A)
                 (A) (A) (A) (A) (A) (A) (A) (A) (A) (A) (A) (A)
                 (A) (A) (A) (A) (A) (A) (A) (A) (A) (A) (A) (A)
                 (A) (A) (A) (A) (A) (A) (A) (A) (A) (A) (A) (A)
                 (A) (A) (A) (A) (A) (A) (A) (A) (A) (A) (A) (A)
                 (A) (A) (A) (A) (A) (A) (A) (A) (A) (A) (A) (A)
                 (A) (A) (A) (A) (A) (A) (A) (A) (A) (A) (A) (A)
                 (A) (A) (A) (A) (A) (A) (A) (A) (A) (A) (A) (A)
                 (A) (A) (A) (A) (A) (A) (A) (A) (A) (A) (A) (A)
                 (A) (A) (A) (A) (A) (A) (A) (A) (A) (A) (A) (A)
                 (A) (A) (A) (A) (A) (A) (A) (A) (A) (A) (A) (A)
                 (A) (A) (A) (A) (A) (A) (A) (A) (A) (A) (A) (A)
                 (A) (A) (A) (A) (A) (A) (A) (A) (A) (A) (A) (A)
                 (A) (A) (A) (A) (A) (A) (A) (A) (A) (A) (A) (A)
                 (A) (A) (A) (A) (A) (A) (A) (A) (A) (A) (A) (A)
                 (A) (A) (A) (A) (A) (A) (A) (A) (A) (A) (A) (A)
                 (A) (A) (A) (A) (A) (A) (A) (A) (A) (A) (A) (A)
                 (A) (A) (A) (A) (A) (A) (A) (A) (A) (A) (A) (A)
                 (A) (A) (A) (A) (A) (A) (A) (A) (A) (A) (A) (A)
                 (A) (A) (A) (A) (A) (A) (A) (A) (A) (A) (A) (A)
                 (A) (A) (A) (A) (A) (A) (A) (A) (A) (A) (A) (A)
                 (A) (A) (A) (A) (A) (A) (A) (A) (A) (A) (A) (A)
                 (A) (A) (A) (A) (A) (A) (A) (A) (A) (A) (A) (A)
                 (A) (A) (A) (A) (A) (A) (A) (A) (A) (A) (A) (A)
                 (A) (A) (A) (A) (A) (A) (A) (A) (A) (A) (A) (A)
                 (A) (A) (A) (A) (A) (A) (A) (A) (A) (A) (A) (A)
                 (A) (A) (A) (A) (A) (A) (A) (A) (A) (A) (A) (A)
                 (A) (A) (A) (A) (A) (A) (A) (A) (A) (A) (A) (A)
                 (A) (A) (A) (A) (A) (A) (A) (A) (A) (A) (A) (A)
                 (A) (A) (A) (A) (A) (A) (A) (A) (A) (A) (A) (A)
                 (A) (A) (A) (A) (A) (A) (A) (A) (A) (A) (A) (A)
                 (A) (A) (A) (A) (A) (A) (A) (A) (A) (A) (A) (A)
                 (A) (A) (A) (A) (A) (A) (A) (A) (A) (A) (A) (A)
                 (A) (A) (A) (A) (A) (A) (A) (A) (A) (A) (A) (A)
                 (A) (A) (A) (A) (A) (A) (A) (A) (A) (A) (A) (A)
                 (A) (A) (A) (A) (A) (A) (A) (A) (A) (A) (A) (A)
                 (A) (A) (A) (A) (A) (A) (A) (A) (A) (A) (A) (A)
                 (A) (A) (A) (A) (A) (A) (A) (A) (A) (A) (A) (A)
                 (A) (A) (A) (A) (A) (A) (A) (A) (A) (A) (A) (A)
                 (A) (A) (A) (A) (A) (A) (A) (A) (A) (A) (A) (A)
                 (A) (A) (A) (A) (A) (A) (A) (A) (A) (A) (A) (A)
                 (A) (A) (A) (A) (A) (A) (A) (A) (A) (A) (A) (A)
                 (A) (A) (A) (A) (A) (A) (A) (A) (A) (A) (A) (A)
                 (A) (A) (A) (A) (A) (A) (A) (A) (A) (A) (A) (A)
                 (A) (A) (A) (A) (A) (A) (A) (A) (A) (A) (A) (A)
                 (A) (A) (A) (A) (A) (A) (A) (A) (A) (A) (A) (A)
                 (A) (A) (A) (A) (A) (A) (A) (A) (A) (A) (A) (A)
                 (A) (A) (A) (A) (A) (A) (A) (A) (A) (A) (A) (A)
                 (A) (A) (A) (A) (A) (A) (A) (A) (A) (A) (A) (A)
                 (A) (A) (A) (A) (A) (A) (A) (A) (A) (A) (A) (A)
                 (A) (A) (A) (A) (A) (A) (A) (A) (A) (A) (A) (A)
                 (A) (A) (A) (A) (A) (A) (A) (A) (A) (A) (A) (A)
                 (A) (A) (A) (A) (A) (A) (A) (A) (A) (A) (A) (A)
                 (A) (A) (A) (A) (A) (A) (A) (A) (A) (A) (A) (A)
                 (A) (A) (A) (A) (A) (A) (A) (A) (A) (A) (A) (A)
                 (A) (A) (A) (A) (A) (A) (A) (A) (A) (A) (A) (A)
                 (A) (A) (A) (A) (A) (A) (A) (A) (A) (A) (A) (A)
                 (A) (A) (A) (A) (A) (A) (A) (A) (A) (A) (A) (A)
                 (A) (A) (A) (A) (A) (A) (A) (A) (A) (A) (A) (A)
                 (A) (A) (A) (A) (A) (A) (A) (A) (A) (A) (A) (A)
                 (A) (A) (A) (A) (A) (A) (A) (A) (A) (A) (A) (A)
                 (A) (A) (A) (A) (A) (A) (A) (A) (A) (A) (A) (A)
                 (A) (A) (A) (A) (A) (A) (A) (A) (A) (A) (A) (A)
                 (A) (A) (A) (A) (A) (A) (A) (A) (A) (A) (A) (A)
                 (A) (A) (A) (A) (A) (A) (A) (A) (A) (A) (A) (A)
                 (A) (A) (A)
 The electronic state is 1-A.
 Alpha  occ. eigenvalues -- -145.39354 -19.19590 -19.15057 -19.13325 -19.13126
 Alpha  occ. eigenvalues --  -19.13101 -19.12050 -19.11997 -19.11934 -19.10347
 Alpha  occ. eigenvalues --  -19.10225 -19.09500 -19.07065 -19.06409 -19.06194
 Alpha  occ. eigenvalues --  -19.06159 -19.05898 -19.05863 -19.04901 -19.04866
 Alpha  occ. eigenvalues --  -19.03756 -19.03501 -19.03196 -19.01630 -15.45116
 Alpha  occ. eigenvalues --  -14.58628 -14.39138 -14.38700 -14.38195 -14.37015
 Alpha  occ. eigenvalues --  -14.35745 -14.34965 -14.34020 -14.32767 -14.32473
 Alpha  occ. eigenvalues --  -14.32114 -14.31531 -14.30599 -14.29641 -14.29168
 Alpha  occ. eigenvalues --  -12.58722 -12.58698 -12.58673 -10.35101 -10.31713
 Alpha  occ. eigenvalues --  -10.31129 -10.31000 -10.30108 -10.29888 -10.28688
 Alpha  occ. eigenvalues --  -10.28257 -10.27147 -10.26461 -10.26313 -10.26307
 Alpha  occ. eigenvalues --  -10.25677 -10.25617 -10.25202 -10.25135 -10.25097
 Alpha  occ. eigenvalues --  -10.24908 -10.24259 -10.24178 -10.23961 -10.23083
 Alpha  occ. eigenvalues --  -10.23028 -10.22821 -10.22531 -10.22498 -10.22483
 Alpha  occ. eigenvalues --  -10.22233 -10.22081 -10.21827 -10.20825 -10.20603
 Alpha  occ. eigenvalues --  -10.20372 -10.20282 -10.19971 -10.19642 -10.19580
 Alpha  occ. eigenvalues --  -10.19573 -10.19482 -10.18517 -10.18439 -10.18435
 Alpha  occ. eigenvalues --  -10.18050 -10.17958 -10.17924 -10.17884 -10.17748
 Alpha  occ. eigenvalues --  -10.17545 -10.17368 -10.16994 -10.16488 -10.16229
 Alpha  occ. eigenvalues --  -10.15648 -10.14625  -1.81928  -1.14138  -1.09701
 Alpha  occ. eigenvalues --   -1.09327  -1.09217  -1.07080  -1.06202  -1.05798
 Alpha  occ. eigenvalues --   -1.05373  -1.05185  -1.04712  -1.04244  -1.02957
 Alpha  occ. eigenvalues --   -1.02550  -1.02092  -1.00539  -0.99697  -0.99653
 Alpha  occ. eigenvalues --   -0.99123  -0.98990  -0.98739  -0.98644  -0.97657
 Alpha  occ. eigenvalues --   -0.96888  -0.96169  -0.96128  -0.95616  -0.95061
 Alpha  occ. eigenvalues --   -0.93527  -0.93165  -0.92819  -0.91900  -0.90333
 Alpha  occ. eigenvalues --   -0.90169  -0.89549  -0.89311  -0.88711  -0.88693
 Alpha  occ. eigenvalues --   -0.88546  -0.87807  -0.87602  -0.86672  -0.85354
 Alpha  occ. eigenvalues --   -0.83753  -0.82343  -0.81486  -0.81183  -0.80122
 Alpha  occ. eigenvalues --   -0.79118  -0.78334  -0.77584  -0.76532  -0.76345
 Alpha  occ. eigenvalues --   -0.74879  -0.74367  -0.73945  -0.73419  -0.73175
 Alpha  occ. eigenvalues --   -0.72907  -0.72545  -0.71963  -0.70906  -0.70517
 Alpha  occ. eigenvalues --   -0.69759  -0.69272  -0.68109  -0.67970  -0.67518
 Alpha  occ. eigenvalues --   -0.67201  -0.66366  -0.65360  -0.64706  -0.64037
 Alpha  occ. eigenvalues --   -0.63561  -0.63126  -0.62485  -0.62242  -0.61691
 Alpha  occ. eigenvalues --   -0.61162  -0.61141  -0.60901  -0.60554  -0.59983
 Alpha  occ. eigenvalues --   -0.59846  -0.59447  -0.58634  -0.58389  -0.58004
 Alpha  occ. eigenvalues --   -0.57605  -0.57212  -0.56787  -0.56261  -0.56181
 Alpha  occ. eigenvalues --   -0.55991  -0.55773  -0.55676  -0.55482  -0.54969
 Alpha  occ. eigenvalues --   -0.54491  -0.54305  -0.54124  -0.53819  -0.53325
 Alpha  occ. eigenvalues --   -0.53204  -0.52889  -0.52222  -0.52080  -0.51439
 Alpha  occ. eigenvalues --   -0.51198  -0.51117  -0.50708  -0.49939  -0.49839
 Alpha  occ. eigenvalues --   -0.49715  -0.49543  -0.49327  -0.49097  -0.48689
 Alpha  occ. eigenvalues --   -0.48583  -0.48545  -0.48036  -0.47949  -0.47827
 Alpha  occ. eigenvalues --   -0.47753  -0.47497  -0.47413  -0.46971  -0.46638
 Alpha  occ. eigenvalues --   -0.46609  -0.46287  -0.45859  -0.45764  -0.45627
 Alpha  occ. eigenvalues --   -0.45451  -0.45098  -0.44854  -0.44809  -0.44748
 Alpha  occ. eigenvalues --   -0.44722  -0.44403  -0.44324  -0.44114  -0.43998
 Alpha  occ. eigenvalues --   -0.43838  -0.43766  -0.43647  -0.43441  -0.43128
 Alpha  occ. eigenvalues --   -0.42964  -0.42891  -0.42626  -0.42519  -0.42437
 Alpha  occ. eigenvalues --   -0.42332  -0.41922  -0.41825  -0.41729  -0.41626
 Alpha  occ. eigenvalues --   -0.41568  -0.41416  -0.41176  -0.41148  -0.40920
 Alpha  occ. eigenvalues --   -0.40877  -0.40522  -0.40505  -0.40165  -0.39999
 Alpha  occ. eigenvalues --   -0.39749  -0.39609  -0.39419  -0.39276  -0.39176
 Alpha  occ. eigenvalues --   -0.39119  -0.38870  -0.38671  -0.38513  -0.38439
 Alpha  occ. eigenvalues --   -0.38318  -0.38186  -0.37953  -0.37899  -0.37754
 Alpha  occ. eigenvalues --   -0.37627  -0.37560  -0.37331  -0.37158  -0.37017
 Alpha  occ. eigenvalues --   -0.36906  -0.36548  -0.36486  -0.36407  -0.36395
 Alpha  occ. eigenvalues --   -0.36239  -0.35873  -0.35852  -0.35614  -0.35406
 Alpha  occ. eigenvalues --   -0.35251  -0.35006  -0.34850  -0.34735  -0.34485
 Alpha  occ. eigenvalues --   -0.34385  -0.34277  -0.34114  -0.33994  -0.33579
 Alpha  occ. eigenvalues --   -0.33573  -0.33342  -0.33155  -0.33130  -0.32786
 Alpha  occ. eigenvalues --   -0.32591  -0.32547  -0.32238  -0.31898  -0.31323
 Alpha  occ. eigenvalues --   -0.31145  -0.30953  -0.30672  -0.30541  -0.30008
 Alpha  occ. eigenvalues --   -0.29765  -0.29662  -0.29393  -0.29108  -0.28616
 Alpha  occ. eigenvalues --   -0.28364  -0.28199  -0.27640  -0.27290  -0.27014
 Alpha  occ. eigenvalues --   -0.26443  -0.26304  -0.25535  -0.25290  -0.25174
 Alpha  occ. eigenvalues --   -0.24609  -0.24499  -0.24212  -0.23814  -0.23594
 Alpha  occ. eigenvalues --   -0.23578  -0.22729  -0.22527  -0.22490  -0.22030
 Alpha  occ. eigenvalues --   -0.21940  -0.21667  -0.21537  -0.21318  -0.21144
 Alpha  occ. eigenvalues --   -0.20887  -0.20773  -0.20666  -0.20395  -0.19259
 Alpha  occ. eigenvalues --   -0.19132  -0.18209  -0.17462
 Alpha virt. eigenvalues --   -0.10904  -0.04938  -0.04395  -0.04134  -0.01928
 Alpha virt. eigenvalues --   -0.01258  -0.01088  -0.00686  -0.00601  -0.00448
 Alpha virt. eigenvalues --    0.00100   0.00581   0.01075   0.01298   0.01812
 Alpha virt. eigenvalues --    0.02135   0.02681   0.02761   0.03162   0.03249
 Alpha virt. eigenvalues --    0.04075   0.04647   0.04749   0.04770   0.04880
 Alpha virt. eigenvalues --    0.04960   0.05066   0.05368   0.05602   0.05875
 Alpha virt. eigenvalues --    0.05945   0.06065   0.06229   0.06435   0.06679
 Alpha virt. eigenvalues --    0.06950   0.07140   0.07329   0.07608   0.07866
 Alpha virt. eigenvalues --    0.08008   0.08147   0.08209   0.08422   0.08678
 Alpha virt. eigenvalues --    0.08946   0.09001   0.09564   0.09683   0.09968
 Alpha virt. eigenvalues --    0.10005   0.10165   0.10280   0.10817   0.11032
 Alpha virt. eigenvalues --    0.11149   0.11262   0.11351   0.11683   0.11856
 Alpha virt. eigenvalues --    0.12161   0.12281   0.12402   0.12573   0.12618
 Alpha virt. eigenvalues --    0.12705   0.12864   0.13091   0.13287   0.13307
 Alpha virt. eigenvalues --    0.13599   0.14067   0.14166   0.14448   0.14698
 Alpha virt. eigenvalues --    0.14897   0.15031   0.15080   0.15179   0.15419
 Alpha virt. eigenvalues --    0.15524   0.15679   0.15977   0.16015   0.16172
 Alpha virt. eigenvalues --    0.16313   0.16456   0.16606   0.16811   0.17168
 Alpha virt. eigenvalues --    0.17220   0.17285   0.17383   0.17655   0.17958
 Alpha virt. eigenvalues --    0.18165   0.18324   0.18384   0.18733   0.18895
 Alpha virt. eigenvalues --    0.18997   0.19135   0.19346   0.19406   0.19627
 Alpha virt. eigenvalues --    0.19800   0.19943   0.20167   0.20457   0.20556
 Alpha virt. eigenvalues --    0.20686   0.20805   0.21079   0.21313   0.21734
 Alpha virt. eigenvalues --    0.22057   0.22113   0.22297   0.22629   0.22698
 Alpha virt. eigenvalues --    0.22792   0.22966   0.23118   0.23471   0.23701
 Alpha virt. eigenvalues --    0.24011   0.24127   0.24366   0.24586   0.24763
 Alpha virt. eigenvalues --    0.25030   0.25236   0.25521   0.25623   0.25677
 Alpha virt. eigenvalues --    0.25953   0.26318   0.26471   0.26631   0.26860
 Alpha virt. eigenvalues --    0.27032   0.27236   0.27337   0.27617   0.27800
 Alpha virt. eigenvalues --    0.28085   0.28296   0.28631   0.28928   0.29252
 Alpha virt. eigenvalues --    0.29399   0.29530   0.29869   0.30316   0.30356
 Alpha virt. eigenvalues --    0.30498   0.30705   0.30894   0.31150   0.31513
 Alpha virt. eigenvalues --    0.31623   0.31811   0.32007   0.32143   0.32369
 Alpha virt. eigenvalues --    0.32811   0.32962   0.33259   0.33566   0.33729
 Alpha virt. eigenvalues --    0.34197   0.34521   0.34705   0.34772   0.35379
 Alpha virt. eigenvalues --    0.35399   0.35718   0.35761   0.35929   0.36507
 Alpha virt. eigenvalues --    0.36653   0.37654   0.37874   0.38056   0.38434
 Alpha virt. eigenvalues --    0.38486   0.38769   0.39046   0.39363   0.39736
 Alpha virt. eigenvalues --    0.40148   0.40421   0.40754   0.40829   0.41117
 Alpha virt. eigenvalues --    0.41261   0.41365   0.41720   0.41903   0.42122
 Alpha virt. eigenvalues --    0.42215   0.42355   0.42786   0.43079   0.43217
 Alpha virt. eigenvalues --    0.43476   0.43636   0.43889   0.44183   0.44476
 Alpha virt. eigenvalues --    0.44538   0.44792   0.45141   0.45430   0.45552
 Alpha virt. eigenvalues --    0.45865   0.45944   0.46099   0.46478   0.46553
 Alpha virt. eigenvalues --    0.46789   0.46896   0.47042   0.47187   0.47282
 Alpha virt. eigenvalues --    0.47474   0.47666   0.48038   0.48179   0.48347
 Alpha virt. eigenvalues --    0.48411   0.48525   0.48956   0.49073   0.49147
 Alpha virt. eigenvalues --    0.49396   0.49571   0.49711   0.49810   0.50021
 Alpha virt. eigenvalues --    0.50324   0.50573   0.50692   0.50810   0.51146
 Alpha virt. eigenvalues --    0.51589   0.51608   0.52042   0.52058   0.52262
 Alpha virt. eigenvalues --    0.52426   0.52606   0.52819   0.53005   0.53185
 Alpha virt. eigenvalues --    0.53280   0.53552   0.53784   0.53937   0.54031
 Alpha virt. eigenvalues --    0.54142   0.54227   0.54336   0.54567   0.54684
 Alpha virt. eigenvalues --    0.54885   0.55163   0.55338   0.55582   0.55835
 Alpha virt. eigenvalues --    0.56015   0.56220   0.56340   0.56570   0.56699
 Alpha virt. eigenvalues --    0.56781   0.56884   0.57012   0.57276   0.57445
 Alpha virt. eigenvalues --    0.57822   0.57982   0.58265   0.58434   0.58669
 Alpha virt. eigenvalues --    0.58789   0.58885   0.58986   0.59166   0.59321
 Alpha virt. eigenvalues --    0.59620   0.59741   0.59774   0.60070   0.60111
 Alpha virt. eigenvalues --    0.60358   0.60524   0.60600   0.60792   0.60885
 Alpha virt. eigenvalues --    0.60984   0.61076   0.61251   0.61343   0.61547
 Alpha virt. eigenvalues --    0.61645   0.61885   0.62081   0.62118   0.62399
 Alpha virt. eigenvalues --    0.62594   0.62628   0.62713   0.62756   0.62900
 Alpha virt. eigenvalues --    0.62925   0.63196   0.63226   0.63483   0.63590
 Alpha virt. eigenvalues --    0.63884   0.63909   0.64025   0.64184   0.64362
 Alpha virt. eigenvalues --    0.64445   0.64510   0.64614   0.64697   0.64785
 Alpha virt. eigenvalues --    0.64887   0.64968   0.65129   0.65238   0.65307
 Alpha virt. eigenvalues --    0.65457   0.65690   0.65762   0.65965   0.66185
 Alpha virt. eigenvalues --    0.66253   0.66309   0.66447   0.66515   0.66846
 Alpha virt. eigenvalues --    0.66872   0.66959   0.67057   0.67154   0.67178
 Alpha virt. eigenvalues --    0.67325   0.67440   0.67597   0.67662   0.67836
 Alpha virt. eigenvalues --    0.68060   0.68158   0.68276   0.68416   0.68481
 Alpha virt. eigenvalues --    0.68642   0.68673   0.68799   0.69082   0.69154
 Alpha virt. eigenvalues --    0.69214   0.69235   0.69543   0.69692   0.69760
 Alpha virt. eigenvalues --    0.69849   0.70033   0.70143   0.70321   0.70435
 Alpha virt. eigenvalues --    0.70526   0.70774   0.70841   0.71036   0.71213
 Alpha virt. eigenvalues --    0.71354   0.71441   0.71600   0.71747   0.71876
 Alpha virt. eigenvalues --    0.72165   0.72294   0.72486   0.72548   0.72650
 Alpha virt. eigenvalues --    0.72847   0.73008   0.73118   0.73477   0.73681
 Alpha virt. eigenvalues --    0.73752   0.73814   0.73906   0.74172   0.74197
 Alpha virt. eigenvalues --    0.74548   0.74778   0.74874   0.74936   0.75123
 Alpha virt. eigenvalues --    0.75197   0.75257   0.75318   0.75796   0.76110
 Alpha virt. eigenvalues --    0.76263   0.76436   0.76803   0.76971   0.77101
 Alpha virt. eigenvalues --    0.77389   0.77630   0.78095   0.78533   0.78749
 Alpha virt. eigenvalues --    0.78771   0.78994   0.79322   0.79388   0.79676
 Alpha virt. eigenvalues --    0.79931   0.80089   0.80168   0.80486   0.80717
 Alpha virt. eigenvalues --    0.80768   0.81124   0.81472   0.81614   0.82160
 Alpha virt. eigenvalues --    0.82521   0.82865   0.82879   0.83057   0.83483
 Alpha virt. eigenvalues --    0.83866   0.84041   0.84141   0.84345   0.84548
 Alpha virt. eigenvalues --    0.84813   0.85078   0.85364   0.85605   0.85994
 Alpha virt. eigenvalues --    0.86071   0.86416   0.86627   0.86937   0.87217
 Alpha virt. eigenvalues --    0.87515   0.87830   0.88152   0.88644   0.88767
 Alpha virt. eigenvalues --    0.89088   0.89401   0.89625   0.90006   0.90209
 Alpha virt. eigenvalues --    0.90659   0.90997   0.91190   0.91601   0.92090
 Alpha virt. eigenvalues --    0.92453   0.92527   0.92837   0.93052   0.93311
 Alpha virt. eigenvalues --    0.93626   0.93777   0.93954   0.94431   0.94669
 Alpha virt. eigenvalues --    0.95046   0.95149   0.95652   0.95795   0.96141
 Alpha virt. eigenvalues --    0.96172   0.96571   0.97194   0.97506   0.97740
 Alpha virt. eigenvalues --    0.98040   0.98207   0.98297   0.98631   0.99097
 Alpha virt. eigenvalues --    0.99325   0.99521   0.99801   0.99915   1.00360
 Alpha virt. eigenvalues --    1.00613   1.00700   1.00807   1.01063   1.01488
 Alpha virt. eigenvalues --    1.01609   1.01666   1.02113   1.02352   1.02773
 Alpha virt. eigenvalues --    1.03215   1.03258   1.03879   1.04224   1.04461
 Alpha virt. eigenvalues --    1.05131   1.05258   1.05711   1.05790   1.06050
 Alpha virt. eigenvalues --    1.06244   1.06563   1.07277   1.07412   1.07536
 Alpha virt. eigenvalues --    1.07830   1.08140   1.08428   1.08759   1.09032
 Alpha virt. eigenvalues --    1.09146   1.09362   1.09636   1.10071   1.10400
 Alpha virt. eigenvalues --    1.10761   1.11078   1.11430   1.11471   1.11752
 Alpha virt. eigenvalues --    1.12301   1.12609   1.12938   1.13086   1.13249
 Alpha virt. eigenvalues --    1.13389   1.13669   1.13957   1.14565   1.14675
 Alpha virt. eigenvalues --    1.15047   1.15290   1.15653   1.15817   1.16178
 Alpha virt. eigenvalues --    1.16460   1.16634   1.16929   1.17579   1.17914
 Alpha virt. eigenvalues --    1.18170   1.18549   1.18638   1.18972   1.19082
 Alpha virt. eigenvalues --    1.19250   1.19501   1.19741   1.19829   1.20008
 Alpha virt. eigenvalues --    1.20323   1.20599   1.20967   1.21163   1.21545
 Alpha virt. eigenvalues --    1.21893   1.22190   1.22374   1.22689   1.23012
 Alpha virt. eigenvalues --    1.23332   1.23631   1.23828   1.24220   1.24385
 Alpha virt. eigenvalues --    1.24604   1.24722   1.25057   1.25255   1.25525
 Alpha virt. eigenvalues --    1.26003   1.26105   1.26385   1.26558   1.26791
 Alpha virt. eigenvalues --    1.27111   1.27205   1.27445   1.28116   1.28292
 Alpha virt. eigenvalues --    1.28452   1.28675   1.28876   1.28937   1.29280
 Alpha virt. eigenvalues --    1.29466   1.29609   1.29701   1.29954   1.30069
 Alpha virt. eigenvalues --    1.30295   1.30649   1.31021   1.31336   1.31597
 Alpha virt. eigenvalues --    1.32127   1.32248   1.32429   1.32799   1.33121
 Alpha virt. eigenvalues --    1.33211   1.33730   1.34041   1.34313   1.34748
 Alpha virt. eigenvalues --    1.34900   1.35006   1.35173   1.35779   1.35915
 Alpha virt. eigenvalues --    1.36338   1.36436   1.36886   1.37160   1.37246
 Alpha virt. eigenvalues --    1.37649   1.37829   1.38208   1.38440   1.38734
 Alpha virt. eigenvalues --    1.38948   1.39141   1.39214   1.39480   1.39904
 Alpha virt. eigenvalues --    1.40144   1.40292   1.40493   1.40730   1.40915
 Alpha virt. eigenvalues --    1.41168   1.41415   1.41603   1.41857   1.42030
 Alpha virt. eigenvalues --    1.42509   1.42883   1.43079   1.43233   1.43679
 Alpha virt. eigenvalues --    1.43898   1.44047   1.44510   1.44636   1.45397
 Alpha virt. eigenvalues --    1.45751   1.45890   1.46246   1.46355   1.46789
 Alpha virt. eigenvalues --    1.47044   1.47275   1.47590   1.47983   1.48278
 Alpha virt. eigenvalues --    1.48494   1.48605   1.48747   1.49210   1.49464
 Alpha virt. eigenvalues --    1.49749   1.49888   1.50335   1.50506   1.50689
 Alpha virt. eigenvalues --    1.51224   1.51696   1.51774   1.52063   1.52573
 Alpha virt. eigenvalues --    1.53022   1.53180   1.53201   1.53498   1.53852
 Alpha virt. eigenvalues --    1.53900   1.54538   1.54565   1.55077   1.55293
 Alpha virt. eigenvalues --    1.55614   1.55878   1.56450   1.56525   1.57183
 Alpha virt. eigenvalues --    1.57389   1.57607   1.58409   1.58490   1.58863
 Alpha virt. eigenvalues --    1.59322   1.59510   1.60219   1.60580   1.60628
 Alpha virt. eigenvalues --    1.60979   1.61156   1.61334   1.61575   1.62222
 Alpha virt. eigenvalues --    1.62623   1.62844   1.63171   1.63528   1.64192
 Alpha virt. eigenvalues --    1.64432   1.64772   1.65256   1.65542   1.65801
 Alpha virt. eigenvalues --    1.66312   1.66425   1.66819   1.67003   1.67478
 Alpha virt. eigenvalues --    1.67841   1.68155   1.68413   1.68667   1.68733
 Alpha virt. eigenvalues --    1.68909   1.69380   1.69504   1.69716   1.69814
 Alpha virt. eigenvalues --    1.70352   1.70662   1.70834   1.71279   1.71522
 Alpha virt. eigenvalues --    1.71713   1.71934   1.72238   1.72361   1.72631
 Alpha virt. eigenvalues --    1.72882   1.72972   1.73371   1.73599   1.73702
 Alpha virt. eigenvalues --    1.74023   1.74170   1.74249   1.74371   1.74756
 Alpha virt. eigenvalues --    1.74994   1.75372   1.75425   1.75753   1.75802
 Alpha virt. eigenvalues --    1.76043   1.76224   1.76377   1.76393   1.76563
 Alpha virt. eigenvalues --    1.76742   1.76994   1.77159   1.77259   1.77413
 Alpha virt. eigenvalues --    1.77495   1.77565   1.77787   1.77886   1.78056
 Alpha virt. eigenvalues --    1.78416   1.78460   1.78621   1.78638   1.78981
 Alpha virt. eigenvalues --    1.79048   1.79098   1.79287   1.79393   1.79737
 Alpha virt. eigenvalues --    1.79877   1.80060   1.80126   1.80325   1.80394
 Alpha virt. eigenvalues --    1.80658   1.80849   1.80927   1.81270   1.81453
 Alpha virt. eigenvalues --    1.81505   1.81600   1.81770   1.81966   1.82155
 Alpha virt. eigenvalues --    1.82208   1.82497   1.82522   1.82678   1.82712
 Alpha virt. eigenvalues --    1.83084   1.83345   1.83536   1.83819   1.84046
 Alpha virt. eigenvalues --    1.84274   1.84347   1.84612   1.84863   1.85177
 Alpha virt. eigenvalues --    1.85254   1.85440   1.85535   1.85770   1.86037
 Alpha virt. eigenvalues --    1.86298   1.86354   1.86566   1.86708   1.87011
 Alpha virt. eigenvalues --    1.87236   1.87449   1.87642   1.87923   1.88103
 Alpha virt. eigenvalues --    1.88262   1.88370   1.88629   1.88860   1.88969
 Alpha virt. eigenvalues --    1.89267   1.89312   1.89562   1.89743   1.89877
 Alpha virt. eigenvalues --    1.89986   1.90226   1.90437   1.90690   1.90757
 Alpha virt. eigenvalues --    1.91014   1.91167   1.91499   1.91636   1.91831
 Alpha virt. eigenvalues --    1.92130   1.92439   1.92672   1.92896   1.93164
 Alpha virt. eigenvalues --    1.93332   1.93355   1.93599   1.93837   1.94349
 Alpha virt. eigenvalues --    1.94534   1.94859   1.95002   1.95272   1.95633
 Alpha virt. eigenvalues --    1.95963   1.96064   1.96368   1.96481   1.96664
 Alpha virt. eigenvalues --    1.96854   1.97044   1.97346   1.97376   1.97743
 Alpha virt. eigenvalues --    1.97834   1.98376   1.98483   1.98611   1.98771
 Alpha virt. eigenvalues --    1.99075   1.99337   1.99427   1.99560   1.99842
 Alpha virt. eigenvalues --    2.00021   2.00489   2.00775   2.00868   2.01028
 Alpha virt. eigenvalues --    2.01352   2.01740   2.01930   2.02114   2.02269
 Alpha virt. eigenvalues --    2.02504   2.02735   2.02956   2.03082   2.03279
 Alpha virt. eigenvalues --    2.03528   2.03747   2.04051   2.04225   2.04845
 Alpha virt. eigenvalues --    2.04998   2.05076   2.05260   2.05312   2.05517
 Alpha virt. eigenvalues --    2.05697   2.06168   2.06464   2.06546   2.06753
 Alpha virt. eigenvalues --    2.06824   2.07147   2.07276   2.07641   2.08195
 Alpha virt. eigenvalues --    2.08339   2.08824   2.09187   2.09540   2.09617
 Alpha virt. eigenvalues --    2.09712   2.10140   2.10431   2.10551   2.11070
 Alpha virt. eigenvalues --    2.11300   2.11496   2.11897   2.12189   2.12479
 Alpha virt. eigenvalues --    2.12808   2.13032   2.13250   2.13424   2.13729
 Alpha virt. eigenvalues --    2.14156   2.14317   2.14674   2.15112   2.15889
 Alpha virt. eigenvalues --    2.16255   2.16330   2.16640   2.16866   2.17060
 Alpha virt. eigenvalues --    2.17302   2.17574   2.17912   2.18175   2.18398
 Alpha virt. eigenvalues --    2.18740   2.19007   2.19071   2.19411   2.19559
 Alpha virt. eigenvalues --    2.19653   2.20144   2.20202   2.20685   2.20876
 Alpha virt. eigenvalues --    2.20906   2.21354   2.21452   2.22036   2.22287
 Alpha virt. eigenvalues --    2.22361   2.22581   2.22748   2.22873   2.23209
 Alpha virt. eigenvalues --    2.23518   2.23772   2.24331   2.25057   2.25650
 Alpha virt. eigenvalues --    2.26008   2.26273   2.26900   2.27501   2.27843
 Alpha virt. eigenvalues --    2.28091   2.28124   2.28406   2.28942   2.29304
 Alpha virt. eigenvalues --    2.29641   2.29853   2.30121   2.30394   2.30497
 Alpha virt. eigenvalues --    2.31461   2.31839   2.32351   2.32824   2.32893
 Alpha virt. eigenvalues --    2.32951   2.33503   2.33984   2.34465   2.34526
 Alpha virt. eigenvalues --    2.34887   2.35109   2.35390   2.35721   2.35995
 Alpha virt. eigenvalues --    2.36189   2.36402   2.36950   2.37123   2.37280
 Alpha virt. eigenvalues --    2.37694   2.37935   2.38141   2.38196   2.38607
 Alpha virt. eigenvalues --    2.38905   2.39049   2.39280   2.39409   2.39742
 Alpha virt. eigenvalues --    2.40133   2.40549   2.41016   2.41365   2.41575
 Alpha virt. eigenvalues --    2.42265   2.42481   2.42596   2.43056   2.43179
 Alpha virt. eigenvalues --    2.43371   2.43630   2.45015   2.45046   2.45358
 Alpha virt. eigenvalues --    2.45606   2.46461   2.46772   2.46915   2.46964
 Alpha virt. eigenvalues --    2.47413   2.47564   2.48196   2.48558   2.48954
 Alpha virt. eigenvalues --    2.49177   2.49617   2.49849   2.49985   2.50669
 Alpha virt. eigenvalues --    2.51198   2.51494   2.51571   2.51733   2.52598
 Alpha virt. eigenvalues --    2.53075   2.53513   2.53812   2.54211   2.54296
 Alpha virt. eigenvalues --    2.54521   2.54931   2.55071   2.55274   2.55540
 Alpha virt. eigenvalues --    2.55768   2.56513   2.57079   2.57415   2.57810
 Alpha virt. eigenvalues --    2.58008   2.58514   2.58799   2.59134   2.59509
 Alpha virt. eigenvalues --    2.59881   2.60109   2.60389   2.60726   2.60916
 Alpha virt. eigenvalues --    2.61072   2.61374   2.61550   2.61715   2.62166
 Alpha virt. eigenvalues --    2.62329   2.62496   2.62721   2.62769   2.63332
 Alpha virt. eigenvalues --    2.63554   2.63707   2.63899   2.64380   2.64611
 Alpha virt. eigenvalues --    2.65016   2.65699   2.65776   2.66063   2.66450
 Alpha virt. eigenvalues --    2.66886   2.67020   2.67044   2.67554   2.67895
 Alpha virt. eigenvalues --    2.68027   2.68341   2.68660   2.68706   2.69158
 Alpha virt. eigenvalues --    2.69323   2.70324   2.70598   2.70958   2.71123
 Alpha virt. eigenvalues --    2.71402   2.71900   2.71990   2.72143   2.72408
 Alpha virt. eigenvalues --    2.72549   2.73254   2.73702   2.74118   2.74203
 Alpha virt. eigenvalues --    2.74245   2.74460   2.74633   2.74871   2.75169
 Alpha virt. eigenvalues --    2.75370   2.75482   2.75652   2.75830   2.76011
 Alpha virt. eigenvalues --    2.76511   2.76626   2.76836   2.77347   2.77466
 Alpha virt. eigenvalues --    2.77818   2.77912   2.78162   2.78221   2.78428
 Alpha virt. eigenvalues --    2.79095   2.79484   2.79749   2.79889   2.80247
 Alpha virt. eigenvalues --    2.81068   2.81409   2.81551   2.82021   2.82123
 Alpha virt. eigenvalues --    2.82254   2.82639   2.82674   2.82871   2.83122
 Alpha virt. eigenvalues --    2.83539   2.83583   2.83720   2.83952   2.84056
 Alpha virt. eigenvalues --    2.84467   2.84738   2.85075   2.85237   2.85613
 Alpha virt. eigenvalues --    2.86241   2.86712   2.86979   2.87129   2.87825
 Alpha virt. eigenvalues --    2.87854   2.88211   2.88629   2.88918   2.89088
 Alpha virt. eigenvalues --    2.89456   2.89647   2.89687   2.90244   2.90270
 Alpha virt. eigenvalues --    2.90654   2.90943   2.91490   2.91904   2.92149
 Alpha virt. eigenvalues --    2.92250   2.92715   2.92787   2.92870   2.93171
 Alpha virt. eigenvalues --    2.93403   2.93746   2.93940   2.94677   2.94779
 Alpha virt. eigenvalues --    2.95023   2.95363   2.95694   2.96576   2.96755
 Alpha virt. eigenvalues --    2.96852   2.96942   2.97526   2.97840   2.98406
 Alpha virt. eigenvalues --    2.98787   2.99410   2.99645   2.99937   3.00193
 Alpha virt. eigenvalues --    3.00475   3.00648   3.00822   3.01159   3.01831
 Alpha virt. eigenvalues --    3.02068   3.02270   3.02753   3.02813   3.03264
 Alpha virt. eigenvalues --    3.03420   3.03746   3.03876   3.04225   3.05053
 Alpha virt. eigenvalues --    3.05364   3.06022   3.06254   3.06467   3.07138
 Alpha virt. eigenvalues --    3.08038   3.08141   3.08577   3.08860   3.09180
 Alpha virt. eigenvalues --    3.10086   3.10251   3.10736   3.11114   3.11467
 Alpha virt. eigenvalues --    3.12429   3.12905   3.13707   3.13883   3.14263
 Alpha virt. eigenvalues --    3.14375   3.15061   3.15089   3.15242   3.15768
 Alpha virt. eigenvalues --    3.16246   3.16316   3.16669   3.17088   3.18046
 Alpha virt. eigenvalues --    3.18467   3.18632   3.19095   3.19184   3.19464
 Alpha virt. eigenvalues --    3.20166   3.20314   3.20758   3.21194   3.21336
 Alpha virt. eigenvalues --    3.21500   3.21834   3.22198   3.22445   3.22658
 Alpha virt. eigenvalues --    3.23006   3.23983   3.24184   3.24569   3.24662
 Alpha virt. eigenvalues --    3.25634   3.26673   3.27016   3.28286   3.29453
 Alpha virt. eigenvalues --    3.30359   3.30456   3.30820   3.31132   3.31171
 Alpha virt. eigenvalues --    3.31679   3.32001   3.33052   3.34485   3.35763
 Alpha virt. eigenvalues --    3.36184   3.36642   3.37870   3.37925   3.40001
 Alpha virt. eigenvalues --    3.41209   3.41383   3.45617   3.46904   3.49454
 Alpha virt. eigenvalues --    3.50639   3.51626   3.53607   3.54845   3.56097
 Alpha virt. eigenvalues --    3.56878   3.57521   3.57820   3.58139   3.58489
 Alpha virt. eigenvalues --    3.59222   3.63410   3.64136   3.64488   3.64899
 Alpha virt. eigenvalues --    3.65311   3.66875   3.67571   3.67641   3.68103
 Alpha virt. eigenvalues --    3.68537   3.69454   3.69760   3.70131   3.70470
 Alpha virt. eigenvalues --    3.71018   3.71466   3.71609   3.72468   3.72554
 Alpha virt. eigenvalues --    3.73057   3.73173   3.73269   3.73596   3.75977
 Alpha virt. eigenvalues --    3.80452   3.81101   3.81971   3.83832
          Condensed to atoms (all electrons):
 Mulliken charges:
               1
     1  C    0.058298
     2  C    0.030551
     3  O   -0.290852
     4  H    0.039440
     5  H    0.037965
     6  H    0.002955
     7  N   -0.117522
     8  C    0.132146
     9  C    0.067153
    10  O   -0.291120
    11  C    0.066040
    12  C    0.170296
    13  O   -0.447368
    14  O   -0.410817
    15  H    0.113904
    16  H   -0.004373
    17  H    0.015281
    18  H    0.011603
    19  N   -0.147322
    20  C    0.216717
    21  C    0.037157
    22  O   -0.281068
    23  C   -0.047915
    24  C    0.044130
    25  C   -0.058311
    26  C    0.049976
    27  N    0.071418
    28  H    0.146514
    29  H   -0.000145
    30  H    0.009870
    31  H    0.018855
    32  H    0.017261
    33  H    0.038257
    34  H    0.013240
    35  H    0.041171
    36  H    0.082737
    37  H    0.058816
    38  H    0.184847
    39  H    0.197036
    40  H    0.188041
    41  N   -0.135489
    42  C    0.142279
    43  C    0.057757
    44  O   -0.284476
    45  C    0.096583
    46  C    0.111288
    47  O   -0.484818
    48  O   -0.354104
    49  H    0.148700
    50  H    0.009419
    51  H   -0.049677
    52  H    0.003328
    53  N   -0.153002
    54  C    0.214173
    55  C    0.031159
    56  O   -0.285744
    57  H    0.143093
    58  H    0.011223
    59  H    0.020962
    60  N   -0.141680
    61  C    0.152022
    62  C    0.053364
    63  O   -0.296272
    64  C    0.114603
    65  C    0.003428
    66  N   -0.010760
    67  O   -0.362812
    68  H    0.132677
    69  H    0.024934
    70  H    0.064255
    71  H   -0.024067
    72  H    0.142798
    73  H    0.126041
    74  N   -0.203298
    75  C    0.255945
    76  C   -0.003530
    77  O   -0.301941
    78  H    0.153180
    79  H    0.038507
    80  H    0.048108
    81  N   -0.133145
    82  C    0.129237
    83  C    0.146781
    84  O   -0.351329
    85  C    0.151812
    86  C    0.000776
    87  C   -0.028302
    88  C    0.013743
    89  C   -0.032429
    90  C   -0.043084
    91  C    0.190091
    92  O   -0.186159
    93  H    0.151636
    94  H   -0.022422
    95  H   -0.008992
    96  H   -0.059152
    97  H   -0.038397
    98  H   -0.034575
    99  H   -0.031081
   100  H   -0.032524
   101  H    0.172974
   102  N   -0.121829
   103  C    0.149633
   104  C    0.071078
   105  O   -0.285479
   106  C   -0.132140
   107  C    0.022831
   108  C    0.038070
   109  C    0.033581
   110  H    0.144550
   111  H    0.011950
   112  H   -0.015771
   113  H   -0.012692
   114  H   -0.007109
   115  H   -0.003821
   116  H    0.008764
   117  H    0.048831
   118  H    0.012791
   119  H    0.009962
   120  H    0.000757
   121  N   -0.127203
   122  C    0.052264
   123  C    0.125490
   124  O   -0.285421
   125  C    0.282550
   126  O   -0.378346
   127  H    0.130518
   128  H    0.008268
   129  H    0.011305
   130  H   -0.022600
   131  H    0.173484
   132  N   -0.131123
   133  C    0.084592
   134  C    0.079562
   135  O   -0.268328
   136  C    0.037522
   137  H    0.110937
   138  H    0.009981
   139  H    0.024015
   140  H    0.016281
   141  H    0.046012
   142  N   -0.116737
   143  C    0.125518
   144  C    0.021852
   145  O   -0.295854
   146  C    0.026879
   147  H    0.115489
   148  H    0.023905
   149  H    0.021987
   150  H    0.008246
   151  H    0.015392
   152  N   -0.137795
   153  C    0.144846
   154  C    0.085733
   155  O   -0.295244
   156  C   -0.046228
   157  C    0.123346
   158  C    0.183512
   159  O   -0.449183
   160  O   -0.425797
   161  H    0.132100
   162  H   -0.030949
   163  H    0.057275
   164  H    0.025226
   165  H   -0.034816
   166  H   -0.039952
   167  N   -0.157759
   168  C    0.129835
   169  H    0.020678
   170  H    0.037180
   171  H    0.008731
   172  H    0.144177
   173  Ca   1.322666
   174  O   -0.297321
   175  H    0.183517
   176  H    0.187353
 Sum of Mulliken charges =  -0.00000
 Mulliken charges with hydrogens summed into heavy atoms:
               1
     1  C    0.138658
     2  C    0.030551
     3  O   -0.290852
     7  N   -0.003618
     8  C    0.127773
     9  C    0.067153
    10  O   -0.291120
    11  C    0.092924
    12  C    0.170296
    13  O   -0.447368
    14  O   -0.410817
    19  N   -0.000808
    20  C    0.216573
    21  C    0.037157
    22  O   -0.281068
    23  C   -0.019190
    24  C    0.099648
    25  C   -0.003900
    26  C    0.191530
    27  N    0.641341
    41  N    0.013212
    42  C    0.151698
    43  C    0.057757
    44  O   -0.284476
    45  C    0.050233
    46  C    0.111288
    47  O   -0.484818
    48  O   -0.354104
    53  N   -0.009909
    54  C    0.246358
    55  C    0.031159
    56  O   -0.285744
    60  N   -0.009003
    61  C    0.176955
    62  C    0.053364
    63  O   -0.296272
    64  C    0.154792
    65  C    0.003428
    66  N    0.258079
    67  O   -0.362812
    74  N   -0.050118
    75  C    0.342560
    76  C   -0.003530
    77  O   -0.301941
    81  N    0.018491
    82  C    0.106815
    83  C    0.146781
    84  O   -0.351329
    85  C    0.083667
    86  C    0.000776
    87  C   -0.066699
    88  C   -0.020831
    89  C   -0.063509
    90  C   -0.075608
    91  C    0.190091
    92  O   -0.013186
   102  N    0.022721
   103  C    0.161583
   104  C    0.071078
   105  O   -0.285479
   106  C   -0.147911
   107  C    0.003030
   108  C    0.091843
   109  C    0.057090
   121  N    0.003314
   122  C    0.060532
   123  C    0.125490
   124  O   -0.285421
   125  C    0.271256
   126  O   -0.204862
   132  N   -0.020186
   133  C    0.094574
   134  C    0.079562
   135  O   -0.268328
   136  C    0.123830
   142  N   -0.001248
   143  C    0.149423
   144  C    0.021852
   145  O   -0.295854
   146  C    0.072504
   152  N   -0.005695
   153  C    0.113897
   154  C    0.085733
   155  O   -0.295244
   156  C    0.036273
   157  C    0.048578
   158  C    0.183512
   159  O   -0.449183
   160  O   -0.425797
   167  N   -0.013583
   168  C    0.196423
   173  Ca   1.322666
   174  O    0.073549
 DipInt: DoE/N= T F RetVal/Mat= T F Init=T NMatP=  1 IDeriv=0 Min/MaxMlt=  0  4
 Entering OneElI...
 OneElI was handed  1333951383 working-precision words.
 Multipole integrals L=0 to 4 MinM= 0 MaxM= 0.
 Requested accuracy = 0.1000D-12
 ShPair: Thresh= 1.00D-13 NBox=     0 BxSize= 0.00D+00 RnKept= 2.55D+01
         NSMCal=               327645 NSMKep=              162841
 PrmmSu-InSpLW:  IPartL=    0 NPrtUS=    1 NPrtUL=    1 DoSpLW=F IThBeg=    0 IThEnd=    0 NThAct=    1.
 PrsmSu:  NPrtUS=   1 ThrOK=F IAlg=1 NPAlg=1 LenDen=           0 ISkipM=0 DoSpLW=F IThBeg=    0 IThEnd=    0.
 Prism:   IPart=     0 DynPar=F LinDyn=F Incr=         512.
 PRISM was handed  1323785017 working-precision words and162841 shell-pairs
 IPart=  0 NShTot=      162841 NBatch=         372 AvBLen=       437.7
 PrsmSu-ThDecC:  IPartSL=    0    0 NPrtUSL=    1    1 IThBeg=    0 IThEnd=    0 CPU=   -1 GPU=   -1 NThAct=    1.
 PrSmSu:  NxtVal=            513.
 Electronic moments (au):
       -716.00000000         13.60674514         -0.24033372         -8.42165448
     -52571.49836189     -30132.17759264     -11588.98236889        122.67471494
        -56.78904751        -25.02512338     -39640.26660761     -24202.27014589
     -22140.33472242      35204.43066868      87903.93193366      47049.65087379
     -17211.95688912       2720.97597972      21209.92827501       1509.59161549
   -7702245.33097930   -2868175.66534877    -556676.31000873    -215428.90789274
     177197.50339001    -547331.83400215      -3045.12252031     -82133.09770718
      63248.53213827   -2305576.73876980    -606095.09506071    -319545.30824592
    -185551.33666665      25790.58600393      37147.31677151
 Electronic spatial extent (au):  <R**2>=          94292.6583
 DipInt: DoE/N= F T RetVal/Mat= T F Init=T NMatP=  1 IDeriv=0 Min/MaxMlt=  0  4
 Nuclear    moments (au):
        716.00000000         -0.00000000         -0.00000000          0.00000000
      52148.50592838      29751.84720346      11218.61051423         -0.00000000
         -0.00000000         -0.00000000      41288.91512229      24933.90137884
      21905.61526386     -32798.46832479     -87443.11682487     -48090.49494037
      17464.00681369      -2717.21249485     -21929.19375561      -2094.78936647
    7513307.86654121    2769389.25691020     520427.23862204     232078.51908748
    -184361.40338664     565331.66043745      -3071.64928814      81280.45464674
     -63347.20210460    2269863.14656054     573002.58492329     296749.82326394
     183202.97996462     -33260.60219320     -35419.52611822
 Total      moments (au):
         -0.00000000         13.60674514         -0.24033372         -8.42165448
       -422.99243350       -380.33038918       -370.37185466        122.67471494
        -56.78904751        -25.02512338       1648.64851468        731.63123295
       -234.71945856       2405.96234390        460.81510880      -1040.84406658
        252.04992457          3.76348487       -719.26548059       -585.19775098
    -188937.46443809     -98786.40843857     -36249.07138668      16649.61119473
      -7163.89999662      17999.82643530      -6116.77180844       -852.64306044
        -98.66996633     -35713.59220926     -33092.51013741     -22795.48498198
      -2348.35670204      -7470.01618928       1727.79065328
 Traceless Quadrup. (au):
        -31.76087439         10.90116993         20.85970445        122.67471494
        -56.78904751        -25.02512338
 Charge=             -0.0000 electrons
 Dipole moment (field-independent basis, Debye):
    X=             34.5849    Y=             -0.6109    Z=            -21.4057  Tot=             40.6779
 Quadrupole moment (field-independent basis, Debye-Ang):
   XX=           -568.9393   YY=           -511.5574   ZZ=           -498.1628
   XY=            165.0017   XZ=            -76.3832   YZ=            -33.6596
 Traceless Quadrupole moment (field-independent basis, Debye-Ang):
   XX=            -42.7195   YY=             14.6624   ZZ=             28.0570
   XY=            165.0017   XZ=            -76.3832   YZ=            -33.6596
 Octapole moment (field-independent basis, Debye-Ang**2):
  XXX=           1173.4445  YYY=            520.7469  ZZZ=           -167.0643  XYY=           1712.4713
  XXY=            327.9904  XXZ=           -740.8327  XZZ=            179.3994  YZZ=              2.6787
  YYZ=           -511.9455  XYZ=           -416.5212
 Hexadecapole moment (field-independent basis, Debye-Ang**3):
 XXXX=         -71162.9090 YYYY=         -37207.6984 ZZZZ=         -13653.1385 XXXY=           6271.0420
 XXXZ=          -2698.2683 YYYX=           6779.5978 YYYZ=          -2303.8696 ZZZX=           -321.1463
 ZZZY=            -37.1638 XXYY=         -13451.4513 XXZZ=         -12464.2262 YYZZ=          -8585.8727
 XXYZ=           -884.5037 YYXZ=          -2813.5663 ZZXY=            650.7688
 N-N= 2.177609598496D+04 E-N=-5.603386388324D+04  KE= 5.290519042762D+03
 Leave Link  601 at Sun Sep 15 01:07:20 2019, MaxMem=  1342177280 cpu:              57.4 elap:               1.4
 FitSet:  NAtFit=   176 NAtPot=   176 NAtFrz=     0 MDM=   180 TotChg=   0.00000
 Merz-Kollman atomic radii used.
 Read replacement radii for each type of atom:
 Rad(20) =   1.700000000000D+00
 Atom Element Radius
    1     6    1.50
    2     6    1.50
    3     8    1.40
    4     1    1.20
    5     1    1.20
    6     1    1.20
    7     7    1.50
    8     6    1.50
    9     6    1.50
   10     8    1.40
   11     6    1.50
   12     6    1.50
   13     8    1.40
   14     8    1.40
   15     1    1.20
   16     1    1.20
   17     1    1.20
   18     1    1.20
   19     7    1.50
   20     6    1.50
   21     6    1.50
   22     8    1.40
   23     6    1.50
   24     6    1.50
   25     6    1.50
   26     6    1.50
   27     7    1.50
   28     1    1.20
   29     1    1.20
   30     1    1.20
   31     1    1.20
   32     1    1.20
   33     1    1.20
   34     1    1.20
   35     1    1.20
   36     1    1.20
   37     1    1.20
   38     1    1.20
   39     1    1.20
   40     1    1.20
   41     7    1.50
   42     6    1.50
   43     6    1.50
   44     8    1.40
   45     6    1.50
   46     6    1.50
   47     8    1.40
   48     8    1.40
   49     1    1.20
   50     1    1.20
   51     1    1.20
   52     1    1.20
   53     7    1.50
   54     6    1.50
   55     6    1.50
   56     8    1.40
   57     1    1.20
   58     1    1.20
   59     1    1.20
   60     7    1.50
   61     6    1.50
   62     6    1.50
   63     8    1.40
   64     6    1.50
   65     6    1.50
   66     7    1.50
   67     8    1.40
   68     1    1.20
   69     1    1.20
   70     1    1.20
   71     1    1.20
   72     1    1.20
   73     1    1.20
   74     7    1.50
   75     6    1.50
   76     6    1.50
   77     8    1.40
   78     1    1.20
   79     1    1.20
   80     1    1.20
   81     7    1.50
   82     6    1.50
   83     6    1.50
   84     8    1.40
   85     6    1.50
   86     6    1.50
   87     6    1.50
   88     6    1.50
   89     6    1.50
   90     6    1.50
   91     6    1.50
   92     8    1.40
   93     1    1.20
   94     1    1.20
   95     1    1.20
   96     1    1.20
   97     1    1.20
   98     1    1.20
   99     1    1.20
  100     1    1.20
  101     1    1.20
  102     7    1.50
  103     6    1.50
  104     6    1.50
  105     8    1.40
  106     6    1.50
  107     6    1.50
  108     6    1.50
  109     6    1.50
  110     1    1.20
  111     1    1.20
  112     1    1.20
  113     1    1.20
  114     1    1.20
  115     1    1.20
  116     1    1.20
  117     1    1.20
  118     1    1.20
  119     1    1.20
  120     1    1.20
  121     7    1.50
  122     6    1.50
  123     6    1.50
  124     8    1.40
  125     6    1.50
  126     8    1.40
  127     1    1.20
  128     1    1.20
  129     1    1.20
  130     1    1.20
  131     1    1.20
  132     7    1.50
  133     6    1.50
  134     6    1.50
  135     8    1.40
  136     6    1.50
  137     1    1.20
  138     1    1.20
  139     1    1.20
  140     1    1.20
  141     1    1.20
  142     7    1.50
  143     6    1.50
  144     6    1.50
  145     8    1.40
  146     6    1.50
  147     1    1.20
  148     1    1.20
  149     1    1.20
  150     1    1.20
  151     1    1.20
  152     7    1.50
  153     6    1.50
  154     6    1.50
  155     8    1.40
  156     6    1.50
  157     6    1.50
  158     6    1.50
  159     8    1.40
  160     8    1.40
  161     1    1.20
  162     1    1.20
  163     1    1.20
  164     1    1.20
  165     1    1.20
  166     1    1.20
  167     7    1.50
  168     6    1.50
  169     1    1.20
  170     1    1.20
[...]
 **** Fit      -0.006604
 **** Fit      -0.006170
 **** Fit      -0.006494
 **** Fit      -0.008517
 **** Fit      -0.007121
 **** Fit      -0.005920
 **** Fit      -0.005275
 **** Fit      -0.005229
 **** Fit      -0.005668
 **** Fit      -0.006303
 **** Fit      -0.007362
 **** Fit      -0.009344
 **** Fit      -0.007794
 **** Fit      -0.006293
 **** Fit      -0.004261
 **** Fit      -0.004413
 **** Fit      -0.004814
 **** Fit      -0.005444
 **** Fit      -0.006208
 **** Fit      -0.007308
 **** Fit      -0.009447
 **** Fit      -0.003672
 **** Fit      -0.004078
 **** Fit      -0.004610
 **** Fit      -0.005309
 **** Fit      -0.006177
 **** Fit      -0.007267
 **** Fit      -0.008541
 **** Fit      -0.010628
 **** Fit      -0.003131
 **** Fit      -0.003562
 **** Fit      -0.004031
 **** Fit      -0.004586
 **** Fit      -0.005288
 **** Fit      -0.006176
 **** Fit      -0.007333
 **** Fit      -0.008713
 **** Fit      -0.010310
 **** Fit      -0.012249
 **** Fit      -0.002584
 **** Fit      -0.003080
 **** Fit      -0.003536
 **** Fit      -0.003999
 **** Fit      -0.004545
 **** Fit      -0.005253
 **** Fit      -0.008866
 **** Fit      -0.010585
 **** Fit      -0.012588
 **** Fit      -0.014714
 **** Fit      -0.002750
 **** Fit      -0.003232
 **** Fit      -0.003640
 **** Fit      -0.010972
 **** Fit      -0.013164
 **** Fit      -0.002479
 **** Fit      -0.003062
 **** Fit      -0.003493
 **** Fit      -0.013706
 **** Fit      -0.016476
 **** Fit      -0.019934
 **** Fit      -0.003090
 **** Fit      -0.003625
 **** Fit      -0.017502
 **** Fit      -0.021154
 **** Fit      -0.025947
 **** Fit      -0.003192
 **** Fit      -0.003975
 **** Fit      -0.019442
 **** Fit      -0.023527
 **** Fit      -0.028990
 **** Fit      -0.004229
 **** Fit      -0.005224
 **** Fit      -0.021794
 **** Fit      -0.026171
 **** Fit      -0.004327
 **** Fit      -0.006037
 **** Fit      -0.024784
 **** Fit      -0.029300
 **** Fit      -0.004141
 **** Fit      -0.006789
 **** Fit      -0.009172
 **** Fit      -0.029659
 **** Fit      -0.034655
 **** Fit      -0.005675
 **** Fit      -0.006769
 **** Fit      -0.003935
 **** Fit      -0.004318
 **** Fit      -0.004875
 **** Fit      -0.005652
 **** Fit      -0.006715
 **** Fit      -0.008114
 **** Fit      -0.009875
 **** Fit      -0.003727
 **** Fit      -0.003987
 **** Fit      -0.004347
 **** Fit      -0.004881
 **** Fit      -0.005801
 **** Fit      -0.006804
 **** Fit      -0.008135
 **** Fit      -0.009844
 **** Fit      -0.011982
 **** Fit      -0.003825
 **** Fit      -0.004013
 **** Fit      -0.004241
 **** Fit      -0.004575
 **** Fit      -0.005076
 **** Fit      -0.006221
 **** Fit      -0.007215
 **** Fit      -0.008559
 **** Fit      -0.010315
 **** Fit      -0.012561
 **** Fit      -0.004233
 **** Fit      -0.004417
 **** Fit      -0.004565
 **** Fit      -0.004753
 **** Fit      -0.005049
 **** Fit      -0.005518
 **** Fit      -0.007020
 **** Fit      -0.007981
 **** Fit      -0.009305
 **** Fit      -0.011057
 **** Fit      -0.013317
 **** Fit      -0.016204
 **** Fit      -0.005130
 **** Fit      -0.005377
 **** Fit      -0.005503
 **** Fit      -0.005589
 **** Fit      -0.005713
 **** Fit      -0.005948
 **** Fit      -0.006362
 **** Fit      -0.008330
 **** Fit      -0.009264
 **** Fit      -0.010599
 **** Fit      -0.012401
 **** Fit      -0.014747
 **** Fit      -0.017746
 **** Fit      -0.007104
 **** Fit      -0.007286
 **** Fit      -0.007310
 **** Fit      -0.007277
 **** Fit      -0.007280
 **** Fit      -0.007406
 **** Fit      -0.007732
 **** Fit      -0.010320
 **** Fit      -0.011253
 **** Fit      -0.012691
 **** Fit      -0.014710
 **** Fit      -0.017386
 **** Fit      -0.020815
 **** Fit      -0.010382
 **** Fit      -0.010470
 **** Fit      -0.010289
 **** Fit      -0.010003
 **** Fit      -0.009752
 **** Fit      -0.009655
 **** Fit      -0.009815
 **** Fit      -0.013221
 **** Fit      -0.014122
 **** Fit      -0.015715
 **** Fit      -0.018087
 **** Fit      -0.021304
 **** Fit      -0.025403
 **** Fit      -0.014458
 **** Fit      -0.013659
 **** Fit      -0.013100
 **** Fit      -0.012916
 **** Fit      -0.017364
 **** Fit      -0.018096
 **** Fit      -0.019795
 **** Fit      -0.022547
 **** Fit      -0.026371
 **** Fit      -0.031144
 **** Fit      -0.017487
 **** Fit      -0.023585
 **** Fit      -0.025493
 **** Fit      -0.029005
 **** Fit      -0.009790
 **** Fit      -0.009191
 **** Fit      -0.010854
 **** Fit      -0.011650
 **** Fit      -0.010555
 **** Fit      -0.008973
 **** Fit      -0.008356
 **** Fit      -0.008779
 **** Fit      -0.010374
 **** Fit      -0.012216
 **** Fit      -0.013736
 **** Fit      -0.014142
 **** Fit      -0.013154
 **** Fit      -0.011462
 **** Fit      -0.009775
 **** Fit      -0.008348
 **** Fit      -0.007680
 **** Fit      -0.008566
 **** Fit      -0.010056
 **** Fit      -0.011876
 **** Fit      -0.013929
 **** Fit      -0.015919
 **** Fit      -0.017325
 **** Fit      -0.017570
 **** Fit      -0.016431
 **** Fit      -0.014439
 **** Fit      -0.012487
 **** Fit      -0.010803
 **** Fit      -0.008560
 **** Fit      -0.010050
 **** Fit      -0.011860
 **** Fit      -0.014024
 **** Fit      -0.016485
 **** Fit      -0.019018
 **** Fit      -0.021185
 **** Fit      -0.022395
 **** Fit      -0.022100
 **** Fit      -0.010318
 **** Fit      -0.012186
 **** Fit      -0.014453
 **** Fit      -0.017175
 **** Fit      -0.020306
 **** Fit      -0.023622
 **** Fit      -0.026663
 **** Fit      -0.028775
 **** Fit      -0.029258
 **** Fit      -0.012719
 **** Fit      -0.015038
 **** Fit      -0.017877
 **** Fit      -0.021316
 **** Fit      -0.025329
 **** Fit      -0.029696
 **** Fit      -0.016345
 **** Fit      -0.019557
 **** Fit      -0.023580
 **** Fit      -0.028531
 **** Fit      -0.021481
 **** Fit      -0.026033
 **** Fit      -0.029520
 **** Fit      -0.005793
 **** Fit      -0.004524
 **** Fit      -0.004259
 **** Fit      -0.006236
 **** Fit      -0.004714
 **** Fit      -0.003647
 **** Fit      -0.003198
 **** Fit      -0.003322
 **** Fit      -0.006736
 **** Fit      -0.005014
 **** Fit      -0.003671
 **** Fit      -0.002789
 **** Fit      -0.002341
 **** Fit      -0.002285
 **** Fit      -0.002559
 **** Fit      -0.003065
 **** Fit      -0.008466
 **** Fit      -0.006258
 **** Fit      -0.004412
 **** Fit      -0.003086
 **** Fit      -0.002202
 **** Fit      -0.001668
 **** Fit      -0.001453
 **** Fit      -0.001539
 **** Fit      -0.001881
 **** Fit      -0.002401
 **** Fit      -0.009597
 **** Fit      -0.004434
 **** Fit      -0.002933
 **** Fit      -0.001949
 **** Fit      -0.001279
 **** Fit      -0.000869
 **** Fit      -0.000729
 **** Fit      -0.000866
 **** Fit      -0.001249
 **** Fit      -0.001811
 **** Fit      -0.001817
 **** Fit      -0.001095
 **** Fit      -0.000544
 **** Fit      -0.000200
 **** Fit      -0.000109
 **** Fit      -0.000291
 **** Fit      -0.000723
 **** Fit      -0.001344
 **** Fit      -0.002060
 **** Fit      -0.000991
 **** Fit      -0.000305
 **** Fit       0.000193
 **** Fit       0.000423
 **** Fit       0.000339
 **** Fit      -0.000061
 **** Fit      -0.000725
 **** Fit      -0.001562
 **** Fit      -0.000345
 **** Fit       0.000389
 **** Fit       0.000818
 **** Fit       0.000880
 **** Fit       0.000555
 **** Fit      -0.000125
 **** Fit      -0.001076
 **** Fit      -0.002165
 **** Fit      -0.001168
 **** Fit       0.000046
 **** Fit       0.000888
 **** Fit       0.001293
 **** Fit       0.001210
 **** Fit       0.000634
 **** Fit      -0.000374
 **** Fit      -0.001688
 **** Fit      -0.000390
 **** Fit       0.000896
 **** Fit       0.001590
 **** Fit       0.001599
 **** Fit       0.000893
 **** Fit      -0.000457
 **** Fit      -0.002276
 **** Fit       0.000031
 **** Fit       0.001446
 **** Fit       0.001920
 **** Fit       0.001310
 **** Fit      -0.000358
 **** Fit      -0.002866
 **** Fit       0.000339
 **** Fit       0.001703
 **** Fit       0.001507
 **** Fit      -0.000389
 **** Fit       0.030566
 **** Fit       0.036016
 **** Fit       0.033950
 **** Fit       0.041511
 **** Fit       0.039544
 **** Fit       0.049417
 **** Fit       0.046500
 **** Fit       0.044114
 **** Fit       0.052862
 **** Fit       0.049283
 **** Fit       0.046350
 **** Fit       0.043628
 **** Fit       0.054500
 **** Fit       0.050645
 **** Fit       0.054515
 **** Fit       0.011531
 **** Fit       0.056579
 **** Fit       0.035997
 **** Fit       0.044544
 **** Fit       0.050457
 **** Fit       0.020848
 **** Fit       0.014352
 **** Fit       0.005342
 **** Fit       0.030332
 **** Fit       0.026428
 **** Fit       0.020850
 **** Fit       0.013337
 **** Fit       0.003653
 **** Fit       0.042945
 **** Fit       0.034734
 **** Fit       0.030918
 **** Fit       0.025803
 **** Fit       0.019250
 **** Fit       0.011209
 **** Fit       0.049247
 **** Fit       0.044805
 **** Fit       0.041900
 **** Fit       0.038283
 **** Fit       0.034391
 **** Fit       0.029537
 **** Fit       0.023675
 **** Fit       0.016860
 **** Fit       0.054128
 **** Fit       0.050621
 **** Fit       0.046836
 **** Fit       0.043684
 **** Fit       0.041680
 **** Fit       0.041013
 **** Fit       0.041305
 **** Fit       0.037495
 **** Fit       0.033072
 **** Fit       0.028056
 **** Fit       0.048251
 **** Fit       0.049630
 **** Fit       0.049097
 **** Fit       0.047258
 **** Fit       0.044935
 **** Fit       0.042892
 **** Fit       0.041637
 **** Fit       0.041390
 **** Fit       0.042083
 **** Fit       0.043163
 **** Fit       0.039352
 **** Fit       0.035226
 **** Fit       0.045548
 **** Fit       0.045583
 **** Fit       0.044622
 **** Fit       0.043298
 **** Fit       0.042229
 **** Fit       0.041853
 **** Fit       0.042354
 **** Fit       0.044292
 **** Fit       0.040693
 **** Fit       0.043709
 **** Fit       0.043076
 **** Fit       0.042569
 **** Fit       0.042638
 **** Fit       0.043525
 **** Fit       0.043526
 **** Fit       0.043385
 **** Fit       0.043749
 **** Fit       0.044888
 **** Fit       0.044880
 **** Fit       0.045891
 **** Fit       0.046650
 **** Fit       0.048012
 **** Fit       0.037313
 **** Fit       0.038051
 **** Fit       0.040387
 **** Fit       0.041067
 **** Fit       0.040231
 **** Fit       0.037093
 **** Fit       0.041006
 **** Fit       0.043163
 **** Fit       0.043838
 **** Fit       0.043139
 **** Fit       0.041105
 **** Fit       0.040597
 **** Fit       0.043592
 **** Fit       0.045302
 **** Fit       0.045777
 **** Fit       0.045079
 **** Fit       0.043345
 **** Fit       0.042632
 **** Fit       0.042375
 **** Fit       0.036439
 **** Fit       0.043463
 **** Fit       0.045572
 **** Fit       0.046799
 **** Fit       0.047081
 **** Fit       0.046482
 **** Fit       0.045238
 **** Fit       0.043674
 **** Fit       0.043340
 **** Fit       0.042908
 **** Fit       0.041974
 **** Fit       0.040308
 **** Fit       0.038185
 **** Fit       0.036535
 **** Fit       0.036417
 **** Fit       0.038070
 **** Fit       0.040747
 **** Fit       0.045574
 **** Fit       0.047058
 **** Fit       0.047868
 **** Fit       0.047933
 **** Fit       0.047418
 **** Fit       0.046796
 **** Fit       0.044883
 **** Fit       0.044408
 **** Fit       0.044009
 **** Fit       0.043388
 **** Fit       0.042467
 **** Fit       0.041568
 **** Fit       0.041312
 **** Fit       0.042105
 **** Fit       0.043732
 **** Fit       0.047019
 **** Fit       0.048042
 **** Fit       0.048574
 **** Fit       0.048625
 **** Fit       0.048540
 **** Fit       0.046308
 **** Fit       0.045624
 **** Fit       0.045219
 **** Fit       0.044840
 **** Fit       0.044460
 **** Fit       0.044330
 **** Fit       0.044764
 **** Fit       0.045778
 **** Fit       0.047967
 **** Fit       0.048723
 **** Fit       0.049155
 **** Fit       0.049473
 **** Fit       0.047167
 **** Fit       0.046549
 **** Fit       0.046252
 **** Fit       0.046166
 **** Fit       0.046411
 **** Fit       0.047076
 **** Fit       0.048604
 **** Fit       0.049295
 **** Fit       0.049943
 **** Fit       0.049661
 **** Fit       0.048208
 **** Fit       0.047569
 **** Fit       0.047495
 **** Fit       0.047890
 **** Fit       0.049117
 **** Fit       0.050000
 **** Fit       0.050966
 **** Fit       0.050518
 **** Fit       0.049073
 **** Fit       0.048606
 **** Fit       0.049691
 **** Fit       0.006633
 **** Fit       0.020442
 **** Fit       0.013097
 **** Fit       0.005158
 **** Fit       0.013012
 **** Fit       0.026690
 **** Fit       0.037146
 **** Fit       0.044300
 **** Fit       0.029771
 **** Fit       0.023447
 **** Fit       0.016613
 **** Fit       0.009336
 **** Fit       0.001711
 **** Fit       0.003987
 **** Fit       0.015899
 **** Fit       0.026571
 **** Fit       0.035005
 **** Fit       0.040880
 **** Fit       0.044260
 **** Fit       0.042228
 **** Fit       0.036926
 **** Fit       0.031433
 **** Fit       0.025606
 **** Fit       0.019472
 **** Fit       0.013185
 **** Fit       0.007081
 **** Fit       0.001888
 **** Fit      -0.001130
 **** Fit      -0.000626
 **** Fit       0.003803
 **** Fit       0.011138
 **** Fit       0.019609
 **** Fit       0.027640
 **** Fit       0.034251
 **** Fit       0.039035
 **** Fit       0.042020
 **** Fit       0.043608
 **** Fit       0.046332
 **** Fit       0.041223
 **** Fit       0.036049
 **** Fit       0.030671
 **** Fit       0.025134
 **** Fit       0.019681
 **** Fit       0.014808
 **** Fit       0.011345
 **** Fit       0.010314
 **** Fit       0.012343
 **** Fit       0.017071
 **** Fit       0.023272
 **** Fit       0.029552
 **** Fit       0.034907
 **** Fit       0.038889
 **** Fit       0.041572
 **** Fit       0.043448
 **** Fit       0.049079
 **** Fit       0.044467
 **** Fit       0.039708
 **** Fit       0.034809
 **** Fit       0.029882
 **** Fit       0.025258
 **** Fit       0.021530
 **** Fit       0.019493
 **** Fit       0.019823
 **** Fit       0.022558
 **** Fit       0.026923
 **** Fit       0.031753
 **** Fit       0.036092
 **** Fit       0.039510
 **** Fit       0.042131
 **** Fit       0.044468
 **** Fit       0.049922
 **** Fit       0.046257
 **** Fit       0.041957
 **** Fit       0.037397
 **** Fit       0.032930
 **** Fit       0.029129
 **** Fit       0.026792
 **** Fit       0.026629
 **** Fit       0.028707
 **** Fit       0.032240
 **** Fit       0.036104
 **** Fit       0.039542
 **** Fit       0.042464
 **** Fit       0.045238
 **** Fit       0.048168
 **** Fit       0.046697
 **** Fit       0.043154
 **** Fit       0.038793
 **** Fit       0.034749
 **** Fit       0.032330
 **** Fit       0.032543
 **** Fit       0.035102
 **** Fit       0.038611
 **** Fit       0.042004
 **** Fit       0.045078
 **** Fit       0.047542
 **** Fit       0.048336
 **** Fit       0.043671
 **** Fit       0.039900
 **** Fit       0.036892
 **** Fit       0.037935
 **** Fit       0.041459
 **** Fit       0.044237
 **** Fit       0.040773
 -----------------------------------------------------------------
 Leave Link  602 at Sun Sep 15 01:07:23 2019, MaxMem=  1342177280 cpu:             117.1 elap:               2.5

 Test job not archived.
 1\1\GINC-C506-121\SP\RB3LYP\SVP\C54H83Ca1N15O23\PENGZHI\15-Sep-2019\0\
 \#b3lyp/svp scf=(tight,noincore) Test #IOP(5/87=12) Density=Current Po
 p=(MK,readradii) iop(6/33=2) iop(6/42=6)\\CaMKII_loop3_87.0\\0,1\C,0,7
 7.33,53.45,31.15\C,0,76.55,52.93,32.35\O,0,77.09,51.96,32.88\H,0,78.32
 3,53.001,31.141\H,0,76.804,53.187,30.232\H,0,77.423,54.534,31.218\N,0,
 75.31,53.32,32.64\C,0,74.37,52.69,33.56\C,0,73.71,51.5,32.9\O,0,73.01,
 51.5,31.89\C,0,73.32,53.67,34.08\C,0,72.27,53.12,35.03\O,0,72.33,51.96
 ,35.48\O,0,71.34,53.92,35.26\H,0,74.88,54.02,32.06\H,0,75.,52.38,34.39
 \H,0,72.74,54.06,33.25\H,0,73.82,54.48,34.62\N,0,74.04,50.31,33.4\C,0,
 73.69,49.07,32.73\C,0,72.21,48.73,32.84\O,0,71.72,48.28,31.81\C,0,74.6
 ,47.98,33.29\C,0,74.38,46.61,32.64\C,0,75.38,45.62,33.23\C,0,75.35,44.
 3,32.47\N,0,76.19,43.29,33.12\H,0,74.65,50.34,34.21\H,0,73.94,49.18,31
 .68\H,0,74.42,47.84,34.35\H,0,75.66,48.22,33.28\H,0,74.56,46.65,31.57\
 H,0,73.36,46.31,32.88\H,0,75.13,45.47,34.28\H,0,76.4,46.01,33.22\H,0,7
 5.73,44.44,31.45\H,0,74.41,43.75,32.44\H,0,76.1,42.38,32.69\H,0,77.18,
 43.5,33.13\H,0,75.85,43.19,34.07\N,0,71.57,48.94,34.\C,0,70.19,48.58,3
 4.24\C,0,69.21,49.73,34.11\O,0,68.,49.53,33.98\C,0,70.01,47.86,35.58\C
 ,0,70.51,48.56,36.83\O,0,71.68,49.,36.97\O,0,69.62,48.74,37.68\H,0,72.
 16,49.29,34.74\H,0,69.76,47.88,33.52\H,0,70.53,46.91,35.51\H,0,69.01,4
 7.43,35.7\N,0,69.68,50.98,34.01\C,0,68.8,52.12,33.9\C,0,68.25,52.71,35
 .2\O,0,67.09,53.1,35.19\H,0,70.67,51.13,33.91\H,0,67.9,51.84,33.36\H,0
 ,69.19,52.87,33.22\N,0,69.04,52.81,36.27\C,0,68.64,53.21,37.61\C,0,68.
 87,54.68,37.93\O,0,68.26,55.2,38.87\C,0,69.25,52.24,38.61\C,0,70.55,52
 .77,39.2\N,0,70.6,52.93,40.52\O,0,71.56,52.77,38.5\H,0,70.02,52.63,36.
 11\H,0,67.57,53.06,37.74\H,0,69.44,51.21,38.3\H,0,68.58,52.05,39.45\H,
 0,69.79,52.73,41.09\H,0,71.52,52.88,40.94\N,0,69.79,55.28,37.18\C,0,70
 .24,56.66,37.23\C,0,71.7,56.75,37.64\O,0,72.23,57.84,37.87\H,0,70.2,54
 .78,36.4\H,0,69.76,57.19,38.06\H,0,69.97,57.08,36.27\N,0,72.43,55.65,3
 7.81\C,0,73.74,55.49,38.41\C,0,74.65,54.48,37.72\O,0,74.31,53.34,37.4\
 C,0,73.76,55.2,39.91\C,0,73.04,56.25,40.73\C,0,73.89,57.12,41.43\C,0,7
 1.66,56.37,40.89\C,0,73.4,58.09,42.31\C,0,71.14,57.39,41.7\C,0,72.,58.
 22,42.45\O,0,71.38,59.09,43.28\H,0,71.93,54.79,37.68\H,0,74.26,56.44,3
 8.33\H,0,74.8,55.06,40.2\H,0,73.22,54.25,40.\H,0,74.96,57.,41.35\H,0,7
 1.04,55.66,40.35\H,0,74.13,58.63,42.9\H,0,70.07,57.53,41.76\H,0,70.43,
 58.96,43.28\N,0,75.93,54.85,37.66\C,0,76.97,53.96,37.17\C,0,77.84,53.5
 1,38.33\O,0,78.41,54.34,39.04\C,0,77.79,54.68,36.11\C,0,77.1,55.64,35.
 15\C,0,78.75,53.73,35.4\C,0,78.11,56.67,34.64\H,0,76.21,55.81,37.83\H,
 0,76.6,53.05,36.69\H,0,78.47,55.28,36.72\H,0,76.23,56.18,35.56\H,0,76.
 63,55.11,34.33\H,0,79.34,54.21,34.62\H,0,79.49,53.34,36.1\H,0,78.16,52
 .95,34.93\H,0,78.08,57.55,35.29\H,0,79.1,56.22,34.6\H,0,77.83,56.97,33
 .64\N,0,77.97,52.19,38.49\C,0,78.96,51.51,39.29\C,0,80.1,50.89,38.49\O
 ,0,80.05,50.69,37.28\C,0,78.29,50.49,40.22\O,0,78.04,49.37,39.41\H,0,7
 7.32,51.57,38.03\H,0,79.4,52.25,39.96\H,0,77.33,50.78,40.65\H,0,79.04,
 50.25,40.97\H,0,77.28,49.47,38.82\N,0,81.23,50.58,39.13\C,0,82.45,50.2
 4,38.43\C,0,82.33,49.09,37.43\O,0,82.79,49.22,36.3\C,0,83.56,50.09,39.
 46\H,0,81.3,50.71,40.13\H,0,82.65,51.16,37.9\H,0,83.63,50.97,40.11\H,0
 ,83.39,49.26,40.16\H,0,84.44,50.1,38.83\N,0,81.75,47.96,37.84\C,0,81.5
 1,46.83,36.97\C,0,80.65,47.21,35.77\O,0,80.76,46.57,34.72\C,0,80.72,45
 .77,37.74\H,0,81.4,47.95,38.79\H,0,82.37,46.31,36.54\H,0,81.36,45.49,3
 8.58\H,0,79.76,46.08,38.14\H,0,80.43,44.97,37.06\N,0,79.84,48.26,35.85
 \C,0,79.07,48.75,34.73\C,0,79.91,49.52,33.71\O,0,79.58,49.39,32.53\C,0
 ,77.83,49.52,35.16\C,0,76.9,48.81,36.14\C,0,75.87,49.76,36.73\O,0,75.9
 8,50.19,37.9\O,0,74.86,50.08,36.06\H,0,79.66,48.66,36.76\H,0,78.78,47.
 85,34.18\H,0,77.2,49.67,34.28\H,0,78.12,50.48,35.6\H,0,77.51,48.42,36.
 96\H,0,76.4,48.07,35.53\N,0,81.,50.15,34.14\C,0,81.91,50.82,33.23\H,0,
 82.863,50.291,33.215\H,0,81.483,50.827,32.227\H,0,82.07,51.845,33.564\
 H,0,81.22,50.17,35.13\Ca,0,73.24,50.87,37.79\O,0,73.93,48.84,39.25\H,0
 ,74.67,48.41,39.68\H,0,73.16,48.37,39.58\\Version=ES64L-G16RevA.03\Sta
 te=1-A\HF=-5333.5813604\RMSD=5.653e-09\Dipole=9.9639015,-11.916375,3.8
 530781\Quadrupole=-137.7093689,133.824987,3.8843819,-22.6199602,-9.609
 6669,25.1723091\PG=C01 [X(C54H83Ca1N15O23)]\\@


 This summer one third of the nation will be ill-housed
 ill-nourished and ill-clad. Only they call it a vacation.
 -- Jonas Salk
 Job cpu time:       0 days 10 hours 20 minutes  9.8 seconds.
 Elapsed time:       0 days  0 hours 13 minutes  3.6 seconds.
 File lengths (MBytes):  RWF=   1517 Int=      0 D2E=      0 Chk=    171 Scr=      1
 Normal termination of Gaussian 16 at Sun Sep 15 01:07:24 2019.
