 Entering Gaussian System, Link 0=g16
 Initial command:
 /home1/apps/gaussian/16rA.03/g16/l1.exe "/scratch/01990/pengzhi/4328839/Gau-369515.inp" -scrdir="/scratch/01990/pengzhi/4328839/"
 Entering Link 1 = /home1/apps/gaussian/16rA.03/g16/l1.exe PID=    369516.
  
 Copyright (c) 1988,1990,1992,1993,1995,1998,2003,2009,2016,
            Gaussian, Inc.  All Rights Reserved.
  
 This is part of the Gaussian(R) 16 program.  It is based on
 the Gaussian(R) 09 system (copyright 2009, Gaussian, Inc.),
 the Gaussian(R) 03 system (copyright 2003, Gaussian, Inc.),
 the Gaussian(R) 98 system (copyright 1998, Gaussian, Inc.),
 the Gaussian(R) 94 system (copyright 1995, Gaussian, Inc.),
 the Gaussian 92(TM) system (copyright 1992, Gaussian, Inc.),
 the Gaussian 90(TM) system (copyright 1990, Gaussian, Inc.),
 the Gaussian 88(TM) system (copyright 1988, Gaussian, Inc.),
 the Gaussian 86(TM) system (copyright 1986, Carnegie Mellon
 University), and the Gaussian 82(TM) system (copyright 1983,
 Carnegie Mellon University). Gaussian is a federally registered
 trademark of Gaussian, Inc.
  
 This software contains proprietary and confidential information,
 including trade secrets, belonging to Gaussian, Inc.
  
 This software is provided under written license and may be
 used, copied, transmitted, or stored only in accord with that
 written license.
  
 The following legend is applicable only to US Government
 contracts under FAR:
  
                    RESTRICTED RIGHTS LEGEND
  
 Use, reproduction and disclosure by the US Government is
 subject to restrictions as set forth in subparagraphs (a)
 and (c) of the Commercial Computer Software - Restricted
 Rights clause in FAR 52.227-19.
  
 Gaussian, Inc.
 340 Quinnipiac St., Bldg. 40, Wallingford CT 06492
  
  
 ---------------------------------------------------------------
 Warning -- This program may not be used in any manner that
 competes with the business of Gaussian, Inc. or will provide
 assistance to any competitor of Gaussian, Inc.  The licensee
 of this program is prohibited from giving any competitor of
 Gaussian, Inc. access to this program.  By using this program,
 the user acknowledges that Gaussian, Inc. is engaged in the
 business of creating and licensing software in the field of
 computational chemistry and represents and warrants to the
 licensee that it is not a competitor of Gaussian, Inc. and that
 it will not use this program in any manner prohibited above.
 ---------------------------------------------------------------
  

 Cite this work as:
 Gaussian 16, Revision A.03,
 M. J. Frisch, G. W. Trucks, H. B. Schlegel, G. E. Scuseria, 
 M. A. Robb, J. R. Cheeseman, G. Scalmani, V. Barone, 
 G. A. Petersson, H. Nakatsuji, X. Li, M. Caricato, A. V. Marenich, 
 J. Bloino, B. G. Janesko, R. Gomperts, B. Mennucci, H. P. Hratchian, 
 J. V. Ortiz, A. F. Izmaylov, J. L. Sonnenberg, D. Williams-Young, 
 F. Ding, F. Lipparini, F. Egidi, J. Goings, B. Peng, A. Petrone, 
 T. Henderson, D. Ranasinghe, V. G. Zakrzewski, J. Gao, N. Rega, 
 G. Zheng, W. Liang, M. Hada, M. Ehara, K. Toyota, R. Fukuda, 
 J. Hasegawa, M. Ishida, T. Nakajima, Y. Honda, O. Kitao, H. Nakai, 
 T. Vreven, K. Throssell, J. A. Montgomery, Jr., J. E. Peralta, 
 F. Ogliaro, M. J. Bearpark, J. J. Heyd, E. N. Brothers, K. N. Kudin, 
 V. N. Staroverov, T. A. Keith, R. Kobayashi, J. Normand, 
 K. Raghavachari, A. P. Rendell, J. C. Burant, S. S. Iyengar, 
 J. Tomasi, M. Cossi, J. M. Millam, M. Klene, C. Adamo, R. Cammi, 
 J. W. Ochterski, R. L. Martin, K. Morokuma, O. Farkas, 
 J. B. Foresman, and D. J. Fox, Gaussian, Inc., Wallingford CT, 2016.
 
 ******************************************
 Gaussian 16:  ES64L-G16RevA.03 25-Dec-2016
                14-Sep-2019 
 ******************************************
 %chk=CaMKII_loop3_100.0.chk
 %nprocshared=48
 Will use up to   48 processors via shared memory.
 %mem=10GB
 %nosave
 ----------------------------------------------------------------------
 #b3lyp/svp scf=(tight,noincore) Test #IOP(5/87=12) Density=Current Pop
 =(MK,readradii) iop(6/33=2) iop(6/42=6)
 ----------------------------------------------------------------------
 1/30=1,38=1,172=1/1;
 2/12=2,17=6,18=5,40=1/2;
 3/5=18,7=101,11=2,25=1,30=1,74=-5/1,2,3;
 4//1;
 5/5=4,32=2,38=5,87=12/2;
 6/7=2,8=2,9=2,10=2,15=8,20=101,22=-1,28=1,33=2,42=6/1,2;
 99/5=1,9=1/99;
 ------------------
 CaMKII_loop3_100.0
 ------------------
 Symbolic Z-matrix:
 Charge =  0 Multiplicity = 1
 C                     82.16     42.03     25.39 
 C                     82.26     40.7      26.12 
 O                     82.96     39.82     25.62 
 H                     81.49     42.694    25.936 
 H                     83.148    42.485    25.326 
 H                     81.769    41.866    24.386 
 N                     81.65     40.58     27.3 
 C                     81.35     39.33     27.97 
 C                     79.92     38.84     27.75 
 O                     78.98     39.21     28.44 
 C                     81.77     39.53     29.42 
 C                     81.31     38.35     30.26 
 O                     81.46     37.15     29.94 
 O                     80.94     38.66     31.42 
 H                     81.09     41.35     27.64 
 H                     81.88     38.49     27.52 
 H                     81.33     40.45     29.79 
 H                     82.85     39.61     29.55 
 N                     79.82     38.21     26.57 
 C                     78.58     37.72     26. 
 C                     78.14     36.4      26.61 
 O                     76.93     36.17     26.72 
 C                     78.75     37.42     24.51 
 C                     79.2      38.52     23.56 
 C                     79.43     37.97     22.15 
 C                     79.58     39.09     21.12 
 N                     80.87     39.77     21.31 
 H                     80.69     37.96     26.12 
 H                     77.82     38.5      26.05 
 H                     77.76     37.06     24.21 
 H                     79.4      36.57     24.28 
 H                     80.15     38.97     23.82 
 H                     78.44     39.3      23.58 
 H                     78.52     37.39     21.97 
 H                     80.28     37.29     22.12 
 H                     78.74     39.78     21.13 
 H                     79.61     38.64     20.13 
 H                     81.22     40.11     20.42 
 H                     80.76     40.57     21.92 
 H                     81.64     39.15     21.49 
 N                     79.03     35.51     27.03 
 C                     78.68     34.39     27.87 
 C                     78.34     34.8      29.3 
 O                     77.61     34.06     29.96 
 C                     79.8      33.36     27.79 
 C                     81.09     34.06     28.18 
 O                     81.57     33.94     29.33 
 O                     81.67     34.87     27.43 
 H                     80.01     35.79     27. 
 H                     77.84     33.88     27.4 
 H                     79.82     32.98     26.77 
 H                     79.66     32.52     28.48 
 N                     78.79     35.96     29.77 
 C                     78.24     36.67     30.91 
 C                     78.74     36.21     32.27 
 O                     77.99     36.34     33.23 
 H                     79.45     36.51     29.24 
 H                     77.15     36.56     30.97 
 H                     78.52     37.71     30.73 
 N                     79.98     35.73     32.34 
 C                     80.67     35.11     33.45 
 C                     81.4      36.14     34.3 
 O                     81.68     35.94     35.49 
 C                     81.67     34.08     32.94 
 C                     83.03     34.68     32.62 
 N                     84.08     34.14     33.24 
 O                     83.18     35.51     31.73 
 H                     80.57     35.84     31.52 
 H                     79.89     34.58     34.01 
 H                     81.38     33.5      32.07 
 H                     81.85     33.4      33.78 
 H                     83.94     33.56     34.06 
 H                     84.97     34.49     32.9 
 N                     81.54     37.32     33.71 
 C                     82.06     38.49     34.41 
 C                     83.41     39.05     33.99 
 O                     83.91     40.08     34.43 
 H                     81.23     37.42     32.75 
 H                     82.09     38.24     35.47 
 H                     81.24     39.18     34.22 
 N                     84.02     38.33     33.04 
 C                     85.38     38.52     32.58 
 C                     85.47     38.6      31.06 
 O                     84.7      37.92     30.4 
 C                     86.32     37.5      33.2 
 C                     86.25     37.64     34.71 
 C                     87.05     38.55     35.41 
 C                     85.4      36.75     35.36 
 C                     87.05     38.47     36.81 
 C                     85.37     36.74     36.76 
 C                     86.23     37.56     37.52 
 O                     86.45     37.35     38.85 
 H                     83.58     37.46     32.77 
 H                     85.6      39.56     32.82 
 H                     87.38     37.54     32.94 
 H                     85.93     36.5      33.01 
 H                     87.61     39.31     34.89 
 H                     84.76     36.05     34.84 
 H                     87.72     39.12     37.35 
 H                     84.65     36.09     37.24 
 H                     85.98     36.61     39.25 
 N                     86.3      39.51     30.54 
 C                     86.54     39.66     29.12 
 C                     87.95     39.11     29.02 
 O                     88.93     39.45     29.68 
 C                     86.54     41.06     28.5 
 C                     85.27     41.86     28.78 
 C                     86.78     40.89     27.01 
 C                     85.4      43.37     28.63 
 H                     86.84     40.08     31.17 
 H                     85.89     39.01     28.52 
 H                     87.4      41.55     28.96 
 H                     84.87     41.78     29.79 
 H                     84.48     41.6      28.06 
 H                     86.74     41.89     26.57 
 H                     87.79     40.56     26.75 
 H                     86.09     40.17     26.57 
 H                     84.41     43.83     28.62 
 H                     86.02     43.67     29.48 
 H                     85.99     43.75     27.8 
 N                     88.13     38.27     27.99 
 C                     89.38     37.64     27.61 
 C                     89.66     38.1      26.18 
 O                     88.74     38.54     25.5 
 C                     89.22     36.13     27.68 
 O                     88.98     35.72     29.01 
 H                     87.33     38.02     27.43 
 H                     90.15     37.99     28.3 
 H                     90.08     35.65     27.21 
 H                     88.33     35.85     27.11 
 H                     89.37     34.86     29.15 
 N                     90.9      37.91     25.71 
 C                     91.41     38.38     24.43 
 C                     90.56     38.02     23.22 
 O                     90.27     38.89     22.41 
 C                     92.82     37.91     24.12 
 H                     91.56     37.37     26.24 
 H                     91.28     39.46     24.49 
 H                     93.57     38.38     24.76 
 H                     92.79     36.84     24.31 
 H                     92.98     38.22     23.08 
 N                     90.14     36.78     22.99 
 C                     89.41     36.4      21.79 
 C                     88.04     37.06     21.9 
 O                     87.43     37.36     20.87 
 C                     89.18     34.9      21.78 
 H                     90.19     36.02     23.65 
 H                     89.89     36.7      20.86 
 H                     88.84     34.66     20.78 
 H                     90.06     34.27     21.91 
 H                     88.42     34.7      22.54 
 N                     87.49     37.28     23.1 
 C                     86.25     38.       23.31 
 C                     86.27     39.49     23. 
 O                     85.35     40.02     22.38 
 C                     85.72     37.71     24.71 
 C                     85.78     36.26     25.17 
 C                     85.06     36.09     26.5 
 O                     84.43     36.95     27.14 
 O                     85.12     34.96     27.04 
 H                     88.07     37.16     23.92 
 H                     85.58     37.47     22.62 
 H                     84.7      38.09     24.65 
 H                     86.25     38.31     25.45 
 H                     86.85     36.09     25.24 
 H                     85.42     35.66     24.33 
 N                     87.37     40.16     23.36 
 C                     87.66     41.54     23.03 
 H                     88.635    41.6      22.546 
 H                     86.895    41.921    22.354 
 H                     87.67     42.138    23.941 
 H                     88.02     39.59     23.89 
 Ca                    83.54     35.77     29.09 
 O                     86.23     35.54     29.87 
 H                     86.5      35.46     30.79 
 H                     87.06     35.61     29.39 
 
 Stoichiometry    C54H83CaN15O23
 Framework group  C1[X(C54H83CaN15O23)]
 Deg. of freedom   522
 Full point group                 C1      NOp   1
 Largest Abelian subgroup         C1      NOp   1
 Largest concise Abelian subgroup C1      NOp   1
                         Standard orientation:                         
 ---------------------------------------------------------------------
 Center     Atomic      Atomic             Coordinates (Angstroms)
 Number     Number       Type             X           Y           Z
 ---------------------------------------------------------------------
      1          6           0        2.264424    2.916364    4.347562
      2          6           0        1.493561    2.541686    3.091701
      3          8           0        2.138625    2.276616    2.077783
      4          1           0        1.562465    3.147260    5.148720
      5          1           0        2.896389    2.081528    4.649113
      6          1           0        2.885483    3.789205    4.146994
      7          7           0        0.165847    2.443258    3.171618
      8          6           0       -0.747416    2.432978    2.045898
      9          6           0       -1.372140    3.794302    1.746038
     10          8           0       -2.379865    4.198706    2.309553
     11          6           0       -1.724389    1.297474    2.319862
     12          6           0       -2.852441    1.327770    1.301933
     13          8           0       -2.691359    1.455979    0.068030
     14          8           0       -3.973362    1.005970    1.769459
     15          1           0       -0.289339    2.682264    4.042125
     16          1           0       -0.225657    2.282473    1.100321
     17          1           0       -2.120010    1.408334    3.323901
     18          1           0       -1.267022    0.309255    2.257114
     19          7           0       -0.525331    4.547314    1.028274
     20          6           0       -0.757101    5.932715    0.668349
     21          6           0       -1.702482    6.077604   -0.512059
     22          8           0       -2.452408    7.059839   -0.555959
     23          6           0        0.541145    6.597303    0.208046
     24          6           0        1.744492    6.639304    1.138203
     25          6           0        2.967288    7.228819    0.430571
     26          6           0        4.087172    7.565473    1.415622
     27          7           0        4.694763    6.324813    1.919801
     28          1           0        0.262503    4.066778    0.615597
     29          1           0       -1.068719    6.493384    1.549850
     30          1           0        0.230064    7.619249   -0.033940
     31          1           0        0.937322    6.229795   -0.743732
     32          1           0        2.082736    5.665869    1.470791
     33          1           0        1.458192    7.215817    2.016875
     34          1           0        2.561923    8.135490   -0.028260
     35          1           0        3.323751    6.574258   -0.363334
     36          1           0        3.754274    8.221417    2.216069
     37          1           0        4.868305    8.095226    0.874611
     38          1           0        5.678310    6.474290    2.121029
     39          1           0        4.247485    6.038315    2.781230
     40          1           0        4.842216    5.622732    1.216211
     41          7           0       -1.737791    5.166618   -1.476143
     42          6           0       -2.800048    5.099532   -2.450622
     43          6           0       -4.117919    4.602579   -1.863379
     44          8           0       -5.164531    4.924810   -2.426290
     45          6           0       -2.316973    4.268044   -3.632554
     46          6           0       -1.875066    2.920325   -3.089810
     47          8           0       -2.617651    1.915458   -3.167977
     48          8           0       -0.818689    2.767520   -2.445049
     49          1           0       -1.165754    4.333155   -1.342674
     50          1           0       -2.913875    6.095104   -2.877798
     51          1           0       -1.504808    4.817078   -4.105998
     52          1           0       -3.101387    4.082392   -4.375204
     53          7           0       -4.103636    3.890344   -0.740206
     54          6           0       -5.238121    3.702699    0.145194
     55          6           0       -6.200360    2.594408   -0.251023
     56          8           0       -7.375562    2.712681    0.074415
     57          1           0       -3.232135    3.572323   -0.342273
     58          1           0       -5.865619    4.601191    0.197723
     59          1           0       -4.781202    3.486197    1.113053
     60          7           0       -5.696988    1.542689   -0.893988
     61          6           0       -6.375466    0.417147   -1.498489
     62          6           0       -6.558218   -0.723359   -0.507456
     63          8           0       -7.449678   -1.574383   -0.632188
     64          6           0       -5.591137   -0.085714   -2.703877
     65          6           0       -4.529597   -1.110520   -2.336582
     66          7           0       -4.597262   -2.287633   -2.959740
     67          8           0       -3.572814   -0.826988   -1.624068
     68          1           0       -4.684906    1.468634   -0.946963
     69          1           0       -7.330814    0.819424   -1.856795
     70          1           0       -5.095773    0.660757   -3.316082
     71          1           0       -6.312988   -0.632831   -3.320314
     72          1           0       -5.451083   -2.560603   -3.433953
     73          1           0       -3.798983   -2.886251   -2.773712
     74          7           0       -5.805494   -0.614922    0.579626
     75          6           0       -5.947811   -1.508572    1.724369
     76          6           0       -4.813215   -2.469234    2.044247
     77          8           0       -4.768086   -3.198601    3.029380
     78          1           0       -5.139044    0.147195    0.631789
     79          1           0       -6.865709   -2.075818    1.573722
     80          1           0       -6.101654   -0.763927    2.503109
     81          7           0       -3.809809   -2.431982    1.158364
     82          6           0       -2.693674   -3.353423    1.108483
     83          6           0       -1.352294   -2.632576    1.031161
     84          8           0       -1.296177   -1.583688    0.408597
     85          6           0       -2.892238   -4.403009    0.028048
     86          6           0       -4.180805   -5.151289    0.318345
     87          6           0       -4.219620   -6.263193    1.167027
     88          6           0       -5.303861   -4.711474   -0.376213
     89          6           0       -5.413506   -6.996818    1.220215
     90          6           0       -6.502304   -5.424739   -0.249781
     91          6           0       -6.574889   -6.612639    0.507336
     92          8           0       -7.616863   -7.486114    0.394498
     93          1           0       -3.942788   -1.854647    0.338363
     94          1           0       -2.622016   -3.740967    2.124492
     95          1           0       -2.122215   -5.165469   -0.108039
     96          1           0       -3.087202   -3.900900   -0.919621
     97          1           0       -3.375366   -6.516954    1.787060
     98          1           0       -5.302226   -3.845085   -1.023799
     99          1           0       -5.424362   -7.895565    1.816148
    100          1           0       -7.377925   -5.022368   -0.742412
    101          1           0       -8.310524   -7.246566   -0.229963
    102          7           0       -0.346120   -3.125559    1.760531
    103          6           0        0.998758   -2.589467    1.740245
    104          6           0        1.722055   -3.690224    0.988064
    105          8           0        1.721089   -4.892395    1.245714
    106          6           0        1.738999   -2.362519    3.061205
    107          6           0        0.974450   -1.493227    4.056743
    108          6           0        3.093347   -1.766491    2.719021
    109          6           0        1.401867   -1.632387    5.511889
    110          1           0       -0.512096   -3.956097    2.304644
    111          1           0        1.070520   -1.675956    1.135805
    112          1           0        1.868437   -3.368297    3.464884
    113          1           0       -0.095744   -1.682432    4.130130
    114          1           0        1.136034   -0.425875    3.845197
    115          1           0        3.599136   -1.572049    3.668531
    116          1           0        3.780339   -2.460087    2.225495
    117          1           0        2.998689   -0.898610    2.066395
    118          1           0        0.973157   -0.822453    6.105196
    119          1           0        1.049464   -2.627423    5.799319
    120          1           0        2.464240   -1.720540    5.724002
    121          7           0        2.553531   -3.238273    0.037649
    122          6           0        3.418551   -4.050034   -0.796968
    123          6           0        4.840463   -3.564757   -0.518452
    124          8           0        5.010030   -2.458776   -0.017998
    125          6           0        3.043240   -3.843240   -2.255384
    126          8           0        1.734013   -4.313139   -2.499762
    127          1           0        2.576502   -2.247677   -0.147533
    128          1           0        3.285963   -5.091078   -0.496725
    129          1           0        3.807164   -4.288244   -2.895142
    130          1           0        3.023777   -2.769057   -2.458249
    131          1           0        1.682857   -4.655339   -3.389471
    132          7           0        5.844504   -4.352106   -0.926598
    133          6           0        7.259504   -4.141375   -0.656844
    134          6           0        7.788292   -2.757300   -1.004579
    135          8           0        8.457782   -2.146590   -0.182438
    136          6           0        8.172426   -5.136969   -1.350002
    137          1           0        5.652491   -5.151697   -1.502692
    138          1           0        7.309511   -4.140583    0.431457
    139          1           0        8.090363   -6.143298   -0.933388
    140          1           0        7.830814   -5.135128   -2.382086
    141          1           0        9.180328   -4.745356   -1.165414
    142          7           0        7.574476   -2.191455   -2.188218
    143          6           0        8.153355   -0.912762   -2.571808
    144          6           0        7.459212    0.140973   -1.715999
    145          8           0        8.061662    1.179543   -1.430646
    146          6           0        7.811156   -0.605207   -4.017944
    147          1           0        6.925362   -2.527771   -2.881936
    148          1           0        9.231224   -0.849287   -2.432280
    149          1           0        8.443252    0.227823   -4.300283
    150          1           0        8.055750   -1.373239   -4.751770
    151          1           0        6.748448   -0.349162   -4.035090
    152          7           0        6.198138   -0.043188   -1.307740
    153          6           0        5.495670    0.843431   -0.401900
    154          6           0        5.998519    0.883280    1.034120
    155          8           0        6.131401    1.951113    1.628909
    156          6           0        3.997030    0.573329   -0.480135
    157          6           0        3.414880    0.383701   -1.873994
    158          6           0        1.896333    0.302719   -1.813531
    159          8           0        1.165971    0.436058   -0.816088
    160          8           0        1.296273    0.047873   -2.884550
    161          1           0        5.785405   -0.958389   -1.431268
    162          1           0        5.651715    1.812783   -0.893741
    163          1           0        3.582707    1.440795    0.033907
    164          1           0        3.737737   -0.308994    0.105333
    165          1           0        3.878995   -0.546426   -2.187301
    166          1           0        3.845875    1.174994   -2.493106
    167          7           0        6.363512   -0.285678    1.571540
    168          6           0        7.004857   -0.455827    2.858833
    169          1           0        7.923364   -1.029502    2.733438
    170          1           0        7.241509    0.521126    3.279454
    171          1           0        6.333878   -0.988327    3.532522
    172          1           0        6.161713   -1.074654    0.967310
    173         20           0       -1.119674    0.243978   -1.668103
    174          8           0       -0.432028   -2.427540   -2.204325
    175          1           0       -1.082165   -3.136123   -2.234857
    176          1           0        0.410182   -2.881356   -2.298837
 ---------------------------------------------------------------------
 Rotational constants (GHZ):           0.0224828           0.0154450           0.0112723
 Standard basis: SVP (5D, 7F)
 There are  1809 symmetry adapted cartesian basis functions of A   symmetry.
 There are  1717 symmetry adapted basis functions of A   symmetry.
  1717 basis functions,  2922 primitive gaussians,  1809 cartesian basis functions
   358 alpha electrons      358 beta electrons
       nuclear repulsion energy     21617.3096837181 Hartrees.
 NAtoms=  176 NActive=  176 NUniq=  176 SFac= 1.00D+00 NAtFMM=   60 NAOKFM=T Big=T
 Integral buffers will be    131072 words long.
 Raffenetti 2 integral format.
 Two-electron integral symmetry is turned on.
 One-electron integrals computed using PRISM.
 NBasis=  1717 RedAO= T EigKep=  2.61D-04  NBF=  1717
 NBsUse=  1717 1.00D-06 EigRej= -1.00D+00 NBFU=  1717
 ExpMin= 1.98D-02 ExpMax= 3.51D+04 ExpMxC= 5.28D+03 IAcc=3 IRadAn=         5 AccDes= 0.00D+00
 Harris functional with IExCor=  402 and IRadAn=       5 diagonalized for initial guess.
 HarFok:  IExCor=  402 AccDes= 0.00D+00 IRadAn=         5 IDoV= 1 UseB2=F ITyADJ=14
 ICtDFT=  3500011 ScaDFX=  1.000000  1.000000  1.000000  1.000000
 FoFCou: FMM=F IPFlag=           0 FMFlag=      100000 FMFlg1=        2001
         NFxFlg=           0 DoJE=T BraDBF=F KetDBF=T FulRan=T
         wScrn=  0.000000 ICntrl=       500 IOpCl=  0 I1Cent=   200000004 NGrid=           0
         NMat0=    1 NMatS0=      1 NMatT0=    0 NMatD0=    1 NMtDS0=    0 NMtDT0=    0
 Petite list used in FoFCou.
 Requested convergence on RMS density matrix=1.00D-08 within 128 cycles.
 Requested convergence on MAX density matrix=1.00D-06.
 Requested convergence on             energy=1.00D-06.
 No special actions if energy rises.
 EnCoef did     4 forward-backward iterations
 SCF Done:  E(RB3LYP) =  -5333.56081630     A.U. after   18 cycles
            NFock= 18  Conv=0.55D-08     -V/T= 2.0081
 SCF density gives NOpUse=  1 NOpAll=  1.
 Hyperfine terms turned off by default for NAtoms > 100.

 **********************************************************************

            Population analysis using the SCF density.

 **********************************************************************

 Orbital symmetries:
 BldTbl:  Degeneracy threshold= 1.00D-02
       Occupied  (A) (A) (A) (A) (A) (A) (A) (A) (A) (A) (A) (A)
                 (A) (A) (A) (A) (A) (A) (A) (A) (A) (A) (A) (A)
                 (A) (A) (A) (A) (A) (A) (A) (A) (A) (A) (A) (A)
                 (A) (A) (A) (A) (A) (A) (A) (A) (A) (A) (A) (A)
                 (A) (A) (A) (A) (A) (A) (A) (A) (A) (A) (A) (A)
                 (A) (A) (A) (A) (A) (A) (A) (A) (A) (A) (A) (A)
                 (A) (A) (A) (A) (A) (A) (A) (A) (A) (A) (A) (A)
                 (A) (A) (A) (A) (A) (A) (A) (A) (A) (A) (A) (A)
                 (A) (A) (A) (A) (A) (A) (A) (A) (A) (A) (A) (A)
                 (A) (A) (A) (A) (A) (A) (A) (A) (A) (A) (A) (A)
                 (A) (A) (A) (A) (A) (A) (A) (A) (A) (A) (A) (A)
                 (A) (A) (A) (A) (A) (A) (A) (A) (A) (A) (A) (A)
                 (A) (A) (A) (A) (A) (A) (A) (A) (A) (A) (A) (A)
                 (A) (A) (A) (A) (A) (A) (A) (A) (A) (A) (A) (A)
                 (A) (A) (A) (A) (A) (A) (A) (A) (A) (A) (A) (A)
                 (A) (A) (A) (A) (A) (A) (A) (A) (A) (A) (A) (A)
                 (A) (A) (A) (A) (A) (A) (A) (A) (A) (A) (A) (A)
                 (A) (A) (A) (A) (A) (A) (A) (A) (A) (A) (A) (A)
                 (A) (A) (A) (A) (A) (A) (A) (A) (A) (A) (A) (A)
                 (A) (A) (A) (A) (A) (A) (A) (A) (A) (A) (A) (A)
                 (A) (A) (A) (A) (A) (A) (A) (A) (A) (A) (A) (A)
                 (A) (A) (A) (A) (A) (A) (A) (A) (A) (A) (A) (A)
                 (A) (A) (A) (A) (A) (A) (A) (A) (A) (A) (A) (A)
                 (A) (A) (A) (A) (A) (A) (A) (A) (A) (A) (A) (A)
                 (A) (A) (A) (A) (A) (A) (A) (A) (A) (A) (A) (A)
                 (A) (A) (A) (A) (A) (A) (A) (A) (A) (A) (A) (A)
                 (A) (A) (A) (A) (A) (A) (A) (A) (A) (A) (A) (A)
                 (A) (A) (A) (A) (A) (A) (A) (A) (A) (A) (A) (A)
                 (A) (A) (A) (A) (A) (A) (A) (A) (A) (A) (A) (A)
                 (A) (A) (A) (A) (A) (A) (A) (A) (A) (A)
       Virtual   (A) (A) (A) (A) (A) (A) (A) (A) (A) (A) (A) (A)
                 (A) (A) (A) (A) (A) (A) (A) (A) (A) (A) (A) (A)
                 (A) (A) (A) (A) (A) (A) (A) (A) (A) (A) (A) (A)
                 (A) (A) (A) (A) (A) (A) (A) (A) (A) (A) (A) (A)
                 (A) (A) (A) (A) (A) (A) (A) (A) (A) (A) (A) (A)
                 (A) (A) (A) (A) (A) (A) (A) (A) (A) (A) (A) (A)
                 (A) (A) (A) (A) (A) (A) (A) (A) (A) (A) (A) (A)
                 (A) (A) (A) (A) (A) (A) (A) (A) (A) (A) (A) (A)
                 (A) (A) (A) (A) (A) (A) (A) (A) (A) (A) (A) (A)
                 (A) (A) (A) (A) (A) (A) (A) (A) (A) (A) (A) (A)
                 (A) (A) (A) (A) (A) (A) (A) (A) (A) (A) (A) (A)
                 (A) (A) (A) (A) (A) (A) (A) (A) (A) (A) (A) (A)
                 (A) (A) (A) (A) (A) (A) (A) (A) (A) (A) (A) (A)
                 (A) (A) (A) (A) (A) (A) (A) (A) (A) (A) (A) (A)
                 (A) (A) (A) (A) (A) (A) (A) (A) (A) (A) (A) (A)
                 (A) (A) (A) (A) (A) (A) (A) (A) (A) (A) (A) (A)
                 (A) (A) (A) (A) (A) (A) (A) (A) (A) (A) (A) (A)
                 (A) (A) (A) (A) (A) (A) (A) (A) (A) (A) (A) (A)
                 (A) (A) (A) (A) (A) (A) (A) (A) (A) (A) (A) (A)
                 (A) (A) (A) (A) (A) (A) (A) (A) (A) (A) (A) (A)
                 (A) (A) (A) (A) (A) (A) (A) (A) (A) (A) (A) (A)
                 (A) (A) (A) (A) (A) (A) (A) (A) (A) (A) (A) (A)
                 (A) (A) (A) (A) (A) (A) (A) (A) (A) (A) (A) (A)
                 (A) (A) (A) (A) (A) (A) (A) (A) (A) (A) (A) (A)
                 (A) (A) (A) (A) (A) (A) (A) (A) (A) (A) (A) (A)
                 (A) (A) (A) (A) (A) (A) (A) (A) (A) (A) (A) (A)
                 (A) (A) (A) (A) (A) (A) (A) (A) (A) (A) (A) (A)
                 (A) (A) (A) (A) (A) (A) (A) (A) (A) (A) (A) (A)
                 (A) (A) (A) (A) (A) (A) (A) (A) (A) (A) (A) (A)
                 (A) (A) (A) (A) (A) (A) (A) (A) (A) (A) (A) (A)
                 (A) (A) (A) (A) (A) (A) (A) (A) (A) (A) (A) (A)
                 (A) (A) (A) (A) (A) (A) (A) (A) (A) (A) (A) (A)
                 (A) (A) (A) (A) (A) (A) (A) (A) (A) (A) (A) (A)
                 (A) (A) (A) (A) (A) (A) (A) (A) (A) (A) (A) (A)
                 (A) (A) (A) (A) (A) (A) (A) (A) (A) (A) (A) (A)
                 (A) (A) (A) (A) (A) (A) (A) (A) (A) (A) (A) (A)
                 (A) (A) (A) (A) (A) (A) (A) (A) (A) (A) (A) (A)
                 (A) (A) (A) (A) (A) (A) (A) (A) (A) (A) (A) (A)
                 (A) (A) (A) (A) (A) (A) (A) (A) (A) (A) (A) (A)
                 (A) (A) (A) (A) (A) (A) (A) (A) (A) (A) (A) (A)
                 (A) (A) (A) (A) (A) (A) (A) (A) (A) (A) (A) (A)
                 (A) (A) (A) (A) (A) (A) (A) (A) (A) (A) (A) (A)
                 (A) (A) (A) (A) (A) (A) (A) (A) (A) (A) (A) (A)
                 (A) (A) (A) (A) (A) (A) (A) (A) (A) (A) (A) (A)
                 (A) (A) (A) (A) (A) (A) (A) (A) (A) (A) (A) (A)
                 (A) (A) (A) (A) (A) (A) (A) (A) (A) (A) (A) (A)
                 (A) (A) (A) (A) (A) (A) (A) (A) (A) (A) (A) (A)
                 (A) (A) (A) (A) (A) (A) (A) (A) (A) (A) (A) (A)
                 (A) (A) (A) (A) (A) (A) (A) (A) (A) (A) (A) (A)
                 (A) (A) (A) (A) (A) (A) (A) (A) (A) (A) (A) (A)
                 (A) (A) (A) (A) (A) (A) (A) (A) (A) (A) (A) (A)
                 (A) (A) (A) (A) (A) (A) (A) (A) (A) (A) (A) (A)
                 (A) (A) (A) (A) (A) (A) (A) (A) (A) (A) (A) (A)
                 (A) (A) (A) (A) (A) (A) (A) (A) (A) (A) (A) (A)
                 (A) (A) (A) (A) (A) (A) (A) (A) (A) (A) (A) (A)
                 (A) (A) (A) (A) (A) (A) (A) (A) (A) (A) (A) (A)
                 (A) (A) (A) (A) (A) (A) (A) (A) (A) (A) (A) (A)
                 (A) (A) (A) (A) (A) (A) (A) (A) (A) (A) (A) (A)
                 (A) (A) (A) (A) (A) (A) (A) (A) (A) (A) (A) (A)
                 (A) (A) (A) (A) (A) (A) (A) (A) (A) (A) (A) (A)
                 (A) (A) (A) (A) (A) (A) (A) (A) (A) (A) (A) (A)
                 (A) (A) (A) (A) (A) (A) (A) (A) (A) (A) (A) (A)
                 (A) (A) (A) (A) (A) (A) (A) (A) (A) (A) (A) (A)
                 (A) (A) (A) (A) (A) (A) (A) (A) (A) (A) (A) (A)
                 (A) (A) (A) (A) (A) (A) (A) (A) (A) (A) (A) (A)
                 (A) (A) (A) (A) (A) (A) (A) (A) (A) (A) (A) (A)
                 (A) (A) (A) (A) (A) (A) (A) (A) (A) (A) (A) (A)
                 (A) (A) (A) (A) (A) (A) (A) (A) (A) (A) (A) (A)
                 (A) (A) (A) (A) (A) (A) (A) (A) (A) (A) (A) (A)
                 (A) (A) (A) (A) (A) (A) (A) (A) (A) (A) (A) (A)
                 (A) (A) (A) (A) (A) (A) (A) (A) (A) (A) (A) (A)
                 (A) (A) (A) (A) (A) (A) (A) (A) (A) (A) (A) (A)
                 (A) (A) (A) (A) (A) (A) (A) (A) (A) (A) (A) (A)
                 (A) (A) (A) (A) (A) (A) (A) (A) (A) (A) (A) (A)
                 (A) (A) (A) (A) (A) (A) (A) (A) (A) (A) (A) (A)
                 (A) (A) (A) (A) (A) (A) (A) (A) (A) (A) (A) (A)
                 (A) (A) (A) (A) (A) (A) (A) (A) (A) (A) (A) (A)
                 (A) (A) (A) (A) (A) (A) (A) (A) (A) (A) (A) (A)
                 (A) (A) (A) (A) (A) (A) (A) (A) (A) (A) (A) (A)
                 (A) (A) (A) (A) (A) (A) (A) (A) (A) (A) (A) (A)
                 (A) (A) (A) (A) (A) (A) (A) (A) (A) (A) (A) (A)
                 (A) (A) (A) (A) (A) (A) (A) (A) (A) (A) (A) (A)
                 (A) (A) (A) (A) (A) (A) (A) (A) (A) (A) (A) (A)
                 (A) (A) (A) (A) (A) (A) (A) (A) (A) (A) (A) (A)
                 (A) (A) (A) (A) (A) (A) (A) (A) (A) (A) (A) (A)
                 (A) (A) (A) (A) (A) (A) (A) (A) (A) (A) (A) (A)
                 (A) (A) (A) (A) (A) (A) (A) (A) (A) (A) (A) (A)
                 (A) (A) (A) (A) (A) (A) (A) (A) (A) (A) (A) (A)
                 (A) (A) (A) (A) (A) (A) (A) (A) (A) (A) (A) (A)
                 (A) (A) (A) (A) (A) (A) (A) (A) (A) (A) (A) (A)
                 (A) (A) (A) (A) (A) (A) (A) (A) (A) (A) (A) (A)
                 (A) (A) (A) (A) (A) (A) (A) (A) (A) (A) (A) (A)
                 (A) (A) (A) (A) (A) (A) (A) (A) (A) (A) (A) (A)
                 (A) (A) (A) (A) (A) (A) (A) (A) (A) (A) (A) (A)
                 (A) (A) (A) (A) (A) (A) (A) (A) (A) (A) (A) (A)
                 (A) (A) (A) (A) (A) (A) (A) (A) (A) (A) (A) (A)
                 (A) (A) (A) (A) (A) (A) (A) (A) (A) (A) (A) (A)
                 (A) (A) (A) (A) (A) (A) (A) (A) (A) (A) (A) (A)
                 (A) (A) (A) (A) (A) (A) (A) (A) (A) (A) (A) (A)
                 (A) (A) (A) (A) (A) (A) (A) (A) (A) (A) (A) (A)
                 (A) (A) (A) (A) (A) (A) (A) (A) (A) (A) (A) (A)
                 (A) (A) (A) (A) (A) (A) (A) (A) (A) (A) (A) (A)
                 (A) (A) (A) (A) (A) (A) (A) (A) (A) (A) (A) (A)
                 (A) (A) (A) (A) (A) (A) (A) (A) (A) (A) (A) (A)
                 (A) (A) (A) (A) (A) (A) (A) (A) (A) (A) (A) (A)
                 (A) (A) (A) (A) (A) (A) (A) (A) (A) (A) (A) (A)
                 (A) (A) (A) (A) (A) (A) (A) (A) (A) (A) (A) (A)
                 (A) (A) (A) (A) (A) (A) (A) (A) (A) (A) (A) (A)
                 (A) (A) (A) (A) (A) (A) (A) (A) (A) (A) (A) (A)
                 (A) (A) (A) (A) (A) (A) (A) (A) (A) (A) (A) (A)
                 (A) (A) (A) (A) (A) (A) (A) (A) (A) (A) (A) (A)
                 (A) (A) (A) (A) (A) (A) (A) (A) (A) (A) (A) (A)
                 (A) (A) (A) (A) (A) (A) (A) (A) (A) (A) (A) (A)
                 (A) (A) (A)
 The electronic state is 1-A.
 Alpha  occ. eigenvalues -- -145.33758 -19.19003 -19.16111 -19.14530 -19.14047
 Alpha  occ. eigenvalues --  -19.12261 -19.11147 -19.10815 -19.10263 -19.09843
 Alpha  occ. eigenvalues --  -19.09664 -19.09089 -19.08136 -19.06505 -19.05634
 Alpha  occ. eigenvalues --  -19.05366 -19.05076 -19.04612 -19.03727 -19.03653
 Alpha  occ. eigenvalues --  -19.03508 -19.03170 -19.02737 -19.01973 -15.39508
 Alpha  occ. eigenvalues --  -14.57973 -14.41508 -14.38731 -14.36849 -14.36695
 Alpha  occ. eigenvalues --  -14.36394 -14.36353 -14.35964 -14.35136 -14.33681
 Alpha  occ. eigenvalues --  -14.31817 -14.31596 -14.29519 -14.29327 -14.28729
 Alpha  occ. eigenvalues --  -12.53140 -12.53092 -12.53050 -10.35316 -10.34162
 Alpha  occ. eigenvalues --  -10.31199 -10.29508 -10.29182 -10.29143 -10.28768
 Alpha  occ. eigenvalues --  -10.28509 -10.28089 -10.27772 -10.27724 -10.27613
 Alpha  occ. eigenvalues --  -10.27026 -10.26792 -10.25640 -10.25257 -10.24805
 Alpha  occ. eigenvalues --  -10.24659 -10.24469 -10.24079 -10.23992 -10.23535
 Alpha  occ. eigenvalues --  -10.23472 -10.23355 -10.22733 -10.22666 -10.22502
 Alpha  occ. eigenvalues --  -10.22349 -10.22079 -10.21992 -10.21605 -10.21546
 Alpha  occ. eigenvalues --  -10.21388 -10.21378 -10.21358 -10.19928 -10.19773
 Alpha  occ. eigenvalues --  -10.19435 -10.19183 -10.18240 -10.18096 -10.17817
 Alpha  occ. eigenvalues --  -10.17816 -10.17808 -10.17725 -10.17565 -10.17265
 Alpha  occ. eigenvalues --  -10.17040 -10.17040 -10.17030 -10.16885 -10.16131
 Alpha  occ. eigenvalues --  -10.15422 -10.15302  -1.76382  -1.13494  -1.09251
 Alpha  occ. eigenvalues --   -1.07088  -1.06236  -1.04571  -1.04335  -1.04061
 Alpha  occ. eigenvalues --   -1.03853  -1.03682  -1.03121  -1.03072  -1.02767
 Alpha  occ. eigenvalues --   -1.02255  -1.02235  -1.00696  -1.00110  -0.99974
 Alpha  occ. eigenvalues --   -0.99900  -0.98970  -0.98742  -0.98255  -0.98076
 Alpha  occ. eigenvalues --   -0.97574  -0.96483  -0.95552  -0.95289  -0.93790
 Alpha  occ. eigenvalues --   -0.93358  -0.93270  -0.92601  -0.91985  -0.91535
 Alpha  occ. eigenvalues --   -0.89736  -0.89287  -0.89277  -0.89130  -0.88501
 Alpha  occ. eigenvalues --   -0.87912  -0.87585  -0.87392  -0.85918  -0.85191
 Alpha  occ. eigenvalues --   -0.83863  -0.83142  -0.82782  -0.82345  -0.80248
 Alpha  occ. eigenvalues --   -0.79411  -0.78491  -0.78144  -0.77462  -0.76640
 Alpha  occ. eigenvalues --   -0.75929  -0.75083  -0.74652  -0.74146  -0.73190
 Alpha  occ. eigenvalues --   -0.72599  -0.72559  -0.72219  -0.70962  -0.70622
 Alpha  occ. eigenvalues --   -0.70496  -0.69313  -0.68897  -0.68420  -0.68409
 Alpha  occ. eigenvalues --   -0.67428  -0.66682  -0.65712  -0.65666  -0.64846
 Alpha  occ. eigenvalues --   -0.63887  -0.63619  -0.63247  -0.63005  -0.62167
 Alpha  occ. eigenvalues --   -0.61760  -0.61134  -0.60378  -0.60316  -0.60102
 Alpha  occ. eigenvalues --   -0.59948  -0.59657  -0.59271  -0.59126  -0.58910
 Alpha  occ. eigenvalues --   -0.57973  -0.57581  -0.56794  -0.56418  -0.56334
 Alpha  occ. eigenvalues --   -0.56226  -0.55497  -0.55150  -0.55006  -0.54793
 Alpha  occ. eigenvalues --   -0.54559  -0.54264  -0.53968  -0.53780  -0.53576
 Alpha  occ. eigenvalues --   -0.53298  -0.52999  -0.52871  -0.52821  -0.52003
 Alpha  occ. eigenvalues --   -0.51954  -0.51700  -0.51412  -0.51291  -0.50640
 Alpha  occ. eigenvalues --   -0.50451  -0.49718  -0.49420  -0.49167  -0.49044
 Alpha  occ. eigenvalues --   -0.48804  -0.48421  -0.48114  -0.48032  -0.47779
 Alpha  occ. eigenvalues --   -0.47556  -0.47358  -0.47238  -0.47146  -0.47056
 Alpha  occ. eigenvalues --   -0.46936  -0.46326  -0.46111  -0.45964  -0.45746
 Alpha  occ. eigenvalues --   -0.45653  -0.45429  -0.45253  -0.44972  -0.44805
 Alpha  occ. eigenvalues --   -0.44703  -0.44641  -0.44273  -0.44057  -0.43816
 Alpha  occ. eigenvalues --   -0.43721  -0.43366  -0.43083  -0.42953  -0.42848
 Alpha  occ. eigenvalues --   -0.42653  -0.42640  -0.42452  -0.42391  -0.42284
 Alpha  occ. eigenvalues --   -0.41977  -0.41518  -0.41471  -0.41381  -0.41296
 Alpha  occ. eigenvalues --   -0.41290  -0.41166  -0.41021  -0.40965  -0.40824
 Alpha  occ. eigenvalues --   -0.40777  -0.40749  -0.40546  -0.40413  -0.40341
 Alpha  occ. eigenvalues --   -0.40253  -0.39968  -0.39715  -0.39408  -0.39366
 Alpha  occ. eigenvalues --   -0.39321  -0.39184  -0.39042  -0.38865  -0.38771
 Alpha  occ. eigenvalues --   -0.38636  -0.38360  -0.38289  -0.38085  -0.37937
 Alpha  occ. eigenvalues --   -0.37927  -0.37897  -0.37778  -0.37684  -0.37623
 Alpha  occ. eigenvalues --   -0.37467  -0.37273  -0.37036  -0.36996  -0.36838
 Alpha  occ. eigenvalues --   -0.36501  -0.36403  -0.36093  -0.36075  -0.35504
 Alpha  occ. eigenvalues --   -0.35141  -0.34822  -0.34762  -0.34404  -0.34272
 Alpha  occ. eigenvalues --   -0.34221  -0.34092  -0.33966  -0.33618  -0.33554
 Alpha  occ. eigenvalues --   -0.33321  -0.33301  -0.33252  -0.32951  -0.32895
 Alpha  occ. eigenvalues --   -0.32781  -0.32477  -0.32373  -0.32262  -0.32216
 Alpha  occ. eigenvalues --   -0.31940  -0.31613  -0.31459  -0.31203  -0.30930
 Alpha  occ. eigenvalues --   -0.30150  -0.29869  -0.29281  -0.28146  -0.28054
 Alpha  occ. eigenvalues --   -0.27922  -0.27680  -0.27341  -0.27203  -0.26749
 Alpha  occ. eigenvalues --   -0.25848  -0.25691  -0.25446  -0.24888  -0.24431
 Alpha  occ. eigenvalues --   -0.24218  -0.24174  -0.24070  -0.23918  -0.23453
 Alpha  occ. eigenvalues --   -0.23167  -0.23010  -0.22635  -0.22568  -0.22242
 Alpha  occ. eigenvalues --   -0.22017  -0.21912  -0.21031  -0.20799  -0.20683
 Alpha  occ. eigenvalues --   -0.20343  -0.20103  -0.19453  -0.19034  -0.18873
 Alpha  occ. eigenvalues --   -0.18569  -0.18092  -0.17724
 Alpha virt. eigenvalues --   -0.09919  -0.05203  -0.04430  -0.03423  -0.01720
 Alpha virt. eigenvalues --   -0.01256  -0.01230  -0.00463  -0.00291   0.00120
 Alpha virt. eigenvalues --    0.00525   0.00678   0.01370   0.01502   0.01755
 Alpha virt. eigenvalues --    0.01826   0.02210   0.02537   0.02687   0.02784
 Alpha virt. eigenvalues --    0.03379   0.03731   0.03823   0.03974   0.04414
 Alpha virt. eigenvalues --    0.04557   0.04965   0.05196   0.05556   0.05620
 Alpha virt. eigenvalues --    0.05804   0.06127   0.06186   0.06310   0.06507
 Alpha virt. eigenvalues --    0.06623   0.06728   0.06771   0.07195   0.07340
 Alpha virt. eigenvalues --    0.07646   0.07720   0.08135   0.08311   0.08570
 Alpha virt. eigenvalues --    0.08780   0.08864   0.08872   0.09239   0.09515
 Alpha virt. eigenvalues --    0.09820   0.09960   0.10193   0.10319   0.10392
 Alpha virt. eigenvalues --    0.10552   0.10948   0.10972   0.11269   0.11406
 Alpha virt. eigenvalues --    0.11688   0.11803   0.11882   0.12062   0.12320
 Alpha virt. eigenvalues --    0.12529   0.12842   0.13086   0.13123   0.13283
 Alpha virt. eigenvalues --    0.13463   0.13497   0.13652   0.14077   0.14185
 Alpha virt. eigenvalues --    0.14302   0.14428   0.14493   0.14590   0.14975
 Alpha virt. eigenvalues --    0.15065   0.15448   0.15736   0.15863   0.15959
 Alpha virt. eigenvalues --    0.16046   0.16238   0.16288   0.16611   0.16778
 Alpha virt. eigenvalues --    0.16901   0.17047   0.17162   0.17419   0.17550
 Alpha virt. eigenvalues --    0.17799   0.18125   0.18235   0.18341   0.18478
 Alpha virt. eigenvalues --    0.18649   0.18821   0.18914   0.19035   0.19281
 Alpha virt. eigenvalues --    0.19689   0.19747   0.19873   0.20050   0.20137
 Alpha virt. eigenvalues --    0.20369   0.20779   0.20936   0.21214   0.21260
 Alpha virt. eigenvalues --    0.21530   0.21609   0.22075   0.22178   0.22237
 Alpha virt. eigenvalues --    0.22408   0.22743   0.23052   0.23289   0.23470
 Alpha virt. eigenvalues --    0.23768   0.23968   0.24075   0.24425   0.24532
 Alpha virt. eigenvalues --    0.24620   0.24927   0.25111   0.25235   0.25422
 Alpha virt. eigenvalues --    0.25707   0.25776   0.26272   0.26432   0.26454
 Alpha virt. eigenvalues --    0.26948   0.27177   0.27539   0.27597   0.27804
 Alpha virt. eigenvalues --    0.28219   0.28538   0.28953   0.29129   0.29250
 Alpha virt. eigenvalues --    0.29351   0.29577   0.29877   0.30150   0.30295
 Alpha virt. eigenvalues --    0.30787   0.30803   0.31006   0.31108   0.31315
 Alpha virt. eigenvalues --    0.31446   0.31683   0.31800   0.31912   0.32203
 Alpha virt. eigenvalues --    0.32825   0.33114   0.33326   0.33498   0.34010
 Alpha virt. eigenvalues --    0.34250   0.34389   0.34717   0.34848   0.35109
 Alpha virt. eigenvalues --    0.35361   0.35503   0.35806   0.36109   0.36308
 Alpha virt. eigenvalues --    0.36572   0.36875   0.37291   0.37525   0.37950
 Alpha virt. eigenvalues --    0.38239   0.38335   0.38650   0.38909   0.39112
 Alpha virt. eigenvalues --    0.39538   0.39804   0.40011   0.40139   0.40482
 Alpha virt. eigenvalues --    0.40753   0.41064   0.41373   0.41440   0.41539
 Alpha virt. eigenvalues --    0.42132   0.42191   0.42525   0.42614   0.42790
 Alpha virt. eigenvalues --    0.42962   0.43053   0.43267   0.43915   0.44079
 Alpha virt. eigenvalues --    0.44233   0.44470   0.44745   0.44956   0.45270
 Alpha virt. eigenvalues --    0.45400   0.45619   0.45749   0.45819   0.46105
 Alpha virt. eigenvalues --    0.46270   0.46630   0.46835   0.46946   0.47231
 Alpha virt. eigenvalues --    0.47304   0.47471   0.47564   0.47599   0.47887
 Alpha virt. eigenvalues --    0.48039   0.48363   0.48528   0.48735   0.48823
 Alpha virt. eigenvalues --    0.49017   0.49329   0.49355   0.49703   0.49872
 Alpha virt. eigenvalues --    0.50083   0.50266   0.50284   0.50600   0.50706
 Alpha virt. eigenvalues --    0.50989   0.51462   0.51710   0.51858   0.52147
 Alpha virt. eigenvalues --    0.52619   0.52655   0.52888   0.52963   0.53129
 Alpha virt. eigenvalues --    0.53264   0.53506   0.53584   0.53886   0.53978
 Alpha virt. eigenvalues --    0.54278   0.54372   0.54524   0.54612   0.54727
 Alpha virt. eigenvalues --    0.54845   0.55172   0.55306   0.55407   0.55653
 Alpha virt. eigenvalues --    0.55905   0.56073   0.56099   0.56403   0.56760
 Alpha virt. eigenvalues --    0.56899   0.57127   0.57353   0.57541   0.57695
 Alpha virt. eigenvalues --    0.57772   0.57851   0.57925   0.58243   0.58511
 Alpha virt. eigenvalues --    0.58707   0.58948   0.58974   0.59181   0.59226
 Alpha virt. eigenvalues --    0.59527   0.59553   0.59757   0.60137   0.60185
 Alpha virt. eigenvalues --    0.60402   0.60446   0.60538   0.60658   0.60762
 Alpha virt. eigenvalues --    0.60972   0.61174   0.61307   0.61448   0.61676
 Alpha virt. eigenvalues --    0.61904   0.61938   0.62129   0.62215   0.62326
 Alpha virt. eigenvalues --    0.62447   0.62561   0.62645   0.62783   0.62867
 Alpha virt. eigenvalues --    0.63028   0.63267   0.63297   0.63558   0.63626
 Alpha virt. eigenvalues --    0.63795   0.63873   0.64021   0.64191   0.64237
 Alpha virt. eigenvalues --    0.64351   0.64502   0.64575   0.64675   0.64787
 Alpha virt. eigenvalues --    0.64904   0.64989   0.65111   0.65264   0.65338
 Alpha virt. eigenvalues --    0.65439   0.65608   0.65639   0.65751   0.65863
 Alpha virt. eigenvalues --    0.65900   0.66068   0.66223   0.66384   0.66408
 Alpha virt. eigenvalues --    0.66585   0.66658   0.66788   0.66872   0.66982
 Alpha virt. eigenvalues --    0.67102   0.67220   0.67307   0.67471   0.67531
 Alpha virt. eigenvalues --    0.67665   0.67728   0.67891   0.67969   0.68089
 Alpha virt. eigenvalues --    0.68229   0.68445   0.68522   0.68553   0.68598
 Alpha virt. eigenvalues --    0.68702   0.68979   0.69108   0.69205   0.69246
 Alpha virt. eigenvalues --    0.69497   0.69694   0.69778   0.69917   0.69930
 Alpha virt. eigenvalues --    0.70203   0.70251   0.70471   0.70627   0.70754
 Alpha virt. eigenvalues --    0.70851   0.71050   0.71297   0.71561   0.71642
 Alpha virt. eigenvalues --    0.71767   0.72022   0.72118   0.72458   0.72518
 Alpha virt. eigenvalues --    0.72766   0.72793   0.73015   0.73202   0.73377
 Alpha virt. eigenvalues --    0.73434   0.73654   0.73675   0.73977   0.74049
 Alpha virt. eigenvalues --    0.74176   0.74442   0.74561   0.74652   0.75060
 Alpha virt. eigenvalues --    0.75147   0.75451   0.75540   0.75786   0.76031
 Alpha virt. eigenvalues --    0.76557   0.76650   0.76744   0.76994   0.77023
 Alpha virt. eigenvalues --    0.77315   0.77564   0.77661   0.77978   0.78179
 Alpha virt. eigenvalues --    0.78396   0.78788   0.78901   0.79045   0.79159
 Alpha virt. eigenvalues --    0.79745   0.79778   0.80094   0.80112   0.80463
 Alpha virt. eigenvalues --    0.80736   0.80985   0.81435   0.81619   0.81949
 Alpha virt. eigenvalues --    0.81998   0.82190   0.82576   0.83101   0.83149
 Alpha virt. eigenvalues --    0.83398   0.83678   0.83902   0.84460   0.84666
 Alpha virt. eigenvalues --    0.84758   0.84885   0.85338   0.85391   0.85442
 Alpha virt. eigenvalues --    0.85989   0.86218   0.86803   0.87179   0.87326
 Alpha virt. eigenvalues --    0.87868   0.87987   0.88289   0.88678   0.88961
 Alpha virt. eigenvalues --    0.89146   0.89592   0.89906   0.89986   0.90297
 Alpha virt. eigenvalues --    0.90806   0.91000   0.91080   0.91406   0.91855
 Alpha virt. eigenvalues --    0.92019   0.92283   0.92422   0.92910   0.92998
 Alpha virt. eigenvalues --    0.93352   0.93490   0.93888   0.94267   0.94329
 Alpha virt. eigenvalues --    0.94636   0.94985   0.95225   0.95256   0.95406
 Alpha virt. eigenvalues --    0.95958   0.96263   0.96659   0.96802   0.97022
 Alpha virt. eigenvalues --    0.97276   0.97652   0.97784   0.98150   0.98388
 Alpha virt. eigenvalues --    0.98811   0.99110   0.99472   0.99766   0.99833
 Alpha virt. eigenvalues --    1.00480   1.00586   1.00821   1.01153   1.01375
 Alpha virt. eigenvalues --    1.01646   1.01907   1.02154   1.02295   1.02815
 Alpha virt. eigenvalues --    1.03244   1.03429   1.03878   1.04121   1.04466
 Alpha virt. eigenvalues --    1.04884   1.05210   1.05460   1.05821   1.06273
 Alpha virt. eigenvalues --    1.06574   1.06754   1.07180   1.07441   1.07608
 Alpha virt. eigenvalues --    1.07839   1.08210   1.08625   1.08965   1.09176
 Alpha virt. eigenvalues --    1.09431   1.09574   1.09789   1.09900   1.10241
 Alpha virt. eigenvalues --    1.10831   1.11193   1.11630   1.11933   1.12010
 Alpha virt. eigenvalues --    1.12264   1.12512   1.12990   1.13192   1.13283
 Alpha virt. eigenvalues --    1.13555   1.13646   1.13995   1.14105   1.14607
 Alpha virt. eigenvalues --    1.15224   1.15254   1.15653   1.15895   1.16220
 Alpha virt. eigenvalues --    1.16405   1.16900   1.16963   1.17115   1.17262
 Alpha virt. eigenvalues --    1.17553   1.17642   1.17964   1.18310   1.18746
 Alpha virt. eigenvalues --    1.18853   1.19265   1.19330   1.19499   1.19778
 Alpha virt. eigenvalues --    1.19966   1.20243   1.20467   1.20695   1.21232
 Alpha virt. eigenvalues --    1.21338   1.21571   1.22056   1.22290   1.22477
 Alpha virt. eigenvalues --    1.22697   1.23265   1.23348   1.23588   1.23711
 Alpha virt. eigenvalues --    1.23931   1.24308   1.24681   1.25034   1.25352
 Alpha virt. eigenvalues --    1.25551   1.25821   1.25968   1.26317   1.26410
 Alpha virt. eigenvalues --    1.26688   1.27165   1.27247   1.27419   1.27703
 Alpha virt. eigenvalues --    1.28134   1.28402   1.28516   1.28631   1.28957
 Alpha virt. eigenvalues --    1.29115   1.29172   1.29478   1.30007   1.30150
 Alpha virt. eigenvalues --    1.30278   1.30602   1.30996   1.31319   1.31405
 Alpha virt. eigenvalues --    1.31470   1.31767   1.31985   1.32331   1.32667
 Alpha virt. eigenvalues --    1.32995   1.33108   1.33469   1.33646   1.34076
 Alpha virt. eigenvalues --    1.34295   1.34574   1.34803   1.35284   1.35322
 Alpha virt. eigenvalues --    1.35677   1.36128   1.36314   1.36472   1.36933
 Alpha virt. eigenvalues --    1.36983   1.37191   1.37513   1.37697   1.38139
 Alpha virt. eigenvalues --    1.38607   1.38910   1.39228   1.39589   1.39812
 Alpha virt. eigenvalues --    1.40038   1.40259   1.40573   1.40761   1.40974
 Alpha virt. eigenvalues --    1.41426   1.41612   1.41958   1.41997   1.42722
 Alpha virt. eigenvalues --    1.42891   1.42965   1.43252   1.43386   1.43894
 Alpha virt. eigenvalues --    1.44189   1.44427   1.44657   1.45197   1.45393
 Alpha virt. eigenvalues --    1.45860   1.45979   1.46198   1.46512   1.46884
 Alpha virt. eigenvalues --    1.47142   1.47331   1.47690   1.48197   1.48505
 Alpha virt. eigenvalues --    1.48800   1.49018   1.49351   1.49474   1.49492
 Alpha virt. eigenvalues --    1.49834   1.49995   1.50226   1.50401   1.50637
 Alpha virt. eigenvalues --    1.50991   1.51487   1.52029   1.52252   1.52656
 Alpha virt. eigenvalues --    1.52920   1.53251   1.53702   1.53893   1.53938
 Alpha virt. eigenvalues --    1.54059   1.54126   1.54719   1.55170   1.55526
 Alpha virt. eigenvalues --    1.56055   1.56474   1.56657   1.57156   1.57322
 Alpha virt. eigenvalues --    1.58018   1.58194   1.58600   1.58655   1.58906
 Alpha virt. eigenvalues --    1.59371   1.60114   1.60345   1.60856   1.61057
 Alpha virt. eigenvalues --    1.61296   1.61621   1.62113   1.62268   1.62600
 Alpha virt. eigenvalues --    1.62675   1.63098   1.63552   1.63848   1.64037
 Alpha virt. eigenvalues --    1.64064   1.64298   1.64519   1.64825   1.65032
 Alpha virt. eigenvalues --    1.65185   1.65588   1.65780   1.66114   1.66245
 Alpha virt. eigenvalues --    1.66851   1.67658   1.67822   1.68067   1.68523
 Alpha virt. eigenvalues --    1.68599   1.68761   1.69162   1.69369   1.69579
 Alpha virt. eigenvalues --    1.69801   1.69911   1.69963   1.70274   1.70455
 Alpha virt. eigenvalues --    1.70885   1.70992   1.71188   1.71519   1.71732
 Alpha virt. eigenvalues --    1.71789   1.71974   1.72141   1.72447   1.72570
 Alpha virt. eigenvalues --    1.72959   1.73241   1.73507   1.73569   1.73770
 Alpha virt. eigenvalues --    1.74304   1.74582   1.74760   1.74988   1.75189
 Alpha virt. eigenvalues --    1.75315   1.75729   1.75813   1.75980   1.76067
 Alpha virt. eigenvalues --    1.76129   1.76467   1.76617   1.76981   1.77100
 Alpha virt. eigenvalues --    1.77254   1.77322   1.77466   1.77663   1.77666
 Alpha virt. eigenvalues --    1.77847   1.77906   1.78070   1.78213   1.78347
 Alpha virt. eigenvalues --    1.78486   1.78629   1.78732   1.79337   1.79600
 Alpha virt. eigenvalues --    1.79740   1.79815   1.80091   1.80318   1.80421
 Alpha virt. eigenvalues --    1.80565   1.80904   1.81001   1.81067   1.81199
 Alpha virt. eigenvalues --    1.81512   1.81575   1.81759   1.81810   1.81895
 Alpha virt. eigenvalues --    1.82101   1.82420   1.82559   1.82631   1.82812
 Alpha virt. eigenvalues --    1.83179   1.83341   1.83696   1.83799   1.83965
 Alpha virt. eigenvalues --    1.84079   1.84148   1.84416   1.84625   1.84674
 Alpha virt. eigenvalues --    1.84780   1.85101   1.85274   1.85527   1.85872
 Alpha virt. eigenvalues --    1.86061   1.86183   1.86360   1.86432   1.86700
 Alpha virt. eigenvalues --    1.86811   1.87195   1.87301   1.87434   1.87557
 Alpha virt. eigenvalues --    1.87810   1.88075   1.88158   1.88440   1.88661
 Alpha virt. eigenvalues --    1.88835   1.89206   1.89476   1.89523   1.89822
 Alpha virt. eigenvalues --    1.90079   1.90241   1.90492   1.90559   1.90683
 Alpha virt. eigenvalues --    1.91043   1.91070   1.91176   1.91472   1.91757
 Alpha virt. eigenvalues --    1.91839   1.91914   1.92217   1.92304   1.92523
 Alpha virt. eigenvalues --    1.92830   1.93187   1.93529   1.93938   1.94012
 Alpha virt. eigenvalues --    1.94036   1.94207   1.94514   1.94797   1.94875
 Alpha virt. eigenvalues --    1.94927   1.95109   1.95552   1.95985   1.96085
 Alpha virt. eigenvalues --    1.96198   1.96555   1.96792   1.96933   1.97095
 Alpha virt. eigenvalues --    1.97373   1.97646   1.97872   1.97974   1.98093
 Alpha virt. eigenvalues --    1.98159   1.98622   1.98798   1.99066   1.99219
 Alpha virt. eigenvalues --    1.99721   1.99755   1.99915   2.00156   2.00267
 Alpha virt. eigenvalues --    2.00528   2.00692   2.01113   2.01181   2.01379
 Alpha virt. eigenvalues --    2.01624   2.01773   2.01835   2.02375   2.02692
 Alpha virt. eigenvalues --    2.02907   2.02996   2.03665   2.03985   2.04276
 Alpha virt. eigenvalues --    2.04731   2.04931   2.05286   2.05496   2.05704
 Alpha virt. eigenvalues --    2.05792   2.06033   2.06222   2.06283   2.06386
 Alpha virt. eigenvalues --    2.06767   2.07380   2.07632   2.07837   2.08349
 Alpha virt. eigenvalues --    2.08431   2.08825   2.08938   2.09177   2.09444
 Alpha virt. eigenvalues --    2.09998   2.10074   2.10548   2.10878   2.10933
 Alpha virt. eigenvalues --    2.11509   2.11741   2.11953   2.12034   2.12282
 Alpha virt. eigenvalues --    2.12706   2.12983   2.13136   2.13348   2.13658
 Alpha virt. eigenvalues --    2.13940   2.14091   2.14193   2.14456   2.14737
 Alpha virt. eigenvalues --    2.15017   2.15549   2.16037   2.16458   2.16682
 Alpha virt. eigenvalues --    2.16789   2.16848   2.16990   2.17405   2.17508
 Alpha virt. eigenvalues --    2.17654   2.17973   2.18651   2.18811   2.19139
 Alpha virt. eigenvalues --    2.19327   2.19660   2.19763   2.20050   2.20354
 Alpha virt. eigenvalues --    2.20670   2.20928   2.21205   2.21635   2.21988
 Alpha virt. eigenvalues --    2.22096   2.22547   2.22908   2.23419   2.23867
 Alpha virt. eigenvalues --    2.24441   2.24644   2.24774   2.25343   2.25453
 Alpha virt. eigenvalues --    2.25926   2.26164   2.26440   2.26617   2.26754
 Alpha virt. eigenvalues --    2.27203   2.27603   2.27969   2.28333   2.28765
 Alpha virt. eigenvalues --    2.28978   2.29385   2.29845   2.30252   2.30779
 Alpha virt. eigenvalues --    2.31083   2.31349   2.31493   2.31698   2.32426
 Alpha virt. eigenvalues --    2.33351   2.33533   2.33646   2.34240   2.34410
 Alpha virt. eigenvalues --    2.34571   2.34879   2.35148   2.35452   2.35898
 Alpha virt. eigenvalues --    2.36556   2.36771   2.36842   2.36902   2.37262
 Alpha virt. eigenvalues --    2.37621   2.37680   2.37955   2.38134   2.38427
 Alpha virt. eigenvalues --    2.38910   2.39048   2.39278   2.39883   2.40015
 Alpha virt. eigenvalues --    2.40560   2.41002   2.41029   2.41163   2.41398
 Alpha virt. eigenvalues --    2.41558   2.41910   2.42440   2.42863   2.43367
 Alpha virt. eigenvalues --    2.44036   2.44064   2.44453   2.44877   2.45262
 Alpha virt. eigenvalues --    2.45474   2.45744   2.45882   2.46038   2.46191
 Alpha virt. eigenvalues --    2.46627   2.46864   2.47339   2.47644   2.47874
 Alpha virt. eigenvalues --    2.48380   2.48570   2.48833   2.49269   2.49507
 Alpha virt. eigenvalues --    2.49640   2.50495   2.51265   2.51556   2.51914
 Alpha virt. eigenvalues --    2.52010   2.52572   2.52686   2.53128   2.53908
 Alpha virt. eigenvalues --    2.53949   2.54254   2.54612   2.55106   2.55717
 Alpha virt. eigenvalues --    2.55850   2.56380   2.56624   2.56750   2.57040
 Alpha virt. eigenvalues --    2.57555   2.57749   2.58280   2.58377   2.58493
 Alpha virt. eigenvalues --    2.58944   2.59392   2.59484   2.59783   2.60109
 Alpha virt. eigenvalues --    2.60396   2.60464   2.61059   2.61130   2.61401
 Alpha virt. eigenvalues --    2.61552   2.61796   2.62238   2.62596   2.62789
 Alpha virt. eigenvalues --    2.62945   2.63000   2.63289   2.63853   2.64159
 Alpha virt. eigenvalues --    2.64712   2.64917   2.65460   2.65707   2.66086
 Alpha virt. eigenvalues --    2.66294   2.66395   2.66833   2.67107   2.68066
 Alpha virt. eigenvalues --    2.68545   2.68616   2.69492   2.69668   2.69968
 Alpha virt. eigenvalues --    2.69993   2.70412   2.70516   2.70669   2.70969
 Alpha virt. eigenvalues --    2.71171   2.71492   2.71653   2.72070   2.72209
 Alpha virt. eigenvalues --    2.72237   2.72247   2.72686   2.72791   2.73028
 Alpha virt. eigenvalues --    2.73510   2.73607   2.73868   2.74451   2.74942
 Alpha virt. eigenvalues --    2.75177   2.75293   2.75525   2.75762   2.75881
 Alpha virt. eigenvalues --    2.76141   2.76229   2.76390   2.76690   2.76907
 Alpha virt. eigenvalues --    2.77120   2.77326   2.77651   2.78115   2.78766
 Alpha virt. eigenvalues --    2.78851   2.79125   2.79476   2.79639   2.79861
 Alpha virt. eigenvalues --    2.80351   2.80541   2.80758   2.81084   2.81258
 Alpha virt. eigenvalues --    2.81631   2.82118   2.82382   2.82834   2.83051
 Alpha virt. eigenvalues --    2.83315   2.83668   2.83818   2.84447   2.84459
 Alpha virt. eigenvalues --    2.84537   2.84629   2.84697   2.85045   2.85330
 Alpha virt. eigenvalues --    2.85718   2.85903   2.86307   2.86364   2.87048
 Alpha virt. eigenvalues --    2.87486   2.87817   2.87857   2.88136   2.88161
 Alpha virt. eigenvalues --    2.88211   2.88505   2.88574   2.89115   2.89832
 Alpha virt. eigenvalues --    2.90247   2.90503   2.90609   2.90873   2.91084
 Alpha virt. eigenvalues --    2.91538   2.91728   2.91987   2.92270   2.92601
 Alpha virt. eigenvalues --    2.92863   2.93341   2.93521   2.94260   2.94376
 Alpha virt. eigenvalues --    2.94600   2.95124   2.95505   2.95676   2.96080
 Alpha virt. eigenvalues --    2.96232   2.96853   2.97102   2.97411   2.97556
 Alpha virt. eigenvalues --    2.97603   2.97899   2.98161   2.98347   2.98995
 Alpha virt. eigenvalues --    2.99065   2.99204   2.99885   3.00243   3.00677
 Alpha virt. eigenvalues --    3.00858   3.01289   3.01586   3.01800   3.02276
 Alpha virt. eigenvalues --    3.03042   3.03568   3.03771   3.04387   3.05229
 Alpha virt. eigenvalues --    3.05671   3.05702   3.06278   3.06849   3.07117
 Alpha virt. eigenvalues --    3.07481   3.07818   3.08492   3.08967   3.09344
 Alpha virt. eigenvalues --    3.09573   3.10472   3.10702   3.10899   3.11604
 Alpha virt. eigenvalues --    3.12304   3.12809   3.13426   3.14086   3.14444
 Alpha virt. eigenvalues --    3.14718   3.14790   3.15188   3.15199   3.16204
 Alpha virt. eigenvalues --    3.16748   3.16861   3.17259   3.17870   3.18050
 Alpha virt. eigenvalues --    3.18502   3.19020   3.19070   3.19789   3.20102
 Alpha virt. eigenvalues --    3.20391   3.20509   3.20744   3.21390   3.21502
 Alpha virt. eigenvalues --    3.21602   3.21769   3.22380   3.22965   3.23755
 Alpha virt. eigenvalues --    3.23853   3.24398   3.24587   3.24776   3.25271
 Alpha virt. eigenvalues --    3.25405   3.25683   3.27365   3.27831   3.28140
 Alpha virt. eigenvalues --    3.28559   3.28753   3.29306   3.29670   3.30361
 Alpha virt. eigenvalues --    3.30659   3.31907   3.32305   3.32940   3.33038
 Alpha virt. eigenvalues --    3.33596   3.34024   3.38114   3.40441   3.41548
 Alpha virt. eigenvalues --    3.41578   3.42492   3.50984   3.51644   3.52824
 Alpha virt. eigenvalues --    3.53643   3.53915   3.54085   3.55102   3.55317
 Alpha virt. eigenvalues --    3.56110   3.56552   3.58364   3.59092   3.60056
 Alpha virt. eigenvalues --    3.60498   3.62427   3.63126   3.63754   3.64362
 Alpha virt. eigenvalues --    3.64935   3.65633   3.66696   3.67738   3.68255
 Alpha virt. eigenvalues --    3.69696   3.69859   3.70524   3.70560   3.70739
 Alpha virt. eigenvalues --    3.70850   3.71425   3.71712   3.72584   3.72834
 Alpha virt. eigenvalues --    3.73216   3.73314   3.73999   3.74945   3.75742
 Alpha virt. eigenvalues --    3.76264   3.77171   3.80604   3.87150
          Condensed to atoms (all electrons):
 Mulliken charges:
               1
     1  C    0.085237
     2  C    0.008527
     3  O   -0.284674
     4  H   -0.004499
     5  H    0.054161
     6  H   -0.022970
     7  N   -0.100771
     8  C    0.036317
     9  C    0.062486
    10  O   -0.246557
    11  C    0.156717
    12  C    0.127625
    13  O   -0.456226
    14  O   -0.387490
    15  H    0.123709
    16  H    0.025196
    17  H   -0.017093
    18  H    0.028613
    19  N   -0.161844
    20  C    0.196609
    21  C    0.045477
    22  O   -0.283113
    23  C   -0.044453
    24  C    0.038186
    25  C   -0.056237
    26  C    0.049885
    27  N    0.079878
    28  H    0.147102
    29  H    0.004250
    30  H    0.028545
    31  H    0.009564
    32  H   -0.016534
    33  H    0.003744
    34  H    0.051803
    35  H    0.043931
    36  H    0.077020
    37  H    0.063161
    38  H    0.185404
    39  H    0.211825
    40  H    0.200850
    41  N   -0.136510
    42  C    0.068585
    43  C    0.092888
    44  O   -0.281329
    45  C    0.167632
    46  C    0.081781
    47  O   -0.411904
    48  O   -0.437326
    49  H    0.113646
    50  H    0.013499
    51  H   -0.010609
    52  H    0.014964
    53  N   -0.168744
    54  C    0.200587
    55  C    0.037880
    56  O   -0.284501
    57  H    0.145761
    58  H    0.021688
    59  H    0.044647
    60  N   -0.165233
    61  C    0.115517
    62  C    0.039893
    63  O   -0.304830
    64  C    0.127799
    65  C    0.004361
    66  N   -0.022900
    67  O   -0.328869
    68  H    0.160639
    69  H    0.028469
    70  H    0.071545
    71  H   -0.015964
    72  H    0.147208
    73  H    0.126088
    74  N   -0.195434
    75  C    0.225985
    76  C    0.060007
    77  O   -0.283932
    78  H    0.156192
    79  H    0.038965
    80  H    0.044637
    81  N   -0.174680
    82  C    0.108062
    83  C    0.129457
    84  O   -0.314608
    85  C    0.188290
    86  C   -0.037430
    87  C    0.033782
    88  C   -0.003889
    89  C   -0.031827
    90  C   -0.064666
    91  C    0.205075
    92  O   -0.212159
    93  H    0.151322
    94  H   -0.010998
    95  H   -0.003285
    96  H   -0.067598
    97  H   -0.040064
    98  H   -0.067082
    99  H   -0.030841
   100  H   -0.030064
   101  H    0.178844
   102  N   -0.117281
   103  C    0.090030
   104  C    0.063026
   105  O   -0.288329
   106  C   -0.038151
   107  C    0.034831
   108  C    0.023285
   109  C    0.010702
   110  H    0.130137
   111  H    0.033486
   112  H   -0.024731
   113  H    0.010897
   114  H    0.007384
   115  H   -0.005556
   116  H    0.007767
   117  H    0.059372
   118  H    0.013664
   119  H    0.001542
   120  H   -0.005470
   121  N   -0.144131
   122  C    0.097956
   123  C    0.085792
   124  O   -0.282247
   125  C    0.229700
   126  O   -0.297400
   127  H    0.144600
   128  H    0.035271
   129  H   -0.014165
   130  H    0.021878
   131  H    0.182210
   132  N   -0.106373
   133  C    0.104143
   134  C    0.021405
   135  O   -0.255065
   136  C    0.049443
   137  H    0.117550
   138  H    0.019165
   139  H    0.039061
   140  H    0.010646
   141  H    0.060451
   142  N   -0.134073
   143  C    0.082288
   144  C    0.062968
   145  O   -0.279009
   146  C    0.053451
   147  H    0.102950
   148  H    0.022527
   149  H    0.037030
   150  H    0.017974
   151  H    0.018590
   152  N   -0.171351
   153  C    0.131168
   154  C    0.094706
   155  O   -0.319448
   156  C   -0.046468
   157  C    0.096902
   158  C    0.157357
   159  O   -0.442287
   160  O   -0.424611
   161  H    0.121285
   162  H   -0.027527
   163  H    0.027309
   164  H   -0.004646
   165  H   -0.053176
   166  H    0.008162
   167  N   -0.166072
   168  C    0.137556
   169  H    0.027940
   170  H    0.023955
   171  H    0.010402
   172  H    0.132959
   173  Ca   1.287613
   174  O   -0.290085
   175  H    0.151644
   176  H    0.153742
 Sum of Mulliken charges =  -0.00000
 Mulliken charges with hydrogens summed into heavy atoms:
               1
     1  C    0.111929
     2  C    0.008527
     3  O   -0.284674
     7  N    0.022938
     8  C    0.061512
     9  C    0.062486
    10  O   -0.246557
    11  C    0.168236
    12  C    0.127625
    13  O   -0.456226
    14  O   -0.387490
    19  N   -0.014741
    20  C    0.200859
    21  C    0.045477
    22  O   -0.283113
    23  C   -0.006344
    24  C    0.025397
    25  C    0.039497
    26  C    0.190065
    27  N    0.677958
    41  N   -0.022864
    42  C    0.082084
    43  C    0.092888
    44  O   -0.281329
    45  C    0.171988
    46  C    0.081781
    47  O   -0.411904
    48  O   -0.437326
    53  N   -0.022983
    54  C    0.266921
    55  C    0.037880
    56  O   -0.284501
    60  N   -0.004594
    61  C    0.143986
    62  C    0.039893
    63  O   -0.304830
    64  C    0.183380
    65  C    0.004361
    66  N    0.250395
    67  O   -0.328869
    74  N   -0.039242
    75  C    0.309587
    76  C    0.060007
    77  O   -0.283932
    81  N   -0.023358
    82  C    0.097065
    83  C    0.129457
    84  O   -0.314608
    85  C    0.117407
    86  C   -0.037430
    87  C   -0.006282
    88  C   -0.070971
    89  C   -0.062669
    90  C   -0.094729
    91  C    0.205075
    92  O   -0.033316
   102  N    0.012856
   103  C    0.123516
   104  C    0.063026
   105  O   -0.288329
   106  C   -0.062882
   107  C    0.053111
   108  C    0.084868
   109  C    0.020437
   121  N    0.000469
   122  C    0.133227
   123  C    0.085792
   124  O   -0.282247
   125  C    0.237414
   126  O   -0.115190
   132  N    0.011177
   133  C    0.123308
   134  C    0.021405
   135  O   -0.255065
   136  C    0.159600
   142  N   -0.031123
   143  C    0.104814
   144  C    0.062968
   145  O   -0.279009
   146  C    0.127046
   152  N   -0.050066
   153  C    0.103641
   154  C    0.094706
   155  O   -0.319448
   156  C   -0.023806
   157  C    0.051888
   158  C    0.157357
   159  O   -0.442287
   160  O   -0.424611
   167  N   -0.033112
   168  C    0.199853
   173  Ca   1.287613
   174  O    0.015301
 DipInt: DoE/N= T F RetVal/Mat= T F Init=T NMatP=  1 IDeriv=0 Min/MaxMlt=  0  4
 Entering OneElI...
 OneElI was handed  1333951383 working-precision words.
 Multipole integrals L=0 to 4 MinM= 0 MaxM= 0.
 Requested accuracy = 0.1000D-12
 ShPair: Thresh= 1.00D-13 NBox=     0 BxSize= 0.00D+00 RnKept= 2.55D+01
         NSMCal=               327645 NSMKep=              158919
 PrmmSu-InSpLW:  IPartL=    0 NPrtUS=    1 NPrtUL=    1 DoSpLW=F IThBeg=    0 IThEnd=    0 NThAct=    1.
 PrsmSu:  NPrtUS=   1 ThrOK=F IAlg=1 NPAlg=1 LenDen=           0 ISkipM=0 DoSpLW=F IThBeg=    0 IThEnd=    0.
 Prism:   IPart=     0 DynPar=F LinDyn=F Incr=         512.
 PRISM was handed  1323936955 working-precision words and158919 shell-pairs
 IPart=  0 NShTot=      158919 NBatch=         364 AvBLen=       436.6
 PrsmSu-ThDecC:  IPartSL=    0    0 NPrtUSL=    1    1 IThBeg=    0 IThEnd=    0 CPU=   -1 GPU=   -1 NThAct=    1.
 PrSmSu:  NxtVal=            513.
 Electronic moments (au):
       -716.00000000         14.49325801          0.19795369         -0.21327728
     -52840.74332787     -33598.76836587     -10681.28502164         84.10850031
         21.43212973         88.25303637     -99995.73445842     -43170.32891529
     -10731.76391092      46310.38621024     103006.74610970      42215.73463534
     -13329.75781965      -4381.88153007     -10275.01294425     -37720.08380566
   -7889678.01288812   -3783907.41385591    -440076.40531891      67357.60996156
     449163.15937738    -758009.90634719     -19438.90627550     -44559.29161594
      30602.04649479   -2290632.94094026    -617796.62829632    -324548.96778468
     -71794.25380174     -32302.74558495      43979.99943485
 Electronic spatial extent (au):  <R**2>=          97120.7967
 DipInt: DoE/N= F T RetVal/Mat= T F Init=T NMatP=  1 IDeriv=0 Min/MaxMlt=  0  4
 Nuclear    moments (au):
        716.00000000          0.00000000         -0.00000000         -0.00000000
      52371.05308554      33288.56927161      10293.28819867          0.00000000
         -0.00000000          0.00000000     101311.62244184      44271.94346830
      10695.91091034     -44256.93083676    -103476.39160868     -42624.09490510
      13677.50089946       4373.33265208      10486.67174970      37934.16732291
    7688701.59578998    3681513.41580220     404073.12558153     -61631.26013445
    -448562.10672271     773997.58970779      29521.74875574      45532.52643697
     -27646.91478351    2249662.73860897     583992.23653644     301525.07632219
      80005.13720363      35573.72312931     -43087.71966827
 Total      moments (au):
          0.00000000         14.49325801          0.19795369         -0.21327728
       -469.69024233       -310.19909425       -387.99682298         84.10850031
         21.43212973         88.25303637       1315.88798342       1101.61455301
        -35.85300058       2053.45537348       -469.64549897       -408.36026977
        347.74307981         -8.54887799        211.65880545        214.08351725
    -200976.41709814    -102393.99805371     -36003.27973738       5726.34982711
        601.05265467      15987.68336060      10082.84248024        973.23482103
       2955.13171128     -40970.20233130     -33804.39175988     -23023.89146249
       8210.88340189       3270.97754436        892.27976658
 Traceless Quadrup. (au):
        -80.39485581         79.09629227          1.29856354         84.10850031
         21.43212973         88.25303637
 Charge=              0.0000 electrons
 Dipole moment (field-independent basis, Debye):
    X=             36.8382    Y=              0.5031    Z=             -0.5421  Tot=             36.8456
 Quadrupole moment (field-independent basis, Debye-Ang):
   XX=           -631.7495   YY=           -417.2284   ZZ=           -521.8690
   XY=            113.1288   XZ=             28.8269   YZ=            118.7034
 Traceless Quadrupole moment (field-independent basis, Debye-Ang):
   XX=           -108.1338   YY=            106.3872   ZZ=              1.7466
   XY=            113.1288   XZ=             28.8269   YZ=            118.7034
 Octapole moment (field-independent basis, Debye-Ang**2):
  XXX=            936.5984  YYY=            784.0868  ZZZ=            -25.5188  XYY=           1461.5704
  XXY=           -334.2756  XXZ=           -290.6551  XZZ=            247.5101  YZZ=             -6.0848
  YYZ=            150.6506  XYZ=            152.3764
 Hexadecapole moment (field-independent basis, Debye-Ang**3):
 XXXX=         -75697.3558 YYYY=         -38566.4896 ZZZZ=         -13560.5616 XXXY=           2156.8179
 XXXZ=            226.3853 YYYX=           6021.7282 YYYZ=           3797.6820 ZZZX=            366.5669
 ZZZY=           1113.0443 XXYY=         -15431.3428 XXZZ=         -12732.3549 YYZZ=          -8671.9016
 XXYZ=           3092.6124 YYXZ=           1232.0070 ZZXY=            336.0753
 N-N= 2.161730968372D+04 E-N=-5.571666718242D+04  KE= 5.290600489124D+03
 Leave Link  601 at Sat Sep 14 23:27:41 2019, MaxMem=  1342177280 cpu:              42.1 elap:               1.1
 FitSet:  NAtFit=   176 NAtPot=   176 NAtFrz=     0 MDM=   180 TotChg=   0.00000
 Merz-Kollman atomic radii used.
 Read replacement radii for each type of atom:
 Rad(20) =   1.700000000000D+00
 Atom Element Radius
    1     6    1.50
    2     6    1.50
    3     8    1.40
    4     1    1.20
    5     1    1.20
    6     1    1.20
    7     7    1.50
    8     6    1.50
    9     6    1.50
   10     8    1.40
   11     6    1.50
   12     6    1.50
   13     8    1.40
   14     8    1.40
   15     1    1.20
   16     1    1.20
   17     1    1.20
   18     1    1.20
   19     7    1.50
   20     6    1.50
   21     6    1.50
   22     8    1.40
   23     6    1.50
   24     6    1.50
   25     6    1.50
   26     6    1.50
   27     7    1.50
   28     1    1.20
   29     1    1.20
   30     1    1.20
   31     1    1.20
   32     1    1.20
   33     1    1.20
   34     1    1.20
   35     1    1.20
   36     1    1.20
   37     1    1.20
   38     1    1.20
   39     1    1.20
   40     1    1.20
   41     7    1.50
   42     6    1.50
   43     6    1.50
   44     8    1.40
   45     6    1.50
   46     6    1.50
   47     8    1.40
   48     8    1.40
   49     1    1.20
   50     1    1.20
   51     1    1.20
   52     1    1.20
   53     7    1.50
   54     6    1.50
   55     6    1.50
   56     8    1.40
   57     1    1.20
   58     1    1.20
   59     1    1.20
   60     7    1.50
   61     6    1.50
   62     6    1.50
   63     8    1.40
   64     6    1.50
   65     6    1.50
   66     7    1.50
   67     8    1.40
   68     1    1.20
   69     1    1.20
   70     1    1.20
   71     1    1.20
   72     1    1.20
   73     1    1.20
   74     7    1.50
   75     6    1.50
   76     6    1.50
   77     8    1.40
   78     1    1.20
   79     1    1.20
   80     1    1.20
   81     7    1.50
   82     6    1.50
   83     6    1.50
   84     8    1.40
   85     6    1.50
   86     6    1.50
   87     6    1.50
   88     6    1.50
   89     6    1.50
   90     6    1.50
   91     6    1.50
   92     8    1.40
   93     1    1.20
   94     1    1.20
   95     1    1.20
   96     1    1.20
   97     1    1.20
   98     1    1.20
   99     1    1.20
  100     1    1.20
  101     1    1.20
  102     7    1.50
  103     6    1.50
  104     6    1.50
  105     8    1.40
  106     6    1.50
  107     6    1.50
  108     6    1.50
  109     6    1.50
  110     1    1.20
  111     1    1.20
  112     1    1.20
  113     1    1.20
  114     1    1.20
  115     1    1.20
  116     1    1.20
  117     1    1.20
  118     1    1.20
  119     1    1.20
  120     1    1.20
  121     7    1.50
  122     6    1.50
  123     6    1.50
  124     8    1.40
  125     6    1.50
  126     8    1.40
  127     1    1.20
  128     1    1.20
  129     1    1.20
  130     1    1.20
  131     1    1.20
  132     7    1.50
  133     6    1.50
  134     6    1.50
  135     8    1.40
  136     6    1.50
  137     1    1.20
  138     1    1.20
  139     1    1.20
  140     1    1.20
  141     1    1.20
  142     7    1.50
  143     6    1.50
  144     6    1.50
  145     8    1.40
  146     6    1.50
  147     1    1.20
  148     1    1.20
  149     1    1.20
  150     1    1.20
  151     1    1.20
  152     7    1.50
  153     6    1.50
  154     6    1.50
  155     8    1.40
  156     6    1.50
  157     6    1.50
  158     6    1.50
  159     8    1.40
  160     8    1.40
  161     1    1.20
  162     1    1.20
  163     1    1.20
  164     1    1.20
  165     1    1.20
  166     1    1.20
  167     7    1.50
  168     6    1.50
  169     1    1.20
  170     1    1.20
  171     1    1.20
  172     1    1.20
  173    20    1.70
  174     8    1.40
[...]
 **** Fit      -0.047403
 **** Fit      -0.044672
 **** Fit      -0.040623
 **** Fit      -0.036202
 **** Fit      -0.032473
 **** Fit      -0.029751
 **** Fit      -0.027464
 **** Fit      -0.024941
 **** Fit      -0.022150
 **** Fit      -0.019685
 **** Fit      -0.018187
 **** Fit      -0.017925
 **** Fit      -0.018803
 **** Fit      -0.020568
 **** Fit      -0.022947
 **** Fit      -0.029043
 **** Fit      -0.032101
 **** Fit      -0.035386
 **** Fit      -0.038750
 **** Fit      -0.041883
 **** Fit      -0.044202
 **** Fit      -0.045013
 **** Fit      -0.043919
 **** Fit      -0.041113
 **** Fit      -0.037428
 **** Fit      -0.033886
 **** Fit      -0.030863
 **** Fit      -0.028112
 **** Fit      -0.025633
 **** Fit      -0.023944
 **** Fit      -0.023527
 **** Fit      -0.024432
 **** Fit      -0.026389
 **** Fit      -0.031836
 **** Fit      -0.035041
 **** Fit      -0.038363
 **** Fit      -0.041010
 **** Fit      -0.041962
 **** Fit      -0.040627
 **** Fit      -0.037582
 **** Fit      -0.034134
 **** Fit      -0.031097
 **** Fit      -0.028924
 **** Fit      -0.028264
 **** Fit      -0.029367
 **** Fit      -0.034085
 **** Fit      -0.037372
 **** Fit      -0.038964
 **** Fit      -0.036990
 **** Fit      -0.033695
 **** Fit      -0.032299
 **** Fit      -0.035806
 **** Fit      -0.003990
 **** Fit       0.011255
 **** Fit       0.025422
 **** Fit       0.037724
 **** Fit       0.037197
 **** Fit       0.008442
 **** Fit       0.021051
 **** Fit       0.031648
 **** Fit       0.039327
 **** Fit       0.042909
 **** Fit       0.041735
 **** Fit       0.036293
 **** Fit       0.027990
 **** Fit       0.008476
 **** Fit       0.019387
 **** Fit       0.027878
 **** Fit       0.033398
 **** Fit       0.035331
 **** Fit       0.033504
 **** Fit       0.028456
 **** Fit       0.021289
 **** Fit       0.009446
 **** Fit       0.018225
 **** Fit       0.024334
 **** Fit       0.027462
 **** Fit       0.027416
 **** Fit       0.024431
 **** Fit       0.019253
 **** Fit       0.000459
 **** Fit       0.009544
 **** Fit       0.016068
 **** Fit       0.020011
 **** Fit       0.021287
 **** Fit       0.020026
 **** Fit       0.005100
 **** Fit       0.011271
 **** Fit       0.014883
 **** Fit       0.015977
 **** Fit       0.014883
 **** Fit       0.002033
 **** Fit       0.007659
 **** Fit       0.010958
 **** Fit       0.012030
 **** Fit       0.001569
 **** Fit       0.006149
 **** Fit       0.008742
 **** Fit       0.002912
 **** Fit       0.006248
 **** Fit       0.035460
 **** Fit       0.034587
 **** Fit       0.029900
 **** Fit       0.021743
 **** Fit       0.011773
 **** Fit       0.026174
 **** Fit       0.020236
 **** Fit       0.011553
 **** Fit       0.000960
 **** Fit      -0.011500
 **** Fit       0.020772
 **** Fit       0.016657
 **** Fit       0.009580
 **** Fit       0.000065
 **** Fit       0.029786
 **** Fit       0.002221
 **** Fit       0.013608
 **** Fit       0.019435
 **** Fit       0.009275
 **** Fit       0.016664
 **** Fit       0.011808
 **** Fit       0.016272
 **** Fit       0.012859
 **** Fit       0.006979
 **** Fit      -0.001230
 **** Fit       0.014538
 **** Fit       0.013743
 **** Fit       0.010854
 **** Fit       0.005726
 **** Fit      -0.001646
 **** Fit      -0.011153
 **** Fit       0.011187
 **** Fit       0.011358
 **** Fit       0.009756
 **** Fit       0.006135
 **** Fit       0.000359
 **** Fit      -0.007615
 **** Fit      -0.017716
 **** Fit       0.005398
 **** Fit       0.007007
 **** Fit       0.008315
 **** Fit       0.008652
 **** Fit       0.007551
 **** Fit       0.004680
 **** Fit      -0.000181
 **** Fit      -0.007150
 **** Fit      -0.016244
 **** Fit      -0.027319
 **** Fit       0.006186
 **** Fit       0.006071
 **** Fit       0.006435
 **** Fit       0.006463
 **** Fit       0.005543
 **** Fit       0.003236
 **** Fit      -0.000758
 **** Fit      -0.006619
 **** Fit      -0.014414
 **** Fit      -0.024092
 **** Fit       0.006359
 **** Fit       0.005533
 **** Fit       0.004777
 **** Fit       0.003346
 **** Fit       0.000672
 **** Fit      -0.003633
 **** Fit      -0.009781
 **** Fit      -0.017826
 **** Fit      -0.027693
 **** Fit       0.006886
 **** Fit       0.005036
 **** Fit       0.003500
 **** Fit       0.001546
 **** Fit      -0.001476
 **** Fit      -0.006029
 **** Fit      -0.012340
 **** Fit      -0.020410
 **** Fit      -0.030086
 **** Fit       0.004213
 **** Fit       0.002098
 **** Fit      -0.000479
 **** Fit      -0.004192
 **** Fit      -0.009532
 **** Fit      -0.016610
 **** Fit      -0.025101
 **** Fit       0.002018
 **** Fit       0.000088
 **** Fit      -0.003156
 **** Fit      -0.008144
 **** Fit      -0.015051
 **** Fit      -0.022810
 **** Fit       0.002006
 **** Fit      -0.003292
 **** Fit      -0.006230
 **** Fit      -0.012818
 **** Fit      -0.018074
 **** Fit      -0.014253
 **** Fit      -0.006121
 **** Fit      -0.009861
 **** Fit       0.011363
 **** Fit       0.011132
 **** Fit       0.011433
 **** Fit       0.011562
 **** Fit       0.011137
 **** Fit       0.010840
 **** Fit       0.011201
 **** Fit       0.011612
 **** Fit       0.011786
 **** Fit       0.011710
 **** Fit       0.011653
 **** Fit       0.010891
 **** Fit       0.010728
 **** Fit       0.010445
 **** Fit       0.010805
 **** Fit       0.011337
 **** Fit       0.011739
 **** Fit       0.011580
 **** Fit       0.010632
 **** Fit       0.010386
 **** Fit       0.010314
 **** Fit       0.009911
 **** Fit       0.010245
 **** Fit       0.010820
 **** Fit       0.011401
 **** Fit       0.011255
 **** Fit       0.010439
 **** Fit       0.010110
 **** Fit       0.009898
 **** Fit       0.009815
 **** Fit       0.009214
 **** Fit       0.009457
 **** Fit       0.009956
 **** Fit       0.010520
 **** Fit       0.010628
 **** Fit       0.010658
 **** Fit       0.010207
 **** Fit       0.009847
 **** Fit       0.009554
 **** Fit       0.009326
 **** Fit       0.009192
 **** Fit       0.008337
 **** Fit       0.008473
 **** Fit       0.008890
 **** Fit       0.008886
 **** Fit       0.009199
 **** Fit       0.009552
 **** Fit       0.010679
 **** Fit       0.010175
 **** Fit       0.009741
 **** Fit       0.009356
 **** Fit       0.009001
 **** Fit       0.008678
 **** Fit       0.008431
 **** Fit       0.007262
 **** Fit       0.007249
 **** Fit       0.007524
 **** Fit       0.006200
 **** Fit       0.007631
 **** Fit       0.010794
 **** Fit       0.010233
 **** Fit       0.009720
 **** Fit       0.005766
 **** Fit       0.005871
 **** Fit       0.011186
 **** Fit       0.010522
 **** Fit       0.003968
 **** Fit       0.003882
 **** Fit       0.004067
 **** Fit       0.011805
 **** Fit       0.010998
 **** Fit       0.001499
 **** Fit       0.001470
 **** Fit       0.013478
 **** Fit       0.012931
 **** Fit       0.011975
 **** Fit      -0.001408
 **** Fit      -0.001629
 **** Fit       0.014668
 **** Fit       0.014740
 **** Fit       0.014057
 **** Fit       0.012615
 **** Fit      -0.004967
 **** Fit      -0.005357
 **** Fit      -0.005822
 **** Fit       0.016109
 **** Fit       0.016474
 **** Fit      -0.009328
 **** Fit      -0.009833
 **** Fit      -0.010586
 **** Fit      -0.011811
 **** Fit      -0.014689
 **** Fit      -0.015312
 **** Fit      -0.016440
 **** Fit      -0.018311
 **** Fit      -0.021146
 **** Fit      -0.021955
 **** Fit      -0.023607
 **** Fit      -0.028660
 **** Fit       0.008979
 **** Fit       0.007441
 **** Fit       0.009203
 **** Fit       0.008620
 **** Fit       0.008102
 **** Fit       0.007694
 **** Fit       0.006244
 **** Fit       0.006068
 **** Fit       0.009817
 **** Fit       0.009088
 **** Fit       0.008349
 **** Fit       0.007660
 **** Fit       0.007062
 **** Fit       0.006584
 **** Fit       0.004768
 **** Fit       0.004491
 **** Fit       0.004358
 **** Fit       0.009889
 **** Fit       0.008965
 **** Fit       0.008019
 **** Fit       0.007129
 **** Fit       0.006348
 **** Fit       0.005695
 **** Fit       0.005170
 **** Fit       0.002892
 **** Fit       0.002535
 **** Fit       0.002274
 **** Fit       0.010505
 **** Fit       0.009263
 **** Fit       0.007941
 **** Fit       0.006680
 **** Fit       0.005574
 **** Fit       0.004659
 **** Fit       0.003927
 **** Fit       0.003349
 **** Fit       0.000460
 **** Fit       0.000070
 **** Fit      -0.000282
 **** Fit      -0.000602
 **** Fit       0.011426
 **** Fit       0.009750
 **** Fit       0.007877
 **** Fit       0.006063
 **** Fit       0.004480
 **** Fit       0.003200
 **** Fit       0.002217
 **** Fit       0.001478
 **** Fit       0.000913
 **** Fit      -0.002741
 **** Fit      -0.003097
 **** Fit      -0.003490
 **** Fit      -0.003945
 **** Fit       0.011053
 **** Fit       0.008349
 **** Fit       0.005570
 **** Fit       0.003105
 **** Fit       0.001146
 **** Fit      -0.000282
 **** Fit      -0.001260
 **** Fit      -0.001914
 **** Fit      -0.002372
 **** Fit      -0.007006
 **** Fit      -0.007218
 **** Fit      -0.007592
 **** Fit      -0.008168
 **** Fit      -0.005448
 **** Fit      -0.006319
 **** Fit      -0.006713
 **** Fit      -0.006879
 **** Fit      -0.012758
 **** Fit      -0.012586
 **** Fit      -0.012813
 **** Fit      -0.013479
 **** Fit      -0.019384
 **** Fit      -0.019995
 **** Fit       0.011755
 **** Fit       0.012279
 **** Fit       0.012302
 **** Fit       0.011383
 **** Fit       0.011963
 **** Fit       0.012601
 **** Fit       0.012889
 **** Fit       0.012616
 **** Fit       0.012010
 **** Fit       0.010769
 **** Fit       0.011303
 **** Fit       0.012034
 **** Fit       0.012749
 **** Fit       0.013193
 **** Fit       0.013166
 **** Fit       0.012663
 **** Fit       0.011927
 **** Fit       0.009892
 **** Fit       0.010377
 **** Fit       0.011102
 **** Fit       0.011934
 **** Fit       0.012698
 **** Fit       0.013187
 **** Fit       0.013209
 **** Fit       0.012700
 **** Fit       0.011825
 **** Fit       0.010920
 **** Fit       0.010254
 **** Fit       0.008725
 **** Fit       0.009148
 **** Fit       0.009832
 **** Fit       0.010672
 **** Fit       0.011540
 **** Fit       0.012270
 **** Fit       0.012657
 **** Fit       0.012508
 **** Fit       0.011745
 **** Fit       0.010534
 **** Fit       0.009288
 **** Fit       0.008425
 **** Fit       0.007557
 **** Fit       0.008140
 **** Fit       0.008890
 **** Fit       0.009708
 **** Fit       0.010471
 **** Fit       0.011011
 **** Fit       0.011124
 **** Fit       0.010609
 **** Fit       0.009385
 **** Fit       0.007630
 **** Fit       0.005820
 **** Fit       0.004550
 **** Fit       0.004148
 **** Fit       0.005579
 **** Fit       0.006065
 **** Fit       0.006706
 **** Fit       0.007401
 **** Fit       0.008023
 **** Fit       0.008400
 **** Fit       0.008299
 **** Fit       0.007455
 **** Fit       0.003111
 **** Fit       0.003439
 **** Fit       0.003884
 **** Fit       0.004330
 **** Fit       0.004635
 **** Fit       0.004607
 **** Fit       0.003973
 **** Fit       0.000198
 **** Fit       0.000373
 **** Fit       0.000442
 **** Fit       0.000219
 **** Fit      -0.000569
 **** Fit      -0.003804
 **** Fit      -0.004027
 **** Fit      -0.004576
 **** Fit      -0.005776
 **** Fit      -0.009630
 **** Fit      -0.011238
 **** Fit      -0.016579
 **** Fit       0.011653
 **** Fit       0.011400
 **** Fit       0.011574
 **** Fit       0.011791
 **** Fit       0.011919
 **** Fit       0.011765
 **** Fit       0.011474
 **** Fit       0.011666
 **** Fit       0.011836
 **** Fit       0.012036
 **** Fit       0.012203
 **** Fit       0.012181
 **** Fit       0.011916
 **** Fit       0.011579
 **** Fit       0.011289
 **** Fit       0.011131
 **** Fit       0.011693
 **** Fit       0.011928
 **** Fit       0.012203
 **** Fit       0.012528
 **** Fit       0.012680
 **** Fit       0.012471
 **** Fit       0.012093
 **** Fit       0.011731
 **** Fit       0.011409
 **** Fit       0.011123
 **** Fit       0.010916
 **** Fit       0.011290
 **** Fit       0.011624
 **** Fit       0.011992
 **** Fit       0.012423
 **** Fit       0.011990
 **** Fit       0.011662
 **** Fit       0.011356
 **** Fit       0.011045
 **** Fit       0.010772
 **** Fit       0.010527
 **** Fit       0.010988
 **** Fit       0.012370
 **** Fit       0.011991
 **** Fit       0.011729
 **** Fit       0.011448
 **** Fit       0.011107
 **** Fit       0.010750
 **** Fit       0.008933
 **** Fit       0.012237
 **** Fit       0.012034
 **** Fit       0.011889
 **** Fit       0.011655
 **** Fit       0.011294
 **** Fit       0.012165
 **** Fit       0.012216
 **** Fit       0.012134
 **** Fit       0.011826
 **** Fit       0.012550
 **** Fit       0.012724
 **** Fit       0.012574
 **** Fit       0.013273
 **** Fit       0.013516
 **** Fit       0.014469
 **** Fit      -0.000755
 **** Fit      -0.015165
 **** Fit      -0.008735
 **** Fit      -0.005986
 **** Fit      -0.006926
 **** Fit      -0.015615
 **** Fit      -0.011867
 **** Fit      -0.012697
 **** Fit      -0.017454
 **** Fit      -0.025271
 **** Fit      -0.023103
 **** Fit      -0.018101
 **** Fit      -0.019272
 **** Fit      -0.025468
 **** Fit      -0.034069
 **** Fit      -0.037357
 **** Fit      -0.024592
 **** Fit      -0.027280
 **** Fit      -0.031105
 **** Fit      -0.000771
 **** Fit       0.004343
 **** Fit       0.010162
 **** Fit       0.015685
 **** Fit       0.026726
 **** Fit       0.029821
 **** Fit      -0.000295
 **** Fit      -0.014027
 **** Fit      -0.019088
 **** Fit      -0.011957
 **** Fit      -0.005877
 **** Fit      -0.000050
 **** Fit       0.005896
 **** Fit       0.011320
 **** Fit       0.015498
 **** Fit       0.018590
 **** Fit       0.021265
 **** Fit       0.023690
 **** Fit       0.012207
 **** Fit      -0.001453
 **** Fit      -0.012369
 **** Fit      -0.018041
 **** Fit      -0.016264
 **** Fit      -0.010485
 **** Fit      -0.003907
 **** Fit       0.002616
 **** Fit       0.008278
 **** Fit       0.012355
 **** Fit       0.014724
 **** Fit       0.014305
 **** Fit       0.008842
 **** Fit      -0.001760
 **** Fit      -0.008945
 **** Fit      -0.006719
 **** Fit       0.000260
 **** Fit       0.005805
 **** Fit       0.005826
 **** Fit      -0.001194
 **** Fit       0.027986
 **** Fit       0.027856
 **** Fit       0.031976
 **** Fit       0.030640
 **** Fit       0.030526
 **** Fit       0.031281
 **** Fit       0.035100
 **** Fit       0.032786
 **** Fit       0.032189
 **** Fit       0.032927
 **** Fit       0.035072
 **** Fit       0.033379
 **** Fit       0.032777
 **** Fit       0.033731
 **** Fit       0.036413
 **** Fit       0.032335
 **** Fit       0.031960
 **** Fit       0.032933
 **** Fit       0.035408
 **** Fit       0.029270
 **** Fit       0.029441
 **** Fit       0.030122
 **** Fit       0.031636
 **** Fit       0.019790
 **** Fit       0.023788
 **** Fit       0.025528
 **** Fit       0.026472
 **** Fit       0.003201
 -----------------------------------------------------------------
 Leave Link  602 at Sat Sep 14 23:27:43 2019, MaxMem=  1342177280 cpu:             113.7 elap:               2.4

 Test job not archived.
 1\1\GINC-C503-034\SP\RB3LYP\SVP\C54H83Ca1N15O23\PENGZHI\14-Sep-2019\0\
 \#b3lyp/svp scf=(tight,noincore) Test #IOP(5/87=12) Density=Current Po
 p=(MK,readradii) iop(6/33=2) iop(6/42=6)\\CaMKII_loop3_100.0\\0,1\C,0,
 82.16,42.03,25.39\C,0,82.26,40.7,26.12\O,0,82.96,39.82,25.62\H,0,81.49
 ,42.694,25.936\H,0,83.148,42.485,25.326\H,0,81.769,41.866,24.386\N,0,8
 1.65,40.58,27.3\C,0,81.35,39.33,27.97\C,0,79.92,38.84,27.75\O,0,78.98,
 39.21,28.44\C,0,81.77,39.53,29.42\C,0,81.31,38.35,30.26\O,0,81.46,37.1
 5,29.94\O,0,80.94,38.66,31.42\H,0,81.09,41.35,27.64\H,0,81.88,38.49,27
 .52\H,0,81.33,40.45,29.79\H,0,82.85,39.61,29.55\N,0,79.82,38.21,26.57\
 C,0,78.58,37.72,26.\C,0,78.14,36.4,26.61\O,0,76.93,36.17,26.72\C,0,78.
 75,37.42,24.51\C,0,79.2,38.52,23.56\C,0,79.43,37.97,22.15\C,0,79.58,39
 .09,21.12\N,0,80.87,39.77,21.31\H,0,80.69,37.96,26.12\H,0,77.82,38.5,2
 6.05\H,0,77.76,37.06,24.21\H,0,79.4,36.57,24.28\H,0,80.15,38.97,23.82\
 H,0,78.44,39.3,23.58\H,0,78.52,37.39,21.97\H,0,80.28,37.29,22.12\H,0,7
 8.74,39.78,21.13\H,0,79.61,38.64,20.13\H,0,81.22,40.11,20.42\H,0,80.76
 ,40.57,21.92\H,0,81.64,39.15,21.49\N,0,79.03,35.51,27.03\C,0,78.68,34.
 39,27.87\C,0,78.34,34.8,29.3\O,0,77.61,34.06,29.96\C,0,79.8,33.36,27.7
 9\C,0,81.09,34.06,28.18\O,0,81.57,33.94,29.33\O,0,81.67,34.87,27.43\H,
 0,80.01,35.79,27.\H,0,77.84,33.88,27.4\H,0,79.82,32.98,26.77\H,0,79.66
 ,32.52,28.48\N,0,78.79,35.96,29.77\C,0,78.24,36.67,30.91\C,0,78.74,36.
 21,32.27\O,0,77.99,36.34,33.23\H,0,79.45,36.51,29.24\H,0,77.15,36.56,3
 0.97\H,0,78.52,37.71,30.73\N,0,79.98,35.73,32.34\C,0,80.67,35.11,33.45
 \C,0,81.4,36.14,34.3\O,0,81.68,35.94,35.49\C,0,81.67,34.08,32.94\C,0,8
 3.03,34.68,32.62\N,0,84.08,34.14,33.24\O,0,83.18,35.51,31.73\H,0,80.57
 ,35.84,31.52\H,0,79.89,34.58,34.01\H,0,81.38,33.5,32.07\H,0,81.85,33.4
 ,33.78\H,0,83.94,33.56,34.06\H,0,84.97,34.49,32.9\N,0,81.54,37.32,33.7
 1\C,0,82.06,38.49,34.41\C,0,83.41,39.05,33.99\O,0,83.91,40.08,34.43\H,
 0,81.23,37.42,32.75\H,0,82.09,38.24,35.47\H,0,81.24,39.18,34.22\N,0,84
 .02,38.33,33.04\C,0,85.38,38.52,32.58\C,0,85.47,38.6,31.06\O,0,84.7,37
 .92,30.4\C,0,86.32,37.5,33.2\C,0,86.25,37.64,34.71\C,0,87.05,38.55,35.
 41\C,0,85.4,36.75,35.36\C,0,87.05,38.47,36.81\C,0,85.37,36.74,36.76\C,
 0,86.23,37.56,37.52\O,0,86.45,37.35,38.85\H,0,83.58,37.46,32.77\H,0,85
 .6,39.56,32.82\H,0,87.38,37.54,32.94\H,0,85.93,36.5,33.01\H,0,87.61,39
 .31,34.89\H,0,84.76,36.05,34.84\H,0,87.72,39.12,37.35\H,0,84.65,36.09,
 37.24\H,0,85.98,36.61,39.25\N,0,86.3,39.51,30.54\C,0,86.54,39.66,29.12
 \C,0,87.95,39.11,29.02\O,0,88.93,39.45,29.68\C,0,86.54,41.06,28.5\C,0,
 85.27,41.86,28.78\C,0,86.78,40.89,27.01\C,0,85.4,43.37,28.63\H,0,86.84
 ,40.08,31.17\H,0,85.89,39.01,28.52\H,0,87.4,41.55,28.96\H,0,84.87,41.7
 8,29.79\H,0,84.48,41.6,28.06\H,0,86.74,41.89,26.57\H,0,87.79,40.56,26.
 75\H,0,86.09,40.17,26.57\H,0,84.41,43.83,28.62\H,0,86.02,43.67,29.48\H
 ,0,85.99,43.75,27.8\N,0,88.13,38.27,27.99\C,0,89.38,37.64,27.61\C,0,89
 .66,38.1,26.18\O,0,88.74,38.54,25.5\C,0,89.22,36.13,27.68\O,0,88.98,35
 .72,29.01\H,0,87.33,38.02,27.43\H,0,90.15,37.99,28.3\H,0,90.08,35.65,2
 7.21\H,0,88.33,35.85,27.11\H,0,89.37,34.86,29.15\N,0,90.9,37.91,25.71\
 C,0,91.41,38.38,24.43\C,0,90.56,38.02,23.22\O,0,90.27,38.89,22.41\C,0,
 92.82,37.91,24.12\H,0,91.56,37.37,26.24\H,0,91.28,39.46,24.49\H,0,93.5
 7,38.38,24.76\H,0,92.79,36.84,24.31\H,0,92.98,38.22,23.08\N,0,90.14,36
 .78,22.99\C,0,89.41,36.4,21.79\C,0,88.04,37.06,21.9\O,0,87.43,37.36,20
 .87\C,0,89.18,34.9,21.78\H,0,90.19,36.02,23.65\H,0,89.89,36.7,20.86\H,
 0,88.84,34.66,20.78\H,0,90.06,34.27,21.91\H,0,88.42,34.7,22.54\N,0,87.
 49,37.28,23.1\C,0,86.25,38.,23.31\C,0,86.27,39.49,23.\O,0,85.35,40.02,
 22.38\C,0,85.72,37.71,24.71\C,0,85.78,36.26,25.17\C,0,85.06,36.09,26.5
 \O,0,84.43,36.95,27.14\O,0,85.12,34.96,27.04\H,0,88.07,37.16,23.92\H,0
 ,85.58,37.47,22.62\H,0,84.7,38.09,24.65\H,0,86.25,38.31,25.45\H,0,86.8
 5,36.09,25.24\H,0,85.42,35.66,24.33\N,0,87.37,40.16,23.36\C,0,87.66,41
 .54,23.03\H,0,88.635,41.6,22.546\H,0,86.895,41.921,22.354\H,0,87.67,42
 .138,23.941\H,0,88.02,39.59,23.89\Ca,0,83.54,35.77,29.09\O,0,86.23,35.
 54,29.87\H,0,86.5,35.46,30.79\H,0,87.06,35.61,29.39\\Version=ES64L-G16
 RevA.03\State=1-A\HF=-5333.5608163\RMSD=5.458e-09\Dipole=7.3064623,2.0
 222247,-12.3557847\Quadrupole=-19.5159333,-8.0710779,27.5870111,-78.21
 23909,110.6300011,-52.1832533\PG=C01 [X(C54H83Ca1N15O23)]\\@


 ... UNTIL SCIENCE IS MIXED WITH EMOTION AND APPEALS TO THE HEART AND
 IMAGINATION , IT IS LIKE DEAD INORGANIC MATTER; AND WHEN IT IS SO MIXED
 AND SO TRANSFORMED IT IS LITERATURE.

                                  -- JOHN BURROUGHS
 Job cpu time:       0 days  8 hours 48 minutes 22.7 seconds.
 Elapsed time:       0 days  0 hours 11 minutes  8.2 seconds.
 File lengths (MBytes):  RWF=   1517 Int=      0 D2E=      0 Chk=    171 Scr=      1
 Normal termination of Gaussian 16 at Sat Sep 14 23:27:45 2019.
