 Entering Gaussian System, Link 0=g16
 Initial command:
 /home1/apps/gaussian/16rA.03/g16/l1.exe "/scratch/01990/pengzhi/4329066/Gau-286975.inp" -scrdir="/scratch/01990/pengzhi/4329066/"
 Entering Link 1 = /home1/apps/gaussian/16rA.03/g16/l1.exe PID=    286976.
  
 Copyright (c) 1988,1990,1992,1993,1995,1998,2003,2009,2016,
            Gaussian, Inc.  All Rights Reserved.
  
 This is part of the Gaussian(R) 16 program.  It is based on
 the Gaussian(R) 09 system (copyright 2009, Gaussian, Inc.),
 the Gaussian(R) 03 system (copyright 2003, Gaussian, Inc.),
 the Gaussian(R) 98 system (copyright 1998, Gaussian, Inc.),
 the Gaussian(R) 94 system (copyright 1995, Gaussian, Inc.),
 the Gaussian 92(TM) system (copyright 1992, Gaussian, Inc.),
 the Gaussian 90(TM) system (copyright 1990, Gaussian, Inc.),
 the Gaussian 88(TM) system (copyright 1988, Gaussian, Inc.),
 the Gaussian 86(TM) system (copyright 1986, Carnegie Mellon
 University), and the Gaussian 82(TM) system (copyright 1983,
 Carnegie Mellon University). Gaussian is a federally registered
 trademark of Gaussian, Inc.
  
 This software contains proprietary and confidential information,
 including trade secrets, belonging to Gaussian, Inc.
  
 This software is provided under written license and may be
 used, copied, transmitted, or stored only in accord with that
 written license.
  
 The following legend is applicable only to US Government
 contracts under FAR:
  
                    RESTRICTED RIGHTS LEGEND
  
 Use, reproduction and disclosure by the US Government is
 subject to restrictions as set forth in subparagraphs (a)
 and (c) of the Commercial Computer Software - Restricted
 Rights clause in FAR 52.227-19.
  
 Gaussian, Inc.
 340 Quinnipiac St., Bldg. 40, Wallingford CT 06492
  
  
 ---------------------------------------------------------------
 Warning -- This program may not be used in any manner that
 competes with the business of Gaussian, Inc. or will provide
 assistance to any competitor of Gaussian, Inc.  The licensee
 of this program is prohibited from giving any competitor of
 Gaussian, Inc. access to this program.  By using this program,
 the user acknowledges that Gaussian, Inc. is engaged in the
 business of creating and licensing software in the field of
 computational chemistry and represents and warrants to the
 licensee that it is not a competitor of Gaussian, Inc. and that
 it will not use this program in any manner prohibited above.
 ---------------------------------------------------------------
  

 Cite this work as:
 Gaussian 16, Revision A.03,
 M. J. Frisch, G. W. Trucks, H. B. Schlegel, G. E. Scuseria, 
 M. A. Robb, J. R. Cheeseman, G. Scalmani, V. Barone, 
 G. A. Petersson, H. Nakatsuji, X. Li, M. Caricato, A. V. Marenich, 
 J. Bloino, B. G. Janesko, R. Gomperts, B. Mennucci, H. P. Hratchian, 
 J. V. Ortiz, A. F. Izmaylov, J. L. Sonnenberg, D. Williams-Young, 
 F. Ding, F. Lipparini, F. Egidi, J. Goings, B. Peng, A. Petrone, 
 T. Henderson, D. Ranasinghe, V. G. Zakrzewski, J. Gao, N. Rega, 
 G. Zheng, W. Liang, M. Hada, M. Ehara, K. Toyota, R. Fukuda, 
 J. Hasegawa, M. Ishida, T. Nakajima, Y. Honda, O. Kitao, H. Nakai, 
 T. Vreven, K. Throssell, J. A. Montgomery, Jr., J. E. Peralta, 
 F. Ogliaro, M. J. Bearpark, J. J. Heyd, E. N. Brothers, K. N. Kudin, 
 V. N. Staroverov, T. A. Keith, R. Kobayashi, J. Normand, 
 K. Raghavachari, A. P. Rendell, J. C. Burant, S. S. Iyengar, 
 J. Tomasi, M. Cossi, J. M. Millam, M. Klene, C. Adamo, R. Cammi, 
 J. W. Ochterski, R. L. Martin, K. Morokuma, O. Farkas, 
 J. B. Foresman, and D. J. Fox, Gaussian, Inc., Wallingford CT, 2016.
 
 ******************************************
 Gaussian 16:  ES64L-G16RevA.03 25-Dec-2016
                15-Sep-2019 
 ******************************************
 %chk=CaMKII_loop3_80.0.chk
 %nprocshared=48
 Will use up to   48 processors via shared memory.
 %mem=10GB
 %nosave
 ----------------------------------------------------------------------
 #b3lyp/svp scf=(tight,noincore) Test #IOP(5/87=12) Density=Current Pop
 =(MK,readradii) iop(6/33=2) iop(6/42=6)
 ----------------------------------------------------------------------
 1/30=1,38=1,172=1/1;
 2/12=2,17=6,18=5,40=1/2;
 3/5=18,7=101,11=2,25=1,30=1,74=-5/1,2,3;
 4//1;
 5/5=4,32=2,38=5,87=12/2;
 6/7=2,8=2,9=2,10=2,15=8,20=101,22=-1,28=1,33=2,42=6/1,2;
 99/5=1,9=1/99;
 -----------------
 CaMKII_loop3_80.0
 -----------------
 Symbolic Z-matrix:
 Charge =  0 Multiplicity = 1
 C                     68.39     48.78     34.9 
 C                     67.38     48.34     35.94 
 O                     67.43     47.16     36.29 
 H                     69.329    48.25     35.059 
 H                     68.009    48.553    33.904 
 H                     68.56     49.853    34.989 
 N                     66.45     49.22     36.33 
 C                     65.4      48.77     37.23 
 C                     64.34     47.9      36.58 
 O                     63.47     48.34     35.83 
 C                     64.67     49.97     37.83 
 C                     63.74     49.59     38.98 
 O                     63.54     48.38     39.2 
 O                     63.32     50.54     39.68 
 H                     66.49     50.19     36.07 
 H                     65.83     48.29     38.11 
 H                     64.11     50.55     37.1 
 H                     65.44     50.64     38.22 
 N                     64.4      46.6      36.9 
 C                     63.67     45.54     36.24 
 C                     62.17     45.48     36.46 
 O                     61.43     44.92     35.66 
 C                     64.43     44.25     36.53 
 C                     64.       42.93     35.89 
 C                     64.67     41.63     36.35 
 C                     66.16     41.73     36.05 
 N                     66.57     41.44     34.66 
 H                     65.29     46.34     37.3 
 H                     63.8      45.71     35.17 
 H                     64.51     44.07     37.6 
 H                     65.41     44.46     36.11 
 H                     64.17     42.92     34.82 
 H                     62.94     42.82     36.12 
 H                     64.27     40.73     35.89 
 H                     64.57     41.33     37.39 
 H                     66.85     41.15     36.67 
 H                     66.5      42.74     36.23 
 H                     65.92     41.82     33.99 
 H                     67.53     41.69     34.48 
 H                     66.34     40.47     34.51 
 N                     61.63     46.09     37.52 
 C                     60.25     46.11     37.96 
 C                     59.7      47.53     38.05 
 O                     58.55     47.61     38.48 
 C                     59.98     45.2      39.16 
 C                     60.86     45.42     40.37 
 O                     60.55     44.79     41.41 
 O                     61.79     46.26     40.37 
 H                     62.26     46.61     38.12 
 H                     59.6      45.69     37.19 
 H                     60.13     44.17     38.81 
 H                     58.96     45.2      39.53 
 N                     60.42     48.57     37.63 
 C                     59.95     49.94     37.68 
 C                     59.85     50.59     39.06 
 O                     59.17     51.61     39.15 
 H                     61.38     48.37     37.42 
 H                     58.96     49.94     37.22 
 H                     60.63     50.47     37.01 
 N                     60.45     49.97     40.08 
 C                     60.08     50.21     41.46 
 C                     60.92     51.28     42.15 
 O                     60.83     51.41     43.37 
 C                     60.12     48.9      42.25 
 C                     61.42     48.66     43.01 
 N                     61.34     48.54     44.33 
 O                     62.46     48.36     42.43 
 H                     61.17     49.27     40.03 
 H                     59.02     50.45     41.42 
 H                     60.03     48.08     41.54 
 H                     59.25     48.78     42.9 
 H                     60.43     48.49     44.78 
 H                     62.23     48.38     44.78 
 N                     61.87     51.97     41.53 
 C                     62.6      53.06     42.15 
 C                     64.03     52.7      42.52 
 O                     64.74     53.6      42.97 
 H                     62.19     51.65     40.62 
 H                     62.13     53.42     43.06 
 H                     62.61     53.82     41.37 
 N                     64.52     51.49     42.23 
 C                     65.73     50.93     42.79 
 C                     66.34     49.87     41.88 
 O                     65.69     49.01     41.3 
 C                     65.44     50.29     44.15 
 C                     65.16     51.21     45.32 
 C                     66.3      51.39     46.12 
 C                     63.88     51.53     45.77 
 C                     66.22     52.07     47.34 
 C                     63.79     52.26     46.97 
 C                     64.95     52.52     47.73 
 O                     64.77     53.14     48.93 
 H                     63.94     50.83     41.73 
 H                     66.34     51.82     42.89 
 H                     66.15     49.5      44.38 
 H                     64.47     49.8      44.07 
 H                     67.28     51.17     45.73 
 H                     62.98     51.39     45.19 
 H                     67.04     52.33     47.99 
 H                     62.81     52.6      47.25 
 H                     63.9      53.54     48.97 
 N                     67.67     49.94     41.76 
 C                     68.53     48.95     41.15 
 C                     69.24     48.16     42.24 
 O                     69.95     48.76     43.04 
 C                     69.52     49.69     40.24 
 C                     69.       50.92     39.51 
 C                     70.       48.56     39.34 
 C                     70.12     51.69     38.81 
 H                     68.14     50.75     42.13 
 H                     67.98     48.3      40.47 
 H                     70.36     49.92     40.91 
 H                     68.33     51.61     40.03 
 H                     68.26     50.62     38.78 
 H                     69.2      48.2      38.69 
 H                     70.81     48.95     38.72 
 H                     70.39     47.67     39.83 
 H                     70.82     51.06     38.26 
 H                     69.65     52.41     38.15 
 H                     70.71     52.33     39.47 
 N                     69.1      46.83     42.26 
 C                     69.9      45.89     43.02 
 C                     71.       45.15     42.27 
 O                     71.01     45.02     41.04 
 C                     69.02     44.88     43.73 
 O                     68.1      44.15     42.95 
 H                     68.5      46.42     41.56 
 H                     70.4      46.5      43.77 
 H                     68.41     45.4      44.47 
 H                     69.59     44.07     44.19 
 H                     67.48     44.75     42.54 
 N                     72.04     44.62     42.91 
 C                     73.31     44.2      42.34 
 C                     73.17     43.21     41.18 
 O                     73.85     43.27     40.17 
 C                     74.3      43.82     43.43 
 H                     71.99     44.58     43.91 
 H                     73.67     45.08     41.82 
 H                     74.23     42.78     43.74 
 H                     75.28     43.96     42.97 
 H                     74.25     44.53     44.26 
 N                     72.16     42.33     41.19 
 C                     71.79     41.36     40.18 
 C                     71.1      41.96     38.96 
 O                     71.34     41.53     37.83 
 C                     71.1      40.15     40.8 
 H                     71.57     42.52     41.98 
 H                     72.8      41.06     39.88 
 H                     70.99     39.4      40.01 
 H                     71.85     39.78     41.49 
 H                     70.17     40.41     41.32 
 N                     70.26     42.97     39.17 
 C                     69.7      43.72     38.07 
 C                     70.76     44.55     37.36 
 O                     70.82     44.58     36.13 
 C                     68.62     44.7      38.53 
 C                     67.5      44.07     39.36 
 C                     66.57     45.17     39.84 
 O                     66.73     45.7      40.96 
 O                     65.63     45.58     39.12 
 H                     70.27     43.49     40.04 
 H                     69.27     43.01     37.36 
 H                     68.13     45.18     37.68 
 H                     69.17     45.4      39.14 
 H                     67.92     43.51     40.2 
 H                     66.89     43.41     38.75 
 N                     71.71     45.16     38.08 
 C                     72.89     45.78     37.51 
 H                     73.724    45.079    37.551 
 H                     72.694    46.05     36.472 
 H                     73.141    46.676    38.078 
 H                     71.6      45.1      39.08 
 Ca                    64.15     46.75     40.96 
 O                     64.67     46.79     43.65 
 H                     65.2      46.27     44.26 
 H                     64.23     47.43     44.21 
 
 Stoichiometry    C54H83CaN15O23
 Framework group  C1[X(C54H83CaN15O23)]
 Deg. of freedom   522
 Full point group                 C1      NOp   1
 Largest Abelian subgroup         C1      NOp   1
 Largest concise Abelian subgroup C1      NOp   1
                         Standard orientation:                         
 ---------------------------------------------------------------------
 Center     Atomic      Atomic             Coordinates (Angstroms)
 Number     Number       Type             X           Y           Z
 ---------------------------------------------------------------------
      1          6           0       -2.239093   -2.300230    5.186862
      2          6           0       -1.474636   -2.183191    3.884093
      3          8           0       -2.119211   -2.365440    2.850309
      4          1           0       -3.252442   -1.923702    5.048108
      5          1           0       -2.278934   -3.346005    5.492594
      6          1           0       -1.737237   -1.714559    5.957108
      7          7           0       -0.151105   -1.992844    3.942707
      8          6           0        0.609648   -2.007212    2.703333
      9          6           0        0.809399   -3.385291    2.100013
     10          8           0        1.591668   -4.217204    2.557152
     11          6           0        2.003606   -1.426980    2.933790
     12          6           0        2.762598   -1.161453    1.635627
     13          8           0        2.270855   -1.580207    0.570106
     14          8           0        3.788872   -0.450709    1.738122
     15          1           0        0.320525   -1.781327    4.804638
     16          1           0        0.179479   -1.311064    1.982200
     17          1           0        2.625703   -2.032528    3.588929
     18          1           0        1.863032   -0.473646    3.448857
     19          7           0        0.081541   -3.633955    1.002566
     20          6           0       -0.090896   -4.931768    0.387710
     21          6           0        1.106269   -5.535072   -0.322798
     22          8           0        1.199871   -6.743710   -0.500651
     23          6           0       -1.372445   -4.850387   -0.434973
     24          6           0       -1.927309   -6.088093   -1.140032
     25          6           0       -3.107608   -5.925170   -2.104839
     26          6           0       -4.290745   -5.372113   -1.320992
     27          7           0       -5.075034   -6.351216   -0.539616
     28          1           0       -0.686854   -2.988070    0.892560
     29          1           0       -0.321701   -5.619471    1.202875
     30          1           0       -1.313327   -4.062006   -1.182409
     31          1           0       -2.114642   -4.599358    0.318040
     32          1           0       -2.293292   -6.828423   -0.438698
     33          1           0       -1.104474   -6.484490   -1.735357
     34          1           0       -3.406511   -6.840460   -2.609320
     35          1           0       -2.981641   -5.297943   -2.983655
     36          1           0       -5.038786   -4.786153   -1.863196
     37          1           0       -3.940253   -4.657249   -0.590085
     38          1           0       -4.484233   -7.036235   -0.095202
     39          1           0       -5.727742   -5.909869    0.089418
     40          1           0       -5.483093   -6.972085   -1.221019
     41          7           0        2.107733   -4.744997   -0.722987
     42          6           0        3.302556   -5.087396   -1.467004
     43          6           0        4.573199   -4.720061   -0.707049
     44          8           0        5.618698   -4.931260   -1.320342
     45          6           0        3.245641   -4.668097   -2.937361
     46          6           0        2.932344   -3.212120   -3.199800
     47          8           0        3.034365   -2.822652   -4.388289
     48          8           0        2.680822   -2.409733   -2.270600
     49          1           0        2.035808   -3.760804   -0.491707
     50          1           0        3.411932   -6.171693   -1.531321
     51          1           0        2.460573   -5.277151   -3.404930
     52          1           0        4.129720   -4.892770   -3.524920
     53          7           0        4.514018   -4.264035    0.543926
     54          6           0        5.684234   -3.907664    1.321032
     55          6           0        6.428602   -2.636517    0.912372
     56          8           0        7.571810   -2.495275    1.341355
     57          1           0        3.596050   -4.027139    0.870905
     58          1           0        6.369377   -4.754278    1.246710
     59          1           0        5.310430   -3.869041    2.346204
     60          7           0        5.813109   -1.804620    0.067437
     61          6           0        6.534911   -0.833405   -0.729208
     62          6           0        6.632518    0.546308   -0.086196
     63          8           0        7.036002    1.490012   -0.764447
     64          6           0        5.916330   -0.735419   -2.125473
     65          6           0        4.911481    0.399210   -2.293093
     66          7           0        5.184328    1.323839   -3.206227
     67          8           0        3.794646    0.351758   -1.784734
     68          1           0        4.830864   -1.766207   -0.143797
     69          1           0        7.502130   -1.295873   -0.911994
     70          1           0        5.365728   -1.655719   -2.311171
     71          1           0        6.671953   -0.718823   -2.914497
     72          1           0        5.969610    1.195243   -3.838600
     73          1           0        4.484028    2.048410   -3.275347
     74          7           0        6.147989    0.822435    1.118788
     75          6           0        6.329242    2.101649    1.779210
     76          6           0        5.070288    2.953450    1.808667
     77          8           0        5.122130    4.015639    2.429689
     78          1           0        5.518891    0.154688    1.556110
     79          1           0        7.099880    2.710730    1.316891
     80          1           0        6.593962    1.814519    2.795862
     81          7           0        3.925662    2.487396    1.297860
     82          6           0        2.765578    3.294661    0.991547
     83          6           0        1.481545    2.473162    1.005644
     84          8           0        1.377863    1.357262    0.513182
     85          6           0        2.913601    3.935622   -0.390683
     86          6           0        3.911218    5.064731   -0.544213
     87          6           0        3.282903    6.319610   -0.494206
     88          6           0        5.201753    4.900822   -1.045165
     89          6           0        3.994950    7.490048   -0.777513
     90          6           0        5.946249    6.071086   -1.284347
     91          6           0        5.339717    7.337497   -1.146064
     92          8           0        6.092035    8.418536   -1.495598
     93          1           0        3.898636    1.548424    0.924228
     94          1           0        2.816789    4.034384    1.781729
     95          1           0        1.946587    4.147621   -0.839058
     96          1           0        3.381226    3.193015   -1.036641
     97          1           0        2.299622    6.420292   -0.065344
     98          1           0        5.709892    3.950557   -1.114376
     99          1           0        3.633850    8.502520   -0.693805
    100          1           0        6.975353    5.934377   -1.561214
    101          1           0        7.018076    8.176702   -1.545250
    102          7           0        0.445574    3.072467    1.602131
    103          6           0       -0.932385    2.634050    1.573498
    104          6           0       -1.717834    3.505969    0.604412
    105          8           0       -1.764716    4.715776    0.800037
    106          6           0       -1.480976    2.727748    3.003906
    107          6           0       -0.516483    2.404211    4.135840
    108          6           0       -2.700454    1.820879    2.915803
    109          6           0       -1.106198    2.735969    5.506779
    110          1           0        0.618380    3.917313    2.122010
    111          1           0       -1.015363    1.575945    1.326660
    112          1           0       -1.870920    3.753444    3.061284
    113          1           0        0.519728    2.747351    4.073204
    114          1           0       -0.258500    1.354114    4.100619
    115          1           0       -2.412696    0.778062    2.768064
    116          1           0       -3.246978    1.906245    3.857411
    117          1           0       -3.417264    2.032513    2.124794
    118          1           0       -2.137923    2.408958    5.640968
    119          1           0       -0.459882    2.285456    6.251235
    120          1           0       -1.064802    3.794640    5.772866
    121          7           0       -2.368257    2.915281   -0.404021
    122          6           0       -3.380799    3.518374   -1.247962
    123          6           0       -4.834106    3.192992   -0.928392
    124          8           0       -5.176489    2.201725   -0.272599
    125          6           0       -3.116705    3.217196   -2.710202
    126          8           0       -2.974468    1.865612   -3.085290
    127          1           0       -2.277857    1.913661   -0.485785
    128          1           0       -3.266550    4.589135   -1.089792
    129          1           0       -2.179274    3.690529   -3.005631
    130          1           0       -3.936046    3.527815   -3.361966
    131          1           0       -2.225894    1.483762   -2.631056
    132          7           0       -5.825712    3.988975   -1.322384
    133          6           0       -7.191219    4.015498   -0.823499
    134          6           0       -7.895135    2.656419   -0.875525
    135          8           0       -8.611154    2.244649    0.021058
    136          6           0       -7.962003    5.192334   -1.401036
    137          1           0       -5.598097    4.715266   -1.974145
    138          1           0       -7.079117    4.150777    0.245862
    139          1           0       -8.439649    4.976003   -2.353745
    140          1           0       -8.752922    5.384447   -0.673615
    141          1           0       -7.338736    6.090560   -1.416167
    142          7           0       -7.601305    1.805689   -1.867756
    143          6           0       -8.080307    0.455093   -2.078344
    144          6           0       -7.447432   -0.583213   -1.158622
    145          8           0       -8.123056   -1.504016   -0.694883
    146          6           0       -8.100423    0.098955   -3.560694
    147          1           0       -6.858999    2.194313   -2.421158
    148          1           0       -9.114323    0.607541   -1.750212
    149          1           0       -8.611834   -0.864483   -3.655271
    150          1           0       -8.760263    0.853215   -3.974461
    151          1           0       -7.106188    0.139087   -4.021983
    152          7           0       -6.158217   -0.433700   -0.866438
    153          6           0       -5.516419   -1.254627    0.133699
    154          6           0       -6.026313   -0.936269    1.532004
    155          8           0       -6.316141   -1.838096    2.319474
    156          6           0       -4.002048   -1.045040    0.167629
    157          6           0       -3.304332   -1.220598   -1.182398
    158          6           0       -1.835215   -0.872490   -1.021724
    159          8           0       -1.420227    0.280406   -1.265687
    160          8           0       -1.008562   -1.728380   -0.629046
    161          1           0       -5.683240    0.448533   -1.019608
    162          1           0       -5.735074   -2.300108   -0.094901
    163          1           0       -3.518136   -1.748085    0.849214
    164          1           0       -3.905078   -0.020491    0.492430
    165          1           0       -3.781075   -0.592384   -1.939804
    166          1           0       -3.330876   -2.258937   -1.500119
    167          7           0       -6.273969    0.335851    1.868721
    168          6           0       -6.969957    0.736804    3.075592
    169          1           0       -8.023643    0.901486    2.849178
    170          1           0       -6.878875   -0.048575    3.826354
    171          1           0       -6.532820    1.659061    3.458731
    172          1           0       -6.010453    1.024161    1.181343
    173         20           0        1.222547   -0.582696   -1.438033
    174          8           0        1.402598    1.756883   -2.852972
    175          1           0        0.813395    2.279581   -3.403450
    176          1           0        2.236747    2.225240   -2.893434
 ---------------------------------------------------------------------
 Rotational constants (GHZ):           0.0234386           0.0152054           0.0115228
 Standard basis: SVP (5D, 7F)
 There are  1809 symmetry adapted cartesian basis functions of A   symmetry.
 There are  1717 symmetry adapted basis functions of A   symmetry.
  1717 basis functions,  2922 primitive gaussians,  1809 cartesian basis functions
   358 alpha electrons      358 beta electrons
       nuclear repulsion energy     21660.0667632760 Hartrees.
 NAtoms=  176 NActive=  176 NUniq=  176 SFac= 1.00D+00 NAtFMM=   60 NAOKFM=T Big=T
 Integral buffers will be    131072 words long.
 Raffenetti 2 integral format.
 Two-electron integral symmetry is turned on.
 One-electron integrals computed using PRISM.
 NBasis=  1717 RedAO= T EigKep=  2.88D-04  NBF=  1717
 NBsUse=  1717 1.00D-06 EigRej= -1.00D+00 NBFU=  1717
 ExpMin= 1.98D-02 ExpMax= 3.51D+04 ExpMxC= 5.28D+03 IAcc=3 IRadAn=         5 AccDes= 0.00D+00
 Harris functional with IExCor=  402 and IRadAn=       5 diagonalized for initial guess.
 HarFok:  IExCor=  402 AccDes= 0.00D+00 IRadAn=         5 IDoV= 1 UseB2=F ITyADJ=14
 ICtDFT=  3500011 ScaDFX=  1.000000  1.000000  1.000000  1.000000
 FoFCou: FMM=F IPFlag=           0 FMFlag=      100000 FMFlg1=        2001
         NFxFlg=           0 DoJE=T BraDBF=F KetDBF=T FulRan=T
         wScrn=  0.000000 ICntrl=       500 IOpCl=  0 I1Cent=   200000004 NGrid=           0
         NMat0=    1 NMatS0=      1 NMatT0=    0 NMatD0=    1 NMtDS0=    0 NMtDT0=    0
 Petite list used in FoFCou.
 Requested convergence on RMS density matrix=1.00D-08 within 128 cycles.
 Requested convergence on MAX density matrix=1.00D-06.
 Requested convergence on             energy=1.00D-06.
 No special actions if energy rises.
 EnCoef did     5 forward-backward iterations
 SCF Done:  E(RB3LYP) =  -5333.58654460     A.U. after   18 cycles
            NFock= 18  Conv=0.25D-08     -V/T= 2.0081
 SCF density gives NOpUse=  1 NOpAll=  1.
 Hyperfine terms turned off by default for NAtoms > 100.

 **********************************************************************

            Population analysis using the SCF density.

 **********************************************************************

 Orbital symmetries:
 BldTbl:  Degeneracy threshold= 1.00D-02
       Occupied  (A) (A) (A) (A) (A) (A) (A) (A) (A) (A) (A) (A)
                 (A) (A) (A) (A) (A) (A) (A) (A) (A) (A) (A) (A)
                 (A) (A) (A) (A) (A) (A) (A) (A) (A) (A) (A) (A)
                 (A) (A) (A) (A) (A) (A) (A) (A) (A) (A) (A) (A)
                 (A) (A) (A) (A) (A) (A) (A) (A) (A) (A) (A) (A)
                 (A) (A) (A) (A) (A) (A) (A) (A) (A) (A) (A) (A)
                 (A) (A) (A) (A) (A) (A) (A) (A) (A) (A) (A) (A)
                 (A) (A) (A) (A) (A) (A) (A) (A) (A) (A) (A) (A)
                 (A) (A) (A) (A) (A) (A) (A) (A) (A) (A) (A) (A)
                 (A) (A) (A) (A) (A) (A) (A) (A) (A) (A) (A) (A)
                 (A) (A) (A) (A) (A) (A) (A) (A) (A) (A) (A) (A)
                 (A) (A) (A) (A) (A) (A) (A) (A) (A) (A) (A) (A)
                 (A) (A) (A) (A) (A) (A) (A) (A) (A) (A) (A) (A)
                 (A) (A) (A) (A) (A) (A) (A) (A) (A) (A) (A) (A)
                 (A) (A) (A) (A) (A) (A) (A) (A) (A) (A) (A) (A)
                 (A) (A) (A) (A) (A) (A) (A) (A) (A) (A) (A) (A)
                 (A) (A) (A) (A) (A) (A) (A) (A) (A) (A) (A) (A)
                 (A) (A) (A) (A) (A) (A) (A) (A) (A) (A) (A) (A)
                 (A) (A) (A) (A) (A) (A) (A) (A) (A) (A) (A) (A)
                 (A) (A) (A) (A) (A) (A) (A) (A) (A) (A) (A) (A)
                 (A) (A) (A) (A) (A) (A) (A) (A) (A) (A) (A) (A)
                 (A) (A) (A) (A) (A) (A) (A) (A) (A) (A) (A) (A)
                 (A) (A) (A) (A) (A) (A) (A) (A) (A) (A) (A) (A)
                 (A) (A) (A) (A) (A) (A) (A) (A) (A) (A) (A) (A)
                 (A) (A) (A) (A) (A) (A) (A) (A) (A) (A) (A) (A)
                 (A) (A) (A) (A) (A) (A) (A) (A) (A) (A) (A) (A)
                 (A) (A) (A) (A) (A) (A) (A) (A) (A) (A) (A) (A)
                 (A) (A) (A) (A) (A) (A) (A) (A) (A) (A) (A) (A)
                 (A) (A) (A) (A) (A) (A) (A) (A) (A) (A) (A) (A)
                 (A) (A) (A) (A) (A) (A) (A) (A) (A) (A)
       Virtual   (A) (A) (A) (A) (A) (A) (A) (A) (A) (A) (A) (A)
                 (A) (A) (A) (A) (A) (A) (A) (A) (A) (A) (A) (A)
                 (A) (A) (A) (A) (A) (A) (A) (A) (A) (A) (A) (A)
                 (A) (A) (A) (A) (A) (A) (A) (A) (A) (A) (A) (A)
                 (A) (A) (A) (A) (A) (A) (A) (A) (A) (A) (A) (A)
                 (A) (A) (A) (A) (A) (A) (A) (A) (A) (A) (A) (A)
                 (A) (A) (A) (A) (A) (A) (A) (A) (A) (A) (A) (A)
                 (A) (A) (A) (A) (A) (A) (A) (A) (A) (A) (A) (A)
                 (A) (A) (A) (A) (A) (A) (A) (A) (A) (A) (A) (A)
                 (A) (A) (A) (A) (A) (A) (A) (A) (A) (A) (A) (A)
                 (A) (A) (A) (A) (A) (A) (A) (A) (A) (A) (A) (A)
                 (A) (A) (A) (A) (A) (A) (A) (A) (A) (A) (A) (A)
                 (A) (A) (A) (A) (A) (A) (A) (A) (A) (A) (A) (A)
                 (A) (A) (A) (A) (A) (A) (A) (A) (A) (A) (A) (A)
                 (A) (A) (A) (A) (A) (A) (A) (A) (A) (A) (A) (A)
                 (A) (A) (A) (A) (A) (A) (A) (A) (A) (A) (A) (A)
                 (A) (A) (A) (A) (A) (A) (A) (A) (A) (A) (A) (A)
                 (A) (A) (A) (A) (A) (A) (A) (A) (A) (A) (A) (A)
                 (A) (A) (A) (A) (A) (A) (A) (A) (A) (A) (A) (A)
                 (A) (A) (A) (A) (A) (A) (A) (A) (A) (A) (A) (A)
                 (A) (A) (A) (A) (A) (A) (A) (A) (A) (A) (A) (A)
                 (A) (A) (A) (A) (A) (A) (A) (A) (A) (A) (A) (A)
                 (A) (A) (A) (A) (A) (A) (A) (A) (A) (A) (A) (A)
                 (A) (A) (A) (A) (A) (A) (A) (A) (A) (A) (A) (A)
                 (A) (A) (A) (A) (A) (A) (A) (A) (A) (A) (A) (A)
                 (A) (A) (A) (A) (A) (A) (A) (A) (A) (A) (A) (A)
                 (A) (A) (A) (A) (A) (A) (A) (A) (A) (A) (A) (A)
                 (A) (A) (A) (A) (A) (A) (A) (A) (A) (A) (A) (A)
                 (A) (A) (A) (A) (A) (A) (A) (A) (A) (A) (A) (A)
                 (A) (A) (A) (A) (A) (A) (A) (A) (A) (A) (A) (A)
                 (A) (A) (A) (A) (A) (A) (A) (A) (A) (A) (A) (A)
                 (A) (A) (A) (A) (A) (A) (A) (A) (A) (A) (A) (A)
                 (A) (A) (A) (A) (A) (A) (A) (A) (A) (A) (A) (A)
                 (A) (A) (A) (A) (A) (A) (A) (A) (A) (A) (A) (A)
                 (A) (A) (A) (A) (A) (A) (A) (A) (A) (A) (A) (A)
                 (A) (A) (A) (A) (A) (A) (A) (A) (A) (A) (A) (A)
                 (A) (A) (A) (A) (A) (A) (A) (A) (A) (A) (A) (A)
                 (A) (A) (A) (A) (A) (A) (A) (A) (A) (A) (A) (A)
                 (A) (A) (A) (A) (A) (A) (A) (A) (A) (A) (A) (A)
                 (A) (A) (A) (A) (A) (A) (A) (A) (A) (A) (A) (A)
                 (A) (A) (A) (A) (A) (A) (A) (A) (A) (A) (A) (A)
                 (A) (A) (A) (A) (A) (A) (A) (A) (A) (A) (A) (A)
                 (A) (A) (A) (A) (A) (A) (A) (A) (A) (A) (A) (A)
                 (A) (A) (A) (A) (A) (A) (A) (A) (A) (A) (A) (A)
                 (A) (A) (A) (A) (A) (A) (A) (A) (A) (A) (A) (A)
                 (A) (A) (A) (A) (A) (A) (A) (A) (A) (A) (A) (A)
                 (A) (A) (A) (A) (A) (A) (A) (A) (A) (A) (A) (A)
                 (A) (A) (A) (A) (A) (A) (A) (A) (A) (A) (A) (A)
                 (A) (A) (A) (A) (A) (A) (A) (A) (A) (A) (A) (A)
                 (A) (A) (A) (A) (A) (A) (A) (A) (A) (A) (A) (A)
                 (A) (A) (A) (A) (A) (A) (A) (A) (A) (A) (A) (A)
                 (A) (A) (A) (A) (A) (A) (A) (A) (A) (A) (A) (A)
                 (A) (A) (A) (A) (A) (A) (A) (A) (A) (A) (A) (A)
                 (A) (A) (A) (A) (A) (A) (A) (A) (A) (A) (A) (A)
                 (A) (A) (A) (A) (A) (A) (A) (A) (A) (A) (A) (A)
                 (A) (A) (A) (A) (A) (A) (A) (A) (A) (A) (A) (A)
                 (A) (A) (A) (A) (A) (A) (A) (A) (A) (A) (A) (A)
                 (A) (A) (A) (A) (A) (A) (A) (A) (A) (A) (A) (A)
                 (A) (A) (A) (A) (A) (A) (A) (A) (A) (A) (A) (A)
                 (A) (A) (A) (A) (A) (A) (A) (A) (A) (A) (A) (A)
                 (A) (A) (A) (A) (A) (A) (A) (A) (A) (A) (A) (A)
                 (A) (A) (A) (A) (A) (A) (A) (A) (A) (A) (A) (A)
                 (A) (A) (A) (A) (A) (A) (A) (A) (A) (A) (A) (A)
                 (A) (A) (A) (A) (A) (A) (A) (A) (A) (A) (A) (A)
                 (A) (A) (A) (A) (A) (A) (A) (A) (A) (A) (A) (A)
                 (A) (A) (A) (A) (A) (A) (A) (A) (A) (A) (A) (A)
                 (A) (A) (A) (A) (A) (A) (A) (A) (A) (A) (A) (A)
                 (A) (A) (A) (A) (A) (A) (A) (A) (A) (A) (A) (A)
                 (A) (A) (A) (A) (A) (A) (A) (A) (A) (A) (A) (A)
                 (A) (A) (A) (A) (A) (A) (A) (A) (A) (A) (A) (A)
                 (A) (A) (A) (A) (A) (A) (A) (A) (A) (A) (A) (A)
                 (A) (A) (A) (A) (A) (A) (A) (A) (A) (A) (A) (A)
                 (A) (A) (A) (A) (A) (A) (A) (A) (A) (A) (A) (A)
                 (A) (A) (A) (A) (A) (A) (A) (A) (A) (A) (A) (A)
                 (A) (A) (A) (A) (A) (A) (A) (A) (A) (A) (A) (A)
                 (A) (A) (A) (A) (A) (A) (A) (A) (A) (A) (A) (A)
                 (A) (A) (A) (A) (A) (A) (A) (A) (A) (A) (A) (A)
                 (A) (A) (A) (A) (A) (A) (A) (A) (A) (A) (A) (A)
                 (A) (A) (A) (A) (A) (A) (A) (A) (A) (A) (A) (A)
                 (A) (A) (A) (A) (A) (A) (A) (A) (A) (A) (A) (A)
                 (A) (A) (A) (A) (A) (A) (A) (A) (A) (A) (A) (A)
                 (A) (A) (A) (A) (A) (A) (A) (A) (A) (A) (A) (A)
                 (A) (A) (A) (A) (A) (A) (A) (A) (A) (A) (A) (A)
                 (A) (A) (A) (A) (A) (A) (A) (A) (A) (A) (A) (A)
                 (A) (A) (A) (A) (A) (A) (A) (A) (A) (A) (A) (A)
                 (A) (A) (A) (A) (A) (A) (A) (A) (A) (A) (A) (A)
                 (A) (A) (A) (A) (A) (A) (A) (A) (A) (A) (A) (A)
                 (A) (A) (A) (A) (A) (A) (A) (A) (A) (A) (A) (A)
                 (A) (A) (A) (A) (A) (A) (A) (A) (A) (A) (A) (A)
                 (A) (A) (A) (A) (A) (A) (A) (A) (A) (A) (A) (A)
                 (A) (A) (A) (A) (A) (A) (A) (A) (A) (A) (A) (A)
                 (A) (A) (A) (A) (A) (A) (A) (A) (A) (A) (A) (A)
                 (A) (A) (A) (A) (A) (A) (A) (A) (A) (A) (A) (A)
                 (A) (A) (A) (A) (A) (A) (A) (A) (A) (A) (A) (A)
                 (A) (A) (A) (A) (A) (A) (A) (A) (A) (A) (A) (A)
                 (A) (A) (A) (A) (A) (A) (A) (A) (A) (A) (A) (A)
                 (A) (A) (A) (A) (A) (A) (A) (A) (A) (A) (A) (A)
                 (A) (A) (A) (A) (A) (A) (A) (A) (A) (A) (A) (A)
                 (A) (A) (A) (A) (A) (A) (A) (A) (A) (A) (A) (A)
                 (A) (A) (A) (A) (A) (A) (A) (A) (A) (A) (A) (A)
                 (A) (A) (A) (A) (A) (A) (A) (A) (A) (A) (A) (A)
                 (A) (A) (A) (A) (A) (A) (A) (A) (A) (A) (A) (A)
                 (A) (A) (A) (A) (A) (A) (A) (A) (A) (A) (A) (A)
                 (A) (A) (A) (A) (A) (A) (A) (A) (A) (A) (A) (A)
                 (A) (A) (A) (A) (A) (A) (A) (A) (A) (A) (A) (A)
                 (A) (A) (A) (A) (A) (A) (A) (A) (A) (A) (A) (A)
                 (A) (A) (A) (A) (A) (A) (A) (A) (A) (A) (A) (A)
                 (A) (A) (A) (A) (A) (A) (A) (A) (A) (A) (A) (A)
                 (A) (A) (A) (A) (A) (A) (A) (A) (A) (A) (A) (A)
                 (A) (A) (A) (A) (A) (A) (A) (A) (A) (A) (A) (A)
                 (A) (A) (A) (A) (A) (A) (A) (A) (A) (A) (A) (A)
                 (A) (A) (A) (A) (A) (A) (A) (A) (A) (A) (A) (A)
                 (A) (A) (A) (A) (A) (A) (A) (A) (A) (A) (A) (A)
                 (A) (A) (A)
 The electronic state is 1-A.
 Alpha  occ. eigenvalues -- -145.37957 -19.18576 -19.15335 -19.14948 -19.14919
 Alpha  occ. eigenvalues --  -19.12174 -19.11735 -19.11509 -19.11485 -19.10515
 Alpha  occ. eigenvalues --  -19.10398 -19.10098 -19.10085 -19.08190 -19.07790
 Alpha  occ. eigenvalues --  -19.06727 -19.06294 -19.06065 -19.05844 -19.05421
 Alpha  occ. eigenvalues --  -19.04731 -19.04520 -19.03352 -18.99942 -15.43714
 Alpha  occ. eigenvalues --  -14.57329 -14.41025 -14.37650 -14.37232 -14.36941
 Alpha  occ. eigenvalues --  -14.36279 -14.36055 -14.35078 -14.33817 -14.32661
 Alpha  occ. eigenvalues --  -14.32208 -14.31600 -14.31174 -14.30967 -14.30831
 Alpha  occ. eigenvalues --  -12.57333 -12.57303 -12.57258 -10.33896 -10.33423
 Alpha  occ. eigenvalues --  -10.30572 -10.30308 -10.30240 -10.29879 -10.29045
 Alpha  occ. eigenvalues --  -10.28799 -10.28431 -10.27771 -10.27375 -10.27208
 Alpha  occ. eigenvalues --  -10.27195 -10.26786 -10.26404 -10.25793 -10.25240
 Alpha  occ. eigenvalues --  -10.25215 -10.25049 -10.24639 -10.24376 -10.24042
 Alpha  occ. eigenvalues --  -10.23965 -10.23786 -10.23469 -10.23468 -10.23414
 Alpha  occ. eigenvalues --  -10.22966 -10.22795 -10.21693 -10.21636 -10.21414
 Alpha  occ. eigenvalues --  -10.21032 -10.20965 -10.20784 -10.20326 -10.20224
 Alpha  occ. eigenvalues --  -10.20174 -10.19650 -10.19357 -10.19243 -10.18914
 Alpha  occ. eigenvalues --  -10.18895 -10.18842 -10.18476 -10.18364 -10.18235
 Alpha  occ. eigenvalues --  -10.18155 -10.18057 -10.17910 -10.17812 -10.17626
 Alpha  occ. eigenvalues --  -10.16584 -10.13738  -1.80501  -1.12787  -1.08862
 Alpha  occ. eigenvalues --   -1.08225  -1.08071  -1.07761  -1.05874  -1.05359
 Alpha  occ. eigenvalues --   -1.05232  -1.04556  -1.04338  -1.03920  -1.03594
 Alpha  occ. eigenvalues --   -1.03374  -1.02851  -1.02796  -1.01096  -1.00801
 Alpha  occ. eigenvalues --   -1.00068  -0.99899  -0.99748  -0.99072  -0.98306
 Alpha  occ. eigenvalues --   -0.97477  -0.97469  -0.96275  -0.95366  -0.94543
 Alpha  occ. eigenvalues --   -0.94365  -0.94069  -0.93091  -0.92500  -0.91014
 Alpha  occ. eigenvalues --   -0.90765  -0.89903  -0.89818  -0.89636  -0.89068
 Alpha  occ. eigenvalues --   -0.88586  -0.88092  -0.87423  -0.86999  -0.85772
 Alpha  occ. eigenvalues --   -0.83972  -0.83465  -0.82648  -0.81140  -0.80870
 Alpha  occ. eigenvalues --   -0.79673  -0.78921  -0.77796  -0.77785  -0.76198
 Alpha  occ. eigenvalues --   -0.75708  -0.75604  -0.74044  -0.73773  -0.73658
 Alpha  occ. eigenvalues --   -0.72820  -0.72679  -0.72336  -0.70886  -0.70642
 Alpha  occ. eigenvalues --   -0.69785  -0.69627  -0.69333  -0.69104  -0.68982
 Alpha  occ. eigenvalues --   -0.68304  -0.67200  -0.65761  -0.65073  -0.64522
 Alpha  occ. eigenvalues --   -0.64280  -0.64018  -0.63748  -0.62903  -0.61604
 Alpha  occ. eigenvalues --   -0.61532  -0.61282  -0.61181  -0.60356  -0.60346
 Alpha  occ. eigenvalues --   -0.60138  -0.59647  -0.58929  -0.58643  -0.58174
 Alpha  occ. eigenvalues --   -0.58056  -0.57468  -0.57069  -0.56857  -0.56835
 Alpha  occ. eigenvalues --   -0.56766  -0.56446  -0.56045  -0.55499  -0.55311
 Alpha  occ. eigenvalues --   -0.54830  -0.54585  -0.54474  -0.54265  -0.54102
 Alpha  occ. eigenvalues --   -0.53928  -0.53463  -0.53028  -0.52861  -0.52519
 Alpha  occ. eigenvalues --   -0.51834  -0.51816  -0.51146  -0.50667  -0.50433
 Alpha  occ. eigenvalues --   -0.50236  -0.49934  -0.49848  -0.49420  -0.49335
 Alpha  occ. eigenvalues --   -0.48918  -0.48645  -0.48438  -0.48087  -0.48054
 Alpha  occ. eigenvalues --   -0.47616  -0.47438  -0.47386  -0.47287  -0.47105
 Alpha  occ. eigenvalues --   -0.46632  -0.46519  -0.46486  -0.46301  -0.46065
 Alpha  occ. eigenvalues --   -0.45943  -0.45919  -0.45570  -0.45323  -0.45182
 Alpha  occ. eigenvalues --   -0.45107  -0.45058  -0.44895  -0.44438  -0.44239
 Alpha  occ. eigenvalues --   -0.44210  -0.44013  -0.43836  -0.43718  -0.43633
 Alpha  occ. eigenvalues --   -0.43403  -0.43355  -0.43245  -0.43186  -0.42845
 Alpha  occ. eigenvalues --   -0.42724  -0.42501  -0.42374  -0.42288  -0.42227
 Alpha  occ. eigenvalues --   -0.42156  -0.41783  -0.41703  -0.41503  -0.41418
 Alpha  occ. eigenvalues --   -0.41350  -0.40974  -0.40959  -0.40839  -0.40761
 Alpha  occ. eigenvalues --   -0.40655  -0.40507  -0.40313  -0.40282  -0.40163
 Alpha  occ. eigenvalues --   -0.40025  -0.39861  -0.39627  -0.39584  -0.39332
 Alpha  occ. eigenvalues --   -0.39234  -0.39195  -0.39047  -0.38876  -0.38451
 Alpha  occ. eigenvalues --   -0.38335  -0.38112  -0.37980  -0.37959  -0.37849
 Alpha  occ. eigenvalues --   -0.37623  -0.37356  -0.37146  -0.36873  -0.36814
 Alpha  occ. eigenvalues --   -0.36731  -0.36531  -0.36510  -0.36358  -0.36181
 Alpha  occ. eigenvalues --   -0.36088  -0.35933  -0.35899  -0.35690  -0.35525
 Alpha  occ. eigenvalues --   -0.35410  -0.35223  -0.34989  -0.34935  -0.34635
 Alpha  occ. eigenvalues --   -0.34222  -0.33908  -0.33684  -0.33437  -0.33204
 Alpha  occ. eigenvalues --   -0.33072  -0.32881  -0.32667  -0.32507  -0.32280
 Alpha  occ. eigenvalues --   -0.32274  -0.32058  -0.31775  -0.31030  -0.30578
 Alpha  occ. eigenvalues --   -0.30106  -0.29446  -0.29362  -0.29112  -0.28887
 Alpha  occ. eigenvalues --   -0.28281  -0.28135  -0.28053  -0.27762  -0.27368
 Alpha  occ. eigenvalues --   -0.27127  -0.26674  -0.26389  -0.26005  -0.25828
 Alpha  occ. eigenvalues --   -0.25356  -0.25218  -0.24915  -0.24808  -0.24271
 Alpha  occ. eigenvalues --   -0.24046  -0.23930  -0.23854  -0.23511  -0.23372
 Alpha  occ. eigenvalues --   -0.23268  -0.22973  -0.22870  -0.22194  -0.21414
 Alpha  occ. eigenvalues --   -0.20986  -0.20641  -0.20356  -0.20281  -0.20094
 Alpha  occ. eigenvalues --   -0.19799  -0.19182  -0.16164
 Alpha virt. eigenvalues --   -0.09462  -0.04402  -0.03744  -0.03344  -0.02673
 Alpha virt. eigenvalues --   -0.01396  -0.01175  -0.00943  -0.00272   0.00032
 Alpha virt. eigenvalues --    0.00496   0.00548   0.01174   0.01339   0.01640
 Alpha virt. eigenvalues --    0.02085   0.02257   0.02418   0.02534   0.02742
 Alpha virt. eigenvalues --    0.03180   0.03479   0.03612   0.03940   0.04369
 Alpha virt. eigenvalues --    0.04501   0.04655   0.04895   0.04965   0.05092
 Alpha virt. eigenvalues --    0.05347   0.05748   0.05955   0.06150   0.06336
 Alpha virt. eigenvalues --    0.06587   0.06774   0.07115   0.07138   0.07254
 Alpha virt. eigenvalues --    0.07514   0.07686   0.07993   0.08267   0.08363
 Alpha virt. eigenvalues --    0.08652   0.08963   0.09559   0.09651   0.09786
 Alpha virt. eigenvalues --    0.10056   0.10148   0.10253   0.10483   0.10538
 Alpha virt. eigenvalues --    0.10840   0.10909   0.11007   0.11127   0.11345
 Alpha virt. eigenvalues --    0.11499   0.11726   0.11816   0.12094   0.12188
 Alpha virt. eigenvalues --    0.12349   0.12375   0.12481   0.12917   0.13031
 Alpha virt. eigenvalues --    0.13104   0.13310   0.13492   0.13523   0.13612
 Alpha virt. eigenvalues --    0.13983   0.14119   0.14295   0.14394   0.14599
 Alpha virt. eigenvalues --    0.14954   0.15102   0.15135   0.15403   0.15832
 Alpha virt. eigenvalues --    0.15956   0.16076   0.16117   0.16234   0.16250
 Alpha virt. eigenvalues --    0.16374   0.16477   0.16726   0.16941   0.17045
 Alpha virt. eigenvalues --    0.17242   0.17532   0.17787   0.18111   0.18344
 Alpha virt. eigenvalues --    0.18569   0.18778   0.19038   0.19165   0.19376
 Alpha virt. eigenvalues --    0.19470   0.19571   0.19799   0.19920   0.20071
 Alpha virt. eigenvalues --    0.20294   0.20379   0.20728   0.20834   0.21005
 Alpha virt. eigenvalues --    0.21280   0.21397   0.21521   0.21692   0.22080
 Alpha virt. eigenvalues --    0.22180   0.22269   0.22541   0.22699   0.22794
 Alpha virt. eigenvalues --    0.22958   0.23091   0.23230   0.23440   0.23878
 Alpha virt. eigenvalues --    0.23963   0.24241   0.24474   0.24637   0.24787
 Alpha virt. eigenvalues --    0.25148   0.25469   0.25582   0.25665   0.25756
 Alpha virt. eigenvalues --    0.25976   0.26158   0.26413   0.26458   0.26614
 Alpha virt. eigenvalues --    0.26905   0.27365   0.27597   0.27717   0.28252
 Alpha virt. eigenvalues --    0.28709   0.28792   0.29167   0.29535   0.30019
 Alpha virt. eigenvalues --    0.30135   0.30349   0.30471   0.30926   0.31090
 Alpha virt. eigenvalues --    0.31261   0.31560   0.31649   0.31880   0.32317
 Alpha virt. eigenvalues --    0.32418   0.32570   0.32672   0.32965   0.33225
 Alpha virt. eigenvalues --    0.33464   0.34065   0.34138   0.34399   0.34808
 Alpha virt. eigenvalues --    0.35265   0.35608   0.35678   0.36002   0.36141
 Alpha virt. eigenvalues --    0.36520   0.36853   0.37014   0.37320   0.37459
 Alpha virt. eigenvalues --    0.37808   0.38091   0.38233   0.38589   0.39045
 Alpha virt. eigenvalues --    0.39137   0.39372   0.39761   0.39880   0.40225
 Alpha virt. eigenvalues --    0.40708   0.41254   0.41502   0.41519   0.41750
 Alpha virt. eigenvalues --    0.42075   0.42156   0.42369   0.42419   0.42723
 Alpha virt. eigenvalues --    0.42947   0.42986   0.43112   0.43650   0.43736
 Alpha virt. eigenvalues --    0.43917   0.44144   0.44235   0.44296   0.44710
 Alpha virt. eigenvalues --    0.44921   0.45109   0.45200   0.45333   0.45360
 Alpha virt. eigenvalues --    0.45719   0.45931   0.46343   0.46714   0.46852
 Alpha virt. eigenvalues --    0.46904   0.47118   0.47259   0.47524   0.47656
 Alpha virt. eigenvalues --    0.47824   0.48054   0.48502   0.48647   0.48805
 Alpha virt. eigenvalues --    0.49049   0.49332   0.49345   0.49630   0.49779
 Alpha virt. eigenvalues --    0.49835   0.50107   0.50269   0.50340   0.50691
 Alpha virt. eigenvalues --    0.50784   0.51040   0.51150   0.51429   0.51624
 Alpha virt. eigenvalues --    0.51840   0.52074   0.52179   0.52322   0.52613
 Alpha virt. eigenvalues --    0.52885   0.53018   0.53278   0.53480   0.53557
 Alpha virt. eigenvalues --    0.53907   0.53952   0.54129   0.54249   0.54316
 Alpha virt. eigenvalues --    0.54504   0.54883   0.55112   0.55231   0.55571
 Alpha virt. eigenvalues --    0.55680   0.55915   0.56077   0.56126   0.56243
 Alpha virt. eigenvalues --    0.56441   0.56531   0.56585   0.56896   0.57076
 Alpha virt. eigenvalues --    0.57160   0.57235   0.57545   0.57644   0.57775
 Alpha virt. eigenvalues --    0.57903   0.58079   0.58124   0.58413   0.58790
 Alpha virt. eigenvalues --    0.58963   0.59040   0.59135   0.59173   0.59565
 Alpha virt. eigenvalues --    0.59735   0.59900   0.60037   0.60385   0.60535
 Alpha virt. eigenvalues --    0.60748   0.60761   0.61014   0.61115   0.61188
 Alpha virt. eigenvalues --    0.61410   0.61624   0.61803   0.61948   0.62105
 Alpha virt. eigenvalues --    0.62265   0.62284   0.62441   0.62568   0.62595
 Alpha virt. eigenvalues --    0.62814   0.62872   0.62945   0.62983   0.63070
 Alpha virt. eigenvalues --    0.63279   0.63373   0.63595   0.63676   0.63839
 Alpha virt. eigenvalues --    0.63938   0.64061   0.64165   0.64224   0.64272
 Alpha virt. eigenvalues --    0.64461   0.64560   0.64641   0.64880   0.64972
 Alpha virt. eigenvalues --    0.65034   0.65083   0.65103   0.65339   0.65438
 Alpha virt. eigenvalues --    0.65582   0.65684   0.65756   0.65877   0.66051
 Alpha virt. eigenvalues --    0.66134   0.66196   0.66293   0.66444   0.66446
 Alpha virt. eigenvalues --    0.66587   0.66708   0.66721   0.66955   0.66991
 Alpha virt. eigenvalues --    0.67106   0.67215   0.67389   0.67536   0.67705
 Alpha virt. eigenvalues --    0.67787   0.67858   0.68053   0.68196   0.68313
 Alpha virt. eigenvalues --    0.68467   0.68584   0.68620   0.68663   0.68792
 Alpha virt. eigenvalues --    0.68972   0.69090   0.69379   0.69452   0.69693
 Alpha virt. eigenvalues --    0.69777   0.69916   0.70119   0.70190   0.70317
 Alpha virt. eigenvalues --    0.70435   0.70540   0.70732   0.70872   0.70953
 Alpha virt. eigenvalues --    0.71151   0.71242   0.71404   0.71484   0.71649
 Alpha virt. eigenvalues --    0.71840   0.72130   0.72230   0.72487   0.72549
 Alpha virt. eigenvalues --    0.72629   0.72700   0.72881   0.73213   0.73436
 Alpha virt. eigenvalues --    0.73595   0.73754   0.73819   0.74165   0.74217
 Alpha virt. eigenvalues --    0.74527   0.74593   0.75175   0.75286   0.75414
 Alpha virt. eigenvalues --    0.75587   0.75674   0.75770   0.75939   0.76132
 Alpha virt. eigenvalues --    0.76405   0.76475   0.76723   0.76865   0.77088
 Alpha virt. eigenvalues --    0.77187   0.77568   0.78061   0.78534   0.78611
 Alpha virt. eigenvalues --    0.78794   0.79240   0.79283   0.79497   0.79834
 Alpha virt. eigenvalues --    0.80141   0.80237   0.80345   0.80673   0.80774
 Alpha virt. eigenvalues --    0.81292   0.81607   0.81861   0.82101   0.82340
 Alpha virt. eigenvalues --    0.82738   0.82859   0.83107   0.83165   0.83477
 Alpha virt. eigenvalues --    0.83715   0.83992   0.84199   0.84819   0.84918
 Alpha virt. eigenvalues --    0.85112   0.85354   0.85513   0.85560   0.85911
 Alpha virt. eigenvalues --    0.86610   0.86899   0.87407   0.87535   0.87676
 Alpha virt. eigenvalues --    0.88110   0.88188   0.88557   0.88821   0.89032
 Alpha virt. eigenvalues --    0.89186   0.89272   0.89524   0.90488   0.90697
 Alpha virt. eigenvalues --    0.90821   0.91016   0.91769   0.91916   0.92315
 Alpha virt. eigenvalues --    0.92604   0.92702   0.93130   0.93280   0.93609
 Alpha virt. eigenvalues --    0.94176   0.94290   0.94602   0.94724   0.94792
 Alpha virt. eigenvalues --    0.95174   0.95428   0.95629   0.95825   0.96107
 Alpha virt. eigenvalues --    0.96327   0.96629   0.96853   0.97263   0.97599
 Alpha virt. eigenvalues --    0.97707   0.98011   0.98260   0.98364   0.98770
 Alpha virt. eigenvalues --    0.99058   0.99288   0.99785   1.00131   1.00187
 Alpha virt. eigenvalues --    1.00303   1.00789   1.00907   1.01112   1.01733
 Alpha virt. eigenvalues --    1.01790   1.02337   1.03201   1.03267   1.03524
 Alpha virt. eigenvalues --    1.03652   1.04293   1.04463   1.04627   1.04904
 Alpha virt. eigenvalues --    1.05179   1.05352   1.05794   1.06020   1.06321
 Alpha virt. eigenvalues --    1.06804   1.06971   1.07095   1.07355   1.07788
 Alpha virt. eigenvalues --    1.08007   1.08250   1.08929   1.08990   1.09090
 Alpha virt. eigenvalues --    1.09558   1.09945   1.10034   1.10351   1.10676
 Alpha virt. eigenvalues --    1.11242   1.11360   1.11556   1.11655   1.12201
 Alpha virt. eigenvalues --    1.12275   1.12625   1.13026   1.13230   1.13473
 Alpha virt. eigenvalues --    1.13694   1.14056   1.14351   1.15009   1.15294
 Alpha virt. eigenvalues --    1.15646   1.15969   1.16111   1.16260   1.16666
 Alpha virt. eigenvalues --    1.16867   1.17009   1.17373   1.17651   1.18013
 Alpha virt. eigenvalues --    1.18184   1.18677   1.18800   1.19067   1.19454
 Alpha virt. eigenvalues --    1.19681   1.20179   1.20290   1.20596   1.20705
 Alpha virt. eigenvalues --    1.21066   1.21155   1.21515   1.21916   1.22085
 Alpha virt. eigenvalues --    1.22258   1.22398   1.22503   1.22790   1.22939
 Alpha virt. eigenvalues --    1.23250   1.23369   1.23487   1.23880   1.24122
 Alpha virt. eigenvalues --    1.24402   1.24638   1.24830   1.25166   1.25494
 Alpha virt. eigenvalues --    1.25659   1.25821   1.26338   1.26510   1.26781
 Alpha virt. eigenvalues --    1.27039   1.27095   1.27612   1.27907   1.27989
 Alpha virt. eigenvalues --    1.28134   1.28328   1.28525   1.28908   1.29353
 Alpha virt. eigenvalues --    1.29715   1.29970   1.30333   1.30481   1.30822
 Alpha virt. eigenvalues --    1.30857   1.31302   1.31443   1.31792   1.31925
 Alpha virt. eigenvalues --    1.32429   1.32560   1.32846   1.32976   1.33256
 Alpha virt. eigenvalues --    1.33546   1.33761   1.33827   1.34209   1.34456
 Alpha virt. eigenvalues --    1.34934   1.35127   1.35787   1.36110   1.36346
 Alpha virt. eigenvalues --    1.36592   1.37211   1.37447   1.37625   1.38120
 Alpha virt. eigenvalues --    1.38269   1.38461   1.39089   1.39392   1.39666
 Alpha virt. eigenvalues --    1.39704   1.40032   1.40232   1.40385   1.40751
 Alpha virt. eigenvalues --    1.41001   1.41306   1.41371   1.41675   1.41846
 Alpha virt. eigenvalues --    1.42041   1.42287   1.42580   1.42796   1.43129
 Alpha virt. eigenvalues --    1.43471   1.43771   1.43860   1.44202   1.44463
 Alpha virt. eigenvalues --    1.44882   1.45435   1.45568   1.46010   1.46134
 Alpha virt. eigenvalues --    1.46224   1.46616   1.46932   1.47418   1.47747
 Alpha virt. eigenvalues --    1.47890   1.48043   1.48348   1.48457   1.48739
 Alpha virt. eigenvalues --    1.49171   1.49337   1.49715   1.49917   1.50191
 Alpha virt. eigenvalues --    1.50353   1.50798   1.51326   1.51676   1.51893
 Alpha virt. eigenvalues --    1.52025   1.52696   1.52888   1.53102   1.53408
 Alpha virt. eigenvalues --    1.53711   1.54039   1.54046   1.54415   1.54546
 Alpha virt. eigenvalues --    1.54919   1.55152   1.55354   1.55696   1.56068
 Alpha virt. eigenvalues --    1.56868   1.57098   1.57229   1.57256   1.58399
 Alpha virt. eigenvalues --    1.58410   1.58680   1.59023   1.59245   1.59513
 Alpha virt. eigenvalues --    1.59750   1.60499   1.60552   1.60997   1.61488
 Alpha virt. eigenvalues --    1.61727   1.62355   1.62817   1.63154   1.63371
 Alpha virt. eigenvalues --    1.63442   1.63610   1.63938   1.64532   1.64733
 Alpha virt. eigenvalues --    1.65120   1.65228   1.65890   1.66370   1.66519
 Alpha virt. eigenvalues --    1.66937   1.67162   1.67503   1.67622   1.67923
 Alpha virt. eigenvalues --    1.68066   1.68158   1.68329   1.68699   1.68882
 Alpha virt. eigenvalues --    1.69112   1.69481   1.69697   1.70005   1.70135
 Alpha virt. eigenvalues --    1.70259   1.70519   1.70601   1.70901   1.71196
 Alpha virt. eigenvalues --    1.71724   1.71862   1.71945   1.72488   1.72605
 Alpha virt. eigenvalues --    1.73092   1.73201   1.73296   1.73532   1.73724
 Alpha virt. eigenvalues --    1.74054   1.74285   1.74432   1.74559   1.74731
 Alpha virt. eigenvalues --    1.74899   1.75208   1.75246   1.75411   1.75712
 Alpha virt. eigenvalues --    1.75939   1.76113   1.76207   1.76494   1.76685
 Alpha virt. eigenvalues --    1.76836   1.76875   1.77029   1.77190   1.77370
 Alpha virt. eigenvalues --    1.77571   1.77903   1.77971   1.78092   1.78235
 Alpha virt. eigenvalues --    1.78377   1.78542   1.78761   1.78984   1.79204
 Alpha virt. eigenvalues --    1.79240   1.79428   1.79705   1.79776   1.79874
 Alpha virt. eigenvalues --    1.80117   1.80332   1.80557   1.80594   1.80941
 Alpha virt. eigenvalues --    1.81085   1.81331   1.81404   1.81792   1.81826
 Alpha virt. eigenvalues --    1.81999   1.82268   1.82316   1.82534   1.82569
 Alpha virt. eigenvalues --    1.82682   1.82909   1.83011   1.83067   1.83416
 Alpha virt. eigenvalues --    1.83545   1.83987   1.84477   1.84515   1.84717
 Alpha virt. eigenvalues --    1.85301   1.85430   1.85599   1.85711   1.85784
 Alpha virt. eigenvalues --    1.85961   1.86101   1.86277   1.86510   1.86583
 Alpha virt. eigenvalues --    1.86651   1.86941   1.87037   1.87516   1.87551
 Alpha virt. eigenvalues --    1.87838   1.88098   1.88116   1.88401   1.88619
 Alpha virt. eigenvalues --    1.88758   1.88872   1.88972   1.89073   1.89353
 Alpha virt. eigenvalues --    1.89449   1.89863   1.89906   1.90092   1.90333
 Alpha virt. eigenvalues --    1.90419   1.90731   1.90897   1.91097   1.91214
 Alpha virt. eigenvalues --    1.91425   1.91736   1.91976   1.92200   1.92292
 Alpha virt. eigenvalues --    1.92418   1.92685   1.92727   1.92972   1.93403
 Alpha virt. eigenvalues --    1.93473   1.93815   1.94016   1.94127   1.94332
 Alpha virt. eigenvalues --    1.94647   1.94847   1.94874   1.95240   1.95646
 Alpha virt. eigenvalues --    1.95864   1.96137   1.96340   1.96456   1.96635
 Alpha virt. eigenvalues --    1.96847   1.96909   1.97047   1.97374   1.97621
 Alpha virt. eigenvalues --    1.97972   1.98099   1.98357   1.98695   1.98925
 Alpha virt. eigenvalues --    1.99032   1.99377   1.99593   1.99692   1.99911
 Alpha virt. eigenvalues --    2.00239   2.00489   2.00592   2.00858   2.01083
 Alpha virt. eigenvalues --    2.01201   2.01713   2.02058   2.02361   2.02471
 Alpha virt. eigenvalues --    2.02623   2.02869   2.03302   2.03348   2.03624
 Alpha virt. eigenvalues --    2.03688   2.03894   2.04234   2.04404   2.04776
 Alpha virt. eigenvalues --    2.04817   2.05095   2.05481   2.05724   2.05927
 Alpha virt. eigenvalues --    2.06163   2.06577   2.06710   2.07294   2.07596
 Alpha virt. eigenvalues --    2.08024   2.08130   2.08186   2.08462   2.08670
 Alpha virt. eigenvalues --    2.08958   2.09266   2.09810   2.09953   2.10012
 Alpha virt. eigenvalues --    2.11001   2.11244   2.11385   2.11884   2.11955
 Alpha virt. eigenvalues --    2.12003   2.12187   2.12263   2.12948   2.13153
 Alpha virt. eigenvalues --    2.13526   2.13774   2.14367   2.14836   2.14883
 Alpha virt. eigenvalues --    2.15364   2.15542   2.15741   2.15969   2.16068
 Alpha virt. eigenvalues --    2.16258   2.16976   2.17229   2.17535   2.17994
 Alpha virt. eigenvalues --    2.18050   2.18667   2.18698   2.18997   2.19288
 Alpha virt. eigenvalues --    2.19400   2.19595   2.19803   2.19963   2.20234
 Alpha virt. eigenvalues --    2.20277   2.20363   2.20508   2.20775   2.21015
 Alpha virt. eigenvalues --    2.21445   2.21617   2.21831   2.22035   2.22183
 Alpha virt. eigenvalues --    2.22650   2.22909   2.23425   2.23878   2.24041
 Alpha virt. eigenvalues --    2.24237   2.24915   2.25288   2.26129   2.26209
 Alpha virt. eigenvalues --    2.26783   2.27704   2.27935   2.28216   2.28645
 Alpha virt. eigenvalues --    2.29218   2.29309   2.29622   2.30009   2.30359
 Alpha virt. eigenvalues --    2.30758   2.31125   2.31718   2.32219   2.32285
 Alpha virt. eigenvalues --    2.32332   2.32608   2.32813   2.33000   2.33260
 Alpha virt. eigenvalues --    2.33401   2.33742   2.34296   2.34358   2.34418
 Alpha virt. eigenvalues --    2.35382   2.35812   2.35900   2.36341   2.36620
 Alpha virt. eigenvalues --    2.36874   2.37485   2.37645   2.37971   2.38160
 Alpha virt. eigenvalues --    2.38312   2.39138   2.39469   2.39625   2.40083
 Alpha virt. eigenvalues --    2.40319   2.40692   2.40873   2.41014   2.41070
 Alpha virt. eigenvalues --    2.41960   2.42216   2.42717   2.42839   2.43003
 Alpha virt. eigenvalues --    2.43204   2.43307   2.43558   2.43961   2.44090
 Alpha virt. eigenvalues --    2.44523   2.45143   2.45337   2.46194   2.46714
 Alpha virt. eigenvalues --    2.46943   2.47313   2.47396   2.47550   2.47970
 Alpha virt. eigenvalues --    2.48196   2.48600   2.48781   2.49004   2.49641
 Alpha virt. eigenvalues --    2.50089   2.50363   2.50496   2.50762   2.50919
 Alpha virt. eigenvalues --    2.51447   2.51996   2.52236   2.52413   2.52774
 Alpha virt. eigenvalues --    2.53118   2.53316   2.53522   2.53771   2.54060
 Alpha virt. eigenvalues --    2.54436   2.55281   2.55802   2.56126   2.56160
 Alpha virt. eigenvalues --    2.56823   2.57095   2.57209   2.57395   2.57881
 Alpha virt. eigenvalues --    2.58078   2.58763   2.58839   2.59750   2.59849
 Alpha virt. eigenvalues --    2.60105   2.60343   2.60504   2.60624   2.61486
 Alpha virt. eigenvalues --    2.62182   2.62450   2.62493   2.62963   2.63291
 Alpha virt. eigenvalues --    2.63396   2.63614   2.63656   2.64195   2.64578
 Alpha virt. eigenvalues --    2.65153   2.65431   2.65636   2.65843   2.65970
 Alpha virt. eigenvalues --    2.66096   2.66191   2.66240   2.66601   2.66815
 Alpha virt. eigenvalues --    2.67002   2.67678   2.67908   2.68012   2.68294
 Alpha virt. eigenvalues --    2.68673   2.68783   2.69181   2.69657   2.70951
 Alpha virt. eigenvalues --    2.71187   2.71383   2.71556   2.71669   2.71830
 Alpha virt. eigenvalues --    2.72061   2.72340   2.72695   2.72891   2.72981
 Alpha virt. eigenvalues --    2.73216   2.73604   2.73803   2.73837   2.74554
 Alpha virt. eigenvalues --    2.74727   2.74864   2.75171   2.75217   2.75301
 Alpha virt. eigenvalues --    2.75450   2.75926   2.76151   2.76279   2.76848
 Alpha virt. eigenvalues --    2.76871   2.77139   2.77529   2.77637   2.78010
 Alpha virt. eigenvalues --    2.78329   2.78593   2.78815   2.78986   2.79362
 Alpha virt. eigenvalues --    2.79515   2.79670   2.80056   2.80086   2.80861
 Alpha virt. eigenvalues --    2.81049   2.81540   2.81971   2.82149   2.82385
 Alpha virt. eigenvalues --    2.83076   2.83157   2.83422   2.83693   2.83920
 Alpha virt. eigenvalues --    2.84077   2.84146   2.84354   2.85316   2.85392
 Alpha virt. eigenvalues --    2.85773   2.86098   2.86381   2.86721   2.87155
 Alpha virt. eigenvalues --    2.88123   2.88200   2.88402   2.88432   2.88958
 Alpha virt. eigenvalues --    2.89043   2.89226   2.89663   2.89801   2.89973
 Alpha virt. eigenvalues --    2.90350   2.90602   2.90665   2.90986   2.91531
 Alpha virt. eigenvalues --    2.91783   2.92009   2.92281   2.92641   2.92805
 Alpha virt. eigenvalues --    2.93230   2.93737   2.94089   2.94321   2.94959
 Alpha virt. eigenvalues --    2.95109   2.95184   2.95318   2.95782   2.95973
 Alpha virt. eigenvalues --    2.96486   2.96734   2.96794   2.97286   2.97854
 Alpha virt. eigenvalues --    2.98051   2.98171   2.98432   2.99099   2.99465
 Alpha virt. eigenvalues --    2.99589   2.99785   3.00053   3.00392   3.00582
 Alpha virt. eigenvalues --    3.00988   3.01200   3.01677   3.01706   3.02617
 Alpha virt. eigenvalues --    3.02975   3.03301   3.03636   3.03799   3.03863
 Alpha virt. eigenvalues --    3.04435   3.05249   3.05275   3.05722   3.05908
 Alpha virt. eigenvalues --    3.06626   3.06987   3.07503   3.07881   3.08021
 Alpha virt. eigenvalues --    3.08510   3.09669   3.09889   3.10087   3.10869
 Alpha virt. eigenvalues --    3.11441   3.12119   3.12227   3.12849   3.13084
 Alpha virt. eigenvalues --    3.13905   3.14490   3.14569   3.15098   3.15404
 Alpha virt. eigenvalues --    3.15874   3.16171   3.16311   3.16627   3.17383
 Alpha virt. eigenvalues --    3.17668   3.17792   3.18023   3.18331   3.18669
 Alpha virt. eigenvalues --    3.18908   3.19744   3.19788   3.19987   3.20090
 Alpha virt. eigenvalues --    3.20380   3.21373   3.21753   3.21925   3.22171
 Alpha virt. eigenvalues --    3.22510   3.22876   3.23014   3.23655   3.23781
 Alpha virt. eigenvalues --    3.24022   3.24747   3.25791   3.26259   3.27130
 Alpha virt. eigenvalues --    3.27876   3.28681   3.29087   3.29304   3.30028
 Alpha virt. eigenvalues --    3.30488   3.31721   3.33747   3.34125   3.34458
 Alpha virt. eigenvalues --    3.35022   3.36199   3.37239   3.38883   3.39810
 Alpha virt. eigenvalues --    3.40860   3.45136   3.46241   3.48743   3.49683
 Alpha virt. eigenvalues --    3.51344   3.53624   3.54069   3.54425   3.55259
 Alpha virt. eigenvalues --    3.55419   3.56949   3.57333   3.57977   3.59077
 Alpha virt. eigenvalues --    3.60005   3.60888   3.61637   3.61758   3.62338
 Alpha virt. eigenvalues --    3.64054   3.65195   3.66227   3.66494   3.67039
 Alpha virt. eigenvalues --    3.67542   3.68058   3.68268   3.69408   3.69459
 Alpha virt. eigenvalues --    3.70603   3.70735   3.70947   3.71321   3.72139
 Alpha virt. eigenvalues --    3.72479   3.72590   3.73498   3.74148   3.76378
 Alpha virt. eigenvalues --    3.80185   3.80750   3.81484   3.82316
          Condensed to atoms (all electrons):
 Mulliken charges:
               1
     1  C    0.062421
     2  C    0.048117
     3  O   -0.304515
     4  H    0.041104
     5  H    0.043229
     6  H   -0.003004
     7  N   -0.112714
     8  C    0.092112
     9  C    0.072081
    10  O   -0.285348
    11  C    0.025352
    12  C    0.188691
    13  O   -0.472502
    14  O   -0.392192
    15  H    0.124663
    16  H    0.008906
    17  H    0.022396
    18  H   -0.005669
    19  N   -0.119194
    20  C    0.174990
    21  C    0.052535
    22  O   -0.298133
    23  C   -0.044292
    24  C    0.057350
    25  C    0.011511
    26  C   -0.026218
    27  N    0.082446
    28  H    0.151225
    29  H   -0.009119
    30  H    0.037319
    31  H    0.007362
    32  H   -0.039384
    33  H    0.052891
    34  H    0.010755
    35  H    0.045228
    36  H    0.068988
    37  H    0.073865
    38  H    0.173832
    39  H    0.216819
    40  H    0.179208
    41  N   -0.167094
    42  C    0.172620
    43  C    0.018325
    44  O   -0.297212
    45  C    0.063681
    46  C    0.101584
    47  O   -0.378812
    48  O   -0.490788
    49  H    0.155642
    50  H    0.018408
    51  H   -0.009848
    52  H    0.022518
    53  N   -0.146096
    54  C    0.202825
    55  C    0.072348
    56  O   -0.289187
    57  H    0.128665
    58  H    0.032511
    59  H    0.023511
    60  N   -0.155586
    61  C    0.118315
    62  C    0.073205
    63  O   -0.323442
    64  C    0.090604
    65  C    0.055889
    66  N   -0.014883
    67  O   -0.334810
    68  H    0.150434
    69  H    0.029284
    70  H    0.070199
    71  H   -0.008859
    72  H    0.138096
    73  H    0.103271
    74  N   -0.156850
    75  C    0.255871
    76  C    0.009668
    77  O   -0.308355
    78  H    0.147280
    79  H    0.040448
    80  H    0.030444
    81  N   -0.148169
    82  C    0.120419
    83  C    0.138922
    84  O   -0.329267
    85  C    0.116883
    86  C    0.002222
    87  C   -0.013773
    88  C   -0.017629
    89  C   -0.007587
    90  C   -0.047652
    91  C    0.163472
    92  O   -0.203008
    93  H    0.148134
    94  H   -0.002908
    95  H   -0.015940
    96  H   -0.032244
    97  H   -0.025721
    98  H   -0.003250
    99  H   -0.031564
   100  H   -0.040091
   101  H    0.172348
   102  N   -0.118982
   103  C    0.140857
   104  C    0.068735
   105  O   -0.276452
   106  C   -0.105829
   107  C    0.055052
   108  C    0.024760
   109  C    0.029108
   110  H    0.134508
   111  H    0.005061
   112  H   -0.001210
   113  H   -0.003621
   114  H   -0.023538
   115  H    0.025476
   116  H    0.000038
   117  H    0.012243
   118  H    0.010966
   119  H    0.002125
   120  H    0.010309
   121  N   -0.131881
   122  C    0.118400
   123  C    0.094873
   124  O   -0.309250
   125  C    0.240304
   126  O   -0.334765
   127  H    0.137611
   128  H    0.021007
   129  H   -0.000523
   130  H   -0.012654
   131  H    0.161568
   132  N   -0.124122
   133  C    0.082173
   134  C    0.035045
   135  O   -0.253949
   136  C    0.050649
   137  H    0.114396
   138  H    0.025242
   139  H    0.032002
   140  H    0.046704
   141  H    0.030781
   142  N   -0.148780
   143  C    0.099473
   144  C    0.088872
   145  O   -0.282086
   146  C    0.055490
   147  H    0.094004
   148  H    0.021790
   149  H    0.031503
   150  H    0.017191
   151  H    0.023670
   152  N   -0.150132
   153  C    0.155141
   154  C    0.065163
   155  O   -0.291593
   156  C   -0.061821
   157  C    0.145638
   158  C    0.135421
   159  O   -0.431242
   160  O   -0.410727
   161  H    0.131217
   162  H   -0.058762
   163  H    0.054864
   164  H    0.001087
   165  H   -0.013595
   166  H   -0.045123
   167  N   -0.173224
   168  C    0.137745
   169  H    0.035439
   170  H    0.033931
   171  H    0.006468
   172  H    0.126048
   173  Ca   1.326304
   174  O   -0.282931
   175  H    0.178770
   176  H    0.171037
 Sum of Mulliken charges =  -0.00000
 Mulliken charges with hydrogens summed into heavy atoms:
               1
     1  C    0.143750
     2  C    0.048117
     3  O   -0.304515
     7  N    0.011949
     8  C    0.101018
     9  C    0.072081
    10  O   -0.285348
    11  C    0.042079
    12  C    0.188691
    13  O   -0.472502
    14  O   -0.392192
    19  N    0.032031
    20  C    0.165870
    21  C    0.052535
    22  O   -0.298133
    23  C    0.000390
    24  C    0.070856
    25  C    0.067494
    26  C    0.116635
    27  N    0.652305
    41  N   -0.011452
    42  C    0.191028
    43  C    0.018325
    44  O   -0.297212
    45  C    0.076351
    46  C    0.101584
    47  O   -0.378812
    48  O   -0.490788
    53  N   -0.017431
    54  C    0.258847
    55  C    0.072348
    56  O   -0.289187
    60  N   -0.005152
    61  C    0.147598
    62  C    0.073205
    63  O   -0.323442
    64  C    0.151944
    65  C    0.055889
    66  N    0.226485
    67  O   -0.334810
    74  N   -0.009570
    75  C    0.326762
    76  C    0.009668
    77  O   -0.308355
    81  N   -0.000034
    82  C    0.117511
    83  C    0.138922
    84  O   -0.329267
    85  C    0.068699
    86  C    0.002222
    87  C   -0.039494
    88  C   -0.020879
    89  C   -0.039151
    90  C   -0.087743
    91  C    0.163472
    92  O   -0.030660
   102  N    0.015526
   103  C    0.145919
   104  C    0.068735
   105  O   -0.276452
   106  C   -0.107039
   107  C    0.027893
   108  C    0.062516
   109  C    0.052508
   121  N    0.005730
   122  C    0.139407
   123  C    0.094873
   124  O   -0.309250
   125  C    0.227127
   126  O   -0.173197
   132  N   -0.009726
   133  C    0.107415
   134  C    0.035045
   135  O   -0.253949
   136  C    0.160137
   142  N   -0.054776
   143  C    0.121264
   144  C    0.088872
   145  O   -0.282086
   146  C    0.127854
   152  N   -0.018915
   153  C    0.096379
   154  C    0.065163
   155  O   -0.291593
   156  C   -0.005870
   157  C    0.086920
   158  C    0.135421
   159  O   -0.431242
   160  O   -0.410727
   167  N   -0.047176
   168  C    0.213583
   173  Ca   1.326304
   174  O    0.066876
 DipInt: DoE/N= T F RetVal/Mat= T F Init=T NMatP=  1 IDeriv=0 Min/MaxMlt=  0  4
 Entering OneElI...
 OneElI was handed  1333951383 working-precision words.
 Multipole integrals L=0 to 4 MinM= 0 MaxM= 0.
 Requested accuracy = 0.1000D-12
 ShPair: Thresh= 1.00D-13 NBox=     0 BxSize= 0.00D+00 RnKept= 2.55D+01
         NSMCal=               327645 NSMKep=              161217
 PrmmSu-InSpLW:  IPartL=    0 NPrtUS=    1 NPrtUL=    1 DoSpLW=F IThBeg=    0 IThEnd=    0 NThAct=    1.
 PrsmSu:  NPrtUS=   1 ThrOK=F IAlg=1 NPAlg=1 LenDen=           0 ISkipM=0 DoSpLW=F IThBeg=    0 IThEnd=    0.
 Prism:   IPart=     0 DynPar=F LinDyn=F Incr=         512.
 PRISM was handed  1323857915 working-precision words and161217 shell-pairs
 IPart=  0 NShTot=      161217 NBatch=         370 AvBLen=       435.7
 PrsmSu-ThDecC:  IPartSL=    0    0 NPrtUSL=    1    1 IThBeg=    0 IThEnd=    0 CPU=   -1 GPU=   -1 NThAct=    1.
 PrSmSu:  NxtVal=            513.
 Electronic moments (au):
       -716.00000000        -11.72717369         -0.16080403         -2.75215867
     -53300.58182919     -31219.59243391     -11250.53543924         80.82998307
         28.85241568        -19.98192701     112542.21009416     -18353.30824546
     -20345.92098622     -57568.87327270     -68166.81203425      40975.61688736
       9025.24962697       2492.03750709      25361.37484183      -4003.86421779
   -7848464.88453445   -3348756.30589215    -530058.75251221     322300.34837876
    -363928.91444872    -762204.20435668      44755.07151672      99532.71243842
     -38056.15514634   -2117592.88524750    -625111.20515591    -328828.73567526
     167812.14098462      65848.34510635      30582.15143303
 Electronic spatial extent (au):  <R**2>=          95770.7097
 DipInt: DoE/N= F T RetVal/Mat= T F Init=T NMatP=  1 IDeriv=0 Min/MaxMlt=  0  4
 Nuclear    moments (au):
        716.00000000         -0.00000000          0.00000000         -0.00000000
      52843.89045091      30860.11701852      10846.59140625          0.00000000
         -0.00000000         -0.00000000    -113206.72542636      17425.60111464
      20556.74709360      55757.62748574      68303.73562925     -41731.05918397
      -9233.47733433      -2341.26072034     -25653.79415359       3735.99811457
    7646144.73690108    3246780.56160149     491475.85356661    -314656.56526521
     366582.32099209     776071.18949400     -44497.74099604     -99160.96141465
      36032.63775072    2079988.72004901     589128.02187538     304011.85568001
    -169796.89692463     -63297.96828140     -29998.88343694
 Total      moments (au):
         -0.00000000        -11.72717369         -0.16080403         -2.75215867
       -456.69137828       -359.47541540       -403.94403299         80.82998307
         28.85241568        -19.98192701       -664.51533220       -927.70713081
        210.82610738      -1811.24578696        136.92359500       -755.44229661
       -208.22770735        150.77678675       -292.41931177       -267.86610322
    -202320.14763336    -101975.74429066     -38582.89894560       7643.78311356
       2653.40654337      13866.98513732        257.33052067        371.75102377
      -2023.51739561     -37604.16519849     -35983.18328053     -24816.87999525
      -1984.75594001       2550.37682495        583.26799609
 Traceless Quadrup. (au):
        -49.98776939         47.22819349          2.75957590         80.82998307
         28.85241568        -19.98192701
 Charge=             -0.0000 electrons
 Dipole moment (field-independent basis, Debye):
    X=            -29.8075    Y=             -0.4087    Z=             -6.9953  Tot=             30.6201
 Quadrupole moment (field-independent basis, Debye-Ang):
   XX=           -614.2655   YY=           -483.5067   ZZ=           -543.3186
   XY=            108.7191   XZ=             38.8075   YZ=            -26.8764
 Traceless Quadrupole moment (field-independent basis, Debye-Ang):
   XX=            -67.2353   YY=             63.5235   ZZ=              3.7117
   XY=            108.7191   XZ=             38.8075   YZ=            -26.8764
 Octapole moment (field-independent basis, Debye-Ang**2):
  XXX=           -472.9764  YYY=           -660.3062  ZZZ=            150.0579  XYY=          -1289.1750
  XXY=             97.4569  XXZ=           -537.6947  XZZ=           -148.2085  YZZ=            107.3171
  YYZ=           -208.1328  XYZ=           -190.6568
 Hexadecapole moment (field-independent basis, Debye-Ang**3):
 XXXX=         -76203.4692 YYYY=         -38408.9552 ZZZZ=         -14532.1699 XXXY=           2879.0153
 XXXZ=            999.4001 YYYX=           5222.9715 YYYZ=             96.9230 ZZZX=            140.0193
 ZZZY=           -762.1537 XXYY=         -14163.5318 XXZZ=         -13552.9923 YYZZ=          -9347.2270
 XXYZ=           -747.5543 YYXZ=            960.5942 ZZXY=            219.6867
 N-N= 2.166006676328D+04 E-N=-5.579828775704D+04  KE= 5.290566065969D+03
 Leave Link  601 at Sun Sep 15 00:55:39 2019, MaxMem=  1342177280 cpu:              46.8 elap:               1.2
 FitSet:  NAtFit=   176 NAtPot=   176 NAtFrz=     0 MDM=   180 TotChg=   0.00000
 Merz-Kollman atomic radii used.
 Read replacement radii for each type of atom:
 Rad(20) =   1.700000000000D+00
 Atom Element Radius
    1     6    1.50
    2     6    1.50
    3     8    1.40
    4     1    1.20
    5     1    1.20
    6     1    1.20
    7     7    1.50
    8     6    1.50
    9     6    1.50
   10     8    1.40
   11     6    1.50
   12     6    1.50
   13     8    1.40
   14     8    1.40
   15     1    1.20
   16     1    1.20
   17     1    1.20
   18     1    1.20
   19     7    1.50
   20     6    1.50
   21     6    1.50
   22     8    1.40
   23     6    1.50
   24     6    1.50
   25     6    1.50
   26     6    1.50
   27     7    1.50
   28     1    1.20
   29     1    1.20
   30     1    1.20
   31     1    1.20
   32     1    1.20
   33     1    1.20
   34     1    1.20
   35     1    1.20
   36     1    1.20
   37     1    1.20
   38     1    1.20
   39     1    1.20
   40     1    1.20
   41     7    1.50
   42     6    1.50
   43     6    1.50
   44     8    1.40
   45     6    1.50
   46     6    1.50
   47     8    1.40
   48     8    1.40
   49     1    1.20
   50     1    1.20
   51     1    1.20
   52     1    1.20
   53     7    1.50
   54     6    1.50
   55     6    1.50
   56     8    1.40
   57     1    1.20
   58     1    1.20
   59     1    1.20
   60     7    1.50
   61     6    1.50
   62     6    1.50
   63     8    1.40
   64     6    1.50
   65     6    1.50
   66     7    1.50
   67     8    1.40
   68     1    1.20
   69     1    1.20
   70     1    1.20
   71     1    1.20
   72     1    1.20
   73     1    1.20
   74     7    1.50
   75     6    1.50
   76     6    1.50
   77     8    1.40
   78     1    1.20
   79     1    1.20
   80     1    1.20
   81     7    1.50
   82     6    1.50
   83     6    1.50
   84     8    1.40
   85     6    1.50
   86     6    1.50
   87     6    1.50
   88     6    1.50
   89     6    1.50
   90     6    1.50
   91     6    1.50
   92     8    1.40
   93     1    1.20
   94     1    1.20
   95     1    1.20
   96     1    1.20
   97     1    1.20
   98     1    1.20
   99     1    1.20
  100     1    1.20
  101     1    1.20
  102     7    1.50
  103     6    1.50
  104     6    1.50
  105     8    1.40
  106     6    1.50
  107     6    1.50
  108     6    1.50
  109     6    1.50
  110     1    1.20
  111     1    1.20
  112     1    1.20
  113     1    1.20
  114     1    1.20
  115     1    1.20
  116     1    1.20
  117     1    1.20
  118     1    1.20
  119     1    1.20
  120     1    1.20
  121     7    1.50
  122     6    1.50
  123     6    1.50
  124     8    1.40
  125     6    1.50
  126     8    1.40
  127     1    1.20
  128     1    1.20
  129     1    1.20
  130     1    1.20
  131     1    1.20
  132     7    1.50
  133     6    1.50
  134     6    1.50
  135     8    1.40
  136     6    1.50
  137     1    1.20
  138     1    1.20
  139     1    1.20
  140     1    1.20
  141     1    1.20
  142     7    1.50
  143     6    1.50
  144     6    1.50
  145     8    1.40
  146     6    1.50
  147     1    1.20
  148     1    1.20
  149     1    1.20
  150     1    1.20
  151     1    1.20
  152     7    1.50
  153     6    1.50
  154     6    1.50
  155     8    1.40
  156     6    1.50
  157     6    1.50
  158     6    1.50
  159     8    1.40
  160     8    1.40
  161     1    1.20
  162     1    1.20
  163     1    1.20
  164     1    1.20
  165     1    1.20
  166     1    1.20
  167     7    1.50
  168     6    1.50
  169     1    1.20
  170     1    1.20
  171     1    1.20
  172     1    1.20
  173    20    1.70
  174     8    1.40
[...]
 **** Fit       0.008335
 **** Fit       0.003878
 **** Fit      -0.003207
 **** Fit      -0.028665
 **** Fit      -0.029125
 **** Fit      -0.028268
 **** Fit      -0.026208
 **** Fit      -0.023049
 **** Fit      -0.018893
 **** Fit      -0.013833
 **** Fit      -0.007979
 **** Fit      -0.001494
 **** Fit       0.005319
 **** Fit       0.011916
 **** Fit       0.017449
 **** Fit       0.020891
 **** Fit       0.021386
 **** Fit       0.018607
 **** Fit       0.012713
 **** Fit       0.003934
 **** Fit      -0.032739
 **** Fit      -0.032876
 **** Fit      -0.031481
 **** Fit      -0.028653
 **** Fit      -0.024522
 **** Fit      -0.019211
 **** Fit      -0.012813
 **** Fit      -0.005398
 **** Fit       0.002923
 **** Fit       0.011886
 **** Fit       0.020878
 **** Fit       0.028747
 **** Fit       0.033901
 **** Fit       0.034997
 **** Fit       0.031740
 **** Fit       0.024797
 **** Fit       0.014988
 **** Fit      -0.029782
 **** Fit      -0.023440
 **** Fit      -0.015774
 **** Fit      -0.006855
 **** Fit       0.003296
 **** Fit       0.014579
 **** Fit       0.026538
 **** Fit       0.039576
 **** Fit       0.029283
 **** Fit      -0.010884
 **** Fit       0.001034
 **** Fit       0.014321
 **** Fit       0.028784
 **** Fit      -0.000278
 **** Fit       0.015856
 **** Fit       0.042517
 **** Fit       0.035590
 **** Fit       0.041590
 **** Fit       0.034806
 **** Fit       0.039204
 **** Fit       0.026745
 **** Fit       0.033511
 **** Fit       0.036429
 **** Fit       0.025079
 **** Fit       0.029616
 **** Fit       0.031441
 **** Fit       0.031475
 **** Fit       0.029430
 **** Fit       0.026062
 **** Fit       0.022791
 **** Fit       0.020510
 **** Fit       0.017724
 **** Fit       0.014294
 **** Fit       0.026632
 **** Fit       0.026112
 **** Fit       0.023595
 **** Fit       0.020559
 **** Fit       0.017661
 **** Fit       0.022390
 **** Fit       0.021090
 **** Fit       0.024399
 **** Fit       0.020225
 **** Fit       0.017794
 **** Fit       0.024152
 **** Fit       0.021106
 **** Fit       0.019372
 **** Fit       0.020873
 **** Fit       0.020211
 **** Fit       0.020321
 **** Fit       0.020184
 **** Fit       0.021939
 **** Fit       0.019846
 **** Fit       0.017595
 **** Fit       0.016021
 **** Fit       0.018476
 **** Fit       0.019271
 **** Fit       0.017439
 **** Fit       0.024571
 **** Fit       0.028097
 **** Fit       0.023869
 **** Fit       0.028378
 **** Fit       0.029980
 **** Fit       0.024749
 **** Fit       0.025762
 **** Fit       0.026567
 **** Fit       0.019669
 **** Fit       0.021882
 **** Fit       0.022640
 **** Fit       0.021828
 **** Fit       0.019349
 **** Fit       0.015733
 **** Fit       0.016023
 **** Fit       0.018309
 **** Fit       0.016345
 **** Fit       0.013077
 **** Fit       0.046566
 **** Fit       0.029774
 **** Fit       0.040734
 **** Fit       0.046324
 **** Fit       0.033040
 **** Fit       0.027596
 **** Fit       0.038317
 **** Fit       0.041571
 **** Fit       0.036053
 **** Fit       0.030131
 **** Fit       0.034732
 **** Fit       0.032418
 **** Fit       0.004079
 **** Fit       0.003667
 **** Fit       0.002831
 **** Fit       0.004656
 **** Fit       0.004985
 **** Fit       0.004733
 **** Fit       0.004040
 **** Fit       0.003159
 **** Fit       0.002309
 **** Fit       0.004116
 **** Fit       0.005104
 **** Fit       0.005789
 **** Fit       0.005202
 **** Fit       0.004365
 **** Fit       0.003451
 **** Fit       0.002541
 **** Fit       0.001683
 **** Fit       0.004348
 **** Fit       0.005598
 **** Fit       0.005283
 **** Fit       0.004279
 **** Fit       0.003291
 **** Fit       0.002340
 **** Fit       0.001414
 **** Fit       0.000517
 **** Fit       0.004521
 **** Fit       0.006046
 **** Fit       0.005483
 **** Fit       0.004399
 **** Fit       0.003383
 **** Fit       0.002437
 **** Fit       0.001528
 **** Fit       0.000620
 **** Fit      -0.000310
 **** Fit      -0.001259
 **** Fit       0.004748
 **** Fit       0.003594
 **** Fit       0.002564
 **** Fit       0.001626
 **** Fit       0.000721
 **** Fit      -0.000214
 **** Fit      -0.001222
 **** Fit      -0.002317
 **** Fit      -0.003498
 **** Fit       0.002556
 **** Fit       0.005023
 **** Fit       0.003696
 **** Fit       0.002547
 **** Fit       0.001562
 **** Fit       0.000682
 **** Fit      -0.000181
 **** Fit      -0.002173
 **** Fit      -0.003383
 **** Fit      -0.004753
 **** Fit      -0.006309
 **** Fit       0.004679
 **** Fit       0.003170
 **** Fit       0.001902
 **** Fit      -0.006958
 **** Fit      -0.008951
 **** Fit       0.004058
 **** Fit       0.002322
 **** Fit       0.000894
 **** Fit      -0.009471
 **** Fit      -0.011936
 **** Fit      -0.015052
 **** Fit       0.002336
 **** Fit       0.000351
 **** Fit      -0.014011
 **** Fit      -0.017495
 **** Fit      -0.022162
 **** Fit       0.003609
 **** Fit       0.000581
 **** Fit      -0.020927
 **** Fit       0.001959
 **** Fit      -0.002241
 **** Fit      -0.024561
 **** Fit      -0.028521
 **** Fit      -0.000307
 **** Fit      -0.001207
 **** Fit      -0.002152
 **** Fit       0.000271
 **** Fit      -0.000666
 **** Fit      -0.001488
 **** Fit      -0.002297
 **** Fit      -0.003190
 **** Fit      -0.004258
 **** Fit      -0.005571
 **** Fit      -0.000477
 **** Fit      -0.001454
 **** Fit      -0.002238
 **** Fit      -0.002923
 **** Fit      -0.003613
 **** Fit      -0.004411
 **** Fit      -0.005412
 **** Fit      -0.006704
 **** Fit      -0.008378
 **** Fit      -0.001347
 **** Fit      -0.002597
 **** Fit      -0.003506
 **** Fit      -0.004171
 **** Fit      -0.004721
 **** Fit      -0.005286
 **** Fit      -0.005988
 **** Fit      -0.006939
 **** Fit      -0.008242
 **** Fit      -0.010014
 **** Fit      -0.012415
 **** Fit      -0.002742
 **** Fit      -0.004468
 **** Fit      -0.005655
 **** Fit      -0.006396
 **** Fit      -0.006841
 **** Fit      -0.007161
 **** Fit      -0.007518
 **** Fit      -0.008053
 **** Fit      -0.008885
 **** Fit      -0.010122
 **** Fit      -0.011879
 **** Fit      -0.014319
 **** Fit      -0.005829
 **** Fit      -0.008142
 **** Fit      -0.009604
 **** Fit      -0.010333
 **** Fit      -0.010558
 **** Fit      -0.010534
 **** Fit      -0.010494
 **** Fit      -0.010627
 **** Fit      -0.011083
 **** Fit      -0.011980
 **** Fit      -0.013426
 **** Fit      -0.015540
 **** Fit      -0.018506
 **** Fit      -0.015960
 **** Fit      -0.015199
 **** Fit      -0.014629
 **** Fit      -0.014479
 **** Fit      -0.014908
 **** Fit      -0.016037
 **** Fit      -0.017966
 **** Fit      -0.020812
 **** Fit      -0.024782
 **** Fit      -0.020267
 **** Fit      -0.019331
 **** Fit      -0.019350
 **** Fit      -0.020436
 **** Fit      -0.022654
 **** Fit      -0.026034
 **** Fit      -0.030613
 **** Fit      -0.024933
 **** Fit      -0.025816
 **** Fit      -0.028293
 **** Fit      -0.032333
 **** Fit       0.001548
 **** Fit       0.001825
 **** Fit       0.002577
 **** Fit       0.002237
 **** Fit       0.001167
 **** Fit       0.000300
 **** Fit       0.000602
 **** Fit       0.002015
 **** Fit       0.003009
 **** Fit       0.003482
 **** Fit       0.003391
 **** Fit       0.002780
 **** Fit       0.001800
 **** Fit       0.000661
 **** Fit      -0.000441
 **** Fit      -0.001264
 **** Fit      -0.001453
 **** Fit      -0.000740
 **** Fit       0.000629
 **** Fit       0.002111
 **** Fit       0.003203
 **** Fit       0.003964
 **** Fit       0.001176
 **** Fit       0.000008
 **** Fit      -0.001164
 **** Fit      -0.002289
 **** Fit      -0.003249
 **** Fit      -0.003809
 **** Fit      -0.003671
 **** Fit      -0.002679
 **** Fit      -0.001051
 **** Fit       0.000675
 **** Fit       0.002060
 **** Fit       0.003269
 **** Fit      -0.000182
 **** Fit      -0.001451
 **** Fit      -0.002747
 **** Fit      -0.004075
 **** Fit      -0.005377
 **** Fit      -0.006493
 **** Fit      -0.007139
 **** Fit      -0.006981
 **** Fit      -0.005810
 **** Fit      -0.003766
 **** Fit      -0.001427
 **** Fit       0.000559
 **** Fit       0.001696
 **** Fit      -0.002532
 **** Fit      -0.004005
 **** Fit      -0.005581
 **** Fit      -0.007275
 **** Fit      -0.009023
 **** Fit      -0.010628
 **** Fit      -0.011743
 **** Fit      -0.011933
 **** Fit      -0.010838
 **** Fit      -0.008401
 **** Fit       0.000680
 **** Fit      -0.005461
 **** Fit      -0.007265
 **** Fit      -0.009291
 **** Fit      -0.011561
 **** Fit      -0.014002
 **** Fit      -0.016375
 **** Fit      -0.018250
 **** Fit      -0.009508
 **** Fit      -0.012049
 **** Fit      -0.015046
 **** Fit      -0.018522
 **** Fit      -0.015157
 **** Fit      -0.018953
 **** Fit      -0.021312
 **** Fit       0.006082
 **** Fit       0.006540
 **** Fit       0.006012
 **** Fit       0.006678
 **** Fit       0.007428
 **** Fit       0.007513
 **** Fit       0.007097
 **** Fit       0.006352
 **** Fit       0.007429
 **** Fit       0.008331
 **** Fit       0.008598
 **** Fit       0.008456
 **** Fit       0.008055
 **** Fit       0.007428
 **** Fit       0.006622
 **** Fit       0.005748
 **** Fit       0.009737
 **** Fit       0.009569
 **** Fit       0.009258
 **** Fit       0.008828
 **** Fit       0.008228
 **** Fit       0.007437
 **** Fit       0.006510
 **** Fit       0.005559
 **** Fit       0.010233
 **** Fit       0.009878
 **** Fit       0.009444
 **** Fit       0.008831
 **** Fit       0.007997
 **** Fit       0.006976
 **** Fit       0.005873
 **** Fit       0.010711
 **** Fit       0.010441
 **** Fit       0.010060
 **** Fit       0.009461
 **** Fit       0.008592
 **** Fit       0.007479
 **** Fit       0.006215
 **** Fit       0.011232
 **** Fit       0.011141
 **** Fit       0.010948
 **** Fit       0.010504
 **** Fit       0.009716
 **** Fit       0.008559
 **** Fit       0.007100
 **** Fit       0.005488
 **** Fit       0.011556
 **** Fit       0.011746
 **** Fit       0.011816
 **** Fit       0.011613
 **** Fit       0.010999
 **** Fit       0.009897
 **** Fit       0.008319
 **** Fit       0.006386
 **** Fit       0.012393
 **** Fit       0.012749
 **** Fit       0.012772
 **** Fit       0.012283
 **** Fit       0.011142
 **** Fit       0.009316
 **** Fit       0.006908
 **** Fit       0.013453
 **** Fit       0.014039
 **** Fit       0.014121
 **** Fit       0.013411
 **** Fit       0.011693
 **** Fit       0.008924
 **** Fit       0.005313
 **** Fit       0.015019
 **** Fit       0.015766
 **** Fit       0.015633
 **** Fit       0.014110
 **** Fit       0.010862
 **** Fit       0.015124
 **** Fit       0.016724
 **** Fit       0.017505
 **** Fit       0.011991
 **** Fit       0.004465
 **** Fit       0.018018
 **** Fit       0.012148
 **** Fit       0.003940
 **** Fit       0.023372
 **** Fit       0.022859
 **** Fit       0.021201
 **** Fit       0.017673
 **** Fit       0.011870
 **** Fit       0.003357
 **** Fit       0.024850
 **** Fit       0.022915
 **** Fit       0.021202
 **** Fit       0.018542
 **** Fit       0.013906
 **** Fit       0.006500
 **** Fit      -0.004464
 **** Fit       0.021426
 **** Fit       0.018906
 **** Fit       0.015294
 **** Fit       0.009452
 **** Fit       0.000246
 **** Fit       0.016817
 **** Fit       0.013634
 **** Fit       0.007954
 **** Fit      -0.001596
 **** Fit       0.009656
 **** Fit       0.006260
 **** Fit      -0.002409
 **** Fit      -0.001516
 **** Fit      -0.003121
 **** Fit      -0.014254
 **** Fit       0.026230
 **** Fit       0.022665
 **** Fit       0.019909
 **** Fit      -0.030009
 **** Fit       0.018245
 **** Fit       0.012982
 **** Fit       0.006029
 **** Fit      -0.002770
 **** Fit      -0.012156
 **** Fit      -0.019377
 **** Fit      -0.021711
 **** Fit      -0.018496
 **** Fit       0.016009
 **** Fit       0.009496
 **** Fit       0.002088
 **** Fit      -0.005337
 **** Fit      -0.010665
 **** Fit      -0.011732
 **** Fit      -0.007998
 **** Fit      -0.000601
 **** Fit       0.016737
 **** Fit       0.024098
 **** Fit       0.029450
 **** Fit       0.010480
 **** Fit       0.003574
 **** Fit      -0.001552
 **** Fit      -0.002666
 **** Fit       0.001059
 **** Fit       0.008315
 **** Fit       0.016797
 **** Fit       0.023911
 **** Fit       0.013056
 **** Fit       0.007230
 **** Fit       0.005652
 **** Fit       0.009574
 **** Fit       0.018229
 **** Fit       0.016625
 **** Fit       0.013392
 **** Fit       0.035233
 **** Fit       0.034767
 **** Fit       0.036395
 **** Fit       0.036046
 **** Fit       0.035482
 **** Fit       0.036109
 **** Fit       0.037578
 **** Fit       0.037157
 **** Fit       0.036911
 **** Fit       0.037699
 **** Fit       0.039230
 **** Fit       0.038669
 **** Fit       0.037807
 **** Fit       0.038057
 **** Fit       0.039068
 **** Fit       0.040584
 **** Fit       0.039429
 **** Fit       0.038308
 **** Fit       0.038145
 **** Fit       0.038689
 **** Fit       0.039661
 **** Fit       0.040766
 **** Fit       0.024648
 **** Fit       0.038476
 **** Fit       0.037847
 **** Fit       0.037826
 **** Fit       0.038302
 **** Fit       0.039008
 **** Fit       0.039571
 **** Fit       0.039492
 **** Fit       0.038179
 **** Fit       0.035263
 **** Fit       0.024659
 **** Fit       0.023388
 **** Fit       0.035730
 **** Fit       0.036367
 **** Fit       0.036560
 **** Fit       0.036849
 **** Fit       0.037316
 **** Fit       0.037750
 **** Fit       0.037766
 **** Fit       0.036906
 **** Fit       0.034877
 **** Fit       0.031939
 **** Fit       0.028955
 **** Fit       0.026542
 **** Fit       0.024352
 **** Fit       0.021595
 **** Fit       0.030992
 **** Fit       0.033375
 **** Fit       0.034600
 **** Fit       0.035352
 **** Fit       0.035840
 **** Fit       0.035853
 **** Fit       0.035007
 **** Fit       0.033099
 **** Fit       0.030438
 **** Fit       0.027596
 **** Fit       0.024660
 **** Fit       0.021263
 **** Fit       0.017429
 **** Fit       0.026170
 **** Fit       0.030094
 **** Fit       0.032397
 **** Fit       0.033494
 **** Fit       0.033548
 **** Fit       0.032291
 **** Fit       0.029771
 **** Fit       0.026528
 **** Fit       0.022946
 **** Fit       0.019767
 **** Fit       0.018881
 **** Fit       0.021541
 **** Fit       0.026582
 **** Fit       0.030013
 **** Fit       0.030818
 **** Fit       0.028710
 **** Fit       0.025129
 **** Fit       0.023607
 **** Fit       0.027546
 **** Fit       0.027228
 **** Fit       0.030712
 **** Fit       0.035321
 **** Fit       0.029909
 **** Fit       0.030387
 **** Fit       0.032746
 **** Fit       0.036668
 **** Fit       0.033556
 **** Fit       0.034697
 **** Fit       0.037616
 **** Fit       0.035922
 **** Fit       0.036863
 **** Fit       0.039736
 **** Fit       0.036786
 **** Fit       0.037772
 **** Fit       0.036089
 **** Fit       0.037761
 **** Fit       0.031651
 **** Fit       0.034309
 -----------------------------------------------------------------
 Leave Link  602 at Sun Sep 15 00:55:42 2019, MaxMem=  1342177280 cpu:             105.4 elap:               2.2

 Test job not archived.
 1\1\GINC-C506-071\SP\RB3LYP\SVP\C54H83Ca1N15O23\PENGZHI\15-Sep-2019\0\
 \#b3lyp/svp scf=(tight,noincore) Test #IOP(5/87=12) Density=Current Po
 p=(MK,readradii) iop(6/33=2) iop(6/42=6)\\CaMKII_loop3_80.0\\0,1\C,0,6
 8.39,48.78,34.9\C,0,67.38,48.34,35.94\O,0,67.43,47.16,36.29\H,0,69.329
 ,48.25,35.059\H,0,68.009,48.553,33.904\H,0,68.56,49.853,34.989\N,0,66.
 45,49.22,36.33\C,0,65.4,48.77,37.23\C,0,64.34,47.9,36.58\O,0,63.47,48.
 34,35.83\C,0,64.67,49.97,37.83\C,0,63.74,49.59,38.98\O,0,63.54,48.38,3
 9.2\O,0,63.32,50.54,39.68\H,0,66.49,50.19,36.07\H,0,65.83,48.29,38.11\
 H,0,64.11,50.55,37.1\H,0,65.44,50.64,38.22\N,0,64.4,46.6,36.9\C,0,63.6
 7,45.54,36.24\C,0,62.17,45.48,36.46\O,0,61.43,44.92,35.66\C,0,64.43,44
 .25,36.53\C,0,64.,42.93,35.89\C,0,64.67,41.63,36.35\C,0,66.16,41.73,36
 .05\N,0,66.57,41.44,34.66\H,0,65.29,46.34,37.3\H,0,63.8,45.71,35.17\H,
 0,64.51,44.07,37.6\H,0,65.41,44.46,36.11\H,0,64.17,42.92,34.82\H,0,62.
 94,42.82,36.12\H,0,64.27,40.73,35.89\H,0,64.57,41.33,37.39\H,0,66.85,4
 1.15,36.67\H,0,66.5,42.74,36.23\H,0,65.92,41.82,33.99\H,0,67.53,41.69,
 34.48\H,0,66.34,40.47,34.51\N,0,61.63,46.09,37.52\C,0,60.25,46.11,37.9
 6\C,0,59.7,47.53,38.05\O,0,58.55,47.61,38.48\C,0,59.98,45.2,39.16\C,0,
 60.86,45.42,40.37\O,0,60.55,44.79,41.41\O,0,61.79,46.26,40.37\H,0,62.2
 6,46.61,38.12\H,0,59.6,45.69,37.19\H,0,60.13,44.17,38.81\H,0,58.96,45.
 2,39.53\N,0,60.42,48.57,37.63\C,0,59.95,49.94,37.68\C,0,59.85,50.59,39
 .06\O,0,59.17,51.61,39.15\H,0,61.38,48.37,37.42\H,0,58.96,49.94,37.22\
 H,0,60.63,50.47,37.01\N,0,60.45,49.97,40.08\C,0,60.08,50.21,41.46\C,0,
 60.92,51.28,42.15\O,0,60.83,51.41,43.37\C,0,60.12,48.9,42.25\C,0,61.42
 ,48.66,43.01\N,0,61.34,48.54,44.33\O,0,62.46,48.36,42.43\H,0,61.17,49.
 27,40.03\H,0,59.02,50.45,41.42\H,0,60.03,48.08,41.54\H,0,59.25,48.78,4
 2.9\H,0,60.43,48.49,44.78\H,0,62.23,48.38,44.78\N,0,61.87,51.97,41.53\
 C,0,62.6,53.06,42.15\C,0,64.03,52.7,42.52\O,0,64.74,53.6,42.97\H,0,62.
 19,51.65,40.62\H,0,62.13,53.42,43.06\H,0,62.61,53.82,41.37\N,0,64.52,5
 1.49,42.23\C,0,65.73,50.93,42.79\C,0,66.34,49.87,41.88\O,0,65.69,49.01
 ,41.3\C,0,65.44,50.29,44.15\C,0,65.16,51.21,45.32\C,0,66.3,51.39,46.12
 \C,0,63.88,51.53,45.77\C,0,66.22,52.07,47.34\C,0,63.79,52.26,46.97\C,0
 ,64.95,52.52,47.73\O,0,64.77,53.14,48.93\H,0,63.94,50.83,41.73\H,0,66.
 34,51.82,42.89\H,0,66.15,49.5,44.38\H,0,64.47,49.8,44.07\H,0,67.28,51.
 17,45.73\H,0,62.98,51.39,45.19\H,0,67.04,52.33,47.99\H,0,62.81,52.6,47
 .25\H,0,63.9,53.54,48.97\N,0,67.67,49.94,41.76\C,0,68.53,48.95,41.15\C
 ,0,69.24,48.16,42.24\O,0,69.95,48.76,43.04\C,0,69.52,49.69,40.24\C,0,6
 9.,50.92,39.51\C,0,70.,48.56,39.34\C,0,70.12,51.69,38.81\H,0,68.14,50.
 75,42.13\H,0,67.98,48.3,40.47\H,0,70.36,49.92,40.91\H,0,68.33,51.61,40
 .03\H,0,68.26,50.62,38.78\H,0,69.2,48.2,38.69\H,0,70.81,48.95,38.72\H,
 0,70.39,47.67,39.83\H,0,70.82,51.06,38.26\H,0,69.65,52.41,38.15\H,0,70
 .71,52.33,39.47\N,0,69.1,46.83,42.26\C,0,69.9,45.89,43.02\C,0,71.,45.1
 5,42.27\O,0,71.01,45.02,41.04\C,0,69.02,44.88,43.73\O,0,68.1,44.15,42.
 95\H,0,68.5,46.42,41.56\H,0,70.4,46.5,43.77\H,0,68.41,45.4,44.47\H,0,6
 9.59,44.07,44.19\H,0,67.48,44.75,42.54\N,0,72.04,44.62,42.91\C,0,73.31
 ,44.2,42.34\C,0,73.17,43.21,41.18\O,0,73.85,43.27,40.17\C,0,74.3,43.82
 ,43.43\H,0,71.99,44.58,43.91\H,0,73.67,45.08,41.82\H,0,74.23,42.78,43.
 74\H,0,75.28,43.96,42.97\H,0,74.25,44.53,44.26\N,0,72.16,42.33,41.19\C
 ,0,71.79,41.36,40.18\C,0,71.1,41.96,38.96\O,0,71.34,41.53,37.83\C,0,71
 .1,40.15,40.8\H,0,71.57,42.52,41.98\H,0,72.8,41.06,39.88\H,0,70.99,39.
 4,40.01\H,0,71.85,39.78,41.49\H,0,70.17,40.41,41.32\N,0,70.26,42.97,39
 .17\C,0,69.7,43.72,38.07\C,0,70.76,44.55,37.36\O,0,70.82,44.58,36.13\C
 ,0,68.62,44.7,38.53\C,0,67.5,44.07,39.36\C,0,66.57,45.17,39.84\O,0,66.
 73,45.7,40.96\O,0,65.63,45.58,39.12\H,0,70.27,43.49,40.04\H,0,69.27,43
 .01,37.36\H,0,68.13,45.18,37.68\H,0,69.17,45.4,39.14\H,0,67.92,43.51,4
 0.2\H,0,66.89,43.41,38.75\N,0,71.71,45.16,38.08\C,0,72.89,45.78,37.51\
 H,0,73.724,45.079,37.551\H,0,72.694,46.05,36.472\H,0,73.141,46.676,38.
 078\H,0,71.6,45.1,39.08\Ca,0,64.15,46.75,40.96\O,0,64.67,46.79,43.65\H
 ,0,65.2,46.27,44.26\H,0,64.23,47.43,44.21\\Version=ES64L-G16RevA.03\St
 ate=1-A\HF=-5333.5865446\RMSD=2.501e-09\Dipole=8.2052865,-8.7709648,-0
 .9328922\Quadrupole=-106.1625993,42.1889295,63.9736698,10.0934859,1.85
 56213,38.1684966\PG=C01 [X(C54H83Ca1N15O23)]\\@


    UPON JULIA'S CLOTHES

 WHENAS IN SILKS MY JULIA GOES,
 THEN, THEN, METHINKS, HOW SWEETLY FLOWS
 THAT LIQUEFACTION OF HER CLOTHES.

 NEXT, WHEN I CAST MINE EYES, AND SEE
 THAT BRAVE VIBRATION, EACH WAY FREE,
 O, HOW THAT GLITTERING TAKETH ME!
     -- ROBERT HERRICK, 1648
 Job cpu time:       0 days  8 hours 47 minutes 41.3 seconds.
 Elapsed time:       0 days  0 hours 11 minutes  7.1 seconds.
 File lengths (MBytes):  RWF=   1517 Int=      0 D2E=      0 Chk=    171 Scr=      1
 Normal termination of Gaussian 16 at Sun Sep 15 00:55:43 2019.
