 Entering Gaussian System, Link 0=g16
 Initial command:
 /home1/apps/gaussian/16rA.03/g16/l1.exe "/scratch/01990/pengzhi/4329085/Gau-449117.inp" -scrdir="/scratch/01990/pengzhi/4329085/"
 Entering Link 1 = /home1/apps/gaussian/16rA.03/g16/l1.exe PID=    449118.
  
 Copyright (c) 1988,1990,1992,1993,1995,1998,2003,2009,2016,
            Gaussian, Inc.  All Rights Reserved.
  
 This is part of the Gaussian(R) 16 program.  It is based on
 the Gaussian(R) 09 system (copyright 2009, Gaussian, Inc.),
 the Gaussian(R) 03 system (copyright 2003, Gaussian, Inc.),
 the Gaussian(R) 98 system (copyright 1998, Gaussian, Inc.),
 the Gaussian(R) 94 system (copyright 1995, Gaussian, Inc.),
 the Gaussian 92(TM) system (copyright 1992, Gaussian, Inc.),
 the Gaussian 90(TM) system (copyright 1990, Gaussian, Inc.),
 the Gaussian 88(TM) system (copyright 1988, Gaussian, Inc.),
 the Gaussian 86(TM) system (copyright 1986, Carnegie Mellon
 University), and the Gaussian 82(TM) system (copyright 1983,
 Carnegie Mellon University). Gaussian is a federally registered
 trademark of Gaussian, Inc.
  
 This software contains proprietary and confidential information,
 including trade secrets, belonging to Gaussian, Inc.
  
 This software is provided under written license and may be
 used, copied, transmitted, or stored only in accord with that
 written license.
  
 The following legend is applicable only to US Government
 contracts under FAR:
  
                    RESTRICTED RIGHTS LEGEND
  
 Use, reproduction and disclosure by the US Government is
 subject to restrictions as set forth in subparagraphs (a)
 and (c) of the Commercial Computer Software - Restricted
 Rights clause in FAR 52.227-19.
  
 Gaussian, Inc.
 340 Quinnipiac St., Bldg. 40, Wallingford CT 06492
  
  
 ---------------------------------------------------------------
 Warning -- This program may not be used in any manner that
 competes with the business of Gaussian, Inc. or will provide
 assistance to any competitor of Gaussian, Inc.  The licensee
 of this program is prohibited from giving any competitor of
 Gaussian, Inc. access to this program.  By using this program,
 the user acknowledges that Gaussian, Inc. is engaged in the
 business of creating and licensing software in the field of
 computational chemistry and represents and warrants to the
 licensee that it is not a competitor of Gaussian, Inc. and that
 it will not use this program in any manner prohibited above.
 ---------------------------------------------------------------
  

 Cite this work as:
 Gaussian 16, Revision A.03,
 M. J. Frisch, G. W. Trucks, H. B. Schlegel, G. E. Scuseria, 
 M. A. Robb, J. R. Cheeseman, G. Scalmani, V. Barone, 
 G. A. Petersson, H. Nakatsuji, X. Li, M. Caricato, A. V. Marenich, 
 J. Bloino, B. G. Janesko, R. Gomperts, B. Mennucci, H. P. Hratchian, 
 J. V. Ortiz, A. F. Izmaylov, J. L. Sonnenberg, D. Williams-Young, 
 F. Ding, F. Lipparini, F. Egidi, J. Goings, B. Peng, A. Petrone, 
 T. Henderson, D. Ranasinghe, V. G. Zakrzewski, J. Gao, N. Rega, 
 G. Zheng, W. Liang, M. Hada, M. Ehara, K. Toyota, R. Fukuda, 
 J. Hasegawa, M. Ishida, T. Nakajima, Y. Honda, O. Kitao, H. Nakai, 
 T. Vreven, K. Throssell, J. A. Montgomery, Jr., J. E. Peralta, 
 F. Ogliaro, M. J. Bearpark, J. J. Heyd, E. N. Brothers, K. N. Kudin, 
 V. N. Staroverov, T. A. Keith, R. Kobayashi, J. Normand, 
 K. Raghavachari, A. P. Rendell, J. C. Burant, S. S. Iyengar, 
 J. Tomasi, M. Cossi, J. M. Millam, M. Klene, C. Adamo, R. Cammi, 
 J. W. Ochterski, R. L. Martin, K. Morokuma, O. Farkas, 
 J. B. Foresman, and D. J. Fox, Gaussian, Inc., Wallingford CT, 2016.
 
 ******************************************
 Gaussian 16:  ES64L-G16RevA.03 25-Dec-2016
                15-Sep-2019 
 ******************************************
 %chk=CaMKII_loop3_98.0.chk
 %nprocshared=48
 Will use up to   48 processors via shared memory.
 %mem=10GB
 %nosave
 ----------------------------------------------------------------------
 #b3lyp/svp scf=(tight,noincore) Test #IOP(5/87=12) Density=Current Pop
 =(MK,readradii) iop(6/33=2) iop(6/42=6)
 ----------------------------------------------------------------------
 1/30=1,38=1,172=1/1;
 2/12=2,17=6,18=5,40=1/2;
 3/5=18,7=101,11=2,25=1,30=1,74=-5/1,2,3;
 4//1;
 5/5=4,32=2,38=5,87=12/2;
 6/7=2,8=2,9=2,10=2,15=8,20=101,22=-1,28=1,33=2,42=6/1,2;
 99/5=1,9=1/99;
 -----------------
 CaMKII_loop3_98.0
 -----------------
 Symbolic Z-matrix:
 Charge =  0 Multiplicity = 1
 C                     70.71     51.37     23.13 
 C                     69.32     50.92     23.56 
 O                     69.15     49.74     23.85 
 H                     71.424    50.568    23.315 
 H                     70.702    51.611    22.067 
 H                     71.       52.252    23.701 
 N                     68.29     51.76     23.54 
 C                     66.95     51.38     23.96 
 C                     66.2      50.82     22.77 
 O                     65.97     51.5      21.77 
 C                     66.33     52.65     24.53 
 C                     64.95     52.37     25.11 
 O                     64.36     51.27     25.03 
 O                     64.45     53.26     25.84 
 H                     68.49     52.7      23.22 
 H                     67.09     50.68     24.79 
 H                     66.22     53.47     23.83 
 H                     66.96     53.05     25.33 
 N                     65.78     49.55     22.88 
 C                     65.31     48.72     21.79 
 C                     63.87     48.96     21.36 
 O                     63.41     48.45     20.34 
 C                     65.43     47.29     22.3 
 C                     65.59     46.21     21.24 
 C                     66.08     44.9      21.85 
 C                     65.1      44.07     22.67 
 N                     64.17     43.26     21.86 
 H                     65.95     49.04     23.73 
 H                     65.99     48.91     20.96 
 H                     64.55     47.1      22.92 
 H                     66.29     47.29     22.96 
 H                     66.31     46.55     20.49 
 H                     64.58     46.15     20.83 
 H                     67.       45.1      22.4 
 H                     66.33     44.2      21.05 
 H                     64.51     44.79     23.24 
 H                     65.67     43.38     23.29 
 H                     63.54     43.83     21.32 
 H                     64.67     42.56     21.32 
 H                     63.57     42.69     22.45 
 N                     63.07     49.63     22.19 
 C                     61.73     50.11     21.93 
 C                     61.44     51.49     22.52 
 O                     60.27     51.85     22.52 
 C                     60.75     49.14     22.58 
 C                     60.99     48.97     24.07 
 O                     60.23     48.17     24.66 
 O                     61.9      49.49     24.75 
 H                     63.46     49.88     23.09 
 H                     61.66     50.03     20.85 
 H                     60.93     48.14     22.18 
 H                     59.71     49.43     22.4 
 N                     62.38     52.29     23.02 
 C                     62.19     53.71     23.27 
 C                     61.4      54.1      24.52 
 O                     60.67     55.08     24.53 
 H                     63.28     51.83     23. 
 H                     61.89     54.28     22.39 
 H                     63.22     53.98     23.5 
 N                     61.5      53.28     25.57 
 C                     60.65     53.27     26.74 
 C                     61.39     54.       27.86 
 O                     60.7      54.16     28.87 
 C                     60.16     51.86     27.05 
 C                     61.11     51.15     28. 
 N                     60.6      50.51     29.06 
 O                     62.34     51.23     27.92 
 H                     62.43     52.89     25.69 
 H                     59.83     53.93     26.46 
 H                     60.04     51.34     26.1 
 H                     59.21     51.94     27.59 
 H                     59.63     50.31     29.23 
 H                     61.27     50.09     29.69 
 N                     62.6      54.51     27.67 
 C                     63.43     55.29     28.57 
 C                     64.53     54.55     29.31 
 O                     65.24     55.19     30.09 
 H                     63.1      54.2      26.84 
 H                     62.83     55.82     29.31 
 H                     64.01     56.04     28.04 
 N                     64.6      53.22     29.22 
 C                     65.49     52.36     29.97 
 C                     66.14     51.28     29.12 
 O                     65.55     50.82     28.14 
 C                     64.81     51.62     31.12 
 C                     63.75     52.32     31.94 
 C                     64.16     52.96     33.12 
 C                     62.41     52.41     31.56 
 C                     63.17     53.4      34. 
 C                     61.4      52.95     32.37 
 C                     61.81     53.4      33.64 
 O                     60.94     53.93     34.55 
 H                     63.99     52.77     28.55 
 H                     66.25     52.96     30.46 
 H                     65.64     51.26     31.73 
 H                     64.38     50.71     30.71 
 H                     65.2      52.97     33.42 
 H                     62.11     52.01     30.6 
 H                     63.45     53.87     34.93 
 H                     60.38     52.93     32.02 
 H                     60.07     53.91     34.15 
 N                     67.36     50.9      29.51 
 C                     68.18     49.86     28.92 
 C                     68.27     48.68     29.88 
 O                     68.65     48.92     31.02 
 C                     69.57     50.37     28.55 
 C                     69.61     51.72     27.84 
 C                     70.28     49.38     27.64 
 C                     71.02     52.3      27.79 
 H                     67.83     51.48     30.19 
 H                     67.71     49.58     27.98 
 H                     70.14     50.53     29.47 
 H                     68.94     52.43     28.34 
 H                     69.25     51.6      26.81 
 H                     71.36     49.54     27.62 
 H                     70.17     48.36     28. 
 H                     69.89     49.46     26.63 
 H                     71.74     51.61     27.38 
 H                     71.04     53.21     27.19 
 H                     71.23     52.52     28.84 
 N                     68.       47.46     29.43 
 C                     68.12     46.25     30.22 
 C                     69.23     45.4      29.61 
 O                     69.7      45.64     28.5 
 C                     66.82     45.46     30.16 
 O                     66.57     45.11     28.82 
 H                     67.83     47.35     28.44 
 H                     68.46     46.51     31.22 
 H                     66.04     46.16     30.46 
 H                     66.89     44.57     30.78 
 H                     65.67     44.78     28.69 
 N                     69.61     44.34     30.33 
 C                     70.64     43.4      29.94 
 C                     70.33     42.71     28.62 
 O                     71.21     42.27     27.89 
 C                     70.78     42.44     31.12 
 H                     69.24     44.21     31.26 
 H                     71.59     43.91     29.8 
 H                     70.92     43.03     32.03 
 H                     69.87     41.87     31.25 
 H                     71.59     41.73     30.94 
 N                     69.03     42.62     28.3 
 C                     68.56     42.06     27.05 
 C                     68.87     43.03     25.91 
 O                     69.25     42.58     24.83 
 C                     67.05     41.91     26.97 
 H                     68.38     42.97     28.98 
 H                     69.08     41.13     26.83 
 H                     66.88     41.22     27.79 
 H                     66.54     42.86     27.12 
 H                     66.71     41.45     26.04 
 N                     68.75     44.33     26.16 
 C                     68.88     45.37     25.15 
 C                     70.33     45.77     24.92 
 O                     70.79     45.97     23.8 
 C                     67.95     46.52     25.51 
 C                     66.52     45.98     25.54 
 C                     65.47     47.07     25.62 
 O                     65.86     48.26     25.61 
 O                     64.29     46.83     25.98 
 H                     68.6      44.57     27.12 
 H                     68.46     44.97     24.23 
 H                     68.04     47.22     24.68 
 H                     68.12     46.98     26.48 
 H                     66.44     45.36     26.43 
 H                     66.35     45.31     24.7 
 N                     71.05     45.83     26.04 
 C                     72.49     45.99     26.16 
 H                     72.945    45.929    25.172 
 H                     72.713    46.961    26.603 
 H                     72.892    45.2      26.794 
 H                     70.58     45.56     26.89 
 Ca                    63.78     49.44     26.67 
 O                     61.7      47.78     27.04 
 H                     61.45     46.92     27.38 
 H                     61.09     47.93     26.31 
 
 Stoichiometry    C54H83CaN15O23
 Framework group  C1[X(C54H83CaN15O23)]
 Deg. of freedom   522
 Full point group                 C1      NOp   1
 Largest Abelian subgroup         C1      NOp   1
 Largest concise Abelian subgroup C1      NOp   1
                         Standard orientation:                         
 ---------------------------------------------------------------------
 Center     Atomic      Atomic             Coordinates (Angstroms)
 Number     Number       Type             X           Y           Z
 ---------------------------------------------------------------------
      1          6           0       -1.897808   -1.687649    6.039878
      2          6           0       -1.314741   -1.707961    4.633066
      3          8           0       -2.082289   -1.622621    3.679658
      4          1           0       -2.952190   -1.417188    5.991358
      5          1           0       -1.796585   -2.675117    6.490185
      6          1           0       -1.363456   -0.955203    6.644903
      7          7           0       -0.015184   -1.901507    4.431590
      8          6           0        0.588427   -1.909224    3.107960
      9          6           0        0.543505   -3.317223    2.553235
     10          8           0        1.127233   -4.250287    3.104555
     11          6           0        2.002063   -1.375576    3.305575
     12          6           0        2.720841   -1.228965    1.971010
     13          8           0        2.252982   -1.600481    0.872109
     14          8           0        3.780798   -0.557039    1.968151
     15          1           0        0.547510   -2.037022    5.262860
     16          1           0        0.033080   -1.165266    2.527772
     17          1           0        2.640493   -1.972481    3.946365
     18          1           0        1.969585   -0.392146    3.783811
     19          7           0       -0.147351   -3.482387    1.414447
     20          6           0       -0.569522   -4.752615    0.861100
     21          6           0        0.501095   -5.522462    0.101353
     22          8           0        0.322493   -6.683642   -0.261775
     23          6           0       -1.695554   -4.409747   -0.105281
     24          6           0       -2.709833   -5.512061   -0.373124
     25          6           0       -3.973189   -4.958971   -1.026058
     26          6           0       -3.910682   -4.543063   -2.490576
     27          7           0       -3.999615   -5.667672   -3.441600
     28          1           0       -0.575283   -2.687775    0.970640
     29          1           0       -0.928955   -5.338095    1.706926
     30          1           0       -1.225275   -4.078806   -1.034913
     31          1           0       -2.192263   -3.547272    0.324390
     32          1           0       -2.973830   -5.991829    0.573781
     33          1           0       -2.142113   -6.183725   -1.019932
     34          1           0       -4.364822   -4.160642   -0.395030
     35          1           0       -4.733696   -5.741796   -1.062329
     36          1           0       -2.935985   -4.069213   -2.620309
     37          1           0       -4.751361   -3.882280   -2.695574
     38          1           0       -3.205443   -6.283080   -3.378652
     39          1           0       -4.898885   -6.134711   -3.372400
     40          1           0       -4.001268   -5.336676   -4.402557
     41          7           0        1.593719   -4.863219   -0.285136
     42          6           0        2.797429   -5.414099   -0.869269
     43          6           0        4.085141   -4.758658   -0.370475
     44          8           0        5.109792   -5.030170   -0.982742
     45          6           0        2.739057   -5.177808   -2.374115
     46          6           0        2.578585   -3.711182   -2.734472
     47          8           0        2.503972   -3.451788   -3.956294
     48          8           0        2.448296   -2.751913   -1.944708
     49          1           0        1.608868   -3.867628   -0.103014
     50          1           0        2.692030   -6.474171   -0.662293
     51          1           0        1.827530   -5.634611   -2.765072
     52          1           0        3.612095   -5.594738   -2.886046
     53          7           0        4.134424   -3.928603    0.669803
     54          6           0        5.360476   -3.565885    1.362791
     55          6           0        6.267715   -2.537451    0.686079
     56          8           0        7.484295   -2.604053    0.780406
     57          1           0        3.204871   -3.761446    1.030344
     58          1           0        5.915043   -4.416844    1.759812
     59          1           0        4.925320   -3.034778    2.208524
     60          7           0        5.664609   -1.609031   -0.061718
     61          6           0        6.298453   -0.722572   -1.012471
     62          6           0        6.473730    0.636870   -0.337124
     63          8           0        7.121531    1.434740   -1.019442
     64          6           0        5.562152   -0.732943   -2.347406
     65          6           0        4.489904    0.343106   -2.386181
     66          7           0        4.415973    1.138567   -3.460925
     67          8           0        3.755954    0.608748   -1.428866
     68          1           0        4.780810   -1.291446    0.324855
     69          1           0        7.304568   -1.129905   -1.103097
     70          1           0        5.163772   -1.736699   -2.492553
     71          1           0        6.276729   -0.463965   -3.133237
     72          1           0        4.899134    1.014264   -4.333224
     73          1           0        3.718063    1.869236   -3.425646
     74          7           0        6.071650    0.845156    0.909972
     75          6           0        6.209221    2.024998    1.744447
     76          6           0        5.000587    2.937321    1.854309
     77          8           0        5.098326    3.952885    2.547977
     78          1           0        5.446036    0.149342    1.309285
     79          1           0        7.059381    2.635025    1.438514
     80          1           0        6.366009    1.768116    2.788109
     81          7           0        3.933349    2.706093    1.086562
     82          6           0        2.768571    3.556441    0.966563
     83          6           0        1.457565    2.786978    0.990890
     84          8           0        1.403748    1.635061    0.554668
     85          6           0        2.734728    4.379590   -0.319431
     86          6           0        4.016071    4.962775   -0.870845
     87          6           0        4.339144    6.279285   -0.506807
     88          6           0        4.912255    4.249161   -1.668158
     89          6           0        5.382166    6.906570   -1.189975
     90          6           0        6.038625    4.816546   -2.282295
     91          6           0        6.224142    6.195542   -2.064455
     92          8           0        7.261407    6.894990   -2.612866
     93          1           0        3.925591    1.846028    0.553900
     94          1           0        2.779780    4.303649    1.753490
     95          1           0        1.978398    5.141775   -0.125427
     96          1           0        2.282045    3.759620   -1.088726
     97          1           0        3.704952    6.847839    0.161211
     98          1           0        4.719996    3.202062   -1.863659
     99          1           0        5.638184    7.928262   -0.955882
    100          1           0        6.648236    4.204415   -2.928026
    101          1           0        7.770742    6.275620   -3.136563
    102          7           0        0.417821    3.441935    1.515165
    103          6           0       -0.950146    2.971592    1.612858
    104          6           0       -1.828997    3.766928    0.655173
    105          8           0       -1.795244    4.987760    0.755317
    106          6           0       -1.482470    3.056605    3.040620
    107          6           0       -0.536564    2.556087    4.128252
    108          6           0       -2.768211    2.257161    3.182263
    109          6           0       -1.001855    2.960710    5.523524
    110          1           0        0.615345    4.289791    2.026853
    111          1           0       -0.940215    1.912498    1.365634
    112          1           0       -1.649723    4.108792    3.289274
    113          1           0        0.475997    2.940257    3.954660
    114          1           0       -0.482477    1.460509    4.087229
    115          1           0       -3.340010    2.549466    4.065441
    116          1           0       -3.446337    2.445300    2.353499
    117          1           0       -2.540620    1.197270    3.240855
    118          1           0       -2.023767    2.678453    5.720060
    119          1           0       -0.369810    2.505512    6.286292
    120          1           0       -0.881834    4.047224    5.514505
    121          7           0       -2.624104    3.113699   -0.184409
    122          6           0       -3.559122    3.751099   -1.091086
    123          6           0       -4.969631    3.363428   -0.658795
    124          8           0       -5.179436    2.460039    0.147722
    125          6           0       -3.333677    3.245217   -2.509169
    126          8           0       -3.551221    1.854931   -2.528648
    127          1           0       -2.680866    2.108860   -0.093982
    128          1           0       -3.496032    4.829913   -0.967066
    129          1           0       -2.274763    3.407467   -2.711099
    130          1           0       -4.006495    3.746287   -3.200288
    131          1           0       -3.236916    1.447013   -3.347559
    132          7           0       -5.962615    4.022715   -1.263544
    133          6           0       -7.372353    3.812408   -1.008571
    134          6           0       -7.809243    2.383043   -1.292549
    135          8           0       -8.769368    1.869288   -0.731197
    136          6           0       -8.097194    4.858483   -1.853516
    137          1           0       -5.747835    4.794806   -1.877095
    138          1           0       -7.603651    3.998226    0.037456
    139          1           0       -7.661520    5.838085   -1.638184
    140          1           0       -7.938147    4.666510   -2.906013
    141          1           0       -9.173055    4.817688   -1.670599
    142          7           0       -7.071101    1.715304   -2.192421
    143          6           0       -7.300450    0.325623   -2.528856
    144          6           0       -6.853108   -0.559500   -1.365652
    145          8           0       -7.529294   -1.543728   -1.070070
    146          6           0       -6.453664   -0.177057   -3.686122
    147          1           0       -6.331209    2.232313   -2.631353
    148          1           0       -8.361619    0.141160   -2.682456
    149          1           0       -6.803505    0.474872   -4.479848
    150          1           0       -5.389425   -0.054267   -3.492686
    151          1           0       -6.663593   -1.213718   -3.956981
    152          7           0       -5.763497   -0.192694   -0.698494
    153          6           0       -5.136624   -0.993647    0.342710
    154          6           0       -5.779783   -0.772325    1.703872
    155          8           0       -6.014529   -1.692902    2.480682
    156          6           0       -3.633209   -0.759057    0.301359
    157          6           0       -3.126227   -1.183241   -1.077204
    158          6           0       -1.614812   -1.255835   -1.162979
    159          8           0       -0.957515   -1.013159   -0.125015
    160          8           0       -1.011878   -1.260355   -2.265725
    161          1           0       -5.404900    0.713132   -0.927815
    162          1           0       -5.248663   -2.034955    0.049582
    163          1           0       -3.225285   -1.440904    1.046801
    164          1           0       -3.311012    0.269892    0.438665
    165          1           0       -3.474555   -0.431523   -1.781824
    166          1           0       -3.597938   -2.113977   -1.384804
    167          7           0       -6.102971    0.499004    1.939822
    168          6           0       -6.893953    1.022211    3.041730
    169          1           0       -7.313761    0.194111    3.611731
    170          1           0       -6.259313    1.625324    3.691581
    171          1           0       -7.702104    1.638650    2.648595
    172          1           0       -5.937537    1.150415    1.188427
    173         20           0        1.363733   -0.416989   -1.173247
    174          8           0        1.460748   -0.830303   -3.826294
    175          1           0        0.992803   -0.679317   -4.648444
    176          1           0        1.905900   -1.673591   -3.961222
 ---------------------------------------------------------------------
 Rotational constants (GHZ):           0.0237326           0.0153426           0.0122494
 Standard basis: SVP (5D, 7F)
 There are  1809 symmetry adapted cartesian basis functions of A   symmetry.
 There are  1717 symmetry adapted basis functions of A   symmetry.
  1717 basis functions,  2922 primitive gaussians,  1809 cartesian basis functions
   358 alpha electrons      358 beta electrons
       nuclear repulsion energy     21818.3349225198 Hartrees.
 NAtoms=  176 NActive=  176 NUniq=  176 SFac= 1.00D+00 NAtFMM=   60 NAOKFM=T Big=T
 Integral buffers will be    131072 words long.
 Raffenetti 2 integral format.
 Two-electron integral symmetry is turned on.
 One-electron integrals computed using PRISM.
 NBasis=  1717 RedAO= T EigKep=  3.17D-04  NBF=  1717
 NBsUse=  1717 1.00D-06 EigRej= -1.00D+00 NBFU=  1717
 ExpMin= 1.98D-02 ExpMax= 3.51D+04 ExpMxC= 5.28D+03 IAcc=3 IRadAn=         5 AccDes= 0.00D+00
 Harris functional with IExCor=  402 and IRadAn=       5 diagonalized for initial guess.
 HarFok:  IExCor=  402 AccDes= 0.00D+00 IRadAn=         5 IDoV= 1 UseB2=F ITyADJ=14
 ICtDFT=  3500011 ScaDFX=  1.000000  1.000000  1.000000  1.000000
 FoFCou: FMM=F IPFlag=           0 FMFlag=      100000 FMFlg1=        2001
         NFxFlg=           0 DoJE=T BraDBF=F KetDBF=T FulRan=T
         wScrn=  0.000000 ICntrl=       500 IOpCl=  0 I1Cent=   200000004 NGrid=           0
         NMat0=    1 NMatS0=      1 NMatT0=    0 NMatD0=    1 NMtDS0=    0 NMtDT0=    0
 Petite list used in FoFCou.
 Requested convergence on RMS density matrix=1.00D-08 within 128 cycles.
 Requested convergence on MAX density matrix=1.00D-06.
 Requested convergence on             energy=1.00D-06.
 No special actions if energy rises.
 EnCoef did     6 forward-backward iterations
 SCF Done:  E(RB3LYP) =  -5333.61044789     A.U. after   17 cycles
            NFock= 17  Conv=0.75D-08     -V/T= 2.0081
 SCF density gives NOpUse=  1 NOpAll=  1.
 Hyperfine terms turned off by default for NAtoms > 100.

 **********************************************************************

            Population analysis using the SCF density.

 **********************************************************************

 Orbital symmetries:
 BldTbl:  Degeneracy threshold= 1.00D-02
       Occupied  (A) (A) (A) (A) (A) (A) (A) (A) (A) (A) (A) (A)
                 (A) (A) (A) (A) (A) (A) (A) (A) (A) (A) (A) (A)
                 (A) (A) (A) (A) (A) (A) (A) (A) (A) (A) (A) (A)
                 (A) (A) (A) (A) (A) (A) (A) (A) (A) (A) (A) (A)
                 (A) (A) (A) (A) (A) (A) (A) (A) (A) (A) (A) (A)
                 (A) (A) (A) (A) (A) (A) (A) (A) (A) (A) (A) (A)
                 (A) (A) (A) (A) (A) (A) (A) (A) (A) (A) (A) (A)
                 (A) (A) (A) (A) (A) (A) (A) (A) (A) (A) (A) (A)
                 (A) (A) (A) (A) (A) (A) (A) (A) (A) (A) (A) (A)
                 (A) (A) (A) (A) (A) (A) (A) (A) (A) (A) (A) (A)
                 (A) (A) (A) (A) (A) (A) (A) (A) (A) (A) (A) (A)
                 (A) (A) (A) (A) (A) (A) (A) (A) (A) (A) (A) (A)
                 (A) (A) (A) (A) (A) (A) (A) (A) (A) (A) (A) (A)
                 (A) (A) (A) (A) (A) (A) (A) (A) (A) (A) (A) (A)
                 (A) (A) (A) (A) (A) (A) (A) (A) (A) (A) (A) (A)
                 (A) (A) (A) (A) (A) (A) (A) (A) (A) (A) (A) (A)
                 (A) (A) (A) (A) (A) (A) (A) (A) (A) (A) (A) (A)
                 (A) (A) (A) (A) (A) (A) (A) (A) (A) (A) (A) (A)
                 (A) (A) (A) (A) (A) (A) (A) (A) (A) (A) (A) (A)
                 (A) (A) (A) (A) (A) (A) (A) (A) (A) (A) (A) (A)
                 (A) (A) (A) (A) (A) (A) (A) (A) (A) (A) (A) (A)
                 (A) (A) (A) (A) (A) (A) (A) (A) (A) (A) (A) (A)
                 (A) (A) (A) (A) (A) (A) (A) (A) (A) (A) (A) (A)
                 (A) (A) (A) (A) (A) (A) (A) (A) (A) (A) (A) (A)
                 (A) (A) (A) (A) (A) (A) (A) (A) (A) (A) (A) (A)
                 (A) (A) (A) (A) (A) (A) (A) (A) (A) (A) (A) (A)
                 (A) (A) (A) (A) (A) (A) (A) (A) (A) (A) (A) (A)
                 (A) (A) (A) (A) (A) (A) (A) (A) (A) (A) (A) (A)
                 (A) (A) (A) (A) (A) (A) (A) (A) (A) (A) (A) (A)
                 (A) (A) (A) (A) (A) (A) (A) (A) (A) (A)
       Virtual   (A) (A) (A) (A) (A) (A) (A) (A) (A) (A) (A) (A)
                 (A) (A) (A) (A) (A) (A) (A) (A) (A) (A) (A) (A)
                 (A) (A) (A) (A) (A) (A) (A) (A) (A) (A) (A) (A)
                 (A) (A) (A) (A) (A) (A) (A) (A) (A) (A) (A) (A)
                 (A) (A) (A) (A) (A) (A) (A) (A) (A) (A) (A) (A)
                 (A) (A) (A) (A) (A) (A) (A) (A) (A) (A) (A) (A)
                 (A) (A) (A) (A) (A) (A) (A) (A) (A) (A) (A) (A)
                 (A) (A) (A) (A) (A) (A) (A) (A) (A) (A) (A) (A)
                 (A) (A) (A) (A) (A) (A) (A) (A) (A) (A) (A) (A)
                 (A) (A) (A) (A) (A) (A) (A) (A) (A) (A) (A) (A)
                 (A) (A) (A) (A) (A) (A) (A) (A) (A) (A) (A) (A)
                 (A) (A) (A) (A) (A) (A) (A) (A) (A) (A) (A) (A)
                 (A) (A) (A) (A) (A) (A) (A) (A) (A) (A) (A) (A)
                 (A) (A) (A) (A) (A) (A) (A) (A) (A) (A) (A) (A)
                 (A) (A) (A) (A) (A) (A) (A) (A) (A) (A) (A) (A)
                 (A) (A) (A) (A) (A) (A) (A) (A) (A) (A) (A) (A)
                 (A) (A) (A) (A) (A) (A) (A) (A) (A) (A) (A) (A)
                 (A) (A) (A) (A) (A) (A) (A) (A) (A) (A) (A) (A)
                 (A) (A) (A) (A) (A) (A) (A) (A) (A) (A) (A) (A)
                 (A) (A) (A) (A) (A) (A) (A) (A) (A) (A) (A) (A)
                 (A) (A) (A) (A) (A) (A) (A) (A) (A) (A) (A) (A)
                 (A) (A) (A) (A) (A) (A) (A) (A) (A) (A) (A) (A)
                 (A) (A) (A) (A) (A) (A) (A) (A) (A) (A) (A) (A)
                 (A) (A) (A) (A) (A) (A) (A) (A) (A) (A) (A) (A)
                 (A) (A) (A) (A) (A) (A) (A) (A) (A) (A) (A) (A)
                 (A) (A) (A) (A) (A) (A) (A) (A) (A) (A) (A) (A)
                 (A) (A) (A) (A) (A) (A) (A) (A) (A) (A) (A) (A)
                 (A) (A) (A) (A) (A) (A) (A) (A) (A) (A) (A) (A)
                 (A) (A) (A) (A) (A) (A) (A) (A) (A) (A) (A) (A)
                 (A) (A) (A) (A) (A) (A) (A) (A) (A) (A) (A) (A)
                 (A) (A) (A) (A) (A) (A) (A) (A) (A) (A) (A) (A)
                 (A) (A) (A) (A) (A) (A) (A) (A) (A) (A) (A) (A)
                 (A) (A) (A) (A) (A) (A) (A) (A) (A) (A) (A) (A)
                 (A) (A) (A) (A) (A) (A) (A) (A) (A) (A) (A) (A)
                 (A) (A) (A) (A) (A) (A) (A) (A) (A) (A) (A) (A)
                 (A) (A) (A) (A) (A) (A) (A) (A) (A) (A) (A) (A)
                 (A) (A) (A) (A) (A) (A) (A) (A) (A) (A) (A) (A)
                 (A) (A) (A) (A) (A) (A) (A) (A) (A) (A) (A) (A)
                 (A) (A) (A) (A) (A) (A) (A) (A) (A) (A) (A) (A)
                 (A) (A) (A) (A) (A) (A) (A) (A) (A) (A) (A) (A)
                 (A) (A) (A) (A) (A) (A) (A) (A) (A) (A) (A) (A)
                 (A) (A) (A) (A) (A) (A) (A) (A) (A) (A) (A) (A)
                 (A) (A) (A) (A) (A) (A) (A) (A) (A) (A) (A) (A)
                 (A) (A) (A) (A) (A) (A) (A) (A) (A) (A) (A) (A)
                 (A) (A) (A) (A) (A) (A) (A) (A) (A) (A) (A) (A)
                 (A) (A) (A) (A) (A) (A) (A) (A) (A) (A) (A) (A)
                 (A) (A) (A) (A) (A) (A) (A) (A) (A) (A) (A) (A)
                 (A) (A) (A) (A) (A) (A) (A) (A) (A) (A) (A) (A)
                 (A) (A) (A) (A) (A) (A) (A) (A) (A) (A) (A) (A)
                 (A) (A) (A) (A) (A) (A) (A) (A) (A) (A) (A) (A)
                 (A) (A) (A) (A) (A) (A) (A) (A) (A) (A) (A) (A)
                 (A) (A) (A) (A) (A) (A) (A) (A) (A) (A) (A) (A)
                 (A) (A) (A) (A) (A) (A) (A) (A) (A) (A) (A) (A)
                 (A) (A) (A) (A) (A) (A) (A) (A) (A) (A) (A) (A)
                 (A) (A) (A) (A) (A) (A) (A) (A) (A) (A) (A) (A)
                 (A) (A) (A) (A) (A) (A) (A) (A) (A) (A) (A) (A)
                 (A) (A) (A) (A) (A) (A) (A) (A) (A) (A) (A) (A)
                 (A) (A) (A) (A) (A) (A) (A) (A) (A) (A) (A) (A)
                 (A) (A) (A) (A) (A) (A) (A) (A) (A) (A) (A) (A)
                 (A) (A) (A) (A) (A) (A) (A) (A) (A) (A) (A) (A)
                 (A) (A) (A) (A) (A) (A) (A) (A) (A) (A) (A) (A)
                 (A) (A) (A) (A) (A) (A) (A) (A) (A) (A) (A) (A)
                 (A) (A) (A) (A) (A) (A) (A) (A) (A) (A) (A) (A)
                 (A) (A) (A) (A) (A) (A) (A) (A) (A) (A) (A) (A)
                 (A) (A) (A) (A) (A) (A) (A) (A) (A) (A) (A) (A)
                 (A) (A) (A) (A) (A) (A) (A) (A) (A) (A) (A) (A)
                 (A) (A) (A) (A) (A) (A) (A) (A) (A) (A) (A) (A)
                 (A) (A) (A) (A) (A) (A) (A) (A) (A) (A) (A) (A)
                 (A) (A) (A) (A) (A) (A) (A) (A) (A) (A) (A) (A)
                 (A) (A) (A) (A) (A) (A) (A) (A) (A) (A) (A) (A)
                 (A) (A) (A) (A) (A) (A) (A) (A) (A) (A) (A) (A)
                 (A) (A) (A) (A) (A) (A) (A) (A) (A) (A) (A) (A)
                 (A) (A) (A) (A) (A) (A) (A) (A) (A) (A) (A) (A)
                 (A) (A) (A) (A) (A) (A) (A) (A) (A) (A) (A) (A)
                 (A) (A) (A) (A) (A) (A) (A) (A) (A) (A) (A) (A)
                 (A) (A) (A) (A) (A) (A) (A) (A) (A) (A) (A) (A)
                 (A) (A) (A) (A) (A) (A) (A) (A) (A) (A) (A) (A)
                 (A) (A) (A) (A) (A) (A) (A) (A) (A) (A) (A) (A)
                 (A) (A) (A) (A) (A) (A) (A) (A) (A) (A) (A) (A)
                 (A) (A) (A) (A) (A) (A) (A) (A) (A) (A) (A) (A)
                 (A) (A) (A) (A) (A) (A) (A) (A) (A) (A) (A) (A)
                 (A) (A) (A) (A) (A) (A) (A) (A) (A) (A) (A) (A)
                 (A) (A) (A) (A) (A) (A) (A) (A) (A) (A) (A) (A)
                 (A) (A) (A) (A) (A) (A) (A) (A) (A) (A) (A) (A)
                 (A) (A) (A) (A) (A) (A) (A) (A) (A) (A) (A) (A)
                 (A) (A) (A) (A) (A) (A) (A) (A) (A) (A) (A) (A)
                 (A) (A) (A) (A) (A) (A) (A) (A) (A) (A) (A) (A)
                 (A) (A) (A) (A) (A) (A) (A) (A) (A) (A) (A) (A)
                 (A) (A) (A) (A) (A) (A) (A) (A) (A) (A) (A) (A)
                 (A) (A) (A) (A) (A) (A) (A) (A) (A) (A) (A) (A)
                 (A) (A) (A) (A) (A) (A) (A) (A) (A) (A) (A) (A)
                 (A) (A) (A) (A) (A) (A) (A) (A) (A) (A) (A) (A)
                 (A) (A) (A) (A) (A) (A) (A) (A) (A) (A) (A) (A)
                 (A) (A) (A) (A) (A) (A) (A) (A) (A) (A) (A) (A)
                 (A) (A) (A) (A) (A) (A) (A) (A) (A) (A) (A) (A)
                 (A) (A) (A) (A) (A) (A) (A) (A) (A) (A) (A) (A)
                 (A) (A) (A) (A) (A) (A) (A) (A) (A) (A) (A) (A)
                 (A) (A) (A) (A) (A) (A) (A) (A) (A) (A) (A) (A)
                 (A) (A) (A) (A) (A) (A) (A) (A) (A) (A) (A) (A)
                 (A) (A) (A) (A) (A) (A) (A) (A) (A) (A) (A) (A)
                 (A) (A) (A) (A) (A) (A) (A) (A) (A) (A) (A) (A)
                 (A) (A) (A) (A) (A) (A) (A) (A) (A) (A) (A) (A)
                 (A) (A) (A) (A) (A) (A) (A) (A) (A) (A) (A) (A)
                 (A) (A) (A) (A) (A) (A) (A) (A) (A) (A) (A) (A)
                 (A) (A) (A) (A) (A) (A) (A) (A) (A) (A) (A) (A)
                 (A) (A) (A) (A) (A) (A) (A) (A) (A) (A) (A) (A)
                 (A) (A) (A) (A) (A) (A) (A) (A) (A) (A) (A) (A)
                 (A) (A) (A) (A) (A) (A) (A) (A) (A) (A) (A) (A)
                 (A) (A) (A) (A) (A) (A) (A) (A) (A) (A) (A) (A)
                 (A) (A) (A) (A) (A) (A) (A) (A) (A) (A) (A) (A)
                 (A) (A) (A) (A) (A) (A) (A) (A) (A) (A) (A) (A)
                 (A) (A) (A) (A) (A) (A) (A) (A) (A) (A) (A) (A)
                 (A) (A) (A) (A) (A) (A) (A) (A) (A) (A) (A) (A)
                 (A) (A) (A)
 The electronic state is 1-A.
 Alpha  occ. eigenvalues -- -145.37911 -19.20614 -19.16719 -19.15359 -19.13659
 Alpha  occ. eigenvalues --  -19.12641 -19.12463 -19.12458 -19.11349 -19.09648
 Alpha  occ. eigenvalues --  -19.08624 -19.07818 -19.07658 -19.07465 -19.07138
 Alpha  occ. eigenvalues --  -19.06953 -19.06470 -19.05846 -19.05733 -19.04806
 Alpha  occ. eigenvalues --  -19.04427 -19.04312 -19.03231 -19.01456 -15.43632
 Alpha  occ. eigenvalues --  -14.57672 -14.42142 -14.39435 -14.38862 -14.38520
 Alpha  occ. eigenvalues --  -14.37170 -14.35421 -14.34046 -14.33239 -14.32556
 Alpha  occ. eigenvalues --  -14.32539 -14.31962 -14.31664 -14.30543 -14.29008
 Alpha  occ. eigenvalues --  -12.57256 -12.57211 -12.57191 -10.34827 -10.33427
 Alpha  occ. eigenvalues --  -10.31596 -10.31474 -10.31118 -10.30968 -10.30450
 Alpha  occ. eigenvalues --  -10.29098 -10.28273 -10.27998 -10.27518 -10.26616
 Alpha  occ. eigenvalues --  -10.26076 -10.25895 -10.25832 -10.25728 -10.25708
 Alpha  occ. eigenvalues --  -10.25680 -10.25053 -10.24902 -10.24814 -10.24102
 Alpha  occ. eigenvalues --  -10.23909 -10.23610 -10.23476 -10.23257 -10.23017
 Alpha  occ. eigenvalues --  -10.22763 -10.22364 -10.22269 -10.21966 -10.21245
 Alpha  occ. eigenvalues --  -10.20610 -10.20398 -10.20297 -10.20250 -10.20226
 Alpha  occ. eigenvalues --  -10.19654 -10.19544 -10.19346 -10.19074 -10.18821
 Alpha  occ. eigenvalues --  -10.18806 -10.18638 -10.18336 -10.18291 -10.18220
 Alpha  occ. eigenvalues --  -10.18152 -10.18096 -10.18029 -10.17737 -10.17420
 Alpha  occ. eigenvalues --  -10.17023 -10.14294  -1.80403  -1.12683  -1.10132
 Alpha  occ. eigenvalues --   -1.08409  -1.08037  -1.07939  -1.07626  -1.06211
 Alpha  occ. eigenvalues --   -1.05801  -1.05433  -1.04981  -1.04168  -1.03233
 Alpha  occ. eigenvalues --   -1.02794  -1.01347  -1.00549  -1.00179  -0.99744
 Alpha  occ. eigenvalues --   -0.99713  -0.99685  -0.99252  -0.98844  -0.98298
 Alpha  occ. eigenvalues --   -0.97968  -0.97457  -0.96983  -0.96328  -0.95591
 Alpha  occ. eigenvalues --   -0.95320  -0.92792  -0.92399  -0.91572  -0.90826
 Alpha  occ. eigenvalues --   -0.90507  -0.90357  -0.89557  -0.89123  -0.88940
 Alpha  occ. eigenvalues --   -0.88828  -0.87511  -0.87368  -0.86457  -0.86351
 Alpha  occ. eigenvalues --   -0.84786  -0.84005  -0.83093  -0.81628  -0.80726
 Alpha  occ. eigenvalues --   -0.80506  -0.79540  -0.78934  -0.76991  -0.76322
 Alpha  occ. eigenvalues --   -0.75761  -0.75079  -0.73508  -0.73399  -0.73240
 Alpha  occ. eigenvalues --   -0.72991  -0.72946  -0.71927  -0.71436  -0.71412
 Alpha  occ. eigenvalues --   -0.70838  -0.70346  -0.69978  -0.69322  -0.68703
 Alpha  occ. eigenvalues --   -0.67760  -0.67506  -0.66501  -0.65539  -0.64749
 Alpha  occ. eigenvalues --   -0.64333  -0.64161  -0.63541  -0.63415  -0.62761
 Alpha  occ. eigenvalues --   -0.62079  -0.61751  -0.61562  -0.61312  -0.60421
 Alpha  occ. eigenvalues --   -0.60194  -0.60046  -0.59521  -0.58500  -0.58303
 Alpha  occ. eigenvalues --   -0.58116  -0.57964  -0.57006  -0.56797  -0.56700
 Alpha  occ. eigenvalues --   -0.56238  -0.56189  -0.55508  -0.55502  -0.55341
 Alpha  occ. eigenvalues --   -0.54782  -0.54556  -0.54411  -0.54103  -0.53743
 Alpha  occ. eigenvalues --   -0.53670  -0.53287  -0.53190  -0.52856  -0.52333
 Alpha  occ. eigenvalues --   -0.52064  -0.51824  -0.51633  -0.51515  -0.51220
 Alpha  occ. eigenvalues --   -0.50895  -0.50173  -0.49990  -0.49621  -0.49570
 Alpha  occ. eigenvalues --   -0.49484  -0.49000  -0.48730  -0.48090  -0.48011
 Alpha  occ. eigenvalues --   -0.47816  -0.47670  -0.47397  -0.47364  -0.47234
 Alpha  occ. eigenvalues --   -0.47198  -0.46732  -0.46372  -0.46209  -0.45974
 Alpha  occ. eigenvalues --   -0.45932  -0.45835  -0.45647  -0.45128  -0.44862
 Alpha  occ. eigenvalues --   -0.44765  -0.44753  -0.44682  -0.44596  -0.44241
 Alpha  occ. eigenvalues --   -0.44196  -0.44099  -0.44036  -0.43875  -0.43607
 Alpha  occ. eigenvalues --   -0.43482  -0.43318  -0.43243  -0.42870  -0.42800
 Alpha  occ. eigenvalues --   -0.42713  -0.42581  -0.42480  -0.42315  -0.42252
 Alpha  occ. eigenvalues --   -0.41926  -0.41733  -0.41532  -0.41519  -0.41316
 Alpha  occ. eigenvalues --   -0.41230  -0.40959  -0.40878  -0.40858  -0.40560
 Alpha  occ. eigenvalues --   -0.40306  -0.40111  -0.39995  -0.39917  -0.39781
 Alpha  occ. eigenvalues --   -0.39710  -0.39556  -0.39459  -0.39411  -0.39100
 Alpha  occ. eigenvalues --   -0.38977  -0.38849  -0.38712  -0.38618  -0.38446
 Alpha  occ. eigenvalues --   -0.38416  -0.38393  -0.38304  -0.38000  -0.37801
 Alpha  occ. eigenvalues --   -0.37619  -0.37341  -0.37301  -0.37192  -0.36740
 Alpha  occ. eigenvalues --   -0.36488  -0.36425  -0.36387  -0.36235  -0.35828
 Alpha  occ. eigenvalues --   -0.35807  -0.35714  -0.35605  -0.35395  -0.35267
 Alpha  occ. eigenvalues --   -0.35248  -0.35124  -0.35083  -0.34828  -0.34716
 Alpha  occ. eigenvalues --   -0.34331  -0.34141  -0.33756  -0.33710  -0.33645
 Alpha  occ. eigenvalues --   -0.33439  -0.33342  -0.33104  -0.33056  -0.32865
 Alpha  occ. eigenvalues --   -0.32391  -0.32269  -0.31982  -0.31444  -0.30814
 Alpha  occ. eigenvalues --   -0.30558  -0.30272  -0.30064  -0.29569  -0.29300
 Alpha  occ. eigenvalues --   -0.29186  -0.28172  -0.28107  -0.27745  -0.27680
 Alpha  occ. eigenvalues --   -0.26893  -0.26383  -0.25700  -0.25378  -0.25036
 Alpha  occ. eigenvalues --   -0.24890  -0.24760  -0.24108  -0.23857  -0.23849
 Alpha  occ. eigenvalues --   -0.23730  -0.23475  -0.23281  -0.23256  -0.23149
 Alpha  occ. eigenvalues --   -0.22927  -0.22371  -0.22188  -0.21935  -0.21379
 Alpha  occ. eigenvalues --   -0.21243  -0.20988  -0.20370  -0.19982  -0.19835
 Alpha  occ. eigenvalues --   -0.19669  -0.19264  -0.17384
 Alpha virt. eigenvalues --   -0.09705  -0.04859  -0.03883  -0.03279  -0.03109
 Alpha virt. eigenvalues --   -0.02074  -0.01762  -0.01216  -0.00535  -0.00384
 Alpha virt. eigenvalues --   -0.00324  -0.00035   0.00473   0.01323   0.01901
 Alpha virt. eigenvalues --    0.02195   0.02828   0.02857   0.03055   0.03327
 Alpha virt. eigenvalues --    0.03579   0.03883   0.04192   0.04273   0.04417
 Alpha virt. eigenvalues --    0.04598   0.04824   0.04934   0.05173   0.05322
 Alpha virt. eigenvalues --    0.05415   0.05533   0.06134   0.06218   0.06316
 Alpha virt. eigenvalues --    0.06465   0.06523   0.06761   0.06892   0.06997
 Alpha virt. eigenvalues --    0.07547   0.07757   0.07860   0.08127   0.08221
 Alpha virt. eigenvalues --    0.08762   0.08855   0.08996   0.09392   0.09536
 Alpha virt. eigenvalues --    0.09661   0.09796   0.09860   0.10096   0.10147
 Alpha virt. eigenvalues --    0.10493   0.10828   0.11101   0.11171   0.11541
 Alpha virt. eigenvalues --    0.11644   0.11905   0.12104   0.12243   0.12257
 Alpha virt. eigenvalues --    0.12474   0.12688   0.12840   0.13015   0.13186
 Alpha virt. eigenvalues --    0.13458   0.13674   0.13793   0.13918   0.14045
 Alpha virt. eigenvalues --    0.14288   0.14432   0.14566   0.14804   0.15041
 Alpha virt. eigenvalues --    0.15295   0.15347   0.15425   0.15502   0.15546
 Alpha virt. eigenvalues --    0.15762   0.15928   0.15955   0.16042   0.16293
 Alpha virt. eigenvalues --    0.16554   0.16715   0.16890   0.17084   0.17327
 Alpha virt. eigenvalues --    0.17502   0.17809   0.17908   0.18012   0.18131
 Alpha virt. eigenvalues --    0.18366   0.18527   0.18868   0.18942   0.19031
 Alpha virt. eigenvalues --    0.19209   0.19436   0.19515   0.19855   0.20013
 Alpha virt. eigenvalues --    0.20373   0.20448   0.20945   0.21111   0.21245
 Alpha virt. eigenvalues --    0.21541   0.21769   0.21949   0.22258   0.22464
 Alpha virt. eigenvalues --    0.22574   0.22623   0.22797   0.23025   0.23439
 Alpha virt. eigenvalues --    0.23588   0.23784   0.23946   0.24043   0.24205
 Alpha virt. eigenvalues --    0.24407   0.24737   0.24793   0.24984   0.25166
 Alpha virt. eigenvalues --    0.25536   0.25623   0.25648   0.25769   0.25934
 Alpha virt. eigenvalues --    0.25999   0.26377   0.26640   0.26956   0.27054
 Alpha virt. eigenvalues --    0.27519   0.27636   0.27881   0.28026   0.28177
 Alpha virt. eigenvalues --    0.28349   0.28935   0.29422   0.29614   0.29915
 Alpha virt. eigenvalues --    0.30082   0.30148   0.30552   0.30949   0.30963
 Alpha virt. eigenvalues --    0.31227   0.31372   0.31671   0.31771   0.32198
 Alpha virt. eigenvalues --    0.32334   0.32499   0.32757   0.32883   0.32971
 Alpha virt. eigenvalues --    0.33195   0.33535   0.33750   0.33836   0.34206
 Alpha virt. eigenvalues --    0.35056   0.35558   0.35881   0.36140   0.36460
 Alpha virt. eigenvalues --    0.36915   0.37161   0.37393   0.37671   0.37828
 Alpha virt. eigenvalues --    0.38187   0.38220   0.38360   0.38651   0.38992
 Alpha virt. eigenvalues --    0.39118   0.39371   0.39670   0.40021   0.40277
 Alpha virt. eigenvalues --    0.40578   0.40697   0.40900   0.41018   0.41265
 Alpha virt. eigenvalues --    0.41894   0.42245   0.42603   0.42741   0.42817
 Alpha virt. eigenvalues --    0.43156   0.43394   0.43519   0.43692   0.43789
 Alpha virt. eigenvalues --    0.43919   0.43977   0.44248   0.44310   0.44438
 Alpha virt. eigenvalues --    0.44612   0.44817   0.45172   0.45409   0.45771
 Alpha virt. eigenvalues --    0.45782   0.46017   0.46351   0.46410   0.46830
 Alpha virt. eigenvalues --    0.47013   0.47128   0.47213   0.47557   0.47665
 Alpha virt. eigenvalues --    0.47837   0.48103   0.48353   0.48691   0.48765
 Alpha virt. eigenvalues --    0.49125   0.49221   0.49456   0.49573   0.49737
 Alpha virt. eigenvalues --    0.50023   0.50180   0.50304   0.50385   0.50678
 Alpha virt. eigenvalues --    0.50988   0.51121   0.51272   0.51564   0.51880
 Alpha virt. eigenvalues --    0.51958   0.52131   0.52412   0.52466   0.52798
 Alpha virt. eigenvalues --    0.52987   0.53224   0.53387   0.53657   0.53784
 Alpha virt. eigenvalues --    0.53965   0.54019   0.54064   0.54243   0.54478
 Alpha virt. eigenvalues --    0.54789   0.54869   0.55091   0.55406   0.55566
 Alpha virt. eigenvalues --    0.55693   0.55809   0.55845   0.56382   0.56546
 Alpha virt. eigenvalues --    0.56585   0.56835   0.56884   0.57268   0.57404
 Alpha virt. eigenvalues --    0.57431   0.57707   0.57815   0.58152   0.58224
 Alpha virt. eigenvalues --    0.58489   0.58602   0.58657   0.58975   0.59067
 Alpha virt. eigenvalues --    0.59201   0.59309   0.59406   0.59536   0.59776
 Alpha virt. eigenvalues --    0.59894   0.60069   0.60294   0.60377   0.60514
 Alpha virt. eigenvalues --    0.60724   0.60827   0.60938   0.61025   0.61364
 Alpha virt. eigenvalues --    0.61634   0.61665   0.61882   0.61972   0.62029
 Alpha virt. eigenvalues --    0.62311   0.62415   0.62532   0.62622   0.62692
 Alpha virt. eigenvalues --    0.62881   0.62932   0.63037   0.63192   0.63352
 Alpha virt. eigenvalues --    0.63407   0.63541   0.63821   0.63925   0.64010
 Alpha virt. eigenvalues --    0.64077   0.64290   0.64394   0.64543   0.64802
 Alpha virt. eigenvalues --    0.64848   0.64969   0.65020   0.65079   0.65161
 Alpha virt. eigenvalues --    0.65243   0.65299   0.65448   0.65502   0.65784
 Alpha virt. eigenvalues --    0.65887   0.66030   0.66121   0.66214   0.66341
 Alpha virt. eigenvalues --    0.66379   0.66536   0.66587   0.66748   0.66853
 Alpha virt. eigenvalues --    0.67002   0.67025   0.67087   0.67292   0.67391
 Alpha virt. eigenvalues --    0.67489   0.67749   0.67911   0.68062   0.68217
 Alpha virt. eigenvalues --    0.68246   0.68359   0.68440   0.68565   0.68659
 Alpha virt. eigenvalues --    0.68685   0.68797   0.68960   0.69147   0.69323
 Alpha virt. eigenvalues --    0.69460   0.69521   0.69722   0.69735   0.69911
 Alpha virt. eigenvalues --    0.70029   0.70225   0.70376   0.70516   0.70606
 Alpha virt. eigenvalues --    0.70696   0.70873   0.71059   0.71200   0.71429
 Alpha virt. eigenvalues --    0.71463   0.71707   0.71807   0.72095   0.72160
 Alpha virt. eigenvalues --    0.72294   0.72555   0.72580   0.72648   0.72850
 Alpha virt. eigenvalues --    0.73101   0.73266   0.73517   0.73578   0.73768
 Alpha virt. eigenvalues --    0.73936   0.74108   0.74283   0.74503   0.74653
 Alpha virt. eigenvalues --    0.74855   0.75037   0.75332   0.75708   0.75776
 Alpha virt. eigenvalues --    0.76156   0.76356   0.76483   0.76761   0.76797
 Alpha virt. eigenvalues --    0.77087   0.77288   0.77554   0.77730   0.77879
 Alpha virt. eigenvalues --    0.78247   0.78444   0.78535   0.78836   0.79087
 Alpha virt. eigenvalues --    0.79103   0.79431   0.79740   0.79864   0.80008
 Alpha virt. eigenvalues --    0.80435   0.80573   0.80593   0.81119   0.81507
 Alpha virt. eigenvalues --    0.81657   0.81930   0.82129   0.82406   0.82620
 Alpha virt. eigenvalues --    0.82792   0.83130   0.83312   0.83576   0.83653
 Alpha virt. eigenvalues --    0.83966   0.84229   0.84360   0.85014   0.85152
 Alpha virt. eigenvalues --    0.85408   0.85481   0.85819   0.86025   0.86790
 Alpha virt. eigenvalues --    0.86991   0.87010   0.87653   0.87868   0.88378
 Alpha virt. eigenvalues --    0.88671   0.88968   0.89300   0.89780   0.89872
 Alpha virt. eigenvalues --    0.90000   0.90550   0.90621   0.90777   0.91474
 Alpha virt. eigenvalues --    0.91712   0.91897   0.92344   0.92585   0.92670
 Alpha virt. eigenvalues --    0.93068   0.93670   0.93904   0.94333   0.94439
 Alpha virt. eigenvalues --    0.94579   0.94787   0.95186   0.95402   0.95684
 Alpha virt. eigenvalues --    0.95965   0.96312   0.96602   0.96887   0.97300
 Alpha virt. eigenvalues --    0.97677   0.97973   0.98194   0.98463   0.98623
 Alpha virt. eigenvalues --    0.98791   0.98931   0.99376   0.99472   0.99642
 Alpha virt. eigenvalues --    0.99802   1.00228   1.00283   1.00793   1.01131
 Alpha virt. eigenvalues --    1.01207   1.01498   1.01596   1.02026   1.02368
 Alpha virt. eigenvalues --    1.02433   1.02802   1.03108   1.03524   1.04238
 Alpha virt. eigenvalues --    1.04552   1.04968   1.05073   1.05377   1.05805
 Alpha virt. eigenvalues --    1.06169   1.06427   1.06696   1.06974   1.07394
 Alpha virt. eigenvalues --    1.07573   1.07892   1.08106   1.08509   1.08667
 Alpha virt. eigenvalues --    1.08981   1.09328   1.09482   1.09552   1.09932
 Alpha virt. eigenvalues --    1.10000   1.10322   1.10439   1.10965   1.11418
 Alpha virt. eigenvalues --    1.11483   1.11718   1.12265   1.12527   1.12754
 Alpha virt. eigenvalues --    1.13073   1.13408   1.13755   1.14002   1.14281
 Alpha virt. eigenvalues --    1.14398   1.14814   1.14870   1.14934   1.15164
 Alpha virt. eigenvalues --    1.15508   1.15709   1.15840   1.16023   1.16259
 Alpha virt. eigenvalues --    1.16687   1.16757   1.17134   1.17773   1.17992
 Alpha virt. eigenvalues --    1.18180   1.18247   1.18536   1.18840   1.18971
 Alpha virt. eigenvalues --    1.19322   1.19538   1.19642   1.20102   1.20556
 Alpha virt. eigenvalues --    1.21100   1.21414   1.21488   1.21535   1.21777
 Alpha virt. eigenvalues --    1.22152   1.22425   1.22666   1.22922   1.23407
 Alpha virt. eigenvalues --    1.23500   1.23659   1.23872   1.24233   1.24318
 Alpha virt. eigenvalues --    1.24414   1.25130   1.25453   1.25551   1.25743
 Alpha virt. eigenvalues --    1.26123   1.26280   1.26420   1.26779   1.27207
 Alpha virt. eigenvalues --    1.27336   1.27409   1.27750   1.28105   1.28723
 Alpha virt. eigenvalues --    1.28954   1.29191   1.29430   1.29549   1.29663
 Alpha virt. eigenvalues --    1.30124   1.30457   1.30563   1.31009   1.31217
 Alpha virt. eigenvalues --    1.31387   1.31728   1.31905   1.31997   1.32214
 Alpha virt. eigenvalues --    1.32678   1.32976   1.33409   1.33704   1.34005
 Alpha virt. eigenvalues --    1.34496   1.34615   1.35112   1.35167   1.35533
 Alpha virt. eigenvalues --    1.35777   1.35854   1.36288   1.36536   1.36583
 Alpha virt. eigenvalues --    1.36618   1.37456   1.37558   1.37757   1.38427
 Alpha virt. eigenvalues --    1.38618   1.38876   1.39418   1.39434   1.39623
 Alpha virt. eigenvalues --    1.39840   1.40022   1.40271   1.40448   1.40707
 Alpha virt. eigenvalues --    1.40987   1.41419   1.41537   1.41999   1.42235
 Alpha virt. eigenvalues --    1.42561   1.43008   1.43147   1.43316   1.43577
 Alpha virt. eigenvalues --    1.43997   1.44428   1.44647   1.45155   1.45359
 Alpha virt. eigenvalues --    1.45563   1.45678   1.46156   1.46311   1.46737
 Alpha virt. eigenvalues --    1.47199   1.47444   1.47477   1.47793   1.48175
 Alpha virt. eigenvalues --    1.48665   1.48682   1.48796   1.49274   1.49328
 Alpha virt. eigenvalues --    1.49531   1.49773   1.50063   1.50512   1.50752
 Alpha virt. eigenvalues --    1.50965   1.51184   1.51602   1.51817   1.51949
 Alpha virt. eigenvalues --    1.52316   1.52540   1.52602   1.52810   1.53044
 Alpha virt. eigenvalues --    1.53266   1.53517   1.53839   1.54206   1.54529
 Alpha virt. eigenvalues --    1.54896   1.54983   1.55157   1.55570   1.56150
 Alpha virt. eigenvalues --    1.56850   1.57070   1.57301   1.57920   1.58003
 Alpha virt. eigenvalues --    1.58756   1.59542   1.59673   1.59994   1.60431
 Alpha virt. eigenvalues --    1.60565   1.61023   1.61210   1.61554   1.61833
 Alpha virt. eigenvalues --    1.62436   1.62862   1.63137   1.63168   1.63570
 Alpha virt. eigenvalues --    1.63731   1.64013   1.64075   1.64606   1.65007
 Alpha virt. eigenvalues --    1.65073   1.65451   1.65834   1.66358   1.66789
 Alpha virt. eigenvalues --    1.67079   1.67537   1.67933   1.67978   1.68346
 Alpha virt. eigenvalues --    1.68873   1.68980   1.69080   1.69402   1.69437
 Alpha virt. eigenvalues --    1.69588   1.69808   1.70268   1.70434   1.70542
 Alpha virt. eigenvalues --    1.70608   1.70766   1.71026   1.71385   1.71520
 Alpha virt. eigenvalues --    1.71725   1.71955   1.72143   1.72250   1.72342
 Alpha virt. eigenvalues --    1.72715   1.72864   1.73322   1.73404   1.73515
 Alpha virt. eigenvalues --    1.73765   1.74057   1.74100   1.74439   1.74772
 Alpha virt. eigenvalues --    1.74815   1.74902   1.75141   1.75243   1.75504
 Alpha virt. eigenvalues --    1.75559   1.75792   1.76079   1.76133   1.76214
 Alpha virt. eigenvalues --    1.76476   1.76620   1.76782   1.76997   1.77100
 Alpha virt. eigenvalues --    1.77395   1.77522   1.77616   1.77831   1.78244
 Alpha virt. eigenvalues --    1.78266   1.78391   1.78489   1.78509   1.78919
 Alpha virt. eigenvalues --    1.79001   1.79223   1.79321   1.79606   1.79685
 Alpha virt. eigenvalues --    1.79992   1.80133   1.80250   1.80384   1.80661
 Alpha virt. eigenvalues --    1.80982   1.81188   1.81229   1.81369   1.81540
 Alpha virt. eigenvalues --    1.81757   1.81850   1.82158   1.82307   1.82566
 Alpha virt. eigenvalues --    1.82746   1.82854   1.83044   1.83221   1.83520
 Alpha virt. eigenvalues --    1.83745   1.84094   1.84268   1.84470   1.84536
 Alpha virt. eigenvalues --    1.84651   1.84906   1.84943   1.85098   1.85394
 Alpha virt. eigenvalues --    1.85620   1.85710   1.85799   1.86028   1.86340
 Alpha virt. eigenvalues --    1.86435   1.86723   1.87097   1.87287   1.87495
 Alpha virt. eigenvalues --    1.87586   1.87813   1.87871   1.88072   1.88211
 Alpha virt. eigenvalues --    1.88374   1.88465   1.88713   1.89132   1.89336
 Alpha virt. eigenvalues --    1.89646   1.89904   1.90085   1.90292   1.90503
 Alpha virt. eigenvalues --    1.90755   1.90828   1.90881   1.91387   1.91454
 Alpha virt. eigenvalues --    1.91682   1.91891   1.92072   1.92298   1.92391
 Alpha virt. eigenvalues --    1.92667   1.92864   1.93130   1.93300   1.93538
 Alpha virt. eigenvalues --    1.93649   1.93886   1.94346   1.94370   1.94485
 Alpha virt. eigenvalues --    1.94593   1.94949   1.95040   1.95235   1.95316
 Alpha virt. eigenvalues --    1.95551   1.95669   1.95944   1.96307   1.96565
 Alpha virt. eigenvalues --    1.96854   1.97053   1.97405   1.97567   1.97778
 Alpha virt. eigenvalues --    1.98113   1.98530   1.98560   1.98707   1.98795
 Alpha virt. eigenvalues --    1.98970   1.99220   1.99566   1.99815   2.00020
 Alpha virt. eigenvalues --    2.00307   2.00424   2.00758   2.01330   2.01652
 Alpha virt. eigenvalues --    2.01801   2.01864   2.02238   2.02343   2.02545
 Alpha virt. eigenvalues --    2.02924   2.03165   2.03348   2.03457   2.03807
 Alpha virt. eigenvalues --    2.03959   2.04330   2.04407   2.05004   2.05415
 Alpha virt. eigenvalues --    2.05642   2.05986   2.06372   2.06617   2.06770
 Alpha virt. eigenvalues --    2.06957   2.07207   2.07324   2.07746   2.08047
 Alpha virt. eigenvalues --    2.08152   2.08444   2.08849   2.09209   2.09589
 Alpha virt. eigenvalues --    2.09740   2.10140   2.10557   2.10659   2.10895
 Alpha virt. eigenvalues --    2.11241   2.11548   2.11677   2.12077   2.12284
 Alpha virt. eigenvalues --    2.12376   2.12537   2.12959   2.13103   2.13312
 Alpha virt. eigenvalues --    2.13402   2.13796   2.14382   2.14535   2.15065
 Alpha virt. eigenvalues --    2.15113   2.15420   2.15680   2.15996   2.16095
 Alpha virt. eigenvalues --    2.16379   2.16621   2.16757   2.16997   2.17304
 Alpha virt. eigenvalues --    2.17704   2.17758   2.18259   2.18456   2.18746
 Alpha virt. eigenvalues --    2.18916   2.19126   2.19483   2.19756   2.20379
 Alpha virt. eigenvalues --    2.20614   2.20723   2.21139   2.21303   2.22084
 Alpha virt. eigenvalues --    2.22229   2.22405   2.22685   2.22890   2.23120
 Alpha virt. eigenvalues --    2.23351   2.23690   2.24306   2.24869   2.25258
 Alpha virt. eigenvalues --    2.25406   2.25717   2.26508   2.26922   2.27603
 Alpha virt. eigenvalues --    2.27783   2.28029   2.28529   2.28708   2.29220
 Alpha virt. eigenvalues --    2.29669   2.29922   2.30095   2.30571   2.30954
 Alpha virt. eigenvalues --    2.31321   2.31547   2.31806   2.32027   2.32449
 Alpha virt. eigenvalues --    2.32604   2.32969   2.33124   2.33532   2.34099
 Alpha virt. eigenvalues --    2.34476   2.34622   2.34863   2.35126   2.35286
 Alpha virt. eigenvalues --    2.35638   2.36010   2.36278   2.36594   2.36802
 Alpha virt. eigenvalues --    2.37087   2.37241   2.37514   2.37716   2.37895
 Alpha virt. eigenvalues --    2.38258   2.38934   2.39377   2.39601   2.40121
 Alpha virt. eigenvalues --    2.40650   2.40848   2.41120   2.41575   2.41934
 Alpha virt. eigenvalues --    2.42437   2.42609   2.42676   2.42922   2.43368
 Alpha virt. eigenvalues --    2.43931   2.44077   2.44448   2.44538   2.44731
 Alpha virt. eigenvalues --    2.45592   2.46014   2.46030   2.46363   2.46613
 Alpha virt. eigenvalues --    2.46866   2.47016   2.47471   2.48040   2.48055
 Alpha virt. eigenvalues --    2.48176   2.48219   2.48568   2.49182   2.49432
 Alpha virt. eigenvalues --    2.50170   2.50224   2.50520   2.50806   2.51023
 Alpha virt. eigenvalues --    2.51495   2.51942   2.51970   2.52357   2.52654
 Alpha virt. eigenvalues --    2.52921   2.53609   2.53936   2.54130   2.54871
 Alpha virt. eigenvalues --    2.55283   2.55850   2.56432   2.56549   2.56796
 Alpha virt. eigenvalues --    2.57037   2.57161   2.57482   2.57733   2.57958
 Alpha virt. eigenvalues --    2.58276   2.58759   2.58923   2.59204   2.59721
 Alpha virt. eigenvalues --    2.60374   2.60492   2.60679   2.61418   2.61754
 Alpha virt. eigenvalues --    2.61792   2.62109   2.62235   2.62662   2.62955
 Alpha virt. eigenvalues --    2.63235   2.63319   2.63861   2.63891   2.64204
 Alpha virt. eigenvalues --    2.64447   2.64719   2.65001   2.65302   2.65419
 Alpha virt. eigenvalues --    2.66136   2.66369   2.66588   2.66829   2.66870
 Alpha virt. eigenvalues --    2.67491   2.67720   2.68399   2.68686   2.69025
 Alpha virt. eigenvalues --    2.69355   2.69591   2.70123   2.70207   2.70423
 Alpha virt. eigenvalues --    2.70588   2.71100   2.71320   2.71577   2.71802
 Alpha virt. eigenvalues --    2.71923   2.72197   2.72289   2.73140   2.73207
 Alpha virt. eigenvalues --    2.73510   2.73863   2.74090   2.74134   2.74219
 Alpha virt. eigenvalues --    2.74515   2.74592   2.74809   2.75275   2.75480
 Alpha virt. eigenvalues --    2.75962   2.76160   2.76438   2.76675   2.76884
 Alpha virt. eigenvalues --    2.77349   2.77447   2.77718   2.77867   2.78111
 Alpha virt. eigenvalues --    2.78372   2.78527   2.78719   2.79066   2.79214
 Alpha virt. eigenvalues --    2.79398   2.79685   2.80200   2.80299   2.80603
 Alpha virt. eigenvalues --    2.80702   2.80975   2.81494   2.81980   2.82054
 Alpha virt. eigenvalues --    2.82272   2.83137   2.83329   2.83783   2.84178
 Alpha virt. eigenvalues --    2.84196   2.84560   2.84969   2.85404   2.85540
 Alpha virt. eigenvalues --    2.86427   2.86525   2.86755   2.86827   2.87035
 Alpha virt. eigenvalues --    2.87203   2.87502   2.87615   2.87879   2.87986
 Alpha virt. eigenvalues --    2.88564   2.88713   2.88895   2.89606   2.89913
 Alpha virt. eigenvalues --    2.90561   2.90600   2.91130   2.91255   2.92199
 Alpha virt. eigenvalues --    2.92289   2.92550   2.93139   2.93228   2.93956
 Alpha virt. eigenvalues --    2.94100   2.94274   2.94473   2.94516   2.94627
 Alpha virt. eigenvalues --    2.94766   2.94871   2.95349   2.95571   2.95792
 Alpha virt. eigenvalues --    2.96081   2.96366   2.96930   2.97060   2.97704
 Alpha virt. eigenvalues --    2.97965   2.98997   2.99305   2.99340   2.99679
 Alpha virt. eigenvalues --    2.99833   3.00034   3.00365   3.00506   3.00705
 Alpha virt. eigenvalues --    3.00890   3.01136   3.01867   3.02123   3.02256
 Alpha virt. eigenvalues --    3.02784   3.03105   3.03509   3.03898   3.04380
 Alpha virt. eigenvalues --    3.04463   3.04776   3.04919   3.05190   3.05670
 Alpha virt. eigenvalues --    3.05900   3.06443   3.07312   3.07674   3.07882
 Alpha virt. eigenvalues --    3.08604   3.09388   3.10291   3.11109   3.11452
 Alpha virt. eigenvalues --    3.11508   3.12327   3.13181   3.13434   3.13810
 Alpha virt. eigenvalues --    3.14053   3.14209   3.14896   3.15007   3.15362
 Alpha virt. eigenvalues --    3.15726   3.16084   3.16537   3.16573   3.16803
 Alpha virt. eigenvalues --    3.16992   3.17456   3.17965   3.18383   3.19081
 Alpha virt. eigenvalues --    3.19384   3.20077   3.20321   3.20703   3.20722
 Alpha virt. eigenvalues --    3.21191   3.21529   3.21987   3.22137   3.22218
 Alpha virt. eigenvalues --    3.22727   3.22930   3.23695   3.24046   3.24578
 Alpha virt. eigenvalues --    3.25172   3.25394   3.25457   3.26362   3.26531
 Alpha virt. eigenvalues --    3.26977   3.27542   3.27979   3.29356   3.31402
 Alpha virt. eigenvalues --    3.31787   3.31955   3.32833   3.32911   3.33971
 Alpha virt. eigenvalues --    3.35075   3.35820   3.36310   3.37549   3.38902
 Alpha virt. eigenvalues --    3.40267   3.41770   3.46388   3.50445   3.51091
 Alpha virt. eigenvalues --    3.52586   3.52783   3.54156   3.54409   3.55631
 Alpha virt. eigenvalues --    3.56087   3.58729   3.58832   3.58901   3.59192
 Alpha virt. eigenvalues --    3.59361   3.60336   3.60808   3.62442   3.63020
 Alpha virt. eigenvalues --    3.65034   3.65791   3.66166   3.67110   3.67626
 Alpha virt. eigenvalues --    3.68014   3.68525   3.69383   3.69708   3.70245
 Alpha virt. eigenvalues --    3.70370   3.70547   3.71056   3.71722   3.71795
 Alpha virt. eigenvalues --    3.71871   3.72187   3.73421   3.73774   3.74283
 Alpha virt. eigenvalues --    3.75764   3.76351   3.83199   3.86383
          Condensed to atoms (all electrons):
 Mulliken charges:
               1
     1  C    0.058620
     2  C    0.007318
     3  O   -0.291400
     4  H    0.036816
     5  H    0.036930
     6  H    0.011964
     7  N   -0.127356
     8  C    0.118076
     9  C    0.104236
    10  O   -0.287884
    11  C    0.070944
    12  C    0.144134
    13  O   -0.465438
    14  O   -0.403384
    15  H    0.115046
    16  H    0.020052
    17  H    0.013382
    18  H    0.013558
    19  N   -0.146080
    20  C    0.115522
    21  C    0.073455
    22  O   -0.309817
    23  C   -0.071069
    24  C    0.069403
    25  C   -0.019614
    26  C   -0.007533
    27  N    0.081050
    28  H    0.150508
    29  H    0.012908
    30  H    0.027901
    31  H    0.024501
    32  H    0.032373
    33  H   -0.005812
    34  H    0.079294
    35  H   -0.008513
    36  H    0.096231
    37  H    0.081790
    38  H    0.198723
    39  H    0.188686
    40  H    0.188805
    41  N   -0.165782
    42  C    0.138262
    43  C    0.044507
    44  O   -0.292377
    45  C    0.113076
    46  C    0.106693
    47  O   -0.418268
    48  O   -0.457728
    49  H    0.150917
    50  H    0.014156
    51  H   -0.015608
    52  H    0.035599
    53  N   -0.119944
    54  C    0.240547
    55  C    0.028635
    56  O   -0.266842
    57  H    0.129657
    58  H    0.018692
    59  H    0.000805
    60  N   -0.197978
    61  C    0.106737
    62  C    0.032928
    63  O   -0.319063
    64  C    0.178613
    65  C    0.077899
    66  N   -0.031341
    67  O   -0.392324
    68  H    0.140612
    69  H    0.032866
    70  H    0.084834
    71  H   -0.001981
    72  H    0.129468
    73  H    0.121767
    74  N   -0.137247
    75  C    0.232606
    76  C    0.020808
    77  O   -0.307483
    78  H    0.146084
    79  H    0.047584
    80  H    0.027758
    81  N   -0.120480
    82  C    0.113329
    83  C    0.123918
    84  O   -0.351204
    85  C    0.144738
    86  C    0.015556
    87  C    0.009516
    88  C   -0.011827
    89  C   -0.010349
    90  C   -0.024248
    91  C    0.154386
    92  O   -0.192456
    93  H    0.151228
    94  H   -0.007381
    95  H   -0.016201
    96  H   -0.047381
    97  H   -0.031578
    98  H   -0.057758
    99  H   -0.024946
   100  H   -0.036238
   101  H    0.169144
   102  N   -0.115296
   103  C    0.149484
   104  C    0.075415
   105  O   -0.279996
   106  C   -0.110408
   107  C    0.001265
   108  C    0.033545
   109  C    0.039415
   110  H    0.139876
   111  H    0.005137
   112  H   -0.012631
   113  H   -0.011085
   114  H    0.012996
   115  H    0.011549
   116  H   -0.009893
   117  H    0.044751
   118  H    0.009884
   119  H    0.015095
   120  H    0.004873
   121  N   -0.114784
   122  C    0.086197
   123  C    0.085625
   124  O   -0.279785
   125  C    0.245595
   126  O   -0.315286
   127  H    0.147681
   128  H    0.044860
   129  H    0.026733
   130  H   -0.006776
   131  H    0.204650
   132  N   -0.135833
   133  C    0.080884
   134  C    0.064687
   135  O   -0.239411
   136  C    0.038385
   137  H    0.123316
   138  H    0.035682
   139  H    0.032856
   140  H    0.003778
   141  H    0.056176
   142  N   -0.148528
   143  C    0.108766
   144  C    0.019084
   145  O   -0.274135
   146  C    0.062018
   147  H    0.101208
   148  H    0.019148
   149  H    0.010366
   150  H   -0.004366
   151  H    0.019561
   152  N   -0.170802
   153  C    0.107374
   154  C    0.104990
   155  O   -0.264897
   156  C    0.053388
   157  C    0.053580
   158  C    0.114131
   159  O   -0.435210
   160  O   -0.401350
   161  H    0.130451
   162  H   -0.028345
   163  H    0.055464
   164  H   -0.023816
   165  H   -0.019047
   166  H   -0.065778
   167  N   -0.172724
   168  C    0.130441
   169  H    0.037295
   170  H    0.012046
   171  H    0.018244
   172  H    0.121523
   173  Ca   1.305262
   174  O   -0.329777
   175  H    0.157919
   176  H    0.151075
 Sum of Mulliken charges =  -0.00000
 Mulliken charges with hydrogens summed into heavy atoms:
               1
     1  C    0.144329
     2  C    0.007318
     3  O   -0.291400
     7  N   -0.012310
     8  C    0.138128
     9  C    0.104236
    10  O   -0.287884
    11  C    0.097884
    12  C    0.144134
    13  O   -0.465438
    14  O   -0.403384
    19  N    0.004428
    20  C    0.128429
    21  C    0.073455
    22  O   -0.309817
    23  C   -0.018667
    24  C    0.095964
    25  C    0.051167
    26  C    0.170488
    27  N    0.657264
    41  N   -0.014865
    42  C    0.152418
    43  C    0.044507
    44  O   -0.292377
    45  C    0.133067
    46  C    0.106693
    47  O   -0.418268
    48  O   -0.457728
    53  N    0.009714
    54  C    0.260043
    55  C    0.028635
    56  O   -0.266842
    60  N   -0.057366
    61  C    0.139604
    62  C    0.032928
    63  O   -0.319063
    64  C    0.261466
    65  C    0.077899
    66  N    0.219893
    67  O   -0.392324
    74  N    0.008837
    75  C    0.307947
    76  C    0.020808
    77  O   -0.307483
    81  N    0.030748
    82  C    0.105948
    83  C    0.123918
    84  O   -0.351204
    85  C    0.081155
    86  C    0.015556
    87  C   -0.022062
    88  C   -0.069586
    89  C   -0.035296
    90  C   -0.060486
    91  C    0.154386
    92  O   -0.023312
   102  N    0.024580
   103  C    0.154621
   104  C    0.075415
   105  O   -0.279996
   106  C   -0.123039
   107  C    0.003176
   108  C    0.079952
   109  C    0.069266
   121  N    0.032897
   122  C    0.131056
   123  C    0.085625
   124  O   -0.279785
   125  C    0.265553
   126  O   -0.110636
   132  N   -0.012518
   133  C    0.116566
   134  C    0.064687
   135  O   -0.239411
   136  C    0.131194
   142  N   -0.047320
   143  C    0.127915
   144  C    0.019084
   145  O   -0.274135
   146  C    0.087579
   152  N   -0.040350
   153  C    0.079029
   154  C    0.104990
   155  O   -0.264897
   156  C    0.085036
   157  C   -0.031245
   158  C    0.114131
   159  O   -0.435210
   160  O   -0.401350
   167  N   -0.051201
   168  C    0.198026
   173  Ca   1.305262
   174  O   -0.020784
 DipInt: DoE/N= T F RetVal/Mat= T F Init=T NMatP=  1 IDeriv=0 Min/MaxMlt=  0  4
 Entering OneElI...
 OneElI was handed  1333951383 working-precision words.
 Multipole integrals L=0 to 4 MinM= 0 MaxM= 0.
 Requested accuracy = 0.1000D-12
 ShPair: Thresh= 1.00D-13 NBox=     0 BxSize= 0.00D+00 RnKept= 2.55D+01
         NSMCal=               327645 NSMKep=              163742
 PrmmSu-InSpLW:  IPartL=    0 NPrtUS=    1 NPrtUL=    1 DoSpLW=F IThBeg=    0 IThEnd=    0 NThAct=    1.
 PrsmSu:  NPrtUS=   1 ThrOK=F IAlg=1 NPAlg=1 LenDen=           0 ISkipM=0 DoSpLW=F IThBeg=    0 IThEnd=    0.
 Prism:   IPart=     0 DynPar=F LinDyn=F Incr=         512.
 PRISM was handed  1323757531 working-precision words and163742 shell-pairs
 IPart=  0 NShTot=      163742 NBatch=         373 AvBLen=       439.0
 PrsmSu-ThDecC:  IPartSL=    0    0 NPrtUSL=    1    1 IThBeg=    0 IThEnd=    0 CPU=   -1 GPU=   -1 NThAct=    1.
 PrSmSu:  NxtVal=            513.
 Electronic moments (au):
       -716.00000000        -10.83342182          1.95533652         -7.59948499
     -50710.58272064     -28715.08061302     -13242.77756762         35.81230236
         57.01511253         21.40456944      73309.75332790      -3864.55949429
     -27525.12913586     -50146.34007968     -89162.63226093      55295.34897380
      12564.28490791       3550.73889254      25699.60801320       8450.96804059
   -7077962.09087965   -2550416.32576690    -712855.16467531     158179.92599892
    -235052.31642268    -479778.27059521      41562.33308423     103582.55122098
     -29268.87251948   -1925871.09784927    -685602.00742957    -408286.76455857
     267643.82649698      76636.32049042     -52239.54920481
 Electronic spatial extent (au):  <R**2>=          92668.4409
 DipInt: DoE/N= F T RetVal/Mat= T F Init=T NMatP=  1 IDeriv=0 Min/MaxMlt=  0  4
 Nuclear    moments (au):
        716.00000000          0.00000000         -0.00000000          0.00000000
      50217.29250771      28322.97518135      12890.94361983          0.00000000
         -0.00000000         -0.00000000     -73908.23765327       3415.04466607
      27228.17587918      48651.50415123      89455.81007937     -56183.67857758
     -12912.84083170      -3730.12343562     -26377.26086981      -8987.30036225
    6875031.27055714    2450154.45732894     672809.54753557    -158825.74875355
     237469.07247807     484650.96510103     -35608.78290311    -101841.67413456
      30007.16385126    1883018.48141893     653698.17624032     387395.37000474
    -267067.91503476     -70120.00855527      55093.94240662
 Total      moments (au):
         -0.00000000        -10.83342182          1.95533652         -7.59948499
       -493.29021293       -392.10543168       -351.83394779         35.81230236
         57.01511253         21.40456944       -598.48432537       -449.51482822
       -296.95325667      -1494.83592845        293.17781844       -888.32960378
       -348.55592380       -179.38454308       -677.65285662       -536.33232166
    -202930.82032251    -100261.86843796     -40045.61713974       -645.82275463
       2416.75605538       4872.69450582       5953.55018112       1740.87708642
        738.29133178     -42852.61643034     -31903.83118925     -20891.39455383
        575.91146222       6516.31193515       2854.39320181
 Traceless Quadrup. (au):
        -80.88034880         20.30443246         60.57591634         35.81230236
         57.01511253         21.40456944
 Charge=             -0.0000 electrons
 Dipole moment (field-independent basis, Debye):
    X=            -27.5358    Y=              4.9700    Z=            -19.3160  Tot=             34.0004
 Quadrupole moment (field-independent basis, Debye-Ang):
   XX=           -663.4922   YY=           -527.3952   ZZ=           -473.2287
   XY=             48.1688   XZ=             76.6873   YZ=             28.7899
 Traceless Quadrupole moment (field-independent basis, Debye-Ang):
   XX=           -108.7868   YY=             27.3102   ZZ=             81.4767
   XY=             48.1688   XZ=             76.6873   YZ=             28.7899
 Octapole moment (field-independent basis, Debye-Ang**2):
  XXX=           -425.9781  YYY=           -319.9473  ZZZ=           -211.3599  XYY=          -1063.9666
  XXY=            208.6727  XXZ=           -632.2788  XZZ=           -248.0887  YZZ=           -127.6790
  YYZ=           -482.3272  XYZ=           -381.7407
 Hexadecapole moment (field-independent basis, Debye-Ang**3):
 XXXX=         -76433.4778 YYYY=         -37763.4274 ZZZZ=         -15083.0997 XXXY=           -243.2478
 XXXZ=            910.2662 YYYX=           1835.2904 YYYZ=           2242.3925 ZZZX=            655.6978
 ZZZY=            278.0759 XXYY=         -16140.3502 XXZZ=         -12016.5127 YYZZ=          -7868.7010
 XXYZ=            216.9159 YYXZ=           2454.3555 ZZXY=           1075.1014
 N-N= 2.181833492252D+04 E-N=-5.611459783145D+04  KE= 5.290503492009D+03
 Leave Link  601 at Sun Sep 15 01:18:37 2019, MaxMem=  1342177280 cpu:              52.3 elap:               1.3
 FitSet:  NAtFit=   176 NAtPot=   176 NAtFrz=     0 MDM=   180 TotChg=   0.00000
 Merz-Kollman atomic radii used.
 Read replacement radii for each type of atom:
 Rad(20) =   1.700000000000D+00
 Atom Element Radius
    1     6    1.50
    2     6    1.50
    3     8    1.40
    4     1    1.20
    5     1    1.20
    6     1    1.20
    7     7    1.50
    8     6    1.50
    9     6    1.50
   10     8    1.40
   11     6    1.50
   12     6    1.50
   13     8    1.40
   14     8    1.40
   15     1    1.20
   16     1    1.20
   17     1    1.20
   18     1    1.20
   19     7    1.50
   20     6    1.50
   21     6    1.50
   22     8    1.40
   23     6    1.50
   24     6    1.50
   25     6    1.50
   26     6    1.50
   27     7    1.50
   28     1    1.20
   29     1    1.20
   30     1    1.20
   31     1    1.20
   32     1    1.20
   33     1    1.20
   34     1    1.20
   35     1    1.20
   36     1    1.20
   37     1    1.20
   38     1    1.20
   39     1    1.20
   40     1    1.20
   41     7    1.50
   42     6    1.50
   43     6    1.50
   44     8    1.40
   45     6    1.50
   46     6    1.50
   47     8    1.40
   48     8    1.40
   49     1    1.20
   50     1    1.20
   51     1    1.20
   52     1    1.20
   53     7    1.50
   54     6    1.50
   55     6    1.50
   56     8    1.40
   57     1    1.20
   58     1    1.20
   59     1    1.20
   60     7    1.50
   61     6    1.50
   62     6    1.50
   63     8    1.40
   64     6    1.50
   65     6    1.50
   66     7    1.50
   67     8    1.40
   68     1    1.20
   69     1    1.20
   70     1    1.20
   71     1    1.20
   72     1    1.20
   73     1    1.20
   74     7    1.50
   75     6    1.50
   76     6    1.50
   77     8    1.40
   78     1    1.20
   79     1    1.20
   80     1    1.20
   81     7    1.50
   82     6    1.50
   83     6    1.50
   84     8    1.40
   85     6    1.50
   86     6    1.50
   87     6    1.50
   88     6    1.50
   89     6    1.50
   90     6    1.50
   91     6    1.50
   92     8    1.40
   93     1    1.20
   94     1    1.20
   95     1    1.20
   96     1    1.20
   97     1    1.20
   98     1    1.20
   99     1    1.20
  100     1    1.20
  101     1    1.20
  102     7    1.50
  103     6    1.50
  104     6    1.50
  105     8    1.40
  106     6    1.50
  107     6    1.50
  108     6    1.50
  109     6    1.50
  110     1    1.20
  111     1    1.20
  112     1    1.20
  113     1    1.20
  114     1    1.20
  115     1    1.20
  116     1    1.20
  117     1    1.20
  118     1    1.20
  119     1    1.20
  120     1    1.20
  121     7    1.50
  122     6    1.50
  123     6    1.50
  124     8    1.40
  125     6    1.50
  126     8    1.40
  127     1    1.20
  128     1    1.20
  129     1    1.20
  130     1    1.20
  131     1    1.20
  132     7    1.50
  133     6    1.50
  134     6    1.50
  135     8    1.40
  136     6    1.50
  137     1    1.20
  138     1    1.20
  139     1    1.20
  140     1    1.20
  141     1    1.20
  142     7    1.50
  143     6    1.50
  144     6    1.50
  145     8    1.40
  146     6    1.50
  147     1    1.20
  148     1    1.20
  149     1    1.20
  150     1    1.20
  151     1    1.20
  152     7    1.50
  153     6    1.50
  154     6    1.50
  155     8    1.40
  156     6    1.50
  157     6    1.50
  158     6    1.50
  159     8    1.40
  160     8    1.40
  161     1    1.20
  162     1    1.20
  163     1    1.20
  164     1    1.20
  165     1    1.20
  166     1    1.20
  167     7    1.50
  168     6    1.50
  169     1    1.20
  170     1    1.20
  171     1    1.20
  172     1    1.20
  173    20    1.70
  174     8    1.40
[...]
 **** Fit      -0.032782
 **** Fit      -0.035458
 **** Fit      -0.040283
 **** Fit      -0.034759
 **** Fit      -0.036458
 **** Fit      -0.037319
 **** Fit      -0.037487
 **** Fit      -0.037092
 **** Fit      -0.036252
 **** Fit      -0.035078
 **** Fit      -0.033671
 **** Fit      -0.032126
 **** Fit      -0.030539
 **** Fit      -0.029015
 **** Fit      -0.027687
 **** Fit      -0.026745
 **** Fit      -0.026460
 **** Fit      -0.027201
 **** Fit      -0.029427
 **** Fit      -0.033693
 **** Fit      -0.034804
 **** Fit      -0.037040
 **** Fit      -0.038335
 **** Fit      -0.038781
 **** Fit      -0.038485
 **** Fit      -0.037567
 **** Fit      -0.036148
 **** Fit      -0.034343
 **** Fit      -0.032258
 **** Fit      -0.029988
 **** Fit      -0.027625
 **** Fit      -0.025268
 **** Fit      -0.023043
 **** Fit      -0.021145
 **** Fit      -0.019874
 **** Fit      -0.019639
 **** Fit      -0.020864
 **** Fit      -0.023864
 **** Fit      -0.039314
 **** Fit      -0.040751
 **** Fit      -0.041174
 **** Fit      -0.040659
 **** Fit      -0.039329
 **** Fit      -0.037334
 **** Fit      -0.034819
 **** Fit      -0.031917
 **** Fit      -0.028739
 **** Fit      -0.025378
 **** Fit      -0.021919
 **** Fit      -0.018458
 **** Fit      -0.015165
 **** Fit      -0.044550
 **** Fit      -0.042729
 **** Fit      -0.039992
 **** Fit      -0.036557
 **** Fit      -0.032614
 **** Fit      -0.028309
 **** Fit      -0.023741
 **** Fit      -0.018973
 **** Fit      -0.014040
 **** Fit      -0.039145
 **** Fit      -0.033383
 **** Fit      -0.027207
 **** Fit      -0.020730
 **** Fit      -0.013952
 **** Fit       0.048666
 **** Fit       0.040187
 **** Fit       0.040861
 **** Fit      -0.006147
 **** Fit       0.036182
 **** Fit       0.038271
 **** Fit       0.007193
 **** Fit      -0.009365
 **** Fit       0.033688
 **** Fit       0.032662
 **** Fit       0.033677
 **** Fit       0.035490
 **** Fit       0.017069
 **** Fit       0.003881
 **** Fit      -0.010201
 **** Fit       0.032606
 **** Fit       0.033455
 **** Fit       0.030403
 **** Fit       0.028479
 **** Fit       0.028020
 **** Fit       0.028102
 **** Fit       0.027032
 **** Fit       0.023072
 **** Fit       0.015493
 **** Fit       0.005133
 **** Fit      -0.006076
 **** Fit       0.027580
 **** Fit       0.027255
 **** Fit       0.025559
 **** Fit       0.023828
 **** Fit       0.022571
 **** Fit       0.020689
 **** Fit       0.016455
 **** Fit       0.009253
 **** Fit       0.000679
 **** Fit       0.022388
 **** Fit       0.021322
 **** Fit       0.019521
 **** Fit       0.017073
 **** Fit       0.012817
 **** Fit       0.006768
 **** Fit       0.016225
 **** Fit       0.012257
 **** Fit      -0.024202
 **** Fit      -0.036147
 **** Fit      -0.004205
 **** Fit      -0.004453
 **** Fit      -0.002415
 **** Fit      -0.003894
 **** Fit      -0.005830
 **** Fit      -0.006375
 **** Fit      -0.000910
 **** Fit      -0.002037
 **** Fit      -0.003569
 **** Fit      -0.009073
 **** Fit      -0.007377
 **** Fit       0.000376
 **** Fit      -0.000627
 **** Fit      -0.001865
 **** Fit      -0.003295
 **** Fit      -0.012530
 **** Fit      -0.010842
 **** Fit       0.001189
 **** Fit       0.000148
 **** Fit      -0.001068
 **** Fit      -0.002423
 **** Fit      -0.015546
 **** Fit      -0.012559
 **** Fit       0.003047
 **** Fit       0.002212
 **** Fit       0.001239
 **** Fit       0.000115
 **** Fit      -0.001137
 **** Fit      -0.002468
 **** Fit      -0.021416
 **** Fit      -0.018099
 **** Fit      -0.014170
 **** Fit       0.004263
 **** Fit       0.003456
 **** Fit       0.002512
 **** Fit       0.001405
 **** Fit       0.000144
 **** Fit      -0.001226
 **** Fit      -0.002648
 **** Fit      -0.026501
 **** Fit      -0.021890
 **** Fit      -0.016999
 **** Fit       0.005462
 **** Fit       0.004701
 **** Fit       0.003791
 **** Fit       0.002700
 **** Fit       0.001429
 **** Fit       0.000011
 **** Fit      -0.001496
 **** Fit      -0.003028
 **** Fit      -0.004540
 **** Fit      -0.026698
 **** Fit      -0.020783
 **** Fit       0.006522
 **** Fit       0.005751
 **** Fit       0.004785
 **** Fit       0.003603
 **** Fit       0.002209
 **** Fit       0.000640
 **** Fit      -0.001037
 **** Fit      -0.002749
 **** Fit      -0.004434
 **** Fit      -0.032884
 **** Fit       0.008336
 **** Fit       0.007749
 **** Fit       0.006946
 **** Fit      -0.002508
 **** Fit      -0.004399
 **** Fit      -0.006220
 **** Fit       0.010078
 **** Fit       0.009671
 **** Fit      -0.007487
 **** Fit      -0.009426
 **** Fit       0.011886
 **** Fit       0.011941
 **** Fit      -0.009181
 **** Fit      -0.011332
 **** Fit      -0.013509
 **** Fit       0.011771
 **** Fit       0.013080
 **** Fit       0.013949
 **** Fit       0.014260
 **** Fit      -0.013708
 **** Fit      -0.016003
 **** Fit      -0.018572
 **** Fit       0.014913
 **** Fit       0.016434
 **** Fit      -0.016736
 **** Fit      -0.019003
 **** Fit      -0.021567
 **** Fit      -0.024764
 **** Fit      -0.022939
 **** Fit      -0.025492
 **** Fit      -0.028805
 **** Fit      -0.033253
 **** Fit      -0.026828
 **** Fit      -0.028873
 **** Fit      -0.031760
 **** Fit      -0.035216
 **** Fit      -0.008008
 **** Fit      -0.008976
 **** Fit      -0.005801
 **** Fit      -0.007252
 **** Fit      -0.009661
 **** Fit      -0.010774
 **** Fit      -0.005003
 **** Fit      -0.006712
 **** Fit      -0.008960
 **** Fit      -0.011492
 **** Fit      -0.013635
 **** Fit      -0.014341
 **** Fit      -0.012999
 **** Fit      -0.004723
 **** Fit      -0.006399
 **** Fit      -0.008430
 **** Fit      -0.010846
 **** Fit      -0.013572
 **** Fit      -0.016291
 **** Fit      -0.018377
 **** Fit      -0.019062
 **** Fit      -0.017907
 **** Fit      -0.015187
 **** Fit      -0.003892
 **** Fit      -0.005466
 **** Fit      -0.007268
 **** Fit      -0.009387
 **** Fit      -0.011915
 **** Fit      -0.014887
 **** Fit      -0.018201
 **** Fit      -0.021516
 **** Fit      -0.024194
 **** Fit      -0.025436
 **** Fit      -0.024668
 **** Fit      -0.021968
 **** Fit      -0.004007
 **** Fit      -0.005656
 **** Fit      -0.007469
 **** Fit      -0.009560
 **** Fit      -0.012060
 **** Fit      -0.015093
 **** Fit      -0.018726
 **** Fit      -0.022900
 **** Fit      -0.027308
 **** Fit      -0.031289
 **** Fit      -0.006148
 **** Fit      -0.007957
 **** Fit      -0.009997
 **** Fit      -0.012415
 **** Fit      -0.015371
 **** Fit      -0.019018
 **** Fit      -0.023478
 **** Fit      -0.028766
 **** Fit      -0.006918
 **** Fit      -0.008826
 **** Fit      -0.010948
 **** Fit      -0.013461
 **** Fit      -0.016568
 **** Fit      -0.020496
 **** Fit      -0.025494
 **** Fit      -0.031796
 **** Fit      -0.008064
 **** Fit      -0.010056
 **** Fit      -0.012233
 **** Fit      -0.014795
 **** Fit      -0.017975
 **** Fit      -0.022049
 **** Fit      -0.027364
 **** Fit      -0.012831
 **** Fit      -0.015273
 **** Fit      -0.018241
 **** Fit      -0.022028
 **** Fit      -0.027020
 **** Fit      -0.016419
 **** Fit      -0.019372
 **** Fit      -0.023141
 **** Fit      -0.028172
 **** Fit      -0.022775
 **** Fit      -0.027157
 **** Fit      -0.031499
 **** Fit      -0.001184
 **** Fit      -0.000915
 **** Fit       0.000657
 **** Fit       0.000336
 **** Fit      -0.001308
 **** Fit      -0.003080
 **** Fit      -0.003043
 **** Fit      -0.000516
 **** Fit       0.001554
 **** Fit       0.002440
 **** Fit       0.002361
 **** Fit       0.001615
 **** Fit       0.000364
 **** Fit      -0.005373
 **** Fit      -0.003212
 **** Fit      -0.000004
 **** Fit       0.002466
 **** Fit       0.003788
 **** Fit       0.004162
 **** Fit       0.004002
 **** Fit       0.003506
 **** Fit       0.002726
 **** Fit       0.001687
 **** Fit      -0.008367
 **** Fit      -0.006113
 **** Fit      -0.003117
 **** Fit       0.005751
 **** Fit       0.005392
 **** Fit       0.004907
 **** Fit       0.004263
 **** Fit       0.003439
 **** Fit      -0.010259
 **** Fit      -0.007029
 **** Fit      -0.003284
 **** Fit       0.006992
 **** Fit       0.006506
 **** Fit       0.006021
 **** Fit       0.005432
 **** Fit       0.004694
 **** Fit      -0.012785
 **** Fit      -0.008667
 **** Fit       0.007899
 **** Fit       0.007457
 **** Fit       0.007053
 **** Fit       0.006555
 **** Fit       0.005913
 **** Fit      -0.016031
 **** Fit       0.008449
 **** Fit       0.008197
 **** Fit       0.007870
 **** Fit       0.007381
 **** Fit       0.009145
 **** Fit       0.009153
 **** Fit       0.009083
 **** Fit       0.008824
 **** Fit       0.009539
 **** Fit       0.009932
 **** Fit       0.010174
 **** Fit       0.010165
 **** Fit       0.010061
 **** Fit       0.010875
 **** Fit       0.011403
 **** Fit       0.010899
 **** Fit       0.005158
 **** Fit       0.003810
 **** Fit       0.002234
 **** Fit       0.000518
 **** Fit       0.007727
 **** Fit       0.006634
 **** Fit       0.005211
 **** Fit       0.003542
 **** Fit       0.001720
 **** Fit      -0.000176
 **** Fit      -0.002085
 **** Fit      -0.003960
 **** Fit       0.009904
 **** Fit       0.008819
 **** Fit       0.007285
 **** Fit       0.005417
 **** Fit       0.003341
 **** Fit       0.001167
 **** Fit      -0.001017
 **** Fit      -0.003161
 **** Fit      -0.005239
 **** Fit      -0.007247
 **** Fit       0.012483
 **** Fit       0.011445
 **** Fit       0.009784
 **** Fit       0.007653
 **** Fit       0.005227
 **** Fit       0.002670
 **** Fit       0.000108
 **** Fit      -0.002371
 **** Fit      -0.004726
 **** Fit      -0.006955
 **** Fit      -0.009088
 **** Fit       0.015625
 **** Fit       0.015473
 **** Fit       0.014295
 **** Fit       0.012220
 **** Fit       0.009496
 **** Fit       0.006398
 **** Fit       0.003168
 **** Fit      -0.000004
 **** Fit      -0.002993
 **** Fit      -0.005737
 **** Fit      -0.008233
 **** Fit      -0.010527
 **** Fit      -0.012700
 **** Fit       0.013205
 **** Fit       0.008998
 **** Fit       0.004544
 **** Fit       0.000192
 **** Fit      -0.003818
 **** Fit      -0.007355
 **** Fit      -0.010390
 **** Fit      -0.012991
 **** Fit      -0.015289
 **** Fit      -0.017450
 **** Fit       0.004408
 **** Fit      -0.001858
 **** Fit      -0.007383
 **** Fit      -0.011945
 **** Fit      -0.015520
 **** Fit      -0.018269
 **** Fit      -0.020465
 **** Fit      -0.022412
 **** Fit       0.049778
 **** Fit       0.048780
 **** Fit       0.051038
 **** Fit       0.048738
 **** Fit       0.050615
 **** Fit       0.052143
 **** Fit       0.047175
 **** Fit       0.048236
 **** Fit       0.049502
 **** Fit       0.050161
 **** Fit       0.049292
 **** Fit       0.045821
 **** Fit       0.045099
 **** Fit       0.045700
 **** Fit       0.046307
 **** Fit       0.045902
 **** Fit       0.043393
 **** Fit       0.042457
 **** Fit       0.042872
 **** Fit       0.043347
 **** Fit       0.042873
 **** Fit       0.040522
 **** Fit       0.037931
 **** Fit       0.038549
 **** Fit       0.039549
 **** Fit       0.040087
 **** Fit       0.039398
 **** Fit       0.036650
 **** Fit       0.035052
 **** Fit       0.036362
 **** Fit       0.037880
 **** Fit       0.032183
 **** Fit       0.033638
 **** Fit      -0.005235
 **** Fit       0.028604
 **** Fit       0.030178
 **** Fit      -0.003251
 **** Fit       0.004234
 **** Fit       0.018840
 **** Fit      -0.011794
 **** Fit      -0.000454
 **** Fit       0.006158
 **** Fit       0.011845
 **** Fit      -0.007672
 **** Fit      -0.002610
 **** Fit       0.037355
 **** Fit       0.038296
 **** Fit       0.039708
 **** Fit       0.040133
 **** Fit       0.038928
 **** Fit       0.035296
 **** Fit       0.034102
 **** Fit       0.036391
 **** Fit       0.038459
 **** Fit       0.039991
 **** Fit       0.040552
 **** Fit       0.039575
 **** Fit       0.036576
 **** Fit       0.031645
 **** Fit       0.025700
 **** Fit       0.020006
 **** Fit       0.015426
 **** Fit       0.011969
 **** Fit       0.008790
 **** Fit       0.004580
 **** Fit      -0.001951
 **** Fit       0.029866
 **** Fit       0.032311
 **** Fit       0.034703
 **** Fit       0.036933
 **** Fit       0.038755
 **** Fit       0.039822
 **** Fit       0.039710
 **** Fit       0.038074
 **** Fit       0.034943
 **** Fit       0.030882
 **** Fit       0.026683
 **** Fit       0.022849
 **** Fit       0.019264
 **** Fit       0.015233
 **** Fit       0.009799
 **** Fit       0.002103
 **** Fit       0.024882
 **** Fit       0.027759
 **** Fit       0.030359
 **** Fit       0.032803
 **** Fit       0.035061
 **** Fit       0.036968
 **** Fit       0.038261
 **** Fit       0.038634
 **** Fit       0.037846
 **** Fit       0.035892
 **** Fit       0.033082
 **** Fit       0.029866
 **** Fit       0.026496
 **** Fit       0.022818
 **** Fit       0.018317
 **** Fit       0.012374
 **** Fit       0.004553
 **** Fit      -0.005203
 **** Fit       0.015066
 **** Fit       0.019584
 **** Fit       0.023343
 **** Fit       0.026544
 **** Fit       0.029375
 **** Fit       0.031929
 **** Fit       0.034154
 **** Fit       0.035868
 **** Fit       0.036813
 **** Fit       0.036749
 **** Fit       0.035591
 **** Fit       0.033490
 **** Fit       0.030715
 **** Fit       0.027389
 **** Fit       0.023323
 **** Fit       0.018116
 **** Fit       0.011446
 **** Fit       0.003384
 **** Fit      -0.005367
 **** Fit       0.007490
 **** Fit       0.012761
 **** Fit       0.017530
 **** Fit       0.021643
 **** Fit       0.025154
 **** Fit       0.028186
 **** Fit       0.030796
 **** Fit       0.032909
 **** Fit       0.034332
 **** Fit       0.034832
 **** Fit       0.034263
 **** Fit       0.032650
 **** Fit       0.030123
 **** Fit       0.026728
 **** Fit       0.022321
 **** Fit       0.016735
 **** Fit       0.010114
 **** Fit       0.003193
 **** Fit      -0.002660
 **** Fit      -0.005894
 **** Fit      -0.005717
 **** Fit      -0.002635
 **** Fit       0.002127
 **** Fit       0.011311
 **** Fit       0.015965
 **** Fit       0.020336
 **** Fit       0.024158
 **** Fit       0.027379
 **** Fit       0.029947
 **** Fit       0.031692
 **** Fit       0.032363
 **** Fit       0.031775
 **** Fit       0.029906
 **** Fit       0.026811
 **** Fit       0.022509
 **** Fit       0.017128
 **** Fit       0.011298
 **** Fit       0.006315
 **** Fit       0.003676
 **** Fit       0.004086
 **** Fit       0.007013
 **** Fit       0.015028
 **** Fit       0.019405
 **** Fit       0.023601
 **** Fit       0.026954
 **** Fit       0.029018
 **** Fit       0.029345
 **** Fit       0.027679
 **** Fit       0.024102
 **** Fit       0.019119
 **** Fit       0.014104
 **** Fit       0.011209
 **** Fit       0.011747
 **** Fit       0.018586
 **** Fit       0.022876
 **** Fit       0.025813
 **** Fit       0.024982
 **** Fit       0.020694
 **** Fit       0.017153
 **** Fit       0.021926
 **** Fit      -0.015281
 **** Fit      -0.019490
 **** Fit      -0.014260
 -----------------------------------------------------------------
 Leave Link  602 at Sun Sep 15 01:18:39 2019, MaxMem=  1342177280 cpu:             107.4 elap:               2.3

 Test job not archived.
 1\1\GINC-C506-122\SP\RB3LYP\SVP\C54H83Ca1N15O23\PENGZHI\15-Sep-2019\0\
 \#b3lyp/svp scf=(tight,noincore) Test #IOP(5/87=12) Density=Current Po
 p=(MK,readradii) iop(6/33=2) iop(6/42=6)\\CaMKII_loop3_98.0\\0,1\C,0,7
 0.71,51.37,23.13\C,0,69.32,50.92,23.56\O,0,69.15,49.74,23.85\H,0,71.42
 4,50.568,23.315\H,0,70.702,51.611,22.067\H,0,71.,52.252,23.701\N,0,68.
 29,51.76,23.54\C,0,66.95,51.38,23.96\C,0,66.2,50.82,22.77\O,0,65.97,51
 .5,21.77\C,0,66.33,52.65,24.53\C,0,64.95,52.37,25.11\O,0,64.36,51.27,2
 5.03\O,0,64.45,53.26,25.84\H,0,68.49,52.7,23.22\H,0,67.09,50.68,24.79\
 H,0,66.22,53.47,23.83\H,0,66.96,53.05,25.33\N,0,65.78,49.55,22.88\C,0,
 65.31,48.72,21.79\C,0,63.87,48.96,21.36\O,0,63.41,48.45,20.34\C,0,65.4
 3,47.29,22.3\C,0,65.59,46.21,21.24\C,0,66.08,44.9,21.85\C,0,65.1,44.07
 ,22.67\N,0,64.17,43.26,21.86\H,0,65.95,49.04,23.73\H,0,65.99,48.91,20.
 96\H,0,64.55,47.1,22.92\H,0,66.29,47.29,22.96\H,0,66.31,46.55,20.49\H,
 0,64.58,46.15,20.83\H,0,67.,45.1,22.4\H,0,66.33,44.2,21.05\H,0,64.51,4
 4.79,23.24\H,0,65.67,43.38,23.29\H,0,63.54,43.83,21.32\H,0,64.67,42.56
 ,21.32\H,0,63.57,42.69,22.45\N,0,63.07,49.63,22.19\C,0,61.73,50.11,21.
 93\C,0,61.44,51.49,22.52\O,0,60.27,51.85,22.52\C,0,60.75,49.14,22.58\C
 ,0,60.99,48.97,24.07\O,0,60.23,48.17,24.66\O,0,61.9,49.49,24.75\H,0,63
 .46,49.88,23.09\H,0,61.66,50.03,20.85\H,0,60.93,48.14,22.18\H,0,59.71,
 49.43,22.4\N,0,62.38,52.29,23.02\C,0,62.19,53.71,23.27\C,0,61.4,54.1,2
 4.52\O,0,60.67,55.08,24.53\H,0,63.28,51.83,23.\H,0,61.89,54.28,22.39\H
 ,0,63.22,53.98,23.5\N,0,61.5,53.28,25.57\C,0,60.65,53.27,26.74\C,0,61.
 39,54.,27.86\O,0,60.7,54.16,28.87\C,0,60.16,51.86,27.05\C,0,61.11,51.1
 5,28.\N,0,60.6,50.51,29.06\O,0,62.34,51.23,27.92\H,0,62.43,52.89,25.69
 \H,0,59.83,53.93,26.46\H,0,60.04,51.34,26.1\H,0,59.21,51.94,27.59\H,0,
 59.63,50.31,29.23\H,0,61.27,50.09,29.69\N,0,62.6,54.51,27.67\C,0,63.43
 ,55.29,28.57\C,0,64.53,54.55,29.31\O,0,65.24,55.19,30.09\H,0,63.1,54.2
 ,26.84\H,0,62.83,55.82,29.31\H,0,64.01,56.04,28.04\N,0,64.6,53.22,29.2
 2\C,0,65.49,52.36,29.97\C,0,66.14,51.28,29.12\O,0,65.55,50.82,28.14\C,
 0,64.81,51.62,31.12\C,0,63.75,52.32,31.94\C,0,64.16,52.96,33.12\C,0,62
 .41,52.41,31.56\C,0,63.17,53.4,34.\C,0,61.4,52.95,32.37\C,0,61.81,53.4
 ,33.64\O,0,60.94,53.93,34.55\H,0,63.99,52.77,28.55\H,0,66.25,52.96,30.
 46\H,0,65.64,51.26,31.73\H,0,64.38,50.71,30.71\H,0,65.2,52.97,33.42\H,
 0,62.11,52.01,30.6\H,0,63.45,53.87,34.93\H,0,60.38,52.93,32.02\H,0,60.
 07,53.91,34.15\N,0,67.36,50.9,29.51\C,0,68.18,49.86,28.92\C,0,68.27,48
 .68,29.88\O,0,68.65,48.92,31.02\C,0,69.57,50.37,28.55\C,0,69.61,51.72,
 27.84\C,0,70.28,49.38,27.64\C,0,71.02,52.3,27.79\H,0,67.83,51.48,30.19
 \H,0,67.71,49.58,27.98\H,0,70.14,50.53,29.47\H,0,68.94,52.43,28.34\H,0
 ,69.25,51.6,26.81\H,0,71.36,49.54,27.62\H,0,70.17,48.36,28.\H,0,69.89,
 49.46,26.63\H,0,71.74,51.61,27.38\H,0,71.04,53.21,27.19\H,0,71.23,52.5
 2,28.84\N,0,68.,47.46,29.43\C,0,68.12,46.25,30.22\C,0,69.23,45.4,29.61
 \O,0,69.7,45.64,28.5\C,0,66.82,45.46,30.16\O,0,66.57,45.11,28.82\H,0,6
 7.83,47.35,28.44\H,0,68.46,46.51,31.22\H,0,66.04,46.16,30.46\H,0,66.89
 ,44.57,30.78\H,0,65.67,44.78,28.69\N,0,69.61,44.34,30.33\C,0,70.64,43.
 4,29.94\C,0,70.33,42.71,28.62\O,0,71.21,42.27,27.89\C,0,70.78,42.44,31
 .12\H,0,69.24,44.21,31.26\H,0,71.59,43.91,29.8\H,0,70.92,43.03,32.03\H
 ,0,69.87,41.87,31.25\H,0,71.59,41.73,30.94\N,0,69.03,42.62,28.3\C,0,68
 .56,42.06,27.05\C,0,68.87,43.03,25.91\O,0,69.25,42.58,24.83\C,0,67.05,
 41.91,26.97\H,0,68.38,42.97,28.98\H,0,69.08,41.13,26.83\H,0,66.88,41.2
 2,27.79\H,0,66.54,42.86,27.12\H,0,66.71,41.45,26.04\N,0,68.75,44.33,26
 .16\C,0,68.88,45.37,25.15\C,0,70.33,45.77,24.92\O,0,70.79,45.97,23.8\C
 ,0,67.95,46.52,25.51\C,0,66.52,45.98,25.54\C,0,65.47,47.07,25.62\O,0,6
 5.86,48.26,25.61\O,0,64.29,46.83,25.98\H,0,68.6,44.57,27.12\H,0,68.46,
 44.97,24.23\H,0,68.04,47.22,24.68\H,0,68.12,46.98,26.48\H,0,66.44,45.3
 6,26.43\H,0,66.35,45.31,24.7\N,0,71.05,45.83,26.04\C,0,72.49,45.99,26.
 16\H,0,72.945,45.929,25.172\H,0,72.713,46.961,26.603\H,0,72.892,45.2,2
 6.794\H,0,70.58,45.56,26.89\Ca,0,63.78,49.44,26.67\O,0,61.7,47.78,27.0
 4\H,0,61.45,46.92,27.38\H,0,61.09,47.93,26.31\\Version=ES64L-G16RevA.0
 3\State=1-A\HF=-5333.6104479\RMSD=7.460e-09\Dipole=2.0117081,-12.84657
 28,3.1396081\Quadrupole=-57.082692,42.8883265,14.1943656,86.0373294,2.
 8288351,15.5879876\PG=C01 [X(C54H83Ca1N15O23)]\\@


 WHAT, THEN, IS TIME?  IF NO ONE ASKS ME, I KNOW WHAT IT IS.
 IF I WISH TO EXPLAIN WHAT IT IS TO HIM WHO ASKS ME, I DO NOT KNOW.
                                   -- ST. AUGUSTINE (FIFTH CENTURY)
 Job cpu time:       0 days  8 hours 41 minutes 52.8 seconds.
 Elapsed time:       0 days  0 hours 10 minutes 59.6 seconds.
 File lengths (MBytes):  RWF=   1517 Int=      0 D2E=      0 Chk=    171 Scr=      1
 Normal termination of Gaussian 16 at Sun Sep 15 01:18:41 2019.
