 Entering Gaussian System, Link 0=g16
 Initial command:
 /home1/apps/gaussian/16rA.03/g16/l1.exe "/scratch/01990/pengzhi/4328840/Gau-190004.inp" -scrdir="/scratch/01990/pengzhi/4328840/"
 Entering Link 1 = /home1/apps/gaussian/16rA.03/g16/l1.exe PID=    190005.
  
 Copyright (c) 1988,1990,1992,1993,1995,1998,2003,2009,2016,
            Gaussian, Inc.  All Rights Reserved.
  
 This is part of the Gaussian(R) 16 program.  It is based on
 the Gaussian(R) 09 system (copyright 2009, Gaussian, Inc.),
 the Gaussian(R) 03 system (copyright 2003, Gaussian, Inc.),
 the Gaussian(R) 98 system (copyright 1998, Gaussian, Inc.),
 the Gaussian(R) 94 system (copyright 1995, Gaussian, Inc.),
 the Gaussian 92(TM) system (copyright 1992, Gaussian, Inc.),
 the Gaussian 90(TM) system (copyright 1990, Gaussian, Inc.),
 the Gaussian 88(TM) system (copyright 1988, Gaussian, Inc.),
 the Gaussian 86(TM) system (copyright 1986, Carnegie Mellon
 University), and the Gaussian 82(TM) system (copyright 1983,
 Carnegie Mellon University). Gaussian is a federally registered
 trademark of Gaussian, Inc.
  
 This software contains proprietary and confidential information,
 including trade secrets, belonging to Gaussian, Inc.
  
 This software is provided under written license and may be
 used, copied, transmitted, or stored only in accord with that
 written license.
  
 The following legend is applicable only to US Government
 contracts under FAR:
  
                    RESTRICTED RIGHTS LEGEND
  
 Use, reproduction and disclosure by the US Government is
 subject to restrictions as set forth in subparagraphs (a)
 and (c) of the Commercial Computer Software - Restricted
 Rights clause in FAR 52.227-19.
  
 Gaussian, Inc.
 340 Quinnipiac St., Bldg. 40, Wallingford CT 06492
  
  
 ---------------------------------------------------------------
 Warning -- This program may not be used in any manner that
 competes with the business of Gaussian, Inc. or will provide
 assistance to any competitor of Gaussian, Inc.  The licensee
 of this program is prohibited from giving any competitor of
 Gaussian, Inc. access to this program.  By using this program,
 the user acknowledges that Gaussian, Inc. is engaged in the
 business of creating and licensing software in the field of
 computational chemistry and represents and warrants to the
 licensee that it is not a competitor of Gaussian, Inc. and that
 it will not use this program in any manner prohibited above.
 ---------------------------------------------------------------
  

 Cite this work as:
 Gaussian 16, Revision A.03,
 M. J. Frisch, G. W. Trucks, H. B. Schlegel, G. E. Scuseria, 
 M. A. Robb, J. R. Cheeseman, G. Scalmani, V. Barone, 
 G. A. Petersson, H. Nakatsuji, X. Li, M. Caricato, A. V. Marenich, 
 J. Bloino, B. G. Janesko, R. Gomperts, B. Mennucci, H. P. Hratchian, 
 J. V. Ortiz, A. F. Izmaylov, J. L. Sonnenberg, D. Williams-Young, 
 F. Ding, F. Lipparini, F. Egidi, J. Goings, B. Peng, A. Petrone, 
 T. Henderson, D. Ranasinghe, V. G. Zakrzewski, J. Gao, N. Rega, 
 G. Zheng, W. Liang, M. Hada, M. Ehara, K. Toyota, R. Fukuda, 
 J. Hasegawa, M. Ishida, T. Nakajima, Y. Honda, O. Kitao, H. Nakai, 
 T. Vreven, K. Throssell, J. A. Montgomery, Jr., J. E. Peralta, 
 F. Ogliaro, M. J. Bearpark, J. J. Heyd, E. N. Brothers, K. N. Kudin, 
 V. N. Staroverov, T. A. Keith, R. Kobayashi, J. Normand, 
 K. Raghavachari, A. P. Rendell, J. C. Burant, S. S. Iyengar, 
 J. Tomasi, M. Cossi, J. M. Millam, M. Klene, C. Adamo, R. Cammi, 
 J. W. Ochterski, R. L. Martin, K. Morokuma, O. Farkas, 
 J. B. Foresman, and D. J. Fox, Gaussian, Inc., Wallingford CT, 2016.
 
 ******************************************
 Gaussian 16:  ES64L-G16RevA.03 25-Dec-2016
                14-Sep-2019 
 ******************************************
 %chk=CaMKII_loop3_101.0.chk
 %nprocshared=48
 Will use up to   48 processors via shared memory.
 %mem=10GB
 %nosave
 ----------------------------------------------------------------------
 #b3lyp/svp scf=(tight,noincore) Test #IOP(5/87=12) Density=Current Pop
 =(MK,readradii) iop(6/33=2) iop(6/42=6)
 ----------------------------------------------------------------------
 1/30=1,38=1,172=1/1;
 2/12=2,17=6,18=5,40=1/2;
 3/5=18,7=101,11=2,25=1,30=1,74=-5/1,2,3;
 4//1;
 5/5=4,32=2,38=5,87=12/2;
 6/7=2,8=2,9=2,10=2,15=8,20=101,22=-1,28=1,33=2,42=6/1,2;
 99/5=1,9=1/99;
 ------------------
 CaMKII_loop3_101.0
 ------------------
 Symbolic Z-matrix:
 Charge =  0 Multiplicity = 1
 C                     77.82     48.34     27.19 
 C                     76.91     47.38     27.93 
 O                     77.36     46.28     28.21 
 H                     78.776    47.855    26.993 
 H                     77.357    48.626    26.246 
 H                     77.984    49.229    27.799 
 N                     75.68     47.83     28.2 
 C                     74.73     47.09     29.01 
 C                     74.01     46.09     28.11 
 O                     73.3      46.44     27.16 
 C                     73.86     48.04     29.83 
 C                     72.94     47.41     30.86 
 O                     72.94     46.16     30.85 
 O                     72.31     48.07     31.71 
 H                     75.38     48.7      27.79 
 H                     75.27     46.5      29.74 
 H                     73.23     48.62     29.16 
 H                     74.47     48.82     30.29 
 N                     74.28     44.81     28.38 
 C                     73.77     43.71     27.58 
 C                     72.28     43.44     27.7 
 O                     71.68     42.96     26.74 
 C                     74.6      42.49     27.98 
 C                     74.71     41.33     27. 
 C                     75.54     40.25     27.69 
 C                     75.75     39.01     26.82 
 N                     76.3      37.85     27.54 
 H                     74.8      44.61     29.21 
 H                     73.96     43.98     26.54 
 H                     74.05     42.19     28.87 
 H                     75.57     42.83     28.35 
 H                     75.18     41.55     26.04 
 H                     73.72     40.88     26.82 
 H                     75.07     39.9      28.6 
 H                     76.51     40.59     28.05 
 H                     76.43     39.39     26.06 
 H                     74.85     38.75     26.27 
 H                     75.59     37.53     28.18 
 H                     76.52     37.11     26.89 
 H                     77.1      38.01     28.13 
 N                     71.63     43.88     28.78 
 C                     70.2      43.79     28.95 
 C                     69.47     45.11     29.17 
 O                     68.26     45.22     29.04 
 C                     69.85     42.77     30.04 
 C                     70.19     43.14     31.47 
 O                     70.68     44.27     31.68 
 O                     69.85     42.37     32.4 
 H                     72.12     44.17     29.62 
 H                     69.71     43.39     28.06 
 H                     70.52     41.93     29.86 
 H                     68.83     42.4      29.93 
 N                     70.26     46.13     29.52 
 C                     69.84     47.5      29.73 
 C                     68.92     47.78     30.9 
 O                     67.99     48.59     30.83 
 H                     71.24     45.91     29.64 
 H                     69.28     47.79     28.84 
 H                     70.71     48.16     29.84 
 N                     69.15     47.07     32. 
 C                     68.54     47.36     33.28 
 C                     69.06     48.62     33.96 
 O                     68.55     49.08     34.98 
 C                     68.62     46.11     34.15 
 C                     69.88     45.87     34.97 
 N                     69.68     45.75     36.28 
 O                     71.04     45.85     34.54 
 H                     69.78     46.28     31.93 
 H                     67.47     47.42     33.11 
 H                     68.39     45.2      33.6 
 H                     67.82     46.14     34.9 
 H                     68.8      45.92     36.75 
 H                     70.42     45.4      36.86 
 N                     70.1      49.24     33.38 
 C                     70.68     50.47     33.86 
 C                     71.88     50.29     34.78 
 O                     72.31     51.26     35.41 
 H                     70.66     48.76     32.69 
 H                     69.98     51.11     34.39 
 H                     70.97     51.14     33.05 
 N                     72.39     49.06     34.86 
 C                     73.76     48.84     35.28 
 C                     74.53     47.98     34.28 
 O                     74.       47.05     33.68 
 C                     73.72     48.07     36.6 
 C                     73.       48.72     37.75 
 C                     73.63     49.17     38.92 
 C                     71.61     48.62     37.71 
 C                     72.86     49.51     40.04 
 C                     70.84     49.08     38.78 
 C                     71.45     49.45     39.99 
 O                     70.76     49.84     41.1 
 H                     72.03     48.32     34.28 
 H                     74.29     49.79     35.31 
 H                     74.76     48.05     36.94 
 H                     73.3      47.08     36.45 
 H                     74.71     49.28     38.94 
 H                     71.1      48.08     36.92 
 H                     73.3      49.77     40.99 
 H                     69.78     49.04     38.58 
 H                     69.83     50.04     40.96 
 N                     75.85     48.18     34.34 
 C                     76.9      47.28     33.9 
 C                     77.5      46.41     35. 
 O                     78.14     46.86     35.94 
 C                     77.96     48.06     33.14 
 C                     77.4      48.8      31.92 
 C                     79.23     47.33     32.73 
 C                     78.28     50.01     31.62 
 H                     76.13     49.03     34.81 
 H                     76.49     46.63     33.13 
 H                     78.27     48.88     33.79 
 H                     76.37     49.17     31.99 
 H                     77.55     48.11     31.1 
 H                     79.69     46.87     33.6 
 H                     78.86     46.54     32.07 
 H                     80.       48.       32.35 
 H                     77.76     50.59     30.86 
 H                     78.31     50.62     32.52 
 H                     79.27     49.75     31.25 
 N                     77.43     45.09     34.85 
 C                     78.16     44.1      35.61 
 C                     79.53     44.       34.97 
 O                     79.73     44.31     33.8 
 C                     77.44     42.75     35.68 
 O                     77.7      41.85     34.62 
 H                     76.87     44.73     34.09 
 H                     78.33     44.39     36.65 
 H                     76.38     42.79     35.91 
 H                     77.82     42.31     36.6 
 H                     77.02     41.17     34.58 
 N                     80.43     43.33     35.7 
 C                     81.73     42.92     35.21 
 C                     81.65     42.02     33.98 
 O                     82.42     42.21     33.05 
 C                     82.35     42.15     36.38 
 H                     80.15     43.07     36.63 
 H                     82.31     43.83     35.07 
 H                     81.66     41.38     36.72 
 H                     83.28     41.68     36.07 
 H                     82.5      42.89     37.17 
 N                     80.72     41.06     33.94 
 C                     80.59     40.17     32.81 
 C                     80.08     40.75     31.5 
 O                     80.42     40.35     30.39 
 C                     79.88     38.88     33.2 
 H                     80.2      40.85     34.78 
 H                     81.59     39.85     32.52 
 H                     79.6      38.26     32.35 
 H                     80.56     38.25     33.78 
 H                     78.97     39.14     33.75 
 N                     79.18     41.72     31.63 
 C                     78.7      42.56     30.55 
 C                     79.84     43.42     30.01 
 O                     79.95     43.42     28.79 
 C                     77.52     43.39     31.04 
 C                     76.32     42.52     31.38 
 C                     75.18     43.39     31.88 
 O                     75.34     44.07     32.92 
 O                     74.06     43.37     31.33 
 H                     78.85     41.96     32.56 
 H                     78.28     41.96     29.74 
 H                     77.21     44.17     30.34 
 H                     77.75     44.06     31.87 
 H                     76.56     41.84     32.19 
 H                     75.98     41.9      30.54 
 N                     80.7      43.96     30.88 
 C                     81.93     44.66     30.59 
 H                     82.718    43.937    30.38 
 H                     81.787    45.303    29.722 
 H                     82.215    45.267    31.449 
 H                     80.43     43.88     31.85 
 Ca                    72.83     44.84     32.99 
 O                     72.08     42.52     33.92 
 H                     72.1      42.02     34.73 
 H                     71.26     42.25     33.5 
 
 Stoichiometry    C54H83CaN15O23
 Framework group  C1[X(C54H83CaN15O23)]
 Deg. of freedom   522
 Full point group                 C1      NOp   1
 Largest Abelian subgroup         C1      NOp   1
 Largest concise Abelian subgroup C1      NOp   1
                         Standard orientation:                         
 ---------------------------------------------------------------------
 Center     Atomic      Atomic             Coordinates (Angstroms)
 Number     Number       Type             X           Y           Z
 ---------------------------------------------------------------------
      1          6           0        2.300587    2.030008    6.022753
      2          6           0        1.871838    2.104196    4.570868
      3          8           0        2.738431    1.975390    3.720383
      4          1           0        3.380423    1.891743    6.075721
      5          1           0        2.027941    2.954719    6.530568
      6          1           0        1.803967    1.188986    6.506643
      7          7           0        0.569461    2.317934    4.355389
      8          6           0       -0.025795    2.289006    3.032123
      9          6           0        0.157336    3.663155    2.394488
     10          8           0       -0.346943    4.688862    2.866429
     11          6           0       -1.446402    1.731742    3.088079
     12          6           0       -2.133831    1.472862    1.759688
     13          8           0       -1.474847    1.838459    0.762353
     14          8           0       -3.216201    0.862279    1.656420
     15          1           0       -0.020472    2.552189    5.137760
     16          1           0        0.525765    1.595157    2.410065
     17          1           0       -2.081450    2.419721    3.640888
     18          1           0       -1.485595    0.840623    3.717739
     19          7           0        0.975627    3.677439    1.338839
     20          6           0        1.354322    4.899101    0.650194
     21          6           0        0.259847    5.564743   -0.166167
     22          8           0        0.282934    6.785146   -0.314774
     23          6           0        2.559045    4.528104   -0.214852
     24          6           0        3.518335    5.631201   -0.640339
     25          6           0        4.572220    4.976807   -1.530561
     26          6           0        5.625004    5.964190   -2.035855
     27          7           0        6.486594    5.436993   -3.106475
     28          1           0        1.279585    2.797465    0.974757
     29          1           0        1.643441    5.606909    1.428666
     30          1           0        2.034719    4.121279   -1.077508
     31          1           0        3.065833    3.671739    0.235930
     32          1           0        4.038674    6.156641    0.162194
     33          1           0        3.002475    6.368789   -1.276619
     34          1           0        4.133471    4.530480   -2.413619
     35          1           0        5.081674    4.128835   -1.075041
     36          1           0        6.177729    6.178917   -1.123283
     37          1           0        5.180786    6.916386   -2.311703
     38          1           0        5.910118    5.319710   -3.925023
     39          1           0        7.226268    6.092227   -3.311535
     40          1           0        6.891830    4.526057   -2.966191
     41          7           0       -0.784505    4.833244   -0.562068
     42          6           0       -1.938330    5.377732   -1.235954
     43          6           0       -3.280064    5.153545   -0.548065
     44          8           0       -4.281095    5.790903   -0.839290
     45          6           0       -1.976305    4.916291   -2.697675
     46          6           0       -2.277100    3.453124   -2.954709
     47          8           0       -2.530384    2.727314   -1.969749
     48          8           0       -2.395592    3.049901   -4.136559
     49          1           0       -0.764737    3.818730   -0.549009
     50          1           0       -1.887010    6.465644   -1.313504
     51          1           0       -0.945756    4.997493   -3.041588
     52          1           0       -2.577082    5.586144   -3.313924
     53          7           0       -3.270459    4.202905    0.391717
     54          6           0       -4.385232    3.829432    1.237411
     55          6           0       -5.587794    3.193010    0.572195
     56          8           0       -6.746062    3.450462    0.915753
     57          1           0       -2.394895    3.711761    0.515670
     58          1           0       -4.752775    4.752546    1.687493
     59          1           0       -4.057953    3.146090    2.031471
     60          7           0       -5.322437    2.366310   -0.434360
     61          6           0       -6.309034    1.491318   -1.030696
     62          6           0       -6.731657    0.320022   -0.153282
     63          8           0       -7.657362   -0.431592   -0.453696
     64          6           0       -5.820049    1.081347   -2.415837
     65          6           0       -4.894343   -0.121091   -2.537542
     66          7           0       -5.342299   -1.093743   -3.327342
     67          8           0       -3.831650   -0.291044   -1.927051
     68          1           0       -4.379802    2.359405   -0.804889
     69          1           0       -7.159996    2.111778   -1.292025
     70          1           0       -5.381478    1.909380   -2.968572
     71          1           0       -6.682365    0.813355   -3.038727
     72          1           0       -6.268116   -1.129739   -3.734486
     73          1           0       -4.715111   -1.822794   -3.613034
     74          7           0       -6.061987    0.148578    0.997608
     75          6           0       -6.367034   -0.874043    1.967604
     76          6           0       -5.547990   -2.149801    1.824748
     77          8           0       -5.877754   -3.154633    2.460570
     78          1           0       -5.173367    0.605818    1.143850
     79          1           0       -7.410148   -1.177964    1.974413
     80          1           0       -6.268447   -0.519829    2.994207
     81          7           0       -4.511315   -2.101355    0.986680
     82          6           0       -3.400544   -3.024677    1.110628
     83          6           0       -2.060015   -2.295806    1.175663
     84          8           0       -1.840074   -1.281329    0.521246
     85          6           0       -3.380566   -3.893984   -0.146673
     86          6           0       -4.610421   -4.711863   -0.432906
     87          6           0       -4.649508   -6.113818   -0.396918
     88          6           0       -5.670669   -4.006772   -1.000727
     89          6           0       -5.749008   -6.794805   -0.935674
     90          6           0       -6.819842   -4.680086   -1.419593
     91          6           0       -6.843755   -6.083500   -1.473979
     92          8           0       -7.902183   -6.807387   -1.938757
     93          1           0       -4.259071   -1.236591    0.537061
     94          1           0       -3.478991   -3.566482    2.051157
     95          1           0       -2.620184   -4.654675    0.055239
     96          1           0       -3.160214   -3.290916   -1.022318
     97          1           0       -3.839725   -6.661592    0.075412
     98          1           0       -5.588671   -2.953530   -1.245181
     99          1           0       -5.783230   -7.869939   -1.017008
    100          1           0       -7.602217   -4.010497   -1.743229
    101          1           0       -8.721503   -6.316869   -2.051043
    102          7           0       -1.114181   -3.013882    1.788660
    103          6           0        0.324323   -2.873090    1.658339
    104          6           0        0.972728   -3.825211    0.658371
    105          8           0        1.003055   -5.038758    0.806983
    106          6           0        0.974148   -2.948437    3.030072
    107          6           0        0.458327   -1.876955    3.997261
    108          6           0        2.493200   -2.983165    3.102000
    109          6           0        0.614237   -2.377989    5.430145
    110          1           0       -1.459505   -3.780755    2.349425
    111          1           0        0.539566   -1.851455    1.352672
    112          1           0        0.620823   -3.871684    3.492432
    113          1           0       -0.587071   -1.565011    3.885307
    114          1           0        1.160505   -1.060953    3.887321
    115          1           0        2.874514   -3.794658    2.488666
    116          1           0        2.784947   -2.032345    2.646560
    117          1           0        2.865069   -3.211864    4.099803
    118          1           0        0.092092   -1.665355    6.065690
    119          1           0        0.078210   -3.321531    5.503651
    120          1           0        1.649548   -2.451083    5.757850
    121          7           0        1.649224   -3.289734   -0.354258
    122          6           0        2.556367   -3.982341   -1.241945
    123          6           0        3.886787   -4.050320   -0.519546
    124          8           0        4.197651   -3.249462    0.356233
    125          6           0        2.664610   -3.322274   -2.619768
    126          8           0        3.629950   -2.295716   -2.744248
    127          1           0        1.588302   -2.289980   -0.486852
    128          1           0        2.264175   -5.016694   -1.440280
    129          1           0        1.725568   -3.036435   -3.083015
    130          1           0        2.957432   -4.144442   -3.269917
    131          1           0        3.448067   -1.753292   -3.518260
    132          7           0        4.771309   -4.887826   -1.074528
    133          6           0        6.167922   -4.960732   -0.697229
    134          6           0        6.903802   -3.634230   -0.865078
    135          8           0        7.674357   -3.264160    0.008530
    136          6           0        6.761320   -6.009430   -1.642910
    137          1           0        4.433532   -5.464542   -1.825665
    138          1           0        6.196219   -5.371557    0.310006
    139          1           0        6.517281   -5.755588   -2.672768
    140          1           0        7.842400   -6.045117   -1.533851
    141          1           0        6.283354   -6.953307   -1.369332
    142          7           0        6.666880   -2.896155   -1.954672
    143          6           0        7.330432   -1.633310   -2.180109
    144          6           0        6.963030   -0.463699   -1.280318
    145          8           0        7.743834    0.424938   -0.951120
    146          6           0        7.329924   -1.263583   -3.657811
    147          1           0        6.132878   -3.300612   -2.710553
    148          1           0        8.383995   -1.761025   -1.934766
    149          1           0        7.655816   -0.243510   -3.854141
    150          1           0        8.055634   -1.884867   -4.189836
    151          1           0        6.311273   -1.378564   -4.041646
    152          7           0        5.691668   -0.433700   -0.892325
    153          6           0        5.150668    0.454703    0.117852
    154          6           0        5.764480    0.134849    1.478634
    155          8           0        6.178705    1.107888    2.096789
    156          6           0        3.630517    0.352082    0.120986
    157          6           0        3.026793    0.870402   -1.174916
    158          6           0        1.515302    0.729456   -1.129875
    159          8           0        1.010256   -0.411720   -1.019208
    160          8           0        0.767262    1.714829   -1.293508
    161          1           0        5.050954   -1.130170   -1.260856
    162          1           0        5.342242    1.500246   -0.132423
    163          1           0        3.157086    0.860072    0.964971
    164          1           0        3.243295   -0.642366    0.348653
    165          1           0        3.361810    0.273894   -2.016368
    166          1           0        3.301525    1.909835   -1.397852
    167          7           0        5.944025   -1.147427    1.812746
    168          6           0        6.647922   -1.673007    2.959609
    169          1           0        7.720408   -1.654642    2.766712
    170          1           0        6.426195   -1.062115    3.834235
    171          1           0        6.330497   -2.699232    3.143075
    172          1           0        5.509155   -1.813777    1.190600
    173         20           0       -1.441322    0.470493   -1.349908
    174          8           0       -1.077347    0.699848   -3.923761
    175          1           0       -1.014647    0.153664   -4.701097
    176          1           0       -1.486323    1.508791   -4.240066
 ---------------------------------------------------------------------
 Rotational constants (GHZ):           0.0229100           0.0156003           0.0119835
 Standard basis: SVP (5D, 7F)
 There are  1809 symmetry adapted cartesian basis functions of A   symmetry.
 There are  1717 symmetry adapted basis functions of A   symmetry.
  1717 basis functions,  2922 primitive gaussians,  1809 cartesian basis functions
   358 alpha electrons      358 beta electrons
       nuclear repulsion energy     21741.9769847886 Hartrees.
 NAtoms=  176 NActive=  176 NUniq=  176 SFac= 1.00D+00 NAtFMM=   60 NAOKFM=T Big=T
 Integral buffers will be    131072 words long.
 Raffenetti 2 integral format.
 Two-electron integral symmetry is turned on.
 One-electron integrals computed using PRISM.
 NBasis=  1717 RedAO= T EigKep=  2.77D-04  NBF=  1717
 NBsUse=  1717 1.00D-06 EigRej= -1.00D+00 NBFU=  1717
 ExpMin= 1.98D-02 ExpMax= 3.51D+04 ExpMxC= 5.28D+03 IAcc=3 IRadAn=         5 AccDes= 0.00D+00
 Harris functional with IExCor=  402 and IRadAn=       5 diagonalized for initial guess.
 HarFok:  IExCor=  402 AccDes= 0.00D+00 IRadAn=         5 IDoV= 1 UseB2=F ITyADJ=14
 ICtDFT=  3500011 ScaDFX=  1.000000  1.000000  1.000000  1.000000
 FoFCou: FMM=F IPFlag=           0 FMFlag=      100000 FMFlg1=        2001
         NFxFlg=           0 DoJE=T BraDBF=F KetDBF=T FulRan=T
         wScrn=  0.000000 ICntrl=       500 IOpCl=  0 I1Cent=   200000004 NGrid=           0
         NMat0=    1 NMatS0=      1 NMatT0=    0 NMatD0=    1 NMtDS0=    0 NMtDT0=    0
 Petite list used in FoFCou.
 Requested convergence on RMS density matrix=1.00D-08 within 128 cycles.
 Requested convergence on MAX density matrix=1.00D-06.
 Requested convergence on             energy=1.00D-06.
 No special actions if energy rises.
 EnCoef did     2 forward-backward iterations
 EnCoef did     2 forward-backward iterations
 EnCoef did     2 forward-backward iterations
 SCF Done:  E(RB3LYP) =  -5333.62697935     A.U. after   20 cycles
            NFock= 20  Conv=0.41D-08     -V/T= 2.0082
 SCF density gives NOpUse=  1 NOpAll=  1.
 Hyperfine terms turned off by default for NAtoms > 100.

 **********************************************************************

            Population analysis using the SCF density.

 **********************************************************************

 Orbital symmetries:
 BldTbl:  Degeneracy threshold= 1.00D-02
       Occupied  (A) (A) (A) (A) (A) (A) (A) (A) (A) (A) (A) (A)
                 (A) (A) (A) (A) (A) (A) (A) (A) (A) (A) (A) (A)
                 (A) (A) (A) (A) (A) (A) (A) (A) (A) (A) (A) (A)
                 (A) (A) (A) (A) (A) (A) (A) (A) (A) (A) (A) (A)
                 (A) (A) (A) (A) (A) (A) (A) (A) (A) (A) (A) (A)
                 (A) (A) (A) (A) (A) (A) (A) (A) (A) (A) (A) (A)
                 (A) (A) (A) (A) (A) (A) (A) (A) (A) (A) (A) (A)
                 (A) (A) (A) (A) (A) (A) (A) (A) (A) (A) (A) (A)
                 (A) (A) (A) (A) (A) (A) (A) (A) (A) (A) (A) (A)
                 (A) (A) (A) (A) (A) (A) (A) (A) (A) (A) (A) (A)
                 (A) (A) (A) (A) (A) (A) (A) (A) (A) (A) (A) (A)
                 (A) (A) (A) (A) (A) (A) (A) (A) (A) (A) (A) (A)
                 (A) (A) (A) (A) (A) (A) (A) (A) (A) (A) (A) (A)
                 (A) (A) (A) (A) (A) (A) (A) (A) (A) (A) (A) (A)
                 (A) (A) (A) (A) (A) (A) (A) (A) (A) (A) (A) (A)
                 (A) (A) (A) (A) (A) (A) (A) (A) (A) (A) (A) (A)
                 (A) (A) (A) (A) (A) (A) (A) (A) (A) (A) (A) (A)
                 (A) (A) (A) (A) (A) (A) (A) (A) (A) (A) (A) (A)
                 (A) (A) (A) (A) (A) (A) (A) (A) (A) (A) (A) (A)
                 (A) (A) (A) (A) (A) (A) (A) (A) (A) (A) (A) (A)
                 (A) (A) (A) (A) (A) (A) (A) (A) (A) (A) (A) (A)
                 (A) (A) (A) (A) (A) (A) (A) (A) (A) (A) (A) (A)
                 (A) (A) (A) (A) (A) (A) (A) (A) (A) (A) (A) (A)
                 (A) (A) (A) (A) (A) (A) (A) (A) (A) (A) (A) (A)
                 (A) (A) (A) (A) (A) (A) (A) (A) (A) (A) (A) (A)
                 (A) (A) (A) (A) (A) (A) (A) (A) (A) (A) (A) (A)
                 (A) (A) (A) (A) (A) (A) (A) (A) (A) (A) (A) (A)
                 (A) (A) (A) (A) (A) (A) (A) (A) (A) (A) (A) (A)
                 (A) (A) (A) (A) (A) (A) (A) (A) (A) (A) (A) (A)
                 (A) (A) (A) (A) (A) (A) (A) (A) (A) (A)
       Virtual   (A) (A) (A) (A) (A) (A) (A) (A) (A) (A) (A) (A)
                 (A) (A) (A) (A) (A) (A) (A) (A) (A) (A) (A) (A)
                 (A) (A) (A) (A) (A) (A) (A) (A) (A) (A) (A) (A)
                 (A) (A) (A) (A) (A) (A) (A) (A) (A) (A) (A) (A)
                 (A) (A) (A) (A) (A) (A) (A) (A) (A) (A) (A) (A)
                 (A) (A) (A) (A) (A) (A) (A) (A) (A) (A) (A) (A)
                 (A) (A) (A) (A) (A) (A) (A) (A) (A) (A) (A) (A)
                 (A) (A) (A) (A) (A) (A) (A) (A) (A) (A) (A) (A)
                 (A) (A) (A) (A) (A) (A) (A) (A) (A) (A) (A) (A)
                 (A) (A) (A) (A) (A) (A) (A) (A) (A) (A) (A) (A)
                 (A) (A) (A) (A) (A) (A) (A) (A) (A) (A) (A) (A)
                 (A) (A) (A) (A) (A) (A) (A) (A) (A) (A) (A) (A)
                 (A) (A) (A) (A) (A) (A) (A) (A) (A) (A) (A) (A)
                 (A) (A) (A) (A) (A) (A) (A) (A) (A) (A) (A) (A)
                 (A) (A) (A) (A) (A) (A) (A) (A) (A) (A) (A) (A)
                 (A) (A) (A) (A) (A) (A) (A) (A) (A) (A) (A) (A)
                 (A) (A) (A) (A) (A) (A) (A) (A) (A) (A) (A) (A)
                 (A) (A) (A) (A) (A) (A) (A) (A) (A) (A) (A) (A)
                 (A) (A) (A) (A) (A) (A) (A) (A) (A) (A) (A) (A)
                 (A) (A) (A) (A) (A) (A) (A) (A) (A) (A) (A) (A)
                 (A) (A) (A) (A) (A) (A) (A) (A) (A) (A) (A) (A)
                 (A) (A) (A) (A) (A) (A) (A) (A) (A) (A) (A) (A)
                 (A) (A) (A) (A) (A) (A) (A) (A) (A) (A) (A) (A)
                 (A) (A) (A) (A) (A) (A) (A) (A) (A) (A) (A) (A)
                 (A) (A) (A) (A) (A) (A) (A) (A) (A) (A) (A) (A)
                 (A) (A) (A) (A) (A) (A) (A) (A) (A) (A) (A) (A)
                 (A) (A) (A) (A) (A) (A) (A) (A) (A) (A) (A) (A)
                 (A) (A) (A) (A) (A) (A) (A) (A) (A) (A) (A) (A)
                 (A) (A) (A) (A) (A) (A) (A) (A) (A) (A) (A) (A)
                 (A) (A) (A) (A) (A) (A) (A) (A) (A) (A) (A) (A)
                 (A) (A) (A) (A) (A) (A) (A) (A) (A) (A) (A) (A)
                 (A) (A) (A) (A) (A) (A) (A) (A) (A) (A) (A) (A)
                 (A) (A) (A) (A) (A) (A) (A) (A) (A) (A) (A) (A)
                 (A) (A) (A) (A) (A) (A) (A) (A) (A) (A) (A) (A)
                 (A) (A) (A) (A) (A) (A) (A) (A) (A) (A) (A) (A)
                 (A) (A) (A) (A) (A) (A) (A) (A) (A) (A) (A) (A)
                 (A) (A) (A) (A) (A) (A) (A) (A) (A) (A) (A) (A)
                 (A) (A) (A) (A) (A) (A) (A) (A) (A) (A) (A) (A)
                 (A) (A) (A) (A) (A) (A) (A) (A) (A) (A) (A) (A)
                 (A) (A) (A) (A) (A) (A) (A) (A) (A) (A) (A) (A)
                 (A) (A) (A) (A) (A) (A) (A) (A) (A) (A) (A) (A)
                 (A) (A) (A) (A) (A) (A) (A) (A) (A) (A) (A) (A)
                 (A) (A) (A) (A) (A) (A) (A) (A) (A) (A) (A) (A)
                 (A) (A) (A) (A) (A) (A) (A) (A) (A) (A) (A) (A)
                 (A) (A) (A) (A) (A) (A) (A) (A) (A) (A) (A) (A)
                 (A) (A) (A) (A) (A) (A) (A) (A) (A) (A) (A) (A)
                 (A) (A) (A) (A) (A) (A) (A) (A) (A) (A) (A) (A)
                 (A) (A) (A) (A) (A) (A) (A) (A) (A) (A) (A) (A)
                 (A) (A) (A) (A) (A) (A) (A) (A) (A) (A) (A) (A)
                 (A) (A) (A) (A) (A) (A) (A) (A) (A) (A) (A) (A)
                 (A) (A) (A) (A) (A) (A) (A) (A) (A) (A) (A) (A)
                 (A) (A) (A) (A) (A) (A) (A) (A) (A) (A) (A) (A)
                 (A) (A) (A) (A) (A) (A) (A) (A) (A) (A) (A) (A)
                 (A) (A) (A) (A) (A) (A) (A) (A) (A) (A) (A) (A)
                 (A) (A) (A) (A) (A) (A) (A) (A) (A) (A) (A) (A)
                 (A) (A) (A) (A) (A) (A) (A) (A) (A) (A) (A) (A)
                 (A) (A) (A) (A) (A) (A) (A) (A) (A) (A) (A) (A)
                 (A) (A) (A) (A) (A) (A) (A) (A) (A) (A) (A) (A)
                 (A) (A) (A) (A) (A) (A) (A) (A) (A) (A) (A) (A)
                 (A) (A) (A) (A) (A) (A) (A) (A) (A) (A) (A) (A)
                 (A) (A) (A) (A) (A) (A) (A) (A) (A) (A) (A) (A)
                 (A) (A) (A) (A) (A) (A) (A) (A) (A) (A) (A) (A)
                 (A) (A) (A) (A) (A) (A) (A) (A) (A) (A) (A) (A)
                 (A) (A) (A) (A) (A) (A) (A) (A) (A) (A) (A) (A)
                 (A) (A) (A) (A) (A) (A) (A) (A) (A) (A) (A) (A)
                 (A) (A) (A) (A) (A) (A) (A) (A) (A) (A) (A) (A)
                 (A) (A) (A) (A) (A) (A) (A) (A) (A) (A) (A) (A)
                 (A) (A) (A) (A) (A) (A) (A) (A) (A) (A) (A) (A)
                 (A) (A) (A) (A) (A) (A) (A) (A) (A) (A) (A) (A)
                 (A) (A) (A) (A) (A) (A) (A) (A) (A) (A) (A) (A)
                 (A) (A) (A) (A) (A) (A) (A) (A) (A) (A) (A) (A)
                 (A) (A) (A) (A) (A) (A) (A) (A) (A) (A) (A) (A)
                 (A) (A) (A) (A) (A) (A) (A) (A) (A) (A) (A) (A)
                 (A) (A) (A) (A) (A) (A) (A) (A) (A) (A) (A) (A)
                 (A) (A) (A) (A) (A) (A) (A) (A) (A) (A) (A) (A)
                 (A) (A) (A) (A) (A) (A) (A) (A) (A) (A) (A) (A)
                 (A) (A) (A) (A) (A) (A) (A) (A) (A) (A) (A) (A)
                 (A) (A) (A) (A) (A) (A) (A) (A) (A) (A) (A) (A)
                 (A) (A) (A) (A) (A) (A) (A) (A) (A) (A) (A) (A)
                 (A) (A) (A) (A) (A) (A) (A) (A) (A) (A) (A) (A)
                 (A) (A) (A) (A) (A) (A) (A) (A) (A) (A) (A) (A)
                 (A) (A) (A) (A) (A) (A) (A) (A) (A) (A) (A) (A)
                 (A) (A) (A) (A) (A) (A) (A) (A) (A) (A) (A) (A)
                 (A) (A) (A) (A) (A) (A) (A) (A) (A) (A) (A) (A)
                 (A) (A) (A) (A) (A) (A) (A) (A) (A) (A) (A) (A)
                 (A) (A) (A) (A) (A) (A) (A) (A) (A) (A) (A) (A)
                 (A) (A) (A) (A) (A) (A) (A) (A) (A) (A) (A) (A)
                 (A) (A) (A) (A) (A) (A) (A) (A) (A) (A) (A) (A)
                 (A) (A) (A) (A) (A) (A) (A) (A) (A) (A) (A) (A)
                 (A) (A) (A) (A) (A) (A) (A) (A) (A) (A) (A) (A)
                 (A) (A) (A) (A) (A) (A) (A) (A) (A) (A) (A) (A)
                 (A) (A) (A) (A) (A) (A) (A) (A) (A) (A) (A) (A)
                 (A) (A) (A) (A) (A) (A) (A) (A) (A) (A) (A) (A)
                 (A) (A) (A) (A) (A) (A) (A) (A) (A) (A) (A) (A)
                 (A) (A) (A) (A) (A) (A) (A) (A) (A) (A) (A) (A)
                 (A) (A) (A) (A) (A) (A) (A) (A) (A) (A) (A) (A)
                 (A) (A) (A) (A) (A) (A) (A) (A) (A) (A) (A) (A)
                 (A) (A) (A) (A) (A) (A) (A) (A) (A) (A) (A) (A)
                 (A) (A) (A) (A) (A) (A) (A) (A) (A) (A) (A) (A)
                 (A) (A) (A) (A) (A) (A) (A) (A) (A) (A) (A) (A)
                 (A) (A) (A) (A) (A) (A) (A) (A) (A) (A) (A) (A)
                 (A) (A) (A) (A) (A) (A) (A) (A) (A) (A) (A) (A)
                 (A) (A) (A) (A) (A) (A) (A) (A) (A) (A) (A) (A)
                 (A) (A) (A) (A) (A) (A) (A) (A) (A) (A) (A) (A)
                 (A) (A) (A) (A) (A) (A) (A) (A) (A) (A) (A) (A)
                 (A) (A) (A) (A) (A) (A) (A) (A) (A) (A) (A) (A)
                 (A) (A) (A) (A) (A) (A) (A) (A) (A) (A) (A) (A)
                 (A) (A) (A) (A) (A) (A) (A) (A) (A) (A) (A) (A)
                 (A) (A) (A) (A) (A) (A) (A) (A) (A) (A) (A) (A)
                 (A) (A) (A) (A) (A) (A) (A) (A) (A) (A) (A) (A)
                 (A) (A) (A) (A) (A) (A) (A) (A) (A) (A) (A) (A)
                 (A) (A) (A) (A) (A) (A) (A) (A) (A) (A) (A) (A)
                 (A) (A) (A) (A) (A) (A) (A) (A) (A) (A) (A) (A)
                 (A) (A) (A)
 The electronic state is 1-A.
 Alpha  occ. eigenvalues -- -145.34982 -19.19127 -19.14897 -19.13580 -19.13186
 Alpha  occ. eigenvalues --  -19.12603 -19.12227 -19.11515 -19.09791 -19.09609
 Alpha  occ. eigenvalues --  -19.08810 -19.07949 -19.07498 -19.06692 -19.06540
 Alpha  occ. eigenvalues --  -19.06454 -19.06413 -19.06105 -19.05227 -19.04705
 Alpha  occ. eigenvalues --  -19.04502 -19.04325 -19.04032 -19.03545 -15.40816
 Alpha  occ. eigenvalues --  -14.59145 -14.39161 -14.38201 -14.37244 -14.37092
 Alpha  occ. eigenvalues --  -14.35250 -14.35127 -14.33726 -14.32568 -14.32527
 Alpha  occ. eigenvalues --  -14.32404 -14.31804 -14.31738 -14.30399 -14.29155
 Alpha  occ. eigenvalues --  -12.54408 -12.54388 -12.54370 -10.34430 -10.31603
 Alpha  occ. eigenvalues --  -10.31123 -10.30392 -10.29998 -10.28647 -10.28481
 Alpha  occ. eigenvalues --  -10.28354 -10.27371 -10.26667 -10.26517 -10.26411
 Alpha  occ. eigenvalues --  -10.26255 -10.25538 -10.25279 -10.25201 -10.25116
 Alpha  occ. eigenvalues --  -10.25011 -10.24998 -10.24459 -10.23860 -10.23486
 Alpha  occ. eigenvalues --  -10.23411 -10.23189 -10.23024 -10.22803 -10.22780
 Alpha  occ. eigenvalues --  -10.22567 -10.22512 -10.22160 -10.21403 -10.21342
 Alpha  occ. eigenvalues --  -10.20688 -10.19977 -10.19785 -10.19709 -10.19252
 Alpha  occ. eigenvalues --  -10.18869 -10.18691 -10.18623 -10.18612 -10.18355
 Alpha  occ. eigenvalues --  -10.18067 -10.17405 -10.17384 -10.17347 -10.17249
 Alpha  occ. eigenvalues --  -10.17161 -10.17095 -10.16956 -10.16942 -10.16757
 Alpha  occ. eigenvalues --  -10.16340 -10.14667  -1.77879  -1.14231  -1.07188
 Alpha  occ. eigenvalues --   -1.06230  -1.06048  -1.05616  -1.05475  -1.04922
 Alpha  occ. eigenvalues --   -1.04566  -1.04481  -1.03272  -1.03100  -1.02900
 Alpha  occ. eigenvalues --   -1.02802  -1.00680  -0.99965  -0.99858  -0.99757
 Alpha  occ. eigenvalues --   -0.99656  -0.99077  -0.99019  -0.98737  -0.98544
 Alpha  occ. eigenvalues --   -0.97419  -0.96690  -0.96532  -0.94717  -0.94008
 Alpha  occ. eigenvalues --   -0.92886  -0.92472  -0.92055  -0.92029  -0.90567
 Alpha  occ. eigenvalues --   -0.90459  -0.90137  -0.89724  -0.89112  -0.88740
 Alpha  occ. eigenvalues --   -0.88736  -0.88529  -0.88290  -0.87377  -0.85672
 Alpha  occ. eigenvalues --   -0.83473  -0.82826  -0.81829  -0.80998  -0.80304
 Alpha  occ. eigenvalues --   -0.79001  -0.78340  -0.77815  -0.77095  -0.76717
 Alpha  occ. eigenvalues --   -0.75194  -0.74661  -0.73903  -0.72873  -0.72760
 Alpha  occ. eigenvalues --   -0.72559  -0.72311  -0.72169  -0.70683  -0.70578
 Alpha  occ. eigenvalues --   -0.70212  -0.69597  -0.68867  -0.68580  -0.67959
 Alpha  occ. eigenvalues --   -0.67424  -0.66513  -0.65826  -0.64602  -0.64256
 Alpha  occ. eigenvalues --   -0.63876  -0.63643  -0.62410  -0.62327  -0.62005
 Alpha  occ. eigenvalues --   -0.61447  -0.61003  -0.60702  -0.60514  -0.60189
 Alpha  occ. eigenvalues --   -0.59570  -0.59356  -0.58709  -0.58269  -0.57832
 Alpha  occ. eigenvalues --   -0.57543  -0.56572  -0.56553  -0.56412  -0.56362
 Alpha  occ. eigenvalues --   -0.55964  -0.55617  -0.55280  -0.55270  -0.55206
 Alpha  occ. eigenvalues --   -0.54944  -0.54276  -0.53895  -0.53153  -0.52975
 Alpha  occ. eigenvalues --   -0.52879  -0.52713  -0.52534  -0.52302  -0.51955
 Alpha  occ. eigenvalues --   -0.51262  -0.50894  -0.50745  -0.50547  -0.49878
 Alpha  occ. eigenvalues --   -0.49681  -0.49505  -0.49196  -0.48676  -0.48402
 Alpha  occ. eigenvalues --   -0.48235  -0.48041  -0.47868  -0.47480  -0.47456
 Alpha  occ. eigenvalues --   -0.47436  -0.47366  -0.46945  -0.46714  -0.46554
 Alpha  occ. eigenvalues --   -0.46342  -0.45965  -0.45631  -0.45524  -0.45406
 Alpha  occ. eigenvalues --   -0.45181  -0.45013  -0.44771  -0.44717  -0.44597
 Alpha  occ. eigenvalues --   -0.44458  -0.44321  -0.43979  -0.43761  -0.43591
 Alpha  occ. eigenvalues --   -0.43561  -0.43290  -0.43233  -0.43157  -0.42845
 Alpha  occ. eigenvalues --   -0.42734  -0.42348  -0.42158  -0.42114  -0.41994
 Alpha  occ. eigenvalues --   -0.41858  -0.41777  -0.41682  -0.41576  -0.41231
 Alpha  occ. eigenvalues --   -0.41133  -0.41092  -0.41006  -0.40944  -0.40890
 Alpha  occ. eigenvalues --   -0.40775  -0.40707  -0.40296  -0.40226  -0.40033
 Alpha  occ. eigenvalues --   -0.39935  -0.39812  -0.39713  -0.39503  -0.39477
 Alpha  occ. eigenvalues --   -0.39163  -0.39068  -0.38899  -0.38832  -0.38784
 Alpha  occ. eigenvalues --   -0.38694  -0.38670  -0.38326  -0.38203  -0.38076
 Alpha  occ. eigenvalues --   -0.38015  -0.37947  -0.37819  -0.37665  -0.37510
 Alpha  occ. eigenvalues --   -0.37255  -0.37111  -0.36992  -0.36726  -0.36618
 Alpha  occ. eigenvalues --   -0.36430  -0.36262  -0.36019  -0.35816  -0.35706
 Alpha  occ. eigenvalues --   -0.35504  -0.35333  -0.34995  -0.34893  -0.34642
 Alpha  occ. eigenvalues --   -0.34396  -0.34278  -0.33947  -0.33650  -0.33571
 Alpha  occ. eigenvalues --   -0.33362  -0.33081  -0.32848  -0.32753  -0.32437
 Alpha  occ. eigenvalues --   -0.32425  -0.32261  -0.31996  -0.31967  -0.31760
 Alpha  occ. eigenvalues --   -0.31547  -0.31523  -0.31303  -0.30725  -0.30203
 Alpha  occ. eigenvalues --   -0.29813  -0.29373  -0.29233  -0.29003  -0.28256
 Alpha  occ. eigenvalues --   -0.28019  -0.27125  -0.26859  -0.26753  -0.26491
 Alpha  occ. eigenvalues --   -0.26161  -0.25619  -0.25350  -0.25184  -0.25147
 Alpha  occ. eigenvalues --   -0.24564  -0.24355  -0.24197  -0.23970  -0.23823
 Alpha  occ. eigenvalues --   -0.23527  -0.23271  -0.22911  -0.22798  -0.22655
 Alpha  occ. eigenvalues --   -0.22646  -0.21802  -0.21790  -0.21512  -0.21425
 Alpha  occ. eigenvalues --   -0.21376  -0.21026  -0.20845  -0.20731  -0.20291
 Alpha  occ. eigenvalues --   -0.19668  -0.19433  -0.18612
 Alpha virt. eigenvalues --   -0.10689  -0.04608  -0.04289  -0.02928  -0.02052
 Alpha virt. eigenvalues --   -0.00997  -0.00832  -0.00473  -0.00390  -0.00068
 Alpha virt. eigenvalues --    0.00173   0.00735   0.01424   0.01715   0.01985
 Alpha virt. eigenvalues --    0.02075   0.03212   0.03751   0.03857   0.03996
 Alpha virt. eigenvalues --    0.04139   0.04257   0.04367   0.04502   0.04757
 Alpha virt. eigenvalues --    0.04887   0.05118   0.05475   0.05539   0.05993
 Alpha virt. eigenvalues --    0.06091   0.06207   0.06315   0.06372   0.06648
 Alpha virt. eigenvalues --    0.07111   0.07205   0.07272   0.07389   0.07713
 Alpha virt. eigenvalues --    0.08045   0.08191   0.08434   0.08509   0.08612
 Alpha virt. eigenvalues --    0.08827   0.09116   0.09458   0.09572   0.09733
 Alpha virt. eigenvalues --    0.09995   0.10139   0.10512   0.10656   0.10982
 Alpha virt. eigenvalues --    0.11229   0.11435   0.11507   0.11628   0.11883
 Alpha virt. eigenvalues --    0.12094   0.12277   0.12657   0.12734   0.12844
 Alpha virt. eigenvalues --    0.13031   0.13136   0.13421   0.13643   0.13703
 Alpha virt. eigenvalues --    0.13797   0.13917   0.14109   0.14212   0.14501
 Alpha virt. eigenvalues --    0.14600   0.14685   0.14786   0.14865   0.15095
 Alpha virt. eigenvalues --    0.15220   0.15391   0.15543   0.15995   0.16184
 Alpha virt. eigenvalues --    0.16258   0.16585   0.16754   0.16804   0.16896
 Alpha virt. eigenvalues --    0.17144   0.17342   0.17462   0.17620   0.17752
 Alpha virt. eigenvalues --    0.17811   0.18338   0.18460   0.18542   0.18807
 Alpha virt. eigenvalues --    0.19145   0.19447   0.19604   0.19799   0.20042
 Alpha virt. eigenvalues --    0.20113   0.20135   0.20236   0.20459   0.20727
 Alpha virt. eigenvalues --    0.20890   0.21095   0.21386   0.21552   0.21974
 Alpha virt. eigenvalues --    0.22033   0.22194   0.22439   0.22541   0.22711
 Alpha virt. eigenvalues --    0.22984   0.23199   0.23404   0.23758   0.24013
 Alpha virt. eigenvalues --    0.24237   0.24316   0.24441   0.24865   0.24980
 Alpha virt. eigenvalues --    0.25138   0.25343   0.25551   0.25796   0.25896
 Alpha virt. eigenvalues --    0.25961   0.26216   0.26651   0.26672   0.26979
 Alpha virt. eigenvalues --    0.27077   0.27282   0.27510   0.27828   0.27983
 Alpha virt. eigenvalues --    0.28148   0.28366   0.28482   0.28574   0.28867
 Alpha virt. eigenvalues --    0.28981   0.29575   0.29759   0.29973   0.30413
 Alpha virt. eigenvalues --    0.30484   0.30674   0.31003   0.31093   0.31165
 Alpha virt. eigenvalues --    0.31556   0.32023   0.32252   0.32445   0.32591
 Alpha virt. eigenvalues --    0.33021   0.33048   0.33348   0.33494   0.33676
 Alpha virt. eigenvalues --    0.33863   0.34007   0.34252   0.34618   0.34911
 Alpha virt. eigenvalues --    0.35415   0.35584   0.36000   0.36303   0.36478
 Alpha virt. eigenvalues --    0.36750   0.37166   0.37427   0.37589   0.38154
 Alpha virt. eigenvalues --    0.38342   0.38729   0.39079   0.39191   0.39363
 Alpha virt. eigenvalues --    0.39554   0.39998   0.40094   0.40349   0.40581
 Alpha virt. eigenvalues --    0.41165   0.41359   0.41554   0.41776   0.42077
 Alpha virt. eigenvalues --    0.42400   0.42606   0.42845   0.43084   0.43200
 Alpha virt. eigenvalues --    0.43676   0.43768   0.44108   0.44263   0.44762
 Alpha virt. eigenvalues --    0.44922   0.45075   0.45204   0.45337   0.45427
 Alpha virt. eigenvalues --    0.45540   0.45660   0.45788   0.45961   0.46243
 Alpha virt. eigenvalues --    0.46272   0.46664   0.46695   0.47079   0.47179
 Alpha virt. eigenvalues --    0.47262   0.47410   0.47712   0.47909   0.48059
 Alpha virt. eigenvalues --    0.48298   0.48756   0.48968   0.49124   0.49278
 Alpha virt. eigenvalues --    0.49482   0.49598   0.49689   0.49979   0.50002
 Alpha virt. eigenvalues --    0.50280   0.50470   0.50605   0.50927   0.50975
 Alpha virt. eigenvalues --    0.51472   0.51592   0.51635   0.51952   0.52263
 Alpha virt. eigenvalues --    0.52543   0.52560   0.52703   0.53035   0.53149
 Alpha virt. eigenvalues --    0.53265   0.53389   0.53708   0.53934   0.54094
 Alpha virt. eigenvalues --    0.54260   0.54405   0.54546   0.55010   0.55042
 Alpha virt. eigenvalues --    0.55190   0.55448   0.55619   0.55697   0.55882
 Alpha virt. eigenvalues --    0.56150   0.56198   0.56454   0.56724   0.56784
 Alpha virt. eigenvalues --    0.57152   0.57386   0.57408   0.57601   0.57724
 Alpha virt. eigenvalues --    0.57744   0.57907   0.58102   0.58285   0.58350
 Alpha virt. eigenvalues --    0.58495   0.58779   0.58959   0.59213   0.59300
 Alpha virt. eigenvalues --    0.59394   0.59647   0.59796   0.60043   0.60076
 Alpha virt. eigenvalues --    0.60296   0.60400   0.60717   0.60901   0.61019
 Alpha virt. eigenvalues --    0.61048   0.61089   0.61310   0.61536   0.61847
 Alpha virt. eigenvalues --    0.61852   0.61961   0.62016   0.62130   0.62252
 Alpha virt. eigenvalues --    0.62444   0.62691   0.62748   0.62887   0.63011
 Alpha virt. eigenvalues --    0.63072   0.63304   0.63405   0.63461   0.63680
 Alpha virt. eigenvalues --    0.63741   0.64002   0.64060   0.64179   0.64296
 Alpha virt. eigenvalues --    0.64351   0.64476   0.64598   0.64755   0.64949
 Alpha virt. eigenvalues --    0.65072   0.65231   0.65338   0.65418   0.65572
 Alpha virt. eigenvalues --    0.65720   0.65843   0.65900   0.65978   0.66160
 Alpha virt. eigenvalues --    0.66268   0.66299   0.66382   0.66463   0.66554
 Alpha virt. eigenvalues --    0.66655   0.66847   0.66900   0.67139   0.67275
 Alpha virt. eigenvalues --    0.67335   0.67458   0.67572   0.67675   0.67721
 Alpha virt. eigenvalues --    0.67820   0.68035   0.68193   0.68250   0.68532
 Alpha virt. eigenvalues --    0.68549   0.68593   0.68910   0.68960   0.69038
 Alpha virt. eigenvalues --    0.69078   0.69274   0.69396   0.69486   0.69604
 Alpha virt. eigenvalues --    0.69668   0.69840   0.70019   0.70261   0.70453
 Alpha virt. eigenvalues --    0.70495   0.70568   0.70678   0.70804   0.70914
 Alpha virt. eigenvalues --    0.71028   0.71149   0.71180   0.71327   0.71667
 Alpha virt. eigenvalues --    0.71688   0.71909   0.71977   0.72156   0.72208
 Alpha virt. eigenvalues --    0.72632   0.72820   0.72859   0.72921   0.73152
 Alpha virt. eigenvalues --    0.73362   0.73600   0.73669   0.73925   0.74007
 Alpha virt. eigenvalues --    0.74466   0.74650   0.74780   0.74884   0.75171
 Alpha virt. eigenvalues --    0.75280   0.75561   0.75679   0.75786   0.76002
 Alpha virt. eigenvalues --    0.76172   0.76614   0.76778   0.76943   0.77127
 Alpha virt. eigenvalues --    0.77310   0.77489   0.77716   0.77921   0.78223
 Alpha virt. eigenvalues --    0.78400   0.78743   0.78855   0.78997   0.79213
 Alpha virt. eigenvalues --    0.79399   0.79639   0.79830   0.79943   0.80325
 Alpha virt. eigenvalues --    0.80924   0.81091   0.81287   0.81587   0.81773
 Alpha virt. eigenvalues --    0.81956   0.82094   0.82552   0.82577   0.82951
 Alpha virt. eigenvalues --    0.83233   0.83560   0.84095   0.84356   0.84590
 Alpha virt. eigenvalues --    0.84675   0.85455   0.85705   0.85741   0.86168
 Alpha virt. eigenvalues --    0.86289   0.86376   0.86764   0.86927   0.87038
 Alpha virt. eigenvalues --    0.87499   0.87903   0.88207   0.88477   0.88496
 Alpha virt. eigenvalues --    0.88904   0.89019   0.89325   0.89839   0.90005
 Alpha virt. eigenvalues --    0.90566   0.90698   0.90952   0.91371   0.91609
 Alpha virt. eigenvalues --    0.92048   0.92289   0.92538   0.92714   0.92873
 Alpha virt. eigenvalues --    0.93031   0.93532   0.93649   0.93900   0.94349
 Alpha virt. eigenvalues --    0.94881   0.95095   0.95181   0.95445   0.95913
 Alpha virt. eigenvalues --    0.96152   0.96288   0.96408   0.96702   0.97218
 Alpha virt. eigenvalues --    0.97402   0.97638   0.97936   0.98157   0.98289
 Alpha virt. eigenvalues --    0.98694   0.99023   0.99235   0.99804   1.00059
 Alpha virt. eigenvalues --    1.00177   1.00448   1.00675   1.00699   1.01092
 Alpha virt. eigenvalues --    1.01451   1.01606   1.01832   1.02328   1.02665
 Alpha virt. eigenvalues --    1.02708   1.03283   1.03752   1.03801   1.03969
 Alpha virt. eigenvalues --    1.04527   1.04769   1.05367   1.05571   1.05848
 Alpha virt. eigenvalues --    1.05998   1.06499   1.07042   1.07257   1.07533
 Alpha virt. eigenvalues --    1.07683   1.07955   1.08012   1.08372   1.08605
 Alpha virt. eigenvalues --    1.09054   1.09540   1.09551   1.10045   1.10355
 Alpha virt. eigenvalues --    1.10570   1.10658   1.10974   1.11251   1.11483
 Alpha virt. eigenvalues --    1.11806   1.12105   1.12447   1.12482   1.12685
 Alpha virt. eigenvalues --    1.13275   1.13453   1.14056   1.14187   1.14419
 Alpha virt. eigenvalues --    1.14500   1.14779   1.15167   1.15445   1.15773
 Alpha virt. eigenvalues --    1.16009   1.16261   1.16431   1.16469   1.16785
 Alpha virt. eigenvalues --    1.17340   1.17740   1.17829   1.18185   1.18541
 Alpha virt. eigenvalues --    1.18699   1.19492   1.19652   1.19845   1.20037
 Alpha virt. eigenvalues --    1.20230   1.20773   1.20890   1.21065   1.21399
 Alpha virt. eigenvalues --    1.21593   1.21805   1.22065   1.22412   1.22514
 Alpha virt. eigenvalues --    1.22551   1.23017   1.23120   1.23592   1.23953
 Alpha virt. eigenvalues --    1.24115   1.24487   1.24775   1.24909   1.25057
 Alpha virt. eigenvalues --    1.25484   1.25572   1.25665   1.25964   1.26232
 Alpha virt. eigenvalues --    1.26357   1.26484   1.27014   1.27137   1.27398
 Alpha virt. eigenvalues --    1.27504   1.28136   1.28257   1.28528   1.28784
 Alpha virt. eigenvalues --    1.29042   1.29177   1.29667   1.29950   1.30534
 Alpha virt. eigenvalues --    1.30738   1.31102   1.31224   1.31448   1.31711
 Alpha virt. eigenvalues --    1.32181   1.32462   1.32755   1.32959   1.33086
 Alpha virt. eigenvalues --    1.33391   1.33621   1.33763   1.34067   1.34242
 Alpha virt. eigenvalues --    1.34383   1.34699   1.34884   1.35115   1.35408
 Alpha virt. eigenvalues --    1.35604   1.35702   1.36135   1.36293   1.36825
 Alpha virt. eigenvalues --    1.37072   1.37422   1.37504   1.37665   1.38444
 Alpha virt. eigenvalues --    1.38871   1.39087   1.39181   1.39269   1.39552
 Alpha virt. eigenvalues --    1.39718   1.40233   1.40359   1.40564   1.40710
 Alpha virt. eigenvalues --    1.41246   1.41261   1.41802   1.42291   1.42732
 Alpha virt. eigenvalues --    1.42948   1.43223   1.43429   1.43646   1.43826
 Alpha virt. eigenvalues --    1.43896   1.44207   1.44320   1.44873   1.45372
 Alpha virt. eigenvalues --    1.45729   1.45997   1.46499   1.46666   1.46925
 Alpha virt. eigenvalues --    1.47174   1.47529   1.47561   1.47833   1.48044
 Alpha virt. eigenvalues --    1.48329   1.48522   1.48651   1.48867   1.49094
 Alpha virt. eigenvalues --    1.49537   1.49773   1.50185   1.50450   1.50848
 Alpha virt. eigenvalues --    1.51113   1.51322   1.51567   1.51909   1.52494
 Alpha virt. eigenvalues --    1.52878   1.53215   1.53520   1.53539   1.53759
 Alpha virt. eigenvalues --    1.53817   1.54317   1.54777   1.55086   1.55538
 Alpha virt. eigenvalues --    1.55655   1.56043   1.56251   1.57685   1.57902
 Alpha virt. eigenvalues --    1.58102   1.58445   1.58854   1.59381   1.59568
 Alpha virt. eigenvalues --    1.59971   1.60360   1.60613   1.60844   1.60888
 Alpha virt. eigenvalues --    1.61086   1.61516   1.61754   1.61832   1.62429
 Alpha virt. eigenvalues --    1.62715   1.62925   1.63187   1.63516   1.63724
 Alpha virt. eigenvalues --    1.64171   1.64238   1.64429   1.65072   1.65470
 Alpha virt. eigenvalues --    1.65766   1.65981   1.66246   1.66411   1.66472
 Alpha virt. eigenvalues --    1.67137   1.67816   1.68082   1.68145   1.68456
 Alpha virt. eigenvalues --    1.68697   1.69053   1.69276   1.69488   1.69714
 Alpha virt. eigenvalues --    1.70057   1.70367   1.70704   1.70877   1.70984
 Alpha virt. eigenvalues --    1.71190   1.71534   1.72185   1.72280   1.72440
 Alpha virt. eigenvalues --    1.72720   1.72766   1.72874   1.73068   1.73312
 Alpha virt. eigenvalues --    1.73469   1.73703   1.74041   1.74305   1.74335
 Alpha virt. eigenvalues --    1.74668   1.75004   1.75119   1.75379   1.75609
 Alpha virt. eigenvalues --    1.75738   1.75825   1.76160   1.76334   1.76518
 Alpha virt. eigenvalues --    1.76677   1.76882   1.77080   1.77385   1.77503
 Alpha virt. eigenvalues --    1.77802   1.77939   1.78131   1.78167   1.78290
 Alpha virt. eigenvalues --    1.78413   1.78497   1.78778   1.79000   1.79155
 Alpha virt. eigenvalues --    1.79272   1.79412   1.79486   1.79639   1.79886
 Alpha virt. eigenvalues --    1.80146   1.80209   1.80346   1.80491   1.80641
 Alpha virt. eigenvalues --    1.80789   1.80985   1.81182   1.81270   1.81366
 Alpha virt. eigenvalues --    1.81456   1.81708   1.81943   1.82022   1.82168
 Alpha virt. eigenvalues --    1.82290   1.82366   1.82624   1.82720   1.83065
 Alpha virt. eigenvalues --    1.83230   1.83335   1.83602   1.83658   1.83868
 Alpha virt. eigenvalues --    1.84030   1.84370   1.84460   1.84606   1.85079
 Alpha virt. eigenvalues --    1.85236   1.85283   1.85618   1.85802   1.85905
 Alpha virt. eigenvalues --    1.86000   1.86128   1.86310   1.86370   1.86612
 Alpha virt. eigenvalues --    1.86967   1.87313   1.87506   1.87836   1.87941
 Alpha virt. eigenvalues --    1.88080   1.88202   1.88447   1.88548   1.88578
 Alpha virt. eigenvalues --    1.88835   1.89439   1.89459   1.89744   1.89903
 Alpha virt. eigenvalues --    1.90090   1.90234   1.90498   1.90600   1.90912
 Alpha virt. eigenvalues --    1.91048   1.91278   1.91605   1.91828   1.91948
 Alpha virt. eigenvalues --    1.92090   1.92474   1.92534   1.92610   1.93034
 Alpha virt. eigenvalues --    1.93387   1.93491   1.93678   1.93918   1.94371
 Alpha virt. eigenvalues --    1.94460   1.94548   1.94680   1.95114   1.95316
 Alpha virt. eigenvalues --    1.95378   1.95761   1.96058   1.96309   1.96512
 Alpha virt. eigenvalues --    1.96568   1.96709   1.96962   1.97267   1.97512
 Alpha virt. eigenvalues --    1.97774   1.98017   1.98104   1.98401   1.98800
 Alpha virt. eigenvalues --    1.99300   1.99355   1.99606   1.99792   2.00089
 Alpha virt. eigenvalues --    2.00135   2.00517   2.00773   2.00995   2.01188
 Alpha virt. eigenvalues --    2.01581   2.01781   2.02006   2.02333   2.02579
 Alpha virt. eigenvalues --    2.02606   2.02798   2.03086   2.03520   2.03637
 Alpha virt. eigenvalues --    2.03823   2.04171   2.04328   2.04681   2.04939
 Alpha virt. eigenvalues --    2.05129   2.05347   2.05485   2.05723   2.05857
 Alpha virt. eigenvalues --    2.06052   2.06257   2.06866   2.06934   2.07121
 Alpha virt. eigenvalues --    2.07470   2.07647   2.07699   2.08210   2.08366
 Alpha virt. eigenvalues --    2.08614   2.08738   2.09049   2.09333   2.09603
 Alpha virt. eigenvalues --    2.09796   2.09869   2.10012   2.10161   2.10556
 Alpha virt. eigenvalues --    2.10751   2.11302   2.11562   2.12026   2.12365
 Alpha virt. eigenvalues --    2.12762   2.13320   2.13509   2.13876   2.14247
 Alpha virt. eigenvalues --    2.14508   2.14581   2.15100   2.15191   2.15579
 Alpha virt. eigenvalues --    2.15823   2.16484   2.16848   2.17006   2.17299
 Alpha virt. eigenvalues --    2.17606   2.17772   2.18078   2.18366   2.18606
 Alpha virt. eigenvalues --    2.18882   2.18914   2.18989   2.19562   2.19866
 Alpha virt. eigenvalues --    2.20274   2.20343   2.20945   2.21096   2.21167
 Alpha virt. eigenvalues --    2.21411   2.21763   2.22755   2.22967   2.23225
 Alpha virt. eigenvalues --    2.23550   2.23828   2.23847   2.24148   2.24364
 Alpha virt. eigenvalues --    2.24523   2.24826   2.25117   2.25179   2.25564
 Alpha virt. eigenvalues --    2.25896   2.26474   2.26575   2.27433   2.27704
 Alpha virt. eigenvalues --    2.27863   2.28548   2.28951   2.29331   2.29400
 Alpha virt. eigenvalues --    2.29674   2.30225   2.30333   2.30641   2.30756
 Alpha virt. eigenvalues --    2.31607   2.32001   2.32077   2.32187   2.32429
 Alpha virt. eigenvalues --    2.32646   2.33375   2.33619   2.33846   2.34173
 Alpha virt. eigenvalues --    2.34386   2.34572   2.35286   2.35572   2.35627
 Alpha virt. eigenvalues --    2.35908   2.36377   2.36558   2.36848   2.36991
 Alpha virt. eigenvalues --    2.37128   2.37433   2.37706   2.37721   2.38142
 Alpha virt. eigenvalues --    2.38262   2.38648   2.38905   2.39240   2.39631
 Alpha virt. eigenvalues --    2.39729   2.40418   2.40524   2.40895   2.41013
 Alpha virt. eigenvalues --    2.42053   2.42340   2.42814   2.43143   2.43200
 Alpha virt. eigenvalues --    2.43465   2.43657   2.44082   2.44665   2.45090
 Alpha virt. eigenvalues --    2.45105   2.45505   2.46332   2.46563   2.47388
 Alpha virt. eigenvalues --    2.47664   2.47974   2.48341   2.48445   2.48824
 Alpha virt. eigenvalues --    2.49051   2.49153   2.49319   2.50476   2.50687
 Alpha virt. eigenvalues --    2.51052   2.51298   2.51322   2.51404   2.51752
 Alpha virt. eigenvalues --    2.51796   2.52255   2.52505   2.52880   2.53172
 Alpha virt. eigenvalues --    2.53545   2.53858   2.54102   2.54542   2.55355
 Alpha virt. eigenvalues --    2.55467   2.56210   2.56363   2.56799   2.56950
 Alpha virt. eigenvalues --    2.57143   2.57568   2.57621   2.57950   2.58167
 Alpha virt. eigenvalues --    2.58344   2.58594   2.58852   2.59400   2.60046
 Alpha virt. eigenvalues --    2.60515   2.60871   2.61290   2.61562   2.61583
 Alpha virt. eigenvalues --    2.61753   2.62324   2.62365   2.62535   2.62683
 Alpha virt. eigenvalues --    2.62877   2.63098   2.64005   2.64703   2.65066
 Alpha virt. eigenvalues --    2.65178   2.65246   2.65635   2.65794   2.65896
 Alpha virt. eigenvalues --    2.66019   2.66646   2.66959   2.67067   2.67396
 Alpha virt. eigenvalues --    2.67848   2.68094   2.68117   2.69251   2.69619
 Alpha virt. eigenvalues --    2.69795   2.69906   2.70290   2.70622   2.70986
 Alpha virt. eigenvalues --    2.71168   2.71248   2.71779   2.71938   2.72190
 Alpha virt. eigenvalues --    2.72275   2.72630   2.72747   2.73275   2.73621
 Alpha virt. eigenvalues --    2.73966   2.74144   2.74265   2.74447   2.74715
 Alpha virt. eigenvalues --    2.74762   2.74881   2.75203   2.75553   2.75847
 Alpha virt. eigenvalues --    2.76143   2.76535   2.77318   2.77408   2.78170
 Alpha virt. eigenvalues --    2.78272   2.78568   2.78883   2.78910   2.79040
 Alpha virt. eigenvalues --    2.79190   2.79614   2.79910   2.80196   2.80342
 Alpha virt. eigenvalues --    2.80448   2.80513   2.80848   2.81050   2.81429
 Alpha virt. eigenvalues --    2.81654   2.81938   2.82090   2.82111   2.82377
 Alpha virt. eigenvalues --    2.82714   2.82951   2.83149   2.83653   2.83997
 Alpha virt. eigenvalues --    2.84273   2.84462   2.85136   2.85377   2.85790
 Alpha virt. eigenvalues --    2.86243   2.87020   2.87271   2.87451   2.87600
 Alpha virt. eigenvalues --    2.87736   2.88140   2.88523   2.88795   2.88974
 Alpha virt. eigenvalues --    2.89450   2.89744   2.90061   2.90595   2.90943
 Alpha virt. eigenvalues --    2.91445   2.91467   2.91783   2.92006   2.92260
 Alpha virt. eigenvalues --    2.92485   2.92756   2.92981   2.93316   2.93429
 Alpha virt. eigenvalues --    2.93470   2.93844   2.94178   2.94336   2.94564
 Alpha virt. eigenvalues --    2.94688   2.94999   2.95150   2.95659   2.96205
 Alpha virt. eigenvalues --    2.96759   2.97363   2.97588   2.97870   2.98231
 Alpha virt. eigenvalues --    2.98597   2.98774   2.99422   2.99599   2.99967
 Alpha virt. eigenvalues --    3.00457   3.00557   3.00601   3.01174   3.01471
 Alpha virt. eigenvalues --    3.02291   3.02468   3.02756   3.02885   3.03192
 Alpha virt. eigenvalues --    3.03794   3.04155   3.04475   3.04662   3.04802
 Alpha virt. eigenvalues --    3.05033   3.05088   3.05536   3.05853   3.06485
 Alpha virt. eigenvalues --    3.06892   3.07184   3.07702   3.08330   3.08918
 Alpha virt. eigenvalues --    3.09230   3.10175   3.10625   3.10960   3.11082
 Alpha virt. eigenvalues --    3.11541   3.11969   3.12771   3.14174   3.14427
 Alpha virt. eigenvalues --    3.15058   3.15131   3.15358   3.15725   3.15852
 Alpha virt. eigenvalues --    3.16883   3.17548   3.17766   3.17933   3.18560
 Alpha virt. eigenvalues --    3.18634   3.19213   3.19621   3.19883   3.19915
 Alpha virt. eigenvalues --    3.20533   3.20673   3.21544   3.21558   3.21736
 Alpha virt. eigenvalues --    3.21942   3.22052   3.22186   3.22277   3.22432
 Alpha virt. eigenvalues --    3.23071   3.23849   3.24181   3.24698   3.24968
 Alpha virt. eigenvalues --    3.25215   3.25587   3.25994   3.26408   3.26900
 Alpha virt. eigenvalues --    3.27431   3.28153   3.29107   3.30394   3.30806
 Alpha virt. eigenvalues --    3.31301   3.32135   3.32841   3.33176   3.34738
 Alpha virt. eigenvalues --    3.35196   3.36040   3.38145   3.38642   3.40786
 Alpha virt. eigenvalues --    3.42142   3.42227   3.47756   3.49906   3.52858
 Alpha virt. eigenvalues --    3.53034   3.53840   3.54347   3.54397   3.56208
 Alpha virt. eigenvalues --    3.56723   3.58850   3.59795   3.60115   3.60535
 Alpha virt. eigenvalues --    3.60655   3.60927   3.61445   3.62710   3.64441
 Alpha virt. eigenvalues --    3.65696   3.66768   3.67727   3.68307   3.68643
 Alpha virt. eigenvalues --    3.69202   3.69412   3.69951   3.70438   3.70509
 Alpha virt. eigenvalues --    3.70752   3.70976   3.71405   3.71527   3.71834
 Alpha virt. eigenvalues --    3.72162   3.72493   3.73564   3.73643   3.74243
 Alpha virt. eigenvalues --    3.76222   3.80098   3.80442   3.85055
          Condensed to atoms (all electrons):
 Mulliken charges:
               1
     1  C    0.038022
     2  C    0.028455
     3  O   -0.273211
     4  H    0.031599
     5  H    0.023774
     6  H    0.019605
     7  N   -0.134579
     8  C    0.130031
     9  C    0.092802
    10  O   -0.289931
    11  C    0.074457
    12  C    0.147933
    13  O   -0.477303
    14  O   -0.370843
    15  H    0.118983
    16  H   -0.014613
    17  H   -0.001090
    18  H   -0.004354
    19  N   -0.132523
    20  C    0.171372
    21  C    0.066049
    22  O   -0.290054
    23  C   -0.041774
    24  C    0.080182
    25  C   -0.086941
    26  C    0.034372
    27  N    0.089879
    28  H    0.135503
    29  H    0.010629
    30  H    0.022315
    31  H    0.032097
    32  H    0.019031
    33  H    0.024879
    34  H    0.000798
    35  H    0.046318
    36  H    0.078482
    37  H    0.071257
    38  H    0.187942
    39  H    0.195599
    40  H    0.196292
    41  N   -0.154465
    42  C    0.121716
    43  C    0.066948
    44  O   -0.270392
    45  C    0.071357
    46  C    0.134901
    47  O   -0.458704
    48  O   -0.407166
    49  H    0.167280
    50  H    0.010811
    51  H   -0.015204
    52  H    0.025428
    53  N   -0.174443
    54  C    0.239747
    55  C    0.007301
    56  O   -0.283062
    57  H    0.146555
    58  H    0.007731
    59  H    0.033791
    60  N   -0.174112
    61  C    0.168388
    62  C    0.074940
    63  O   -0.287901
    64  C    0.034894
    65  C    0.111134
    66  N   -0.048940
    67  O   -0.368029
    68  H    0.158400
    69  H    0.028706
    70  H    0.071559
    71  H   -0.008640
    72  H    0.137839
    73  H    0.124178
    74  N   -0.175272
    75  C    0.225637
    76  C    0.037813
    77  O   -0.293865
    78  H    0.156414
    79  H    0.026369
    80  H    0.028755
    81  N   -0.140033
    82  C    0.068151
    83  C    0.153178
    84  O   -0.343905
    85  C    0.156446
    86  C   -0.005055
    87  C    0.009055
    88  C   -0.011042
    89  C   -0.013210
    90  C   -0.059381
    91  C    0.188923
    92  O   -0.213899
    93  H    0.141067
    94  H   -0.000992
    95  H   -0.023878
    96  H   -0.011393
    97  H   -0.032636
    98  H   -0.034725
    99  H   -0.031246
   100  H   -0.038491
   101  H    0.178625
   102  N   -0.124836
   103  C    0.189508
   104  C    0.075393
   105  O   -0.287599
   106  C   -0.162821
   107  C    0.000521
   108  C    0.085738
   109  C    0.018944
   110  H    0.134478
   111  H    0.006387
   112  H   -0.025388
   113  H    0.016226
   114  H    0.010295
   115  H    0.015532
   116  H    0.024422
   117  H    0.006290
   118  H    0.001196
   119  H   -0.000198
   120  H    0.017898
   121  N   -0.129088
   122  C    0.082031
   123  C    0.101814
   124  O   -0.266437
   125  C    0.238884
   126  O   -0.303130
   127  H    0.145488
   128  H    0.020874
   129  H    0.022821
   130  H   -0.033270
   131  H    0.192783
   132  N   -0.123889
   133  C    0.097326
   134  C    0.067675
   135  O   -0.245327
   136  C    0.017161
   137  H    0.111173
   138  H    0.027928
   139  H   -0.001104
   140  H    0.044417
   141  H    0.036379
   142  N   -0.120898
   143  C    0.099369
   144  C    0.045905
   145  O   -0.279858
   146  C    0.046306
   147  H    0.106423
   148  H    0.017371
   149  H    0.006050
   150  H    0.027267
   151  H   -0.008855
   152  N   -0.161699
   153  C    0.161749
   154  C    0.070575
   155  O   -0.267675
   156  C   -0.060861
   157  C    0.146929
   158  C    0.124534
   159  O   -0.444222
   160  O   -0.404814
   161  H    0.141672
   162  H   -0.033764
   163  H    0.024767
   164  H    0.005099
   165  H   -0.054984
   166  H   -0.047118
   167  N   -0.168341
   168  C    0.148721
   169  H    0.027183
   170  H    0.025656
   171  H    0.011791
   172  H    0.135716
   173  Ca   1.292009
   174  O   -0.321874
   175  H    0.157959
   176  H    0.160020
 Sum of Mulliken charges =  -0.00000
 Mulliken charges with hydrogens summed into heavy atoms:
               1
     1  C    0.113000
     2  C    0.028455
     3  O   -0.273211
     7  N   -0.015596
     8  C    0.115417
     9  C    0.092802
    10  O   -0.289931
    11  C    0.069013
    12  C    0.147933
    13  O   -0.477303
    14  O   -0.370843
    19  N    0.002980
    20  C    0.182000
    21  C    0.066049
    22  O   -0.290054
    23  C    0.012639
    24  C    0.124092
    25  C   -0.039824
    26  C    0.184111
    27  N    0.669712
    41  N    0.012815
    42  C    0.132526
    43  C    0.066948
    44  O   -0.270392
    45  C    0.081581
    46  C    0.134901
    47  O   -0.458704
    48  O   -0.407166
    53  N   -0.027889
    54  C    0.281268
    55  C    0.007301
    56  O   -0.283062
    60  N   -0.015712
    61  C    0.197094
    62  C    0.074940
    63  O   -0.287901
    64  C    0.097813
    65  C    0.111134
    66  N    0.213077
    67  O   -0.368029
    74  N   -0.018858
    75  C    0.280761
    76  C    0.037813
    77  O   -0.293865
    81  N    0.001035
    82  C    0.067159
    83  C    0.153178
    84  O   -0.343905
    85  C    0.121175
    86  C   -0.005055
    87  C   -0.023581
    88  C   -0.045767
    89  C   -0.044455
    90  C   -0.097873
    91  C    0.188923
    92  O   -0.035274
   102  N    0.009641
   103  C    0.195895
   104  C    0.075393
   105  O   -0.287599
   106  C   -0.188209
   107  C    0.027042
   108  C    0.131981
   109  C    0.037841
   121  N    0.016400
   122  C    0.102905
   123  C    0.101814
   124  O   -0.266437
   125  C    0.228435
   126  O   -0.110347
   132  N   -0.012716
   133  C    0.125253
   134  C    0.067675
   135  O   -0.245327
   136  C    0.096854
   142  N   -0.014475
   143  C    0.116740
   144  C    0.045905
   145  O   -0.279858
   146  C    0.070768
   152  N   -0.020027
   153  C    0.127985
   154  C    0.070575
   155  O   -0.267675
   156  C   -0.030994
   157  C    0.044827
   158  C    0.124534
   159  O   -0.444222
   160  O   -0.404814
   167  N   -0.032625
   168  C    0.213351
   173  Ca   1.292009
   174  O   -0.003895
 DipInt: DoE/N= T F RetVal/Mat= T F Init=T NMatP=  1 IDeriv=0 Min/MaxMlt=  0  4
 Entering OneElI...
 OneElI was handed  1333951383 working-precision words.
 Multipole integrals L=0 to 4 MinM= 0 MaxM= 0.
 Requested accuracy = 0.1000D-12
 ShPair: Thresh= 1.00D-13 NBox=     0 BxSize= 0.00D+00 RnKept= 2.55D+01
         NSMCal=               327645 NSMKep=              161825
 PrmmSu-InSpLW:  IPartL=    0 NPrtUS=    1 NPrtUL=    1 DoSpLW=F IThBeg=    0 IThEnd=    0 NThAct=    1.
 PrsmSu:  NPrtUS=   1 ThrOK=F IAlg=1 NPAlg=1 LenDen=           0 ISkipM=0 DoSpLW=F IThBeg=    0 IThEnd=    0.
 Prism:   IPart=     0 DynPar=F LinDyn=F Incr=         512.
 PRISM was handed  1323834603 working-precision words and161825 shell-pairs
 IPart=  0 NShTot=      161825 NBatch=         369 AvBLen=       438.6
 PrsmSu-ThDecC:  IPartSL=    0    0 NPrtUSL=    1    1 IThBeg=    0 IThEnd=    0 CPU=   -1 GPU=   -1 NThAct=    1.
 PrSmSu:  NxtVal=            513.
 Electronic moments (au):
       -716.00000000         12.43532388         -1.28659712         -8.97133269
     -50417.21846189     -30865.50948644     -12584.14942395        101.31642102
        -69.51003762        -21.71663760     -27131.51021673      -4595.87214351
     -26180.96414348      16750.62060152      95020.74959905      52317.40804994
     -15485.31987959      -7753.47715689      25713.75089764       3524.59596746
   -6908024.42195083   -2855859.44835291    -674752.50395582    -197067.40831210
     218896.08272483    -501704.24870831     -15810.83651315    -102540.95963695
       -476.19780191   -2285947.59334630    -662288.09755973    -375825.16303473
    -156223.33820998      30454.26644224     -27954.15757727
 Electronic spatial extent (au):  <R**2>=          93866.8774
 DipInt: DoE/N= F T RetVal/Mat= T F Init=T NMatP=  1 IDeriv=0 Min/MaxMlt=  0  4
 Nuclear    moments (au):
        716.00000000         -0.00000000         -0.00000000         -0.00000000
      50008.80926714      30463.17818282      12231.86738837          0.00000000
         -0.00000000          0.00000000      28498.60697221       4725.91492979
      25918.31287313     -14781.84888375     -94361.61967776     -53842.71842581
      15925.65552965       7881.75311873     -26418.76557448      -4185.67023190
    6730512.95115295    2746530.71332587     635687.63114544     214565.44058383
    -226505.83520218     512737.87766202      10880.49197000     100042.27684893
        346.31086535    2250329.89671155     633151.65512506     353519.09536962
     151002.82264375     -38415.57008525      31179.39403360
 Total      moments (au):
         -0.00000000         12.43532388         -1.28659712         -8.97133269
       -408.40919475       -402.33130362       -352.28203558        101.31642102
        -69.51003762        -21.71663760       1367.09675548        130.04278628
       -262.65127036       1968.77171777        659.12992129      -1525.31037587
        440.33565006        128.27596184       -705.01467684       -661.07426444
    -177511.47079789    -109328.73502704     -39064.87281038      17498.03227174
      -7609.75247735      11033.62895370      -4930.34454315      -2498.68278803
       -129.88693656     -35617.69663475     -29136.44243467     -22306.06766511
      -5220.51556622      -7961.30364301       3225.23645633
 Traceless Quadrup. (au):
        -20.73501676        -14.65712564         35.39214240        101.31642102
        -69.51003762        -21.71663760
 Charge=             -0.0000 electrons
 Dipole moment (field-independent basis, Debye):
    X=             31.6074    Y=             -3.2702    Z=            -22.8029  Tot=             39.1113
 Quadrupole moment (field-independent basis, Debye-Ang):
   XX=           -549.3244   YY=           -541.1494   ZZ=           -473.8314
   XY=            136.2741   XZ=            -93.4934   YZ=            -29.2096
 Traceless Quadrupole moment (field-independent basis, Debye-Ang):
   XX=            -27.8893   YY=            -19.7143   ZZ=             47.6036
   XY=            136.2741   XZ=            -93.4934   YZ=            -29.2096
 Octapole moment (field-independent basis, Debye-Ang**2):
  XXX=            973.0468  YYY=             92.5594  ZZZ=           -186.9451  XYY=           1401.2959
  XXY=            469.1433  XXZ=          -1085.6572  XZZ=            313.4140  YZZ=             91.3019
  YYZ=           -501.8023  XYZ=           -470.5272
 Hexadecapole moment (field-independent basis, Debye-Ang**3):
 XXXX=         -66859.3319 YYYY=         -41178.4441 ZZZZ=         -14713.7043 XXXY=           6590.5980
 XXXZ=          -2866.1977 YYYX=           4155.7937 YYYZ=          -1857.0042 ZZZX=           -941.1238
 ZZZY=            -48.9216 XXYY=         -13415.3325 XXZZ=         -10974.1814 YYZZ=          -8401.5347
 XXYZ=          -1966.2965 YYXZ=          -2998.6087 ZZXY=           1214.7787
 N-N= 2.174197698479D+04 E-N=-5.596632646655D+04  KE= 5.290463894657D+03
 Leave Link  601 at Sat Sep 14 23:32:18 2019, MaxMem=  1342177280 cpu:              42.8 elap:               1.1
 FitSet:  NAtFit=   176 NAtPot=   176 NAtFrz=     0 MDM=   180 TotChg=   0.00000
 Merz-Kollman atomic radii used.
 Read replacement radii for each type of atom:
 Rad(20) =   1.700000000000D+00
 Atom Element Radius
    1     6    1.50
    2     6    1.50
    3     8    1.40
    4     1    1.20
    5     1    1.20
    6     1    1.20
    7     7    1.50
    8     6    1.50
    9     6    1.50
   10     8    1.40
   11     6    1.50
   12     6    1.50
   13     8    1.40
   14     8    1.40
   15     1    1.20
   16     1    1.20
   17     1    1.20
   18     1    1.20
   19     7    1.50
   20     6    1.50
   21     6    1.50
   22     8    1.40
   23     6    1.50
   24     6    1.50
   25     6    1.50
   26     6    1.50
   27     7    1.50
   28     1    1.20
   29     1    1.20
   30     1    1.20
   31     1    1.20
   32     1    1.20
   33     1    1.20
   34     1    1.20
   35     1    1.20
   36     1    1.20
   37     1    1.20
   38     1    1.20
   39     1    1.20
   40     1    1.20
   41     7    1.50
   42     6    1.50
   43     6    1.50
   44     8    1.40
   45     6    1.50
   46     6    1.50
   47     8    1.40
   48     8    1.40
   49     1    1.20
   50     1    1.20
   51     1    1.20
   52     1    1.20
   53     7    1.50
   54     6    1.50
   55     6    1.50
   56     8    1.40
   57     1    1.20
   58     1    1.20
   59     1    1.20
   60     7    1.50
   61     6    1.50
   62     6    1.50
   63     8    1.40
   64     6    1.50
   65     6    1.50
   66     7    1.50
   67     8    1.40
   68     1    1.20
   69     1    1.20
   70     1    1.20
   71     1    1.20
   72     1    1.20
   73     1    1.20
   74     7    1.50
   75     6    1.50
   76     6    1.50
   77     8    1.40
   78     1    1.20
   79     1    1.20
   80     1    1.20
   81     7    1.50
   82     6    1.50
   83     6    1.50
   84     8    1.40
   85     6    1.50
   86     6    1.50
   87     6    1.50
   88     6    1.50
   89     6    1.50
   90     6    1.50
   91     6    1.50
   92     8    1.40
   93     1    1.20
   94     1    1.20
   95     1    1.20
   96     1    1.20
   97     1    1.20
   98     1    1.20
   99     1    1.20
  100     1    1.20
  101     1    1.20
  102     7    1.50
  103     6    1.50
  104     6    1.50
  105     8    1.40
  106     6    1.50
  107     6    1.50
  108     6    1.50
  109     6    1.50
  110     1    1.20
  111     1    1.20
  112     1    1.20
  113     1    1.20
  114     1    1.20
  115     1    1.20
  116     1    1.20
  117     1    1.20
  118     1    1.20
  119     1    1.20
  120     1    1.20
  121     7    1.50
  122     6    1.50
  123     6    1.50
  124     8    1.40
  125     6    1.50
  126     8    1.40
  127     1    1.20
  128     1    1.20
  129     1    1.20
  130     1    1.20
  131     1    1.20
  132     7    1.50
  133     6    1.50
  134     6    1.50
  135     8    1.40
  136     6    1.50
  137     1    1.20
  138     1    1.20
  139     1    1.20
  140     1    1.20
  141     1    1.20
  142     7    1.50
  143     6    1.50
  144     6    1.50
  145     8    1.40
  146     6    1.50
  147     1    1.20
  148     1    1.20
  149     1    1.20
  150     1    1.20
  151     1    1.20
  152     7    1.50
  153     6    1.50
  154     6    1.50
  155     8    1.40
  156     6    1.50
  157     6    1.50
  158     6    1.50
  159     8    1.40
  160     8    1.40
  161     1    1.20
  162     1    1.20
  163     1    1.20
  164     1    1.20
  165     1    1.20
  166     1    1.20
  167     7    1.50
  168     6    1.50
  169     1    1.20
  170     1    1.20
[...]
 **** Fit       0.031135
 **** Fit       0.020174
 **** Fit       0.009776
 **** Fit       0.047074
 **** Fit       0.043735
 **** Fit       0.037276
 **** Fit       0.028603
 **** Fit       0.019755
 **** Fit       0.013089
 **** Fit       0.040347
 **** Fit       0.033530
 **** Fit       0.026077
 **** Fit       0.021858
 **** Fit       0.023863
 **** Fit       0.010962
 **** Fit       0.031301
 **** Fit       0.019842
 **** Fit       0.010422
 **** Fit       0.020971
 **** Fit       0.007658
 **** Fit       0.001288
 **** Fit      -0.005789
 **** Fit       0.009057
 **** Fit       0.004310
 **** Fit      -0.001872
 **** Fit      -0.008943
 **** Fit      -0.016169
 **** Fit       0.005089
 **** Fit       0.000438
 **** Fit      -0.005951
 **** Fit      -0.013480
 **** Fit       0.000057
 **** Fit      -0.003508
 **** Fit      -0.010002
 **** Fit      -0.003030
 **** Fit       0.009395
 **** Fit       0.059994
 **** Fit       0.049697
 **** Fit       0.051717
 **** Fit       0.050727
 **** Fit       0.050869
 **** Fit       0.050619
 **** Fit       0.051856
 **** Fit       0.050067
 **** Fit       0.047314
 **** Fit       0.042547
 **** Fit       0.027045
 **** Fit       0.032526
 **** Fit       0.051226
 **** Fit       0.047085
 **** Fit       0.041943
 **** Fit       0.037171
 **** Fit       0.036051
 **** Fit       0.048808
 **** Fit       0.044524
 **** Fit       0.066916
 **** Fit       0.065046
 **** Fit       0.060504
 **** Fit       0.053664
 **** Fit       0.031256
 **** Fit      -0.006326
 **** Fit      -0.006073
 **** Fit      -0.006434
 **** Fit      -0.007294
 **** Fit      -0.008811
 **** Fit      -0.006210
 **** Fit      -0.005427
 **** Fit      -0.005100
 **** Fit      -0.005220
 **** Fit      -0.005721
 **** Fit      -0.006518
 **** Fit      -0.007558
 **** Fit      -0.009180
 **** Fit      -0.010714
 **** Fit      -0.006881
 **** Fit      -0.005551
 **** Fit      -0.004659
 **** Fit      -0.004173
 **** Fit      -0.004097
 **** Fit      -0.004402
 **** Fit      -0.004998
 **** Fit      -0.005792
 **** Fit      -0.006743
 **** Fit      -0.007861
 **** Fit      -0.009574
 **** Fit      -0.011108
 **** Fit      -0.012902
 **** Fit      -0.007221
 **** Fit      -0.005546
 **** Fit      -0.004379
 **** Fit      -0.003804
 **** Fit      -0.004534
 **** Fit      -0.005357
 **** Fit      -0.006239
 **** Fit      -0.007197
 **** Fit      -0.008287
 **** Fit      -0.009974
 **** Fit      -0.011569
 **** Fit      -0.013518
 **** Fit      -0.015836
 **** Fit      -0.003949
 **** Fit      -0.004882
 **** Fit      -0.005794
 **** Fit      -0.006690
 **** Fit      -0.007625
 **** Fit      -0.008686
 **** Fit      -0.013994
 **** Fit      -0.016497
 **** Fit      -0.019509
 **** Fit      -0.004612
 **** Fit      -0.005619
 **** Fit      -0.006513
 **** Fit      -0.007333
 **** Fit      -0.008168
 **** Fit      -0.020528
 **** Fit      -0.024622
 **** Fit      -0.029590
 **** Fit      -0.005600
 **** Fit      -0.006614
 **** Fit      -0.007428
 **** Fit      -0.025753
 **** Fit      -0.031332
 **** Fit      -0.005887
 **** Fit      -0.007127
 **** Fit      -0.008049
 **** Fit      -0.033366
 **** Fit      -0.007943
 **** Fit      -0.009183
 **** Fit      -0.010567
 **** Fit      -0.011949
 **** Fit      -0.014725
 **** Fit      -0.016227
 **** Fit      -0.010459
 **** Fit      -0.012025
 **** Fit      -0.014078
 **** Fit      -0.008391
 **** Fit      -0.009291
 **** Fit      -0.010710
 **** Fit      -0.012175
 **** Fit      -0.014173
 **** Fit      -0.016804
 **** Fit      -0.008295
 **** Fit      -0.008903
 **** Fit      -0.009661
 **** Fit      -0.011133
 **** Fit      -0.012455
 **** Fit      -0.014303
 **** Fit      -0.016802
 **** Fit      -0.020096
 **** Fit      -0.008808
 **** Fit      -0.009189
 **** Fit      -0.009616
 **** Fit      -0.010224
 **** Fit      -0.011843
 **** Fit      -0.013087
 **** Fit      -0.014901
 **** Fit      -0.017424
 **** Fit      -0.020847
 **** Fit      -0.025438
 **** Fit      -0.009984
 **** Fit      -0.010212
 **** Fit      -0.010363
 **** Fit      -0.010596
 **** Fit      -0.011050
 **** Fit      -0.012962
 **** Fit      -0.014090
 **** Fit      -0.015814
 **** Fit      -0.018268
 **** Fit      -0.021647
 **** Fit      -0.026249
 **** Fit      -0.032556
 **** Fit      -0.012247
 **** Fit      -0.012350
 **** Fit      -0.012224
 **** Fit      -0.012073
 **** Fit      -0.012061
 **** Fit      -0.012320
 **** Fit      -0.014632
 **** Fit      -0.015645
 **** Fit      -0.017315
 **** Fit      -0.019768
 **** Fit      -0.023186
 **** Fit      -0.027867
 **** Fit      -0.034324
 **** Fit      -0.016206
 **** Fit      -0.015759
 **** Fit      -0.015124
 **** Fit      -0.014539
 **** Fit      -0.014178
 **** Fit      -0.014174
 **** Fit      -0.017021
 **** Fit      -0.017945
 **** Fit      -0.019685
 **** Fit      -0.022365
 **** Fit      -0.026165
 **** Fit      -0.031391
 **** Fit      -0.021116
 **** Fit      -0.019580
 **** Fit      -0.018222
 **** Fit      -0.017255
 **** Fit      -0.016821
 **** Fit      -0.020337
 **** Fit      -0.021134
 **** Fit      -0.023027
 **** Fit      -0.026113
 **** Fit      -0.030540
 **** Fit      -0.036553
 **** Fit      -0.021745
 **** Fit      -0.020562
 **** Fit      -0.024825
 **** Fit      -0.025371
 **** Fit      -0.027407
 **** Fit      -0.030956
 **** Fit      -0.036027
 **** Fit      -0.025762
 **** Fit      -0.030889
 **** Fit      -0.033361
 **** Fit      -0.010256
 **** Fit      -0.010224
 **** Fit      -0.011797
 **** Fit      -0.011986
 **** Fit      -0.010484
 **** Fit      -0.009024
 **** Fit      -0.008945
 **** Fit      -0.010372
 **** Fit      -0.012129
 **** Fit      -0.013745
 **** Fit      -0.014619
 **** Fit      -0.014297
 **** Fit      -0.012880
 **** Fit      -0.010939
 **** Fit      -0.009164
 **** Fit      -0.008014
 **** Fit      -0.007608
 **** Fit      -0.007926
 **** Fit      -0.008893
 **** Fit      -0.010693
 **** Fit      -0.012482
 **** Fit      -0.014404
 **** Fit      -0.016214
 **** Fit      -0.017541
 **** Fit      -0.018002
 **** Fit      -0.017429
 **** Fit      -0.015963
 **** Fit      -0.013920
 **** Fit      -0.011683
 **** Fit      -0.009661
 **** Fit      -0.008130
 **** Fit      -0.007149
 **** Fit      -0.006672
 **** Fit      -0.006660
 **** Fit      -0.007097
 **** Fit      -0.007946
 **** Fit      -0.009161
 **** Fit      -0.011184
 **** Fit      -0.013087
 **** Fit      -0.015225
 **** Fit      -0.017496
 **** Fit      -0.019685
 **** Fit      -0.021457
 **** Fit      -0.022442
 **** Fit      -0.022388
 **** Fit      -0.021298
 **** Fit      -0.019388
 **** Fit      -0.016906
 **** Fit      -0.014158
 **** Fit      -0.011539
 **** Fit      -0.009351
 **** Fit      -0.007725
 **** Fit      -0.006630
 **** Fit      -0.013924
 **** Fit      -0.016322
 **** Fit      -0.019011
 **** Fit      -0.021872
 **** Fit      -0.024656
 **** Fit      -0.026987
 **** Fit      -0.028459
 **** Fit      -0.028785
 **** Fit      -0.027906
 **** Fit      -0.025967
 **** Fit      -0.023157
 **** Fit      -0.019721
 **** Fit      -0.016136
 **** Fit      -0.012879
 **** Fit      -0.010174
 **** Fit      -0.008090
 **** Fit      -0.017540
 **** Fit      -0.020592
 **** Fit      -0.024028
 **** Fit      -0.027709
 **** Fit      -0.031330
 **** Fit      -0.034439
 **** Fit      -0.036572
 **** Fit      -0.037439
 **** Fit      -0.036996
 **** Fit      -0.035295
 **** Fit      -0.032315
 **** Fit      -0.028137
 **** Fit      -0.023335
 **** Fit      -0.018748
 **** Fit      -0.014859
 **** Fit      -0.022963
 **** Fit      -0.027294
 **** Fit      -0.032203
 **** Fit      -0.037416
 **** Fit      -0.027961
 **** Fit      -0.022017
 **** Fit      -0.032279
 **** Fit      -0.004078
 **** Fit      -0.003345
 **** Fit      -0.003243
 **** Fit      -0.003848
 **** Fit      -0.002879
 **** Fit      -0.002399
 **** Fit      -0.002280
 **** Fit      -0.002520
 **** Fit      -0.003095
 **** Fit      -0.002082
 **** Fit      -0.001701
 **** Fit      -0.001500
 **** Fit      -0.001542
 **** Fit      -0.001895
 **** Fit      -0.002548
 **** Fit      -0.003406
 **** Fit      -0.001357
 **** Fit      -0.001074
 **** Fit      -0.000866
 **** Fit      -0.000906
 **** Fit      -0.001287
 **** Fit      -0.002003
 **** Fit      -0.002959
 **** Fit      -0.004016
 **** Fit      -0.001148
 **** Fit      -0.000689
 **** Fit      -0.000368
 **** Fit      -0.000369
 **** Fit      -0.000777
 **** Fit      -0.001573
 **** Fit      -0.002657
 **** Fit      -0.003883
 **** Fit      -0.000897
 **** Fit      -0.000176
 **** Fit       0.000149
 **** Fit      -0.000059
 **** Fit      -0.000816
 **** Fit      -0.002026
 **** Fit      -0.003517
 **** Fit      -0.005081
 **** Fit      -0.001650
 **** Fit      -0.000348
 **** Fit       0.000470
 **** Fit       0.000602
 **** Fit      -0.000020
 **** Fit      -0.001318
 **** Fit      -0.003098
 **** Fit      -0.005104
 **** Fit      -0.007067
 **** Fit      -0.001634
 **** Fit       0.000141
 **** Fit       0.001107
 **** Fit       0.001033
 **** Fit      -0.000103
 **** Fit      -0.002117
 **** Fit      -0.004684
 **** Fit      -0.007426
 **** Fit      -0.000427
 **** Fit       0.001499
 **** Fit       0.001824
 **** Fit       0.000412
 **** Fit      -0.002457
 **** Fit      -0.006224
 **** Fit      -0.010255
 **** Fit       0.024175
 **** Fit       0.028888
 **** Fit       0.028825
 **** Fit       0.030853
 **** Fit       0.032012
 **** Fit       0.032714
 **** Fit       0.031381
 **** Fit       0.033064
 **** Fit       0.034458
 **** Fit       0.035372
 **** Fit       0.032614
 **** Fit       0.034523
 **** Fit       0.032650
 **** Fit       0.034475
 **** Fit       0.035937
 **** Fit       0.037003
 **** Fit       0.037710
 **** Fit       0.015831
 **** Fit       0.009581
 **** Fit       0.003689
 **** Fit      -0.001687
 **** Fit      -0.006482
 **** Fit      -0.010844
 **** Fit      -0.015217
 **** Fit       0.037262
 **** Fit       0.033534
 **** Fit       0.028349
 **** Fit       0.022223
 **** Fit       0.019621
 **** Fit       0.013806
 **** Fit       0.008427
 **** Fit       0.003428
 **** Fit      -0.001371
 **** Fit      -0.006289
 **** Fit      -0.011871
 **** Fit       0.040376
 **** Fit       0.036755
 **** Fit       0.031689
 **** Fit       0.025734
 **** Fit       0.022202
 **** Fit       0.016830
 **** Fit       0.011773
 **** Fit       0.006923
 **** Fit       0.002031
 **** Fit      -0.003286
 **** Fit      -0.009616
 **** Fit       0.033204
 **** Fit       0.027786
 **** Fit       0.023975
 **** Fit       0.018742
 **** Fit       0.013688
 **** Fit       0.008675
 **** Fit       0.003404
 **** Fit      -0.002584
 **** Fit      -0.001215
 **** Fit       0.007821
 **** Fit       0.029310
 **** Fit       0.019983
 **** Fit       0.014726
 **** Fit       0.009356
 **** Fit       0.003522
 **** Fit      -0.003309
 **** Fit       0.002303
 **** Fit       0.020890
 **** Fit       0.015392
 **** Fit       0.009674
 **** Fit       0.003381
 **** Fit       0.015399
 **** Fit       0.009198
 **** Fit       0.007804
 **** Fit       0.037322
 **** Fit       0.038458
 **** Fit       0.033705
 **** Fit       0.034668
 **** Fit       0.035828
 **** Fit       0.037286
 **** Fit       0.039003
 **** Fit       0.040836
 **** Fit       0.033937
 **** Fit       0.034795
 **** Fit       0.035634
 **** Fit       0.036821
 **** Fit       0.038398
 **** Fit       0.040278
 **** Fit       0.042266
 **** Fit       0.044006
 **** Fit       0.044998
 **** Fit       0.044777
 **** Fit       0.042949
 **** Fit       0.039135
 **** Fit       0.030030
 **** Fit       0.032907
 **** Fit       0.034421
 **** Fit       0.035531
 **** Fit       0.036774
 **** Fit       0.038317
 **** Fit       0.040123
 **** Fit       0.042028
 **** Fit       0.043753
 **** Fit       0.044914
 **** Fit       0.045092
 **** Fit       0.043865
 **** Fit       0.040872
 **** Fit       0.036087
 **** Fit       0.031981
 **** Fit       0.012455
 **** Fit       0.019532
 **** Fit       0.025404
 **** Fit       0.029711
 **** Fit       0.032494
 **** Fit       0.034329
 **** Fit       0.035842
 **** Fit       0.037396
 **** Fit       0.039089
 **** Fit       0.040846
 **** Fit       0.042463
 **** Fit       0.043638
 **** Fit       0.044008
 **** Fit       0.043194
 **** Fit       0.040889
 **** Fit       0.037046
 **** Fit       0.032700
 **** Fit       0.027828
 **** Fit       0.022541
 **** Fit       0.007573
 **** Fit       0.014616
 **** Fit       0.020692
 **** Fit       0.025686
 **** Fit       0.029479
 **** Fit       0.032209
 **** Fit       0.034263
 **** Fit       0.036024
 **** Fit       0.037704
 **** Fit       0.039334
 **** Fit       0.040796
 **** Fit       0.041871
 **** Fit       0.042272
 **** Fit       0.041695
 **** Fit       0.039901
 **** Fit       0.036838
 **** Fit       0.032574
 **** Fit       0.028168
 **** Fit       0.023232
 **** Fit       0.017967
 **** Fit       0.003942
 **** Fit       0.010666
 **** Fit       0.016878
 **** Fit       0.022288
 **** Fit       0.026723
 **** Fit       0.030159
 **** Fit       0.032789
 **** Fit       0.034910
 **** Fit       0.036739
 **** Fit       0.038325
 **** Fit       0.039557
 **** Fit       0.040206
 **** Fit       0.039995
 **** Fit       0.038682
 **** Fit       0.036169
 **** Fit       0.031879
 **** Fit       0.027852
 **** Fit       0.023222
 **** Fit       0.018228
 **** Fit       0.013072
 **** Fit       0.008022
 **** Fit       0.003702
 **** Fit       0.008335
 **** Fit       0.013738
 **** Fit       0.019070
 **** Fit       0.023836
 **** Fit       0.027793
 **** Fit       0.030928
 **** Fit       0.033397
 **** Fit       0.035366
 **** Fit       0.036878
 **** Fit       0.037817
 **** Fit       0.037962
 **** Fit       0.037075
 **** Fit       0.035028
 **** Fit       0.030774
 **** Fit       0.026891
 **** Fit       0.022361
 **** Fit       0.017629
 **** Fit       0.013266
 **** Fit       0.010114
 **** Fit       0.009139
 **** Fit       0.010757
 **** Fit       0.014397
 **** Fit       0.018971
 **** Fit       0.023528
 **** Fit       0.027497
 **** Fit       0.030673
 **** Fit       0.033075
 **** Fit       0.034728
 **** Fit       0.035516
 **** Fit       0.035212
 **** Fit       0.033629
 **** Fit       0.029353
 **** Fit       0.025307
 **** Fit       0.020789
 **** Fit       0.017134
 **** Fit       0.015837
 **** Fit       0.017563
 **** Fit       0.021386
 **** Fit       0.025687
 **** Fit       0.029314
 **** Fit       0.031764
 **** Fit       0.032757
 **** Fit       0.031983
 **** Fit       0.027671
 **** Fit       0.023481
 **** Fit       0.021269
 **** Fit       0.023661
 **** Fit       0.027694
 **** Fit       0.029544
 **** Fit       0.025765
 **** Fit      -0.007580
 **** Fit      -0.008823
 **** Fit      -0.006071
 **** Fit      -0.001620
 **** Fit      -0.001250
 **** Fit      -0.004040
 **** Fit      -0.001532
 **** Fit       0.001945
 **** Fit      -0.008146
 **** Fit      -0.007057
 **** Fit      -0.002100
 **** Fit      -0.007422
 **** Fit      -0.001243
 **** Fit       0.003972
 -----------------------------------------------------------------
 Leave Link  602 at Sat Sep 14 23:32:21 2019, MaxMem=  1342177280 cpu:             115.2 elap:               2.4

 Test job not archived.
 1\1\GINC-C506-101\SP\RB3LYP\SVP\C54H83Ca1N15O23\PENGZHI\14-Sep-2019\0\
 \#b3lyp/svp scf=(tight,noincore) Test #IOP(5/87=12) Density=Current Po
 p=(MK,readradii) iop(6/33=2) iop(6/42=6)\\CaMKII_loop3_101.0\\0,1\C,0,
 77.82,48.34,27.19\C,0,76.91,47.38,27.93\O,0,77.36,46.28,28.21\H,0,78.7
 76,47.855,26.993\H,0,77.357,48.626,26.246\H,0,77.984,49.229,27.799\N,0
 ,75.68,47.83,28.2\C,0,74.73,47.09,29.01\C,0,74.01,46.09,28.11\O,0,73.3
 ,46.44,27.16\C,0,73.86,48.04,29.83\C,0,72.94,47.41,30.86\O,0,72.94,46.
 16,30.85\O,0,72.31,48.07,31.71\H,0,75.38,48.7,27.79\H,0,75.27,46.5,29.
 74\H,0,73.23,48.62,29.16\H,0,74.47,48.82,30.29\N,0,74.28,44.81,28.38\C
 ,0,73.77,43.71,27.58\C,0,72.28,43.44,27.7\O,0,71.68,42.96,26.74\C,0,74
 .6,42.49,27.98\C,0,74.71,41.33,27.\C,0,75.54,40.25,27.69\C,0,75.75,39.
 01,26.82\N,0,76.3,37.85,27.54\H,0,74.8,44.61,29.21\H,0,73.96,43.98,26.
 54\H,0,74.05,42.19,28.87\H,0,75.57,42.83,28.35\H,0,75.18,41.55,26.04\H
 ,0,73.72,40.88,26.82\H,0,75.07,39.9,28.6\H,0,76.51,40.59,28.05\H,0,76.
 43,39.39,26.06\H,0,74.85,38.75,26.27\H,0,75.59,37.53,28.18\H,0,76.52,3
 7.11,26.89\H,0,77.1,38.01,28.13\N,0,71.63,43.88,28.78\C,0,70.2,43.79,2
 8.95\C,0,69.47,45.11,29.17\O,0,68.26,45.22,29.04\C,0,69.85,42.77,30.04
 \C,0,70.19,43.14,31.47\O,0,70.68,44.27,31.68\O,0,69.85,42.37,32.4\H,0,
 72.12,44.17,29.62\H,0,69.71,43.39,28.06\H,0,70.52,41.93,29.86\H,0,68.8
 3,42.4,29.93\N,0,70.26,46.13,29.52\C,0,69.84,47.5,29.73\C,0,68.92,47.7
 8,30.9\O,0,67.99,48.59,30.83\H,0,71.24,45.91,29.64\H,0,69.28,47.79,28.
 84\H,0,70.71,48.16,29.84\N,0,69.15,47.07,32.\C,0,68.54,47.36,33.28\C,0
 ,69.06,48.62,33.96\O,0,68.55,49.08,34.98\C,0,68.62,46.11,34.15\C,0,69.
 88,45.87,34.97\N,0,69.68,45.75,36.28\O,0,71.04,45.85,34.54\H,0,69.78,4
 6.28,31.93\H,0,67.47,47.42,33.11\H,0,68.39,45.2,33.6\H,0,67.82,46.14,3
 4.9\H,0,68.8,45.92,36.75\H,0,70.42,45.4,36.86\N,0,70.1,49.24,33.38\C,0
 ,70.68,50.47,33.86\C,0,71.88,50.29,34.78\O,0,72.31,51.26,35.41\H,0,70.
 66,48.76,32.69\H,0,69.98,51.11,34.39\H,0,70.97,51.14,33.05\N,0,72.39,4
 9.06,34.86\C,0,73.76,48.84,35.28\C,0,74.53,47.98,34.28\O,0,74.,47.05,3
 3.68\C,0,73.72,48.07,36.6\C,0,73.,48.72,37.75\C,0,73.63,49.17,38.92\C,
 0,71.61,48.62,37.71\C,0,72.86,49.51,40.04\C,0,70.84,49.08,38.78\C,0,71
 .45,49.45,39.99\O,0,70.76,49.84,41.1\H,0,72.03,48.32,34.28\H,0,74.29,4
 9.79,35.31\H,0,74.76,48.05,36.94\H,0,73.3,47.08,36.45\H,0,74.71,49.28,
 38.94\H,0,71.1,48.08,36.92\H,0,73.3,49.77,40.99\H,0,69.78,49.04,38.58\
 H,0,69.83,50.04,40.96\N,0,75.85,48.18,34.34\C,0,76.9,47.28,33.9\C,0,77
 .5,46.41,35.\O,0,78.14,46.86,35.94\C,0,77.96,48.06,33.14\C,0,77.4,48.8
 ,31.92\C,0,79.23,47.33,32.73\C,0,78.28,50.01,31.62\H,0,76.13,49.03,34.
 81\H,0,76.49,46.63,33.13\H,0,78.27,48.88,33.79\H,0,76.37,49.17,31.99\H
 ,0,77.55,48.11,31.1\H,0,79.69,46.87,33.6\H,0,78.86,46.54,32.07\H,0,80.
 ,48.,32.35\H,0,77.76,50.59,30.86\H,0,78.31,50.62,32.52\H,0,79.27,49.75
 ,31.25\N,0,77.43,45.09,34.85\C,0,78.16,44.1,35.61\C,0,79.53,44.,34.97\
 O,0,79.73,44.31,33.8\C,0,77.44,42.75,35.68\O,0,77.7,41.85,34.62\H,0,76
 .87,44.73,34.09\H,0,78.33,44.39,36.65\H,0,76.38,42.79,35.91\H,0,77.82,
 42.31,36.6\H,0,77.02,41.17,34.58\N,0,80.43,43.33,35.7\C,0,81.73,42.92,
 35.21\C,0,81.65,42.02,33.98\O,0,82.42,42.21,33.05\C,0,82.35,42.15,36.3
 8\H,0,80.15,43.07,36.63\H,0,82.31,43.83,35.07\H,0,81.66,41.38,36.72\H,
 0,83.28,41.68,36.07\H,0,82.5,42.89,37.17\N,0,80.72,41.06,33.94\C,0,80.
 59,40.17,32.81\C,0,80.08,40.75,31.5\O,0,80.42,40.35,30.39\C,0,79.88,38
 .88,33.2\H,0,80.2,40.85,34.78\H,0,81.59,39.85,32.52\H,0,79.6,38.26,32.
 35\H,0,80.56,38.25,33.78\H,0,78.97,39.14,33.75\N,0,79.18,41.72,31.63\C
 ,0,78.7,42.56,30.55\C,0,79.84,43.42,30.01\O,0,79.95,43.42,28.79\C,0,77
 .52,43.39,31.04\C,0,76.32,42.52,31.38\C,0,75.18,43.39,31.88\O,0,75.34,
 44.07,32.92\O,0,74.06,43.37,31.33\H,0,78.85,41.96,32.56\H,0,78.28,41.9
 6,29.74\H,0,77.21,44.17,30.34\H,0,77.75,44.06,31.87\H,0,76.56,41.84,32
 .19\H,0,75.98,41.9,30.54\N,0,80.7,43.96,30.88\C,0,81.93,44.66,30.59\H,
 0,82.718,43.937,30.38\H,0,81.787,45.303,29.722\H,0,82.215,45.267,31.44
 9\H,0,80.43,43.88,31.85\Ca,0,72.83,44.84,32.99\O,0,72.08,42.52,33.92\H
 ,0,72.1,42.02,34.73\H,0,71.26,42.25,33.5\\Version=ES64L-G16RevA.03\Sta
 te=1-A\HF=-5333.6269793\RMSD=4.125e-09\Dipole=7.3757875,-13.3535117,2.
 0146727\Quadrupole=-121.3597976,114.7006129,6.6591847,-3.0114719,-28.3
 036568,41.7421728\PG=C01 [X(C54H83Ca1N15O23)]\\@


 A MAN IS EXACTLY AS GREAT AS THE TIDE SURGING
 BENEATH HIM.      - BISMARCK
 Job cpu time:       0 days 10 hours  0 minutes  5.9 seconds.
 Elapsed time:       0 days  0 hours 12 minutes 38.4 seconds.
 File lengths (MBytes):  RWF=   1517 Int=      0 D2E=      0 Chk=    171 Scr=      1
 Normal termination of Gaussian 16 at Sat Sep 14 23:32:22 2019.
