 Entering Gaussian System, Link 0=g16
 Initial command:
 /home1/apps/gaussian/16rA.03/g16/l1.exe "/scratch/01990/pengzhi/4328946/Gau-149101.inp" -scrdir="/scratch/01990/pengzhi/4328946/"
 Entering Link 1 = /home1/apps/gaussian/16rA.03/g16/l1.exe PID=    149102.
  
 Copyright (c) 1988,1990,1992,1993,1995,1998,2003,2009,2016,
            Gaussian, Inc.  All Rights Reserved.
  
 This is part of the Gaussian(R) 16 program.  It is based on
 the Gaussian(R) 09 system (copyright 2009, Gaussian, Inc.),
 the Gaussian(R) 03 system (copyright 2003, Gaussian, Inc.),
 the Gaussian(R) 98 system (copyright 1998, Gaussian, Inc.),
 the Gaussian(R) 94 system (copyright 1995, Gaussian, Inc.),
 the Gaussian 92(TM) system (copyright 1992, Gaussian, Inc.),
 the Gaussian 90(TM) system (copyright 1990, Gaussian, Inc.),
 the Gaussian 88(TM) system (copyright 1988, Gaussian, Inc.),
 the Gaussian 86(TM) system (copyright 1986, Carnegie Mellon
 University), and the Gaussian 82(TM) system (copyright 1983,
 Carnegie Mellon University). Gaussian is a federally registered
 trademark of Gaussian, Inc.
  
 This software contains proprietary and confidential information,
 including trade secrets, belonging to Gaussian, Inc.
  
 This software is provided under written license and may be
 used, copied, transmitted, or stored only in accord with that
 written license.
  
 The following legend is applicable only to US Government
 contracts under FAR:
  
                    RESTRICTED RIGHTS LEGEND
  
 Use, reproduction and disclosure by the US Government is
 subject to restrictions as set forth in subparagraphs (a)
 and (c) of the Commercial Computer Software - Restricted
 Rights clause in FAR 52.227-19.
  
 Gaussian, Inc.
 340 Quinnipiac St., Bldg. 40, Wallingford CT 06492
  
  
 ---------------------------------------------------------------
 Warning -- This program may not be used in any manner that
 competes with the business of Gaussian, Inc. or will provide
 assistance to any competitor of Gaussian, Inc.  The licensee
 of this program is prohibited from giving any competitor of
 Gaussian, Inc. access to this program.  By using this program,
 the user acknowledges that Gaussian, Inc. is engaged in the
 business of creating and licensing software in the field of
 computational chemistry and represents and warrants to the
 licensee that it is not a competitor of Gaussian, Inc. and that
 it will not use this program in any manner prohibited above.
 ---------------------------------------------------------------
  

 Cite this work as:
 Gaussian 16, Revision A.03,
 M. J. Frisch, G. W. Trucks, H. B. Schlegel, G. E. Scuseria, 
 M. A. Robb, J. R. Cheeseman, G. Scalmani, V. Barone, 
 G. A. Petersson, H. Nakatsuji, X. Li, M. Caricato, A. V. Marenich, 
 J. Bloino, B. G. Janesko, R. Gomperts, B. Mennucci, H. P. Hratchian, 
 J. V. Ortiz, A. F. Izmaylov, J. L. Sonnenberg, D. Williams-Young, 
 F. Ding, F. Lipparini, F. Egidi, J. Goings, B. Peng, A. Petrone, 
 T. Henderson, D. Ranasinghe, V. G. Zakrzewski, J. Gao, N. Rega, 
 G. Zheng, W. Liang, M. Hada, M. Ehara, K. Toyota, R. Fukuda, 
 J. Hasegawa, M. Ishida, T. Nakajima, Y. Honda, O. Kitao, H. Nakai, 
 T. Vreven, K. Throssell, J. A. Montgomery, Jr., J. E. Peralta, 
 F. Ogliaro, M. J. Bearpark, J. J. Heyd, E. N. Brothers, K. N. Kudin, 
 V. N. Staroverov, T. A. Keith, R. Kobayashi, J. Normand, 
 K. Raghavachari, A. P. Rendell, J. C. Burant, S. S. Iyengar, 
 J. Tomasi, M. Cossi, J. M. Millam, M. Klene, C. Adamo, R. Cammi, 
 J. W. Ochterski, R. L. Martin, K. Morokuma, O. Farkas, 
 J. B. Foresman, and D. J. Fox, Gaussian, Inc., Wallingford CT, 2016.
 
 ******************************************
 Gaussian 16:  ES64L-G16RevA.03 25-Dec-2016
                14-Sep-2019 
 ******************************************
 %chk=CaMKII_loop3_73.0.chk
 %nprocshared=48
 Will use up to   48 processors via shared memory.
 %mem=10GB
 %nosave
 ----------------------------------------------------------------------
 #b3lyp/svp scf=(tight,noincore) Test #IOP(5/87=12) Density=Current Pop
 =(MK,readradii) iop(6/33=2) iop(6/42=6)
 ----------------------------------------------------------------------
 1/30=1,38=1,172=1/1;
 2/12=2,17=6,18=5,40=1/2;
 3/5=18,7=101,11=2,25=1,30=1,74=-5/1,2,3;
 4//1;
 5/5=4,32=2,38=5,87=12/2;
 6/7=2,8=2,9=2,10=2,15=8,20=101,22=-1,28=1,33=2,42=6/1,2;
 99/5=1,9=1/99;
 -----------------
 CaMKII_loop3_73.0
 -----------------
 Symbolic Z-matrix:
 Charge =  0 Multiplicity = 1
 C                     82.017    66.58     36.2 
 C                     81.437    66.56     37.61 
 O                     81.517    65.53     38.26 
 H                     83.037    66.197    36.222 
 H                     81.408    65.954    35.547 
 H                     82.022    67.603    35.823 
 N                     80.837    67.62     38.16 
 C                     80.037    67.52     39.37 
 C                     78.807    66.64     39.19 
 O                     78.117    66.65     38.18 
 C                     79.797    68.95     39.84 
 C                     79.247    69.15     41.24 
 O                     79.187    68.18     42.03 
 O                     78.667    70.24     41.45 
 H                     80.897    68.51     37.7 
 H                     80.667    67.08     40.15 
 H                     79.157    69.48     39.13 
 H                     80.757    69.46     39.78 
 N                     78.507    65.86     40.23 
 C                     77.607    64.72     40.23 
 C                     76.347    64.92     41.06 
 O                     75.337    64.38     40.61 
 C                     78.457    63.47     40.41 
 C                     77.667    62.18     40.16 
 C                     78.447    60.88     40.29 
 C                     78.287    60.43     41.73 
 N                     79.007    59.17     41.97 
 H                     79.087    66.05     41.03 
 H                     77.297    64.49     39.21 
 H                     78.877    63.56     41.41 
 H                     79.307    63.53     39.74 
 H                     77.317    62.26     39.14 
 H                     76.867    62.14     40.9 
 H                     79.477    61.07     39.97 
 H                     78.097    60.17     39.54 
 H                     77.207    60.44     41.92 
 H                     78.597    61.2      42.43 
 H                     78.727    58.76     42.85 
 H                     78.667    58.47     41.32 
 H                     80.007    59.27     41.97 
 N                     76.497    65.52     42.24 
 C                     75.427    65.86     43.15 
 C                     75.097    67.35     43.1 
 O                     74.137    67.84     43.69 
 C                     75.677    65.37     44.57 
 C                     76.977    65.81     45.24 
 O                     77.747    66.64     44.71 
 O                     77.267    65.26     46.32 
 H                     77.407    65.75     42.62 
 H                     74.557    65.33     42.76 
 H                     75.667    64.28     44.54 
 H                     74.857    65.75     45.19 
 N                     75.947    68.12     42.43 
 C                     75.607    69.42     41.89 
 C                     75.697    70.64     42.79 
 O                     75.287    71.75     42.45 
 H                     76.887    67.76     42.34 
 H                     74.597    69.42     41.46 
 H                     76.267    69.73     41.08 
 N                     76.237    70.49     44. 
 C                     76.517    71.56     44.93 
 C                     77.337    72.75     44.43 
 O                     77.177    73.84     44.98 
 C                     77.167    71.       46.19 
 C                     78.677    70.85     46.08 
 N                     79.427    71.42     47.02 
 O                     79.137    70.1      45.22 
 H                     76.687    69.61     44.2 
 H                     75.597    72.02     45.29 
 H                     76.677    70.04     46.31 
 H                     76.927    71.59     47.08 
 H                     79.017    71.95     47.78 
 H                     80.427    71.48     46.93 
 N                     78.107    72.57     43.36 
 C                     78.897    73.64     42.78 
 C                     80.387    73.38     42.93 
 O                     81.147    74.31     42.67 
 H                     78.037    71.67     42.89 
 H                     78.657    74.61     43.22 
 H                     78.687    73.58     41.71 
 N                     80.857    72.2      43.34 
 C                     82.257    71.84     43.2 
 C                     82.467    70.35     42.96 
 O                     81.637    69.53     43.36 
 C                     83.057    72.36     44.39 
 C                     82.437    72.49     45.76 
 C                     81.787    73.7      46.05 
 C                     82.767    71.58     46.77 
 C                     81.477    74.       47.38 
 C                     82.327    71.79     48.08 
 C                     81.727    73.03     48.37 
 O                     81.387    73.27     49.67 
 H                     80.147    71.49     43.46 
 H                     82.617    72.31     42.28 
 H                     83.297    73.39     44.15 
 H                     83.987    71.79     44.4 
 H                     81.707    74.43     45.26 
 H                     83.207    70.61     46.61 
 H                     81.007    74.93     47.67 
 H                     82.507    71.04     48.84 
 H                     81.797    72.7      50.32 
 N                     83.617    70.04     42.38 
 C                     84.077    68.69     42.11 
 C                     84.967    68.13     43.21 
 O                     85.997    68.73     43.51 
 C                     84.837    68.7      40.79 
 C                     84.047    69.32     39.64 
 C                     85.337    67.31     40.42 
 C                     84.827    69.81     38.42 
 H                     84.337    70.75     42.28 
 H                     83.137    68.13     42.03 
 H                     85.697    69.36     40.88 
 H                     83.477    70.2      39.92 
 H                     83.267    68.62     39.34 
 H                     86.107    67.23     39.66 
 H                     85.707    66.92     41.38 
 H                     84.507    66.7      40.07 
 H                     84.047    70.08     37.71 
 H                     85.487    70.62     38.73 
 H                     85.497    69.12     37.91 
 N                     84.577    67.06     43.89 
 C                     85.427    66.21     44.71 
 C                     86.117    65.14     43.88 
 O                     85.667    64.83     42.77 
 C                     84.697    65.59     45.9 
 O                     83.757    64.61     45.5 
 H                     83.647    66.72     43.69 
 H                     86.237    66.85     45.06 
 H                     84.207    66.37     46.48 
 H                     85.467    65.03     46.43 
 H                     83.207    65.       44.82 
 N                     87.227    64.56     44.33 
 C                     88.137    63.72     43.57 
 C                     87.517    62.39     43.17 
 O                     87.777    61.81     42.12 
 C                     89.487    63.62     44.28 
 H                     87.677    64.83     45.19 
 H                     88.387    64.36     42.72 
 H                     90.227    63.04     43.73 
 H                     89.907    64.6      44.52 
 H                     89.317    63.09     45.22 
 N                     86.447    62.       43.87 
 C                     85.677    60.83     43.51 
 C                     84.847    61.05     42.25 
 O                     84.687    60.1      41.48 
 C                     84.747    60.48     44.66 
 H                     86.347    62.4      44.79 
 H                     86.227    59.94     43.21 
 H                     84.087    61.33     44.84 
 H                     84.177    59.63     44.29 
 H                     85.287    60.33     45.6 
 N                     84.467    62.3      41.98 
 C                     83.667    62.64     40.82 
 C                     84.607    62.85     39.64 
 O                     84.207    62.49     38.54 
 C                     82.807    63.89     41.02 
 C                     81.967    63.75     42.28 
 C                     81.437    65.1      42.75 
 O                     82.127    65.88     43.45 
 O                     80.237    65.42     42.64 
 H                     84.657    63.07     42.61 
 H                     83.027    61.79     40.59 
 H                     82.137    63.91     40.17 
 H                     83.367    64.83     41.01 
 H                     82.527    63.23     43.06 
 H                     81.097    63.15     42.04 
 N                     85.857    63.26     39.86 
 C                     86.877    63.38     38.83 
 H                     87.8      62.915    39.177 
 H                     86.538    62.881    37.922 
 H                     87.059    64.434    38.619 
 H                     86.227    63.36     40.79 
 Ca                    80.15     67.56     44.41 
 O                     82.23     67.65     46.12 
 H                     83.05     68.05     46.41 
 H                     81.95     67.11     46.87 
 
 Stoichiometry    C54H83CaN15O23
 Framework group  C1[X(C54H83CaN15O23)]
 Deg. of freedom   522
 Full point group                 C1      NOp   1
 Largest Abelian subgroup         C1      NOp   1
 Largest concise Abelian subgroup C1      NOp   1
                         Standard orientation:                         
 ---------------------------------------------------------------------
 Center     Atomic      Atomic             Coordinates (Angstroms)
 Number     Number       Type             X           Y           Z
 ---------------------------------------------------------------------
      1          6           0        2.592642    2.064643    5.767739
      2          6           0        1.919796    2.015245    4.400355
      3          8           0        2.606737    2.180046    3.404990
      4          1           0        3.463249    1.409191    5.767383
      5          1           0        2.907459    3.086523    5.981788
      6          1           0        1.889235    1.732567    6.531693
      7          7           0        0.608430    1.808136    4.246981
      8          6           0       -0.074570    2.047519    2.985907
      9          6           0       -0.032080    3.510117    2.563174
     10          8           0       -0.170633    4.439166    3.346737
     11          6           0       -1.452620    1.410343    3.121488
     12          6           0       -2.278619    1.239664    1.860102
     13          8           0       -1.753641    1.437630    0.740366
     14          8           0       -3.515144    1.129609    2.025913
     15          1           0        0.061698    1.523629    5.039093
     16          1           0        0.426481    1.449781    2.217430
     17          1           0       -2.047875    1.948771    3.863356
     18          1           0       -1.295657    0.424684    3.556390
     19          7           0        0.144298    3.721270    1.257684
     20          6           0        0.530963    4.969629    0.623894
     21          6           0       -0.549741    5.584448   -0.253931
     22          8           0       -0.580737    6.814585   -0.255401
     23          6           0        1.945531    4.789618    0.090983
     24          6           0        2.576034    6.111321   -0.363185
     25          6           0        4.003140    6.029353   -0.884672
     26          6           0        3.897099    5.827023   -2.384512
     27          7           0        5.230773    5.734055   -2.997920
     28          1           0        0.117611    2.867698    0.725515
     29          1           0        0.797783    5.705878    1.382937
     30          1           0        1.855783    4.036264   -0.689339
     31          1           0        2.549811    4.326634    0.862663
     32          1           0        2.577005    6.737777    0.518208
     33          1           0        1.966347    6.498677   -1.180153
     34          1           0        4.517335    5.230938   -0.339203
     35          1           0        4.554902    6.917026   -0.573714
     36          1           0        3.231035    6.622652   -2.739382
     37          1           0        3.288485    4.962786   -2.632872
     38          1           0        5.169067    5.819257   -4.002825
     39          1           0        5.754715    6.571746   -2.770195
     40          1           0        5.716691    4.881614   -2.780600
     41          7           0       -1.238209    4.747972   -1.029314
     42          6           0       -2.342037    5.115512   -1.886681
     43          6           0       -3.684762    4.717569   -1.278216
     44          8           0       -4.762247    5.047111   -1.768347
     45          6           0       -2.180163    4.608267   -3.313390
     46          6           0       -1.963374    3.107903   -3.498891
     47          8           0       -2.044369    2.304328   -2.544738
     48          8           0       -1.644743    2.722822   -4.640463
     49          1           0       -1.002447    3.766687   -1.112361
     50          1           0       -2.317235    6.205740   -1.912894
     51          1           0       -1.322740    5.127026   -3.743291
     52          1           0       -3.099995    4.864090   -3.851595
     53          7           0       -3.637658    3.929227   -0.210228
     54          6           0       -4.711403    3.809351    0.754086
     55          6           0       -5.848556    2.841690    0.476570
     56          8           0       -6.863939    2.790678    1.170974
     57          1           0       -2.801561    3.369578   -0.115170
     58          1           0       -5.171289    4.784566    0.960143
     59          1           0       -4.374683    3.437327    1.721566
     60          7           0       -5.736030    2.023122   -0.570083
     61          6           0       -6.655921    0.959741   -0.903586
     62          6           0       -6.998893   -0.060334    0.182837
     63          8           0       -8.085469   -0.636102    0.119242
     64          6           0       -6.172371    0.221661   -2.146613
     65          6           0       -5.174245   -0.886524   -1.845997
     66          7           0       -5.439055   -2.103622   -2.314557
     67          8           0       -4.105756   -0.592813   -1.311427
     68          1           0       -4.842702    1.988738   -1.036648
     69          1           0       -7.628369    1.356633   -1.194139
     70          1           0       -5.726299    1.012023   -2.740287
     71          1           0       -6.998817   -0.187386   -2.736077
     72          1           0       -6.281061   -2.299516   -2.842999
     73          1           0       -4.898691   -2.904133   -2.033683
     74          7           0       -6.148957   -0.199477    1.196962
     75          6           0       -6.394197   -1.110497    2.299368
     76          6           0       -5.387640   -2.249209    2.318742
     77          8           0       -5.621919   -3.191343    3.072132
     78          1           0       -5.361788    0.444878    1.228136
     79          1           0       -7.403576   -1.525679    2.269724
     80          1           0       -6.191538   -0.514146    3.191497
     81          7           0       -4.301392   -2.240650    1.543246
     82          6           0       -3.192866   -3.152676    1.763656
     83          6           0       -1.843580   -2.549672    1.392693
     84          8           0       -1.770995   -1.653749    0.548090
     85          6           0       -3.454260   -4.480525    1.060102
     86          6           0       -4.257149   -4.551463   -0.216040
     87          6           0       -5.647845   -4.689912   -0.083770
     88          6           0       -3.615499   -4.777705   -1.438415
     89          6           0       -6.398933   -5.073870   -1.198868
     90          6           0       -4.364207   -5.008094   -2.596066
     91          6           0       -5.750226   -5.200621   -2.442497
     92          8           0       -6.463476   -5.521686   -3.561154
     93          1           0       -4.175676   -1.387396    1.015277
     94          1           0       -3.122847   -3.314968    2.843313
     95          1           0       -4.065623   -5.056510    1.746088
     96          1           0       -2.484626   -4.973208    0.976602
     97          1           0       -6.063497   -4.664972    0.911223
     98          1           0       -2.564968   -4.628380   -1.623310
     99          1           0       -7.468307   -5.229200   -1.151846
    100          1           0       -3.868736   -5.093331   -3.555099
    101          1           0       -5.951272   -5.833862   -4.306602
    102          7           0       -0.802678   -3.118689    1.982390
    103          6           0        0.585526   -2.770295    1.740499
    104          6           0        1.245517   -3.642229    0.682273
    105          8           0        1.279140   -4.859994    0.846040
    106          6           0        1.344756   -2.895105    3.055068
    107          6           0        0.706927   -2.112660    4.200474
    108          6           0        2.812542   -2.523311    2.892670
    109          6           0        1.075146   -2.510896    5.629713
    110          1           0       -0.927874   -3.987477    2.494282
    111          1           0        0.514951   -1.725589    1.413070
    112          1           0        1.289141   -3.924839    3.401267
    113          1           0       -0.377088   -2.160682    4.217987
    114          1           0        0.892877   -1.050724    4.038871
    115          1           0        3.504591   -2.824012    3.672123
    116          1           0        3.081503   -3.001442    1.938914
    117          1           0        2.912453   -1.443621    2.804429
    118          1           0        0.604912   -1.740396    6.238491
    119          1           0        0.732584   -3.530178    5.807236
    120          1           0        2.125414   -2.544735    5.914126
    121          7           0        1.690898   -3.091188   -0.439061
    122          6           0        2.627618   -3.693433   -1.375681
    123          6           0        4.069354   -3.449803   -0.961021
    124          8           0        4.342994   -2.530368   -0.179701
    125          6           0        2.397322   -3.264755   -2.823645
    126          8           0        2.738317   -1.908118   -3.041033
    127          1           0        1.484061   -2.110564   -0.565925
    128          1           0        2.492877   -4.770738   -1.278431
    129          1           0        1.360085   -3.443482   -3.101306
    130          1           0        3.135600   -3.827096   -3.394712
    131          1           0        2.296039   -1.389330   -2.368538
    132          7           0        5.035714   -4.247361   -1.409406
    133          6           0        6.403192   -4.312718   -0.922544
    134          6           0        7.199457   -3.053810   -1.229811
    135          8           0        8.070330   -2.605745   -0.490002
    136          6           0        7.061721   -5.620891   -1.360291
    137          1           0        4.857506   -5.055133   -1.984512
    138          1           0        6.259788   -4.490318    0.146331
    139          1           0        8.075421   -5.746668   -0.982014
    140          1           0        6.468228   -6.498355   -1.091548
    141          1           0        7.140899   -5.591827   -2.449458
    142          7           0        6.722294   -2.273347   -2.204590
    143          6           0        7.298093   -0.981700   -2.507086
    144          6           0        6.979768    0.057376   -1.437558
    145          8           0        7.832229    0.909239   -1.175566
    146          6           0        6.753281   -0.500494   -3.841822
    147          1           0        6.116281   -2.719453   -2.875513
    148          1           0        8.383790   -0.905496   -2.514452
    149          1           0        5.667630   -0.424840   -3.763469
    150          1           0        7.193398    0.486923   -3.966738
    151          1           0        6.934971   -1.218262   -4.647736
    152          7           0        5.853520   -0.108123   -0.741874
    153          6           0        5.432341    0.814432    0.293838
    154          6           0        6.100347    0.400514    1.598652
    155          8           0        6.438883    1.298797    2.358969
    156          6           0        3.914786    0.860642    0.486175
    157          6           0        3.227793    1.131954   -0.843197
    158          6           0        1.748849    0.765355   -0.791923
    159          8           0        1.346856   -0.409978   -0.969387
    160          8           0        0.848633    1.627721   -0.771002
    161          1           0        5.195110   -0.849432   -0.948892
    162          1           0        5.797088    1.806045    0.031803
    163          1           0        3.738688    1.709243    1.134762
    164          1           0        3.495739   -0.018085    0.985714
    165          1           0        3.752117    0.627339   -1.657352
    166          1           0        3.269103    2.198259   -1.032368
    167          7           0        6.427734   -0.877772    1.793085
    168          6           0        7.173095   -1.370976    2.940642
    169          1           0        7.970052   -2.031943    2.599254
    170          1           0        7.605956   -0.529880    3.482467
    171          1           0        6.502734   -1.922002    3.600602
    172          1           0        6.319850   -1.569245    1.070571
    173         20           0       -1.333256    0.056441   -1.471366
    174          8           0       -0.667987   -2.300963   -2.593269
    175          1           0       -0.593374   -3.253954   -2.540926
    176          1           0       -0.594374   -2.107655   -3.536515
 ---------------------------------------------------------------------
 Rotational constants (GHZ):           0.0239084           0.0155541           0.0125498
 Standard basis: SVP (5D, 7F)
 There are  1809 symmetry adapted cartesian basis functions of A   symmetry.
 There are  1717 symmetry adapted basis functions of A   symmetry.
  1717 basis functions,  2922 primitive gaussians,  1809 cartesian basis functions
   358 alpha electrons      358 beta electrons
       nuclear repulsion energy     21826.4272440635 Hartrees.
 NAtoms=  176 NActive=  176 NUniq=  176 SFac= 1.00D+00 NAtFMM=   60 NAOKFM=T Big=T
 Integral buffers will be    131072 words long.
 Raffenetti 2 integral format.
 Two-electron integral symmetry is turned on.
 One-electron integrals computed using PRISM.
 NBasis=  1717 RedAO= T EigKep=  2.88D-04  NBF=  1717
 NBsUse=  1717 1.00D-06 EigRej= -1.00D+00 NBFU=  1717
 ExpMin= 1.98D-02 ExpMax= 3.51D+04 ExpMxC= 5.28D+03 IAcc=3 IRadAn=         5 AccDes= 0.00D+00
 Harris functional with IExCor=  402 and IRadAn=       5 diagonalized for initial guess.
 HarFok:  IExCor=  402 AccDes= 0.00D+00 IRadAn=         5 IDoV= 1 UseB2=F ITyADJ=14
 ICtDFT=  3500011 ScaDFX=  1.000000  1.000000  1.000000  1.000000
 FoFCou: FMM=F IPFlag=           0 FMFlag=      100000 FMFlg1=        2001
         NFxFlg=           0 DoJE=T BraDBF=F KetDBF=T FulRan=T
         wScrn=  0.000000 ICntrl=       500 IOpCl=  0 I1Cent=   200000004 NGrid=           0
         NMat0=    1 NMatS0=      1 NMatT0=    0 NMatD0=    1 NMtDS0=    0 NMtDT0=    0
 Petite list used in FoFCou.
 Requested convergence on RMS density matrix=1.00D-08 within 128 cycles.
 Requested convergence on MAX density matrix=1.00D-06.
 Requested convergence on             energy=1.00D-06.
 No special actions if energy rises.
 EnCoef did     1 forward-backward iterations
 SCF Done:  E(RB3LYP) =  -5333.57570308     A.U. after   16 cycles
            NFock= 16  Conv=0.27D-08     -V/T= 2.0082
 SCF density gives NOpUse=  1 NOpAll=  1.
 Hyperfine terms turned off by default for NAtoms > 100.

 **********************************************************************

            Population analysis using the SCF density.

 **********************************************************************

 Orbital symmetries:
 BldTbl:  Degeneracy threshold= 1.00D-02
       Occupied  (A) (A) (A) (A) (A) (A) (A) (A) (A) (A) (A) (A)
                 (A) (A) (A) (A) (A) (A) (A) (A) (A) (A) (A) (A)
                 (A) (A) (A) (A) (A) (A) (A) (A) (A) (A) (A) (A)
                 (A) (A) (A) (A) (A) (A) (A) (A) (A) (A) (A) (A)
                 (A) (A) (A) (A) (A) (A) (A) (A) (A) (A) (A) (A)
                 (A) (A) (A) (A) (A) (A) (A) (A) (A) (A) (A) (A)
                 (A) (A) (A) (A) (A) (A) (A) (A) (A) (A) (A) (A)
                 (A) (A) (A) (A) (A) (A) (A) (A) (A) (A) (A) (A)
                 (A) (A) (A) (A) (A) (A) (A) (A) (A) (A) (A) (A)
                 (A) (A) (A) (A) (A) (A) (A) (A) (A) (A) (A) (A)
                 (A) (A) (A) (A) (A) (A) (A) (A) (A) (A) (A) (A)
                 (A) (A) (A) (A) (A) (A) (A) (A) (A) (A) (A) (A)
                 (A) (A) (A) (A) (A) (A) (A) (A) (A) (A) (A) (A)
                 (A) (A) (A) (A) (A) (A) (A) (A) (A) (A) (A) (A)
                 (A) (A) (A) (A) (A) (A) (A) (A) (A) (A) (A) (A)
                 (A) (A) (A) (A) (A) (A) (A) (A) (A) (A) (A) (A)
                 (A) (A) (A) (A) (A) (A) (A) (A) (A) (A) (A) (A)
                 (A) (A) (A) (A) (A) (A) (A) (A) (A) (A) (A) (A)
                 (A) (A) (A) (A) (A) (A) (A) (A) (A) (A) (A) (A)
                 (A) (A) (A) (A) (A) (A) (A) (A) (A) (A) (A) (A)
                 (A) (A) (A) (A) (A) (A) (A) (A) (A) (A) (A) (A)
                 (A) (A) (A) (A) (A) (A) (A) (A) (A) (A) (A) (A)
                 (A) (A) (A) (A) (A) (A) (A) (A) (A) (A) (A) (A)
                 (A) (A) (A) (A) (A) (A) (A) (A) (A) (A) (A) (A)
                 (A) (A) (A) (A) (A) (A) (A) (A) (A) (A) (A) (A)
                 (A) (A) (A) (A) (A) (A) (A) (A) (A) (A) (A) (A)
                 (A) (A) (A) (A) (A) (A) (A) (A) (A) (A) (A) (A)
                 (A) (A) (A) (A) (A) (A) (A) (A) (A) (A) (A) (A)
                 (A) (A) (A) (A) (A) (A) (A) (A) (A) (A) (A) (A)
                 (A) (A) (A) (A) (A) (A) (A) (A) (A) (A)
       Virtual   (A) (A) (A) (A) (A) (A) (A) (A) (A) (A) (A) (A)
                 (A) (A) (A) (A) (A) (A) (A) (A) (A) (A) (A) (A)
                 (A) (A) (A) (A) (A) (A) (A) (A) (A) (A) (A) (A)
                 (A) (A) (A) (A) (A) (A) (A) (A) (A) (A) (A) (A)
                 (A) (A) (A) (A) (A) (A) (A) (A) (A) (A) (A) (A)
                 (A) (A) (A) (A) (A) (A) (A) (A) (A) (A) (A) (A)
                 (A) (A) (A) (A) (A) (A) (A) (A) (A) (A) (A) (A)
                 (A) (A) (A) (A) (A) (A) (A) (A) (A) (A) (A) (A)
                 (A) (A) (A) (A) (A) (A) (A) (A) (A) (A) (A) (A)
                 (A) (A) (A) (A) (A) (A) (A) (A) (A) (A) (A) (A)
                 (A) (A) (A) (A) (A) (A) (A) (A) (A) (A) (A) (A)
                 (A) (A) (A) (A) (A) (A) (A) (A) (A) (A) (A) (A)
                 (A) (A) (A) (A) (A) (A) (A) (A) (A) (A) (A) (A)
                 (A) (A) (A) (A) (A) (A) (A) (A) (A) (A) (A) (A)
                 (A) (A) (A) (A) (A) (A) (A) (A) (A) (A) (A) (A)
                 (A) (A) (A) (A) (A) (A) (A) (A) (A) (A) (A) (A)
                 (A) (A) (A) (A) (A) (A) (A) (A) (A) (A) (A) (A)
                 (A) (A) (A) (A) (A) (A) (A) (A) (A) (A) (A) (A)
                 (A) (A) (A) (A) (A) (A) (A) (A) (A) (A) (A) (A)
                 (A) (A) (A) (A) (A) (A) (A) (A) (A) (A) (A) (A)
                 (A) (A) (A) (A) (A) (A) (A) (A) (A) (A) (A) (A)
                 (A) (A) (A) (A) (A) (A) (A) (A) (A) (A) (A) (A)
                 (A) (A) (A) (A) (A) (A) (A) (A) (A) (A) (A) (A)
                 (A) (A) (A) (A) (A) (A) (A) (A) (A) (A) (A) (A)
                 (A) (A) (A) (A) (A) (A) (A) (A) (A) (A) (A) (A)
                 (A) (A) (A) (A) (A) (A) (A) (A) (A) (A) (A) (A)
                 (A) (A) (A) (A) (A) (A) (A) (A) (A) (A) (A) (A)
                 (A) (A) (A) (A) (A) (A) (A) (A) (A) (A) (A) (A)
                 (A) (A) (A) (A) (A) (A) (A) (A) (A) (A) (A) (A)
                 (A) (A) (A) (A) (A) (A) (A) (A) (A) (A) (A) (A)
                 (A) (A) (A) (A) (A) (A) (A) (A) (A) (A) (A) (A)
                 (A) (A) (A) (A) (A) (A) (A) (A) (A) (A) (A) (A)
                 (A) (A) (A) (A) (A) (A) (A) (A) (A) (A) (A) (A)
                 (A) (A) (A) (A) (A) (A) (A) (A) (A) (A) (A) (A)
                 (A) (A) (A) (A) (A) (A) (A) (A) (A) (A) (A) (A)
                 (A) (A) (A) (A) (A) (A) (A) (A) (A) (A) (A) (A)
                 (A) (A) (A) (A) (A) (A) (A) (A) (A) (A) (A) (A)
                 (A) (A) (A) (A) (A) (A) (A) (A) (A) (A) (A) (A)
                 (A) (A) (A) (A) (A) (A) (A) (A) (A) (A) (A) (A)
                 (A) (A) (A) (A) (A) (A) (A) (A) (A) (A) (A) (A)
                 (A) (A) (A) (A) (A) (A) (A) (A) (A) (A) (A) (A)
                 (A) (A) (A) (A) (A) (A) (A) (A) (A) (A) (A) (A)
                 (A) (A) (A) (A) (A) (A) (A) (A) (A) (A) (A) (A)
                 (A) (A) (A) (A) (A) (A) (A) (A) (A) (A) (A) (A)
                 (A) (A) (A) (A) (A) (A) (A) (A) (A) (A) (A) (A)
                 (A) (A) (A) (A) (A) (A) (A) (A) (A) (A) (A) (A)
                 (A) (A) (A) (A) (A) (A) (A) (A) (A) (A) (A) (A)
                 (A) (A) (A) (A) (A) (A) (A) (A) (A) (A) (A) (A)
                 (A) (A) (A) (A) (A) (A) (A) (A) (A) (A) (A) (A)
                 (A) (A) (A) (A) (A) (A) (A) (A) (A) (A) (A) (A)
                 (A) (A) (A) (A) (A) (A) (A) (A) (A) (A) (A) (A)
                 (A) (A) (A) (A) (A) (A) (A) (A) (A) (A) (A) (A)
                 (A) (A) (A) (A) (A) (A) (A) (A) (A) (A) (A) (A)
                 (A) (A) (A) (A) (A) (A) (A) (A) (A) (A) (A) (A)
                 (A) (A) (A) (A) (A) (A) (A) (A) (A) (A) (A) (A)
                 (A) (A) (A) (A) (A) (A) (A) (A) (A) (A) (A) (A)
                 (A) (A) (A) (A) (A) (A) (A) (A) (A) (A) (A) (A)
                 (A) (A) (A) (A) (A) (A) (A) (A) (A) (A) (A) (A)
                 (A) (A) (A) (A) (A) (A) (A) (A) (A) (A) (A) (A)
                 (A) (A) (A) (A) (A) (A) (A) (A) (A) (A) (A) (A)
                 (A) (A) (A) (A) (A) (A) (A) (A) (A) (A) (A) (A)
                 (A) (A) (A) (A) (A) (A) (A) (A) (A) (A) (A) (A)
                 (A) (A) (A) (A) (A) (A) (A) (A) (A) (A) (A) (A)
                 (A) (A) (A) (A) (A) (A) (A) (A) (A) (A) (A) (A)
                 (A) (A) (A) (A) (A) (A) (A) (A) (A) (A) (A) (A)
                 (A) (A) (A) (A) (A) (A) (A) (A) (A) (A) (A) (A)
                 (A) (A) (A) (A) (A) (A) (A) (A) (A) (A) (A) (A)
                 (A) (A) (A) (A) (A) (A) (A) (A) (A) (A) (A) (A)
                 (A) (A) (A) (A) (A) (A) (A) (A) (A) (A) (A) (A)
                 (A) (A) (A) (A) (A) (A) (A) (A) (A) (A) (A) (A)
                 (A) (A) (A) (A) (A) (A) (A) (A) (A) (A) (A) (A)
                 (A) (A) (A) (A) (A) (A) (A) (A) (A) (A) (A) (A)
                 (A) (A) (A) (A) (A) (A) (A) (A) (A) (A) (A) (A)
                 (A) (A) (A) (A) (A) (A) (A) (A) (A) (A) (A) (A)
                 (A) (A) (A) (A) (A) (A) (A) (A) (A) (A) (A) (A)
                 (A) (A) (A) (A) (A) (A) (A) (A) (A) (A) (A) (A)
                 (A) (A) (A) (A) (A) (A) (A) (A) (A) (A) (A) (A)
                 (A) (A) (A) (A) (A) (A) (A) (A) (A) (A) (A) (A)
                 (A) (A) (A) (A) (A) (A) (A) (A) (A) (A) (A) (A)
                 (A) (A) (A) (A) (A) (A) (A) (A) (A) (A) (A) (A)
                 (A) (A) (A) (A) (A) (A) (A) (A) (A) (A) (A) (A)
                 (A) (A) (A) (A) (A) (A) (A) (A) (A) (A) (A) (A)
                 (A) (A) (A) (A) (A) (A) (A) (A) (A) (A) (A) (A)
                 (A) (A) (A) (A) (A) (A) (A) (A) (A) (A) (A) (A)
                 (A) (A) (A) (A) (A) (A) (A) (A) (A) (A) (A) (A)
                 (A) (A) (A) (A) (A) (A) (A) (A) (A) (A) (A) (A)
                 (A) (A) (A) (A) (A) (A) (A) (A) (A) (A) (A) (A)
                 (A) (A) (A) (A) (A) (A) (A) (A) (A) (A) (A) (A)
                 (A) (A) (A) (A) (A) (A) (A) (A) (A) (A) (A) (A)
                 (A) (A) (A) (A) (A) (A) (A) (A) (A) (A) (A) (A)
                 (A) (A) (A) (A) (A) (A) (A) (A) (A) (A) (A) (A)
                 (A) (A) (A) (A) (A) (A) (A) (A) (A) (A) (A) (A)
                 (A) (A) (A) (A) (A) (A) (A) (A) (A) (A) (A) (A)
                 (A) (A) (A) (A) (A) (A) (A) (A) (A) (A) (A) (A)
                 (A) (A) (A) (A) (A) (A) (A) (A) (A) (A) (A) (A)
                 (A) (A) (A) (A) (A) (A) (A) (A) (A) (A) (A) (A)
                 (A) (A) (A) (A) (A) (A) (A) (A) (A) (A) (A) (A)
                 (A) (A) (A) (A) (A) (A) (A) (A) (A) (A) (A) (A)
                 (A) (A) (A) (A) (A) (A) (A) (A) (A) (A) (A) (A)
                 (A) (A) (A) (A) (A) (A) (A) (A) (A) (A) (A) (A)
                 (A) (A) (A) (A) (A) (A) (A) (A) (A) (A) (A) (A)
                 (A) (A) (A) (A) (A) (A) (A) (A) (A) (A) (A) (A)
                 (A) (A) (A) (A) (A) (A) (A) (A) (A) (A) (A) (A)
                 (A) (A) (A) (A) (A) (A) (A) (A) (A) (A) (A) (A)
                 (A) (A) (A) (A) (A) (A) (A) (A) (A) (A) (A) (A)
                 (A) (A) (A) (A) (A) (A) (A) (A) (A) (A) (A) (A)
                 (A) (A) (A) (A) (A) (A) (A) (A) (A) (A) (A) (A)
                 (A) (A) (A) (A) (A) (A) (A) (A) (A) (A) (A) (A)
                 (A) (A) (A) (A) (A) (A) (A) (A) (A) (A) (A) (A)
                 (A) (A) (A) (A) (A) (A) (A) (A) (A) (A) (A) (A)
                 (A) (A) (A) (A) (A) (A) (A) (A) (A) (A) (A) (A)
                 (A) (A) (A) (A) (A) (A) (A) (A) (A) (A) (A) (A)
                 (A) (A) (A) (A) (A) (A) (A) (A) (A) (A) (A) (A)
                 (A) (A) (A)
 The electronic state is 1-A.
 Alpha  occ. eigenvalues -- -145.40706 -19.22264 -19.17617 -19.15503 -19.14197
 Alpha  occ. eigenvalues --  -19.13397 -19.12294 -19.11468 -19.10976 -19.10622
 Alpha  occ. eigenvalues --  -19.09876 -19.08902 -19.07290 -19.07236 -19.06852
 Alpha  occ. eigenvalues --  -19.06523 -19.05710 -19.05452 -19.05344 -19.05176
 Alpha  occ. eigenvalues --  -19.05108 -19.04446 -19.03529 -19.01709 -15.46405
 Alpha  occ. eigenvalues --  -14.58223 -14.40627 -14.38296 -14.38264 -14.36098
 Alpha  occ. eigenvalues --  -14.36086 -14.35206 -14.33623 -14.33311 -14.32976
 Alpha  occ. eigenvalues --  -14.32768 -14.31389 -14.31216 -14.30644 -14.30420
 Alpha  occ. eigenvalues --  -12.60018 -12.60001 -12.59967 -10.33858 -10.32875
 Alpha  occ. eigenvalues --  -10.31381 -10.31072 -10.30040 -10.29624 -10.28884
 Alpha  occ. eigenvalues --  -10.28408 -10.27891 -10.27506 -10.27200 -10.26744
 Alpha  occ. eigenvalues --  -10.26105 -10.25978 -10.25939 -10.25773 -10.25559
 Alpha  occ. eigenvalues --  -10.24717 -10.24478 -10.24416 -10.24239 -10.24105
 Alpha  occ. eigenvalues --  -10.23933 -10.23643 -10.23469 -10.23446 -10.22831
 Alpha  occ. eigenvalues --  -10.22177 -10.21688 -10.21555 -10.21545 -10.21233
 Alpha  occ. eigenvalues --  -10.21001 -10.20797 -10.20664 -10.20617 -10.20479
 Alpha  occ. eigenvalues --  -10.20279 -10.20178 -10.19967 -10.19962 -10.19803
 Alpha  occ. eigenvalues --  -10.19466 -10.19428 -10.19223 -10.18939 -10.18515
 Alpha  occ. eigenvalues --  -10.18203 -10.18034 -10.18001 -10.17741 -10.17585
 Alpha  occ. eigenvalues --  -10.16072 -10.15337  -1.82995  -1.13324  -1.10519
 Alpha  occ. eigenvalues --   -1.10341  -1.10158  -1.07944  -1.07562  -1.06371
 Alpha  occ. eigenvalues --   -1.05843  -1.05590  -1.05295  -1.04241  -1.03874
 Alpha  occ. eigenvalues --   -1.03764  -1.02602  -1.00822  -1.00807  -1.00045
 Alpha  occ. eigenvalues --   -0.99830  -0.98953  -0.98764  -0.98489  -0.98330
 Alpha  occ. eigenvalues --   -0.98097  -0.97428  -0.97410  -0.95365  -0.94769
 Alpha  occ. eigenvalues --   -0.93910  -0.93217  -0.92321  -0.91314  -0.90876
 Alpha  occ. eigenvalues --   -0.90456  -0.89617  -0.89011  -0.88953  -0.88671
 Alpha  occ. eigenvalues --   -0.88554  -0.87862  -0.87762  -0.87700  -0.86939
 Alpha  occ. eigenvalues --   -0.86566  -0.83159  -0.82465  -0.80404  -0.79828
 Alpha  occ. eigenvalues --   -0.79540  -0.79119  -0.78702  -0.76954  -0.76735
 Alpha  occ. eigenvalues --   -0.76120  -0.75899  -0.74720  -0.74017  -0.73785
 Alpha  occ. eigenvalues --   -0.73448  -0.72830  -0.71177  -0.71118  -0.70642
 Alpha  occ. eigenvalues --   -0.70517  -0.70391  -0.69279  -0.68684  -0.68219
 Alpha  occ. eigenvalues --   -0.67056  -0.66773  -0.66264  -0.65557  -0.65061
 Alpha  occ. eigenvalues --   -0.63972  -0.63706  -0.63367  -0.63244  -0.62209
 Alpha  occ. eigenvalues --   -0.62171  -0.62040  -0.61382  -0.61291  -0.60941
 Alpha  occ. eigenvalues --   -0.60662  -0.60300  -0.60020  -0.60003  -0.58409
 Alpha  occ. eigenvalues --   -0.57993  -0.57823  -0.57217  -0.57201  -0.56700
 Alpha  occ. eigenvalues --   -0.56527  -0.56469  -0.56370  -0.55913  -0.54984
 Alpha  occ. eigenvalues --   -0.54746  -0.54514  -0.54227  -0.53789  -0.53614
 Alpha  occ. eigenvalues --   -0.53498  -0.53273  -0.52787  -0.52548  -0.51630
 Alpha  occ. eigenvalues --   -0.51426  -0.51233  -0.50862  -0.50710  -0.50463
 Alpha  occ. eigenvalues --   -0.50315  -0.50055  -0.49817  -0.49580  -0.49342
 Alpha  occ. eigenvalues --   -0.48704  -0.48467  -0.48353  -0.48175  -0.48031
 Alpha  occ. eigenvalues --   -0.47875  -0.47592  -0.47494  -0.47386  -0.47038
 Alpha  occ. eigenvalues --   -0.46714  -0.46610  -0.46396  -0.46224  -0.46143
 Alpha  occ. eigenvalues --   -0.45961  -0.45901  -0.45655  -0.45564  -0.45363
 Alpha  occ. eigenvalues --   -0.45313  -0.44830  -0.44684  -0.44497  -0.44415
 Alpha  occ. eigenvalues --   -0.44401  -0.44219  -0.43666  -0.43581  -0.43405
 Alpha  occ. eigenvalues --   -0.43362  -0.43310  -0.43101  -0.42977  -0.42830
 Alpha  occ. eigenvalues --   -0.42797  -0.42609  -0.42497  -0.42305  -0.42140
 Alpha  occ. eigenvalues --   -0.41930  -0.41839  -0.41595  -0.41472  -0.41253
 Alpha  occ. eigenvalues --   -0.41048  -0.40914  -0.40766  -0.40608  -0.40487
 Alpha  occ. eigenvalues --   -0.40386  -0.40181  -0.40143  -0.39815  -0.39728
 Alpha  occ. eigenvalues --   -0.39478  -0.39341  -0.39291  -0.39257  -0.39233
 Alpha  occ. eigenvalues --   -0.39083  -0.38880  -0.38767  -0.38626  -0.38472
 Alpha  occ. eigenvalues --   -0.38372  -0.38269  -0.38145  -0.37924  -0.37731
 Alpha  occ. eigenvalues --   -0.37549  -0.37350  -0.37259  -0.37109  -0.36804
 Alpha  occ. eigenvalues --   -0.36776  -0.36605  -0.36525  -0.36354  -0.36202
 Alpha  occ. eigenvalues --   -0.36081  -0.36013  -0.35814  -0.35409  -0.35378
 Alpha  occ. eigenvalues --   -0.35212  -0.35065  -0.34689  -0.34580  -0.34468
 Alpha  occ. eigenvalues --   -0.34398  -0.34208  -0.34017  -0.33703  -0.33597
 Alpha  occ. eigenvalues --   -0.32976  -0.32674  -0.32563  -0.32371  -0.31915
 Alpha  occ. eigenvalues --   -0.31863  -0.31778  -0.31610  -0.31222  -0.30901
 Alpha  occ. eigenvalues --   -0.30143  -0.29933  -0.29566  -0.29433  -0.29120
 Alpha  occ. eigenvalues --   -0.28556  -0.27979  -0.27693  -0.27636  -0.27287
 Alpha  occ. eigenvalues --   -0.27189  -0.26884  -0.26486  -0.25371  -0.25249
 Alpha  occ. eigenvalues --   -0.24895  -0.24774  -0.24687  -0.24516  -0.24213
 Alpha  occ. eigenvalues --   -0.24140  -0.23694  -0.23205  -0.23112  -0.22927
 Alpha  occ. eigenvalues --   -0.22448  -0.22314  -0.22011  -0.21919  -0.21358
 Alpha  occ. eigenvalues --   -0.21209  -0.21103  -0.20887  -0.20554  -0.20047
 Alpha  occ. eigenvalues --   -0.19502  -0.19246  -0.17993
 Alpha virt. eigenvalues --   -0.10017  -0.05160  -0.04117  -0.03802  -0.03698
 Alpha virt. eigenvalues --   -0.03053  -0.02456  -0.02367  -0.00816  -0.00476
 Alpha virt. eigenvalues --   -0.00275   0.00062   0.00193   0.01019   0.01295
 Alpha virt. eigenvalues --    0.02271   0.02680   0.02853   0.03145   0.03279
 Alpha virt. eigenvalues --    0.03403   0.03720   0.04103   0.04425   0.04584
 Alpha virt. eigenvalues --    0.04642   0.04979   0.05209   0.05298   0.05325
 Alpha virt. eigenvalues --    0.05427   0.05649   0.05828   0.06121   0.06216
 Alpha virt. eigenvalues --    0.06786   0.06931   0.07236   0.07259   0.07365
 Alpha virt. eigenvalues --    0.07550   0.07875   0.08259   0.08650   0.08811
 Alpha virt. eigenvalues --    0.08891   0.09189   0.09384   0.09475   0.09641
 Alpha virt. eigenvalues --    0.09779   0.10300   0.10418   0.10480   0.10605
 Alpha virt. eigenvalues --    0.10792   0.11026   0.11194   0.11367   0.11405
 Alpha virt. eigenvalues --    0.11555   0.11780   0.11822   0.12077   0.12172
 Alpha virt. eigenvalues --    0.12342   0.12482   0.12578   0.12804   0.12945
 Alpha virt. eigenvalues --    0.13074   0.13464   0.13559   0.13734   0.13837
 Alpha virt. eigenvalues --    0.14107   0.14411   0.14695   0.14780   0.14928
 Alpha virt. eigenvalues --    0.15171   0.15369   0.15523   0.15597   0.15763
 Alpha virt. eigenvalues --    0.15894   0.16206   0.16250   0.16357   0.16436
 Alpha virt. eigenvalues --    0.16561   0.16960   0.17016   0.17082   0.17280
 Alpha virt. eigenvalues --    0.17335   0.17686   0.17732   0.17991   0.18254
 Alpha virt. eigenvalues --    0.18295   0.18573   0.18702   0.18814   0.18924
 Alpha virt. eigenvalues --    0.19085   0.19199   0.19360   0.19698   0.19804
 Alpha virt. eigenvalues --    0.19926   0.20079   0.20332   0.20529   0.20816
 Alpha virt. eigenvalues --    0.20952   0.21154   0.21606   0.21732   0.22086
 Alpha virt. eigenvalues --    0.22322   0.22460   0.22508   0.22726   0.23080
 Alpha virt. eigenvalues --    0.23184   0.23503   0.23601   0.23910   0.24158
 Alpha virt. eigenvalues --    0.24232   0.24479   0.24754   0.24969   0.25175
 Alpha virt. eigenvalues --    0.25242   0.25489   0.25644   0.25803   0.25989
 Alpha virt. eigenvalues --    0.26360   0.26881   0.26927   0.27044   0.27429
 Alpha virt. eigenvalues --    0.27461   0.27641   0.28037   0.28452   0.28507
 Alpha virt. eigenvalues --    0.28779   0.28997   0.29146   0.29356   0.29498
 Alpha virt. eigenvalues --    0.29893   0.30265   0.30361   0.30489   0.30914
 Alpha virt. eigenvalues --    0.31214   0.31329   0.31589   0.31833   0.31880
 Alpha virt. eigenvalues --    0.32033   0.32184   0.32435   0.32685   0.32780
 Alpha virt. eigenvalues --    0.33398   0.33624   0.33801   0.34085   0.34427
 Alpha virt. eigenvalues --    0.35138   0.35560   0.35796   0.35943   0.36497
 Alpha virt. eigenvalues --    0.36830   0.37064   0.37269   0.37423   0.37908
 Alpha virt. eigenvalues --    0.38134   0.38435   0.38626   0.39003   0.39098
 Alpha virt. eigenvalues --    0.39275   0.39353   0.40017   0.40147   0.40262
 Alpha virt. eigenvalues --    0.40541   0.40607   0.40953   0.41233   0.41610
 Alpha virt. eigenvalues --    0.41683   0.42031   0.42097   0.42348   0.42503
 Alpha virt. eigenvalues --    0.42789   0.42937   0.43375   0.43480   0.43813
 Alpha virt. eigenvalues --    0.43933   0.44061   0.44463   0.44749   0.44782
 Alpha virt. eigenvalues --    0.45162   0.45294   0.45550   0.45711   0.46022
 Alpha virt. eigenvalues --    0.46297   0.46366   0.46644   0.46804   0.46894
 Alpha virt. eigenvalues --    0.47158   0.47407   0.47541   0.47634   0.47789
 Alpha virt. eigenvalues --    0.47894   0.48133   0.48183   0.48398   0.48474
 Alpha virt. eigenvalues --    0.48643   0.48857   0.49078   0.49410   0.49571
 Alpha virt. eigenvalues --    0.49929   0.50010   0.50171   0.50432   0.50570
 Alpha virt. eigenvalues --    0.50694   0.50789   0.50926   0.51064   0.51600
 Alpha virt. eigenvalues --    0.52154   0.52244   0.52361   0.52498   0.52598
 Alpha virt. eigenvalues --    0.52840   0.52975   0.53069   0.53353   0.53578
 Alpha virt. eigenvalues --    0.53639   0.53789   0.53900   0.54206   0.54508
 Alpha virt. eigenvalues --    0.54735   0.54865   0.55035   0.55242   0.55441
 Alpha virt. eigenvalues --    0.55612   0.55759   0.56187   0.56346   0.56557
 Alpha virt. eigenvalues --    0.56688   0.56913   0.57168   0.57225   0.57273
 Alpha virt. eigenvalues --    0.57658   0.57745   0.57815   0.58272   0.58331
 Alpha virt. eigenvalues --    0.58408   0.58507   0.58773   0.58967   0.59034
 Alpha virt. eigenvalues --    0.59172   0.59279   0.59424   0.59587   0.59820
 Alpha virt. eigenvalues --    0.59861   0.60044   0.60181   0.60542   0.60730
 Alpha virt. eigenvalues --    0.60848   0.60903   0.61039   0.61097   0.61409
 Alpha virt. eigenvalues --    0.61430   0.61691   0.61847   0.62025   0.62199
 Alpha virt. eigenvalues --    0.62354   0.62459   0.62528   0.62601   0.62864
 Alpha virt. eigenvalues --    0.62960   0.63056   0.63101   0.63243   0.63385
 Alpha virt. eigenvalues --    0.63543   0.63681   0.63781   0.63849   0.64053
 Alpha virt. eigenvalues --    0.64160   0.64219   0.64344   0.64531   0.64719
 Alpha virt. eigenvalues --    0.64874   0.64928   0.65038   0.65060   0.65350
 Alpha virt. eigenvalues --    0.65500   0.65543   0.65664   0.65732   0.65796
 Alpha virt. eigenvalues --    0.65859   0.65932   0.66073   0.66216   0.66246
 Alpha virt. eigenvalues --    0.66422   0.66556   0.66619   0.66703   0.66877
 Alpha virt. eigenvalues --    0.66980   0.67048   0.67226   0.67276   0.67353
 Alpha virt. eigenvalues --    0.67447   0.67621   0.67708   0.67751   0.67820
 Alpha virt. eigenvalues --    0.67942   0.68114   0.68203   0.68397   0.68478
 Alpha virt. eigenvalues --    0.68675   0.68785   0.68924   0.69070   0.69170
 Alpha virt. eigenvalues --    0.69242   0.69255   0.69365   0.69479   0.69707
 Alpha virt. eigenvalues --    0.69789   0.69883   0.70101   0.70213   0.70329
 Alpha virt. eigenvalues --    0.70385   0.70575   0.70621   0.70821   0.70947
 Alpha virt. eigenvalues --    0.71014   0.71286   0.71445   0.71518   0.71641
 Alpha virt. eigenvalues --    0.71779   0.72061   0.72312   0.72636   0.72746
 Alpha virt. eigenvalues --    0.72860   0.72979   0.73114   0.73381   0.73488
 Alpha virt. eigenvalues --    0.73701   0.73833   0.74006   0.74144   0.74219
 Alpha virt. eigenvalues --    0.74548   0.74661   0.75044   0.75183   0.75332
 Alpha virt. eigenvalues --    0.75487   0.75594   0.76033   0.76345   0.76473
 Alpha virt. eigenvalues --    0.76689   0.76852   0.76950   0.77367   0.77544
 Alpha virt. eigenvalues --    0.77871   0.78144   0.78280   0.78492   0.78603
 Alpha virt. eigenvalues --    0.79070   0.79219   0.79342   0.79593   0.79727
 Alpha virt. eigenvalues --    0.80008   0.80163   0.80537   0.80726   0.80905
 Alpha virt. eigenvalues --    0.81060   0.81419   0.81539   0.81946   0.82197
 Alpha virt. eigenvalues --    0.82443   0.82646   0.83003   0.83254   0.83585
 Alpha virt. eigenvalues --    0.83990   0.84246   0.84696   0.84910   0.84985
 Alpha virt. eigenvalues --    0.85391   0.85669   0.85818   0.86057   0.86333
 Alpha virt. eigenvalues --    0.86598   0.86807   0.86864   0.87130   0.87595
 Alpha virt. eigenvalues --    0.87729   0.88146   0.88303   0.88486   0.89187
 Alpha virt. eigenvalues --    0.89463   0.89791   0.90069   0.90269   0.90434
 Alpha virt. eigenvalues --    0.90730   0.91215   0.91432   0.91641   0.92306
 Alpha virt. eigenvalues --    0.92351   0.92619   0.92833   0.93047   0.93644
 Alpha virt. eigenvalues --    0.94013   0.94298   0.94500   0.94714   0.95037
 Alpha virt. eigenvalues --    0.95389   0.95561   0.95777   0.96308   0.96439
 Alpha virt. eigenvalues --    0.96666   0.96982   0.97078   0.97352   0.97817
 Alpha virt. eigenvalues --    0.97949   0.98184   0.98490   0.98712   0.99015
 Alpha virt. eigenvalues --    0.99274   0.99462   0.99852   1.00000   1.00687
 Alpha virt. eigenvalues --    1.00895   1.01047   1.01120   1.01676   1.01806
 Alpha virt. eigenvalues --    1.02066   1.02134   1.02468   1.03645   1.03892
 Alpha virt. eigenvalues --    1.04415   1.04666   1.04743   1.05030   1.05533
 Alpha virt. eigenvalues --    1.05645   1.05829   1.06350   1.06800   1.07152
 Alpha virt. eigenvalues --    1.07305   1.07596   1.08206   1.08314   1.08511
 Alpha virt. eigenvalues --    1.08893   1.09132   1.09427   1.09514   1.09762
 Alpha virt. eigenvalues --    1.10151   1.10316   1.10717   1.10887   1.11074
 Alpha virt. eigenvalues --    1.11443   1.11919   1.12311   1.12479   1.12941
 Alpha virt. eigenvalues --    1.13009   1.13175   1.13268   1.13457   1.13602
 Alpha virt. eigenvalues --    1.13895   1.14288   1.14588   1.14776   1.14874
 Alpha virt. eigenvalues --    1.15542   1.15596   1.16062   1.16270   1.16558
 Alpha virt. eigenvalues --    1.16741   1.16886   1.17327   1.17448   1.17639
 Alpha virt. eigenvalues --    1.18222   1.18283   1.18655   1.18757   1.19020
 Alpha virt. eigenvalues --    1.19135   1.19406   1.19752   1.20026   1.20502
 Alpha virt. eigenvalues --    1.20772   1.21133   1.21237   1.21379   1.21435
 Alpha virt. eigenvalues --    1.21618   1.21719   1.21840   1.22089   1.22638
 Alpha virt. eigenvalues --    1.22714   1.23209   1.23336   1.23585   1.23855
 Alpha virt. eigenvalues --    1.24123   1.24236   1.24604   1.24796   1.24898
 Alpha virt. eigenvalues --    1.25216   1.25746   1.26065   1.26141   1.26485
 Alpha virt. eigenvalues --    1.26666   1.26796   1.27143   1.27263   1.27606
 Alpha virt. eigenvalues --    1.28117   1.28682   1.28737   1.28936   1.29167
 Alpha virt. eigenvalues --    1.29674   1.29779   1.29973   1.30512   1.30907
 Alpha virt. eigenvalues --    1.31070   1.31285   1.31644   1.31903   1.32125
 Alpha virt. eigenvalues --    1.32616   1.32940   1.32978   1.33109   1.33675
 Alpha virt. eigenvalues --    1.33775   1.33811   1.34381   1.34687   1.35334
 Alpha virt. eigenvalues --    1.35424   1.35596   1.36033   1.36301   1.36788
 Alpha virt. eigenvalues --    1.37130   1.37470   1.37577   1.38047   1.38433
 Alpha virt. eigenvalues --    1.38701   1.38853   1.39243   1.39311   1.39621
 Alpha virt. eigenvalues --    1.39942   1.40101   1.40165   1.40506   1.40881
 Alpha virt. eigenvalues --    1.41153   1.41695   1.41958   1.42122   1.42330
 Alpha virt. eigenvalues --    1.42383   1.42902   1.42987   1.43136   1.43350
 Alpha virt. eigenvalues --    1.43505   1.44166   1.44473   1.44994   1.45360
 Alpha virt. eigenvalues --    1.45550   1.45862   1.46130   1.46250   1.46722
 Alpha virt. eigenvalues --    1.46978   1.47209   1.47908   1.48084   1.48397
 Alpha virt. eigenvalues --    1.48687   1.48840   1.49018   1.49281   1.49496
 Alpha virt. eigenvalues --    1.49899   1.50120   1.50493   1.51016   1.51190
 Alpha virt. eigenvalues --    1.51255   1.51576   1.51911   1.52230   1.52564
 Alpha virt. eigenvalues --    1.52750   1.52810   1.52924   1.53201   1.53424
 Alpha virt. eigenvalues --    1.53594   1.53767   1.53926   1.54473   1.54632
 Alpha virt. eigenvalues --    1.54881   1.55197   1.55427   1.55711   1.55814
 Alpha virt. eigenvalues --    1.56085   1.56344   1.57102   1.57857   1.58187
 Alpha virt. eigenvalues --    1.58648   1.59247   1.59368   1.59551   1.60061
 Alpha virt. eigenvalues --    1.60274   1.60738   1.61040   1.61332   1.61854
 Alpha virt. eigenvalues --    1.62458   1.62721   1.62986   1.63028   1.63486
 Alpha virt. eigenvalues --    1.64044   1.64160   1.64275   1.64433   1.65155
 Alpha virt. eigenvalues --    1.65411   1.65681   1.66148   1.66313   1.66469
 Alpha virt. eigenvalues --    1.66633   1.67150   1.67347   1.67458   1.67629
 Alpha virt. eigenvalues --    1.68097   1.68705   1.69032   1.69232   1.69489
 Alpha virt. eigenvalues --    1.69619   1.69773   1.70148   1.70436   1.70531
 Alpha virt. eigenvalues --    1.70745   1.70825   1.71307   1.71417   1.71423
 Alpha virt. eigenvalues --    1.71687   1.71975   1.72336   1.72579   1.72849
 Alpha virt. eigenvalues --    1.72967   1.73078   1.73291   1.73411   1.73727
 Alpha virt. eigenvalues --    1.73803   1.74130   1.74389   1.74605   1.74677
 Alpha virt. eigenvalues --    1.74794   1.74918   1.75133   1.75199   1.75389
 Alpha virt. eigenvalues --    1.75762   1.75854   1.75950   1.76095   1.76269
 Alpha virt. eigenvalues --    1.76465   1.76628   1.76807   1.76870   1.77072
 Alpha virt. eigenvalues --    1.77143   1.77207   1.77447   1.77675   1.77990
 Alpha virt. eigenvalues --    1.78035   1.78223   1.78329   1.78402   1.78734
 Alpha virt. eigenvalues --    1.78890   1.79008   1.79237   1.79357   1.79583
 Alpha virt. eigenvalues --    1.79735   1.79870   1.80142   1.80334   1.80548
 Alpha virt. eigenvalues --    1.80599   1.80953   1.81020   1.81140   1.81400
 Alpha virt. eigenvalues --    1.81603   1.81681   1.81841   1.82124   1.82289
 Alpha virt. eigenvalues --    1.82495   1.82679   1.82759   1.83267   1.83292
 Alpha virt. eigenvalues --    1.83461   1.83710   1.83948   1.84256   1.84687
 Alpha virt. eigenvalues --    1.85017   1.85148   1.85227   1.85425   1.85658
 Alpha virt. eigenvalues --    1.85999   1.86122   1.86492   1.86560   1.86659
 Alpha virt. eigenvalues --    1.86742   1.87114   1.87196   1.87439   1.87560
 Alpha virt. eigenvalues --    1.87733   1.88021   1.88225   1.88417   1.88440
 Alpha virt. eigenvalues --    1.88603   1.88794   1.88836   1.89044   1.89292
 Alpha virt. eigenvalues --    1.89528   1.89731   1.89990   1.90252   1.90633
 Alpha virt. eigenvalues --    1.90786   1.90997   1.91315   1.91530   1.91621
 Alpha virt. eigenvalues --    1.91827   1.92045   1.92172   1.92638   1.92698
 Alpha virt. eigenvalues --    1.92850   1.93118   1.93358   1.93717   1.93782
 Alpha virt. eigenvalues --    1.93869   1.94316   1.94361   1.94644   1.94685
 Alpha virt. eigenvalues --    1.94791   1.94902   1.95512   1.95687   1.96003
 Alpha virt. eigenvalues --    1.96087   1.96455   1.96502   1.96669   1.96941
 Alpha virt. eigenvalues --    1.96982   1.97076   1.97403   1.97767   1.97990
 Alpha virt. eigenvalues --    1.98240   1.98303   1.98457   1.98914   1.99173
 Alpha virt. eigenvalues --    1.99343   1.99571   1.99774   1.99897   1.99968
 Alpha virt. eigenvalues --    2.00295   2.00563   2.00864   2.00924   2.01193
 Alpha virt. eigenvalues --    2.01736   2.01816   2.02249   2.02322   2.02382
 Alpha virt. eigenvalues --    2.02944   2.03053   2.03276   2.03578   2.04139
 Alpha virt. eigenvalues --    2.04284   2.04338   2.04605   2.04927   2.05159
 Alpha virt. eigenvalues --    2.05367   2.05583   2.05907   2.06231   2.06275
 Alpha virt. eigenvalues --    2.06404   2.06770   2.07000   2.07266   2.07503
 Alpha virt. eigenvalues --    2.07908   2.08147   2.08231   2.08683   2.08998
 Alpha virt. eigenvalues --    2.09555   2.09885   2.10145   2.10393   2.10453
 Alpha virt. eigenvalues --    2.10835   2.10953   2.11298   2.11660   2.11774
 Alpha virt. eigenvalues --    2.12317   2.12640   2.12814   2.13051   2.13742
 Alpha virt. eigenvalues --    2.13981   2.14196   2.14360   2.14631   2.15119
 Alpha virt. eigenvalues --    2.15240   2.15672   2.15953   2.16140   2.16367
 Alpha virt. eigenvalues --    2.16888   2.16968   2.17248   2.17330   2.17429
 Alpha virt. eigenvalues --    2.17699   2.18126   2.18480   2.18835   2.19007
 Alpha virt. eigenvalues --    2.19196   2.19623   2.19745   2.19926   2.20051
 Alpha virt. eigenvalues --    2.20306   2.20514   2.20534   2.21130   2.21548
 Alpha virt. eigenvalues --    2.21712   2.22045   2.22569   2.23051   2.23688
 Alpha virt. eigenvalues --    2.23798   2.24493   2.24685   2.25037   2.25190
 Alpha virt. eigenvalues --    2.25323   2.25614   2.25958   2.26462   2.26697
 Alpha virt. eigenvalues --    2.26878   2.27165   2.27259   2.27653   2.28289
 Alpha virt. eigenvalues --    2.28427   2.28787   2.29347   2.29614   2.29822
 Alpha virt. eigenvalues --    2.30040   2.30567   2.30985   2.31516   2.32226
 Alpha virt. eigenvalues --    2.32625   2.32838   2.33007   2.33360   2.33529
 Alpha virt. eigenvalues --    2.33945   2.33962   2.34834   2.35309   2.35418
 Alpha virt. eigenvalues --    2.35608   2.36374   2.36399   2.37084   2.37253
 Alpha virt. eigenvalues --    2.37905   2.38120   2.38327   2.38795   2.39032
 Alpha virt. eigenvalues --    2.39314   2.39675   2.40082   2.40267   2.40544
 Alpha virt. eigenvalues --    2.40773   2.40992   2.41448   2.41743   2.41875
 Alpha virt. eigenvalues --    2.42297   2.42398   2.42694   2.43174   2.43354
 Alpha virt. eigenvalues --    2.43559   2.43721   2.43881   2.44048   2.44370
 Alpha virt. eigenvalues --    2.44570   2.44728   2.44939   2.45403   2.45832
 Alpha virt. eigenvalues --    2.45983   2.46438   2.46594   2.46777   2.47055
 Alpha virt. eigenvalues --    2.47184   2.47720   2.48370   2.49028   2.49260
 Alpha virt. eigenvalues --    2.49490   2.49797   2.50323   2.50834   2.51005
 Alpha virt. eigenvalues --    2.51114   2.51520   2.51550   2.52478   2.53156
 Alpha virt. eigenvalues --    2.53342   2.53516   2.53980   2.54200   2.54495
 Alpha virt. eigenvalues --    2.55167   2.55756   2.56442   2.56878   2.57280
 Alpha virt. eigenvalues --    2.57842   2.58161   2.58681   2.58971   2.59115
 Alpha virt. eigenvalues --    2.59429   2.59747   2.59957   2.60080   2.60310
 Alpha virt. eigenvalues --    2.60368   2.61333   2.61475   2.61788   2.61973
 Alpha virt. eigenvalues --    2.62045   2.62188   2.62287   2.62645   2.63036
 Alpha virt. eigenvalues --    2.63138   2.63729   2.63914   2.64458   2.64614
 Alpha virt. eigenvalues --    2.64674   2.65082   2.65534   2.66002   2.66332
 Alpha virt. eigenvalues --    2.66979   2.67393   2.67526   2.67607   2.67782
 Alpha virt. eigenvalues --    2.67873   2.68004   2.68054   2.68617   2.69093
 Alpha virt. eigenvalues --    2.69331   2.69598   2.69800   2.69972   2.70625
 Alpha virt. eigenvalues --    2.70776   2.71176   2.71359   2.71742   2.71801
 Alpha virt. eigenvalues --    2.72140   2.72487   2.72825   2.73022   2.73264
 Alpha virt. eigenvalues --    2.74017   2.74097   2.74363   2.74588   2.74913
 Alpha virt. eigenvalues --    2.75156   2.75311   2.75421   2.75620   2.75722
 Alpha virt. eigenvalues --    2.75901   2.76254   2.76503   2.76794   2.76855
 Alpha virt. eigenvalues --    2.77172   2.77823   2.78436   2.79236   2.79416
 Alpha virt. eigenvalues --    2.79653   2.79732   2.79996   2.80213   2.80395
 Alpha virt. eigenvalues --    2.80643   2.81269   2.81421   2.81614   2.81832
 Alpha virt. eigenvalues --    2.82066   2.82243   2.82456   2.82530   2.82719
 Alpha virt. eigenvalues --    2.82833   2.83087   2.83127   2.83631   2.83965
 Alpha virt. eigenvalues --    2.84119   2.84476   2.84749   2.84870   2.85128
 Alpha virt. eigenvalues --    2.85707   2.85874   2.86090   2.86239   2.86641
 Alpha virt. eigenvalues --    2.87037   2.87289   2.87494   2.87747   2.87914
 Alpha virt. eigenvalues --    2.88171   2.89367   2.89578   2.89621   2.90320
 Alpha virt. eigenvalues --    2.90564   2.90878   2.91148   2.91184   2.91395
 Alpha virt. eigenvalues --    2.91569   2.91896   2.91949   2.92313   2.92764
 Alpha virt. eigenvalues --    2.93150   2.93289   2.93520   2.93676   2.93867
 Alpha virt. eigenvalues --    2.94330   2.94836   2.94961   2.95058   2.95538
 Alpha virt. eigenvalues --    2.95700   2.96067   2.96505   2.96855   2.97303
 Alpha virt. eigenvalues --    2.97662   2.98241   2.98448   2.98869   2.98948
 Alpha virt. eigenvalues --    2.99447   2.99695   3.00062   3.00149   3.00534
 Alpha virt. eigenvalues --    3.00752   3.01281   3.02050   3.02207   3.02674
 Alpha virt. eigenvalues --    3.03003   3.03262   3.03659   3.03900   3.04457
 Alpha virt. eigenvalues --    3.04578   3.04957   3.05283   3.05604   3.06092
 Alpha virt. eigenvalues --    3.06554   3.06824   3.07243   3.07555   3.08540
 Alpha virt. eigenvalues --    3.08619   3.09069   3.09764   3.10247   3.10534
 Alpha virt. eigenvalues --    3.10849   3.11186   3.12004   3.12700   3.13005
 Alpha virt. eigenvalues --    3.13078   3.13806   3.14084   3.14225   3.14611
 Alpha virt. eigenvalues --    3.14923   3.15672   3.15855   3.16323   3.16489
 Alpha virt. eigenvalues --    3.17074   3.17173   3.17649   3.18354   3.18873
 Alpha virt. eigenvalues --    3.19520   3.19798   3.20191   3.20240   3.20525
 Alpha virt. eigenvalues --    3.21319   3.21812   3.22190   3.22691   3.22903
 Alpha virt. eigenvalues --    3.23055   3.23270   3.23843   3.24346   3.24734
 Alpha virt. eigenvalues --    3.24890   3.25323   3.26096   3.26439   3.26665
 Alpha virt. eigenvalues --    3.27793   3.28845   3.29431   3.29965   3.30948
 Alpha virt. eigenvalues --    3.32423   3.33514   3.34231   3.35194   3.35507
 Alpha virt. eigenvalues --    3.35737   3.36616   3.36806   3.36968   3.38662
 Alpha virt. eigenvalues --    3.39809   3.44310   3.46141   3.47495   3.49397
 Alpha virt. eigenvalues --    3.49985   3.51199   3.52879   3.54579   3.55401
 Alpha virt. eigenvalues --    3.55493   3.56636   3.58733   3.58784   3.59613
 Alpha virt. eigenvalues --    3.60885   3.61975   3.62097   3.62879   3.63465
 Alpha virt. eigenvalues --    3.65053   3.65107   3.66500   3.67595   3.67912
 Alpha virt. eigenvalues --    3.68594   3.69157   3.69653   3.70025   3.70511
 Alpha virt. eigenvalues --    3.71003   3.71114   3.71414   3.71486   3.71894
 Alpha virt. eigenvalues --    3.72238   3.72279   3.72929   3.73382   3.75352
 Alpha virt. eigenvalues --    3.75916   3.77153   3.78948   3.83067
          Condensed to atoms (all electrons):
 Mulliken charges:
               1
     1  C    0.082985
     2  C    0.020034
     3  O   -0.294180
     4  H    0.036036
     5  H    0.050173
     6  H   -0.014848
     7  N   -0.125119
     8  C    0.116729
     9  C    0.067369
    10  O   -0.278245
    11  C    0.024902
    12  C    0.161177
    13  O   -0.458221
    14  O   -0.378636
    15  H    0.110405
    16  H   -0.008817
    17  H    0.015775
    18  H   -0.008532
    19  N   -0.155597
    20  C    0.154835
    21  C    0.092312
    22  O   -0.289597
    23  C   -0.027947
    24  C    0.008103
    25  C    0.003909
    26  C   -0.025869
    27  N    0.103670
    28  H    0.165968
    29  H    0.002601
    30  H    0.000604
    31  H    0.031195
    32  H    0.020931
    33  H    0.014005
    34  H    0.034778
    35  H    0.019885
    36  H    0.083539
    37  H    0.084388
    38  H    0.182427
    39  H    0.191750
    40  H    0.207934
    41  N   -0.159748
    42  C    0.112083
    43  C    0.052764
    44  O   -0.275946
    45  C    0.065719
    46  C    0.094371
    47  O   -0.474134
    48  O   -0.368409
    49  H    0.143490
    50  H    0.011251
    51  H   -0.010349
    52  H    0.036450
    53  N   -0.166365
    54  C    0.239703
    55  C    0.012156
    56  O   -0.295619
    57  H    0.137108
    58  H    0.024015
    59  H    0.042073
    60  N   -0.118614
    61  C    0.131909
    62  C    0.029424
    63  O   -0.286268
    64  C    0.080225
    65  C    0.035873
    66  N   -0.033202
    67  O   -0.339733
    68  H    0.126333
    69  H    0.022694
    70  H    0.043739
    71  H   -0.001885
    72  H    0.141062
    73  H    0.131512
    74  N   -0.201629
    75  C    0.280602
    76  C   -0.011717
    77  O   -0.314178
    78  H    0.163054
    79  H    0.046412
    80  H    0.039871
    81  N   -0.140941
    82  C    0.131529
    83  C    0.113181
    84  O   -0.347309
    85  C    0.131163
    86  C   -0.024535
    87  C    0.013532
    88  C   -0.000913
    89  C    0.007006
    90  C   -0.079664
    91  C    0.136725
    92  O   -0.210076
    93  H    0.156410
    94  H    0.010760
    95  H    0.019498
    96  H   -0.018376
    97  H    0.020852
    98  H   -0.060196
    99  H   -0.003367
   100  H   -0.045444
   101  H    0.176683
   102  N   -0.119874
   103  C    0.165729
   104  C    0.033785
   105  O   -0.292336
   106  C   -0.105770
   107  C   -0.010300
   108  C    0.058804
   109  C    0.034658
   110  H    0.140644
   111  H    0.011156
   112  H   -0.016002
   113  H   -0.007764
   114  H   -0.001340
   115  H    0.008718
   116  H    0.019262
   117  H    0.032255
   118  H    0.012495
   119  H    0.003880
   120  H    0.004455
   121  N   -0.106068
   122  C    0.054857
   123  C    0.096998
   124  O   -0.291823
   125  C    0.318921
   126  O   -0.341440
   127  H    0.133327
   128  H    0.008402
   129  H   -0.058750
   130  H   -0.022986
   131  H    0.161099
   132  N   -0.115240
   133  C    0.044323
   134  C    0.100224
   135  O   -0.262008
   136  C    0.020855
   137  H    0.113102
   138  H    0.036147
   139  H    0.056857
   140  H    0.036441
   141  H    0.004019
   142  N   -0.123263
   143  C    0.104598
   144  C    0.032862
   145  O   -0.280666
   146  C    0.033237
   147  H    0.110062
   148  H    0.021383
   149  H    0.014940
   150  H    0.016469
   151  H    0.021357
   152  N   -0.167733
   153  C    0.123135
   154  C    0.081456
   155  O   -0.278118
   156  C   -0.008301
   157  C    0.110400
   158  C    0.169931
   159  O   -0.465801
   160  O   -0.375315
   161  H    0.147074
   162  H   -0.029710
   163  H    0.054083
   164  H    0.028831
   165  H   -0.014629
   166  H   -0.050888
   167  N   -0.163672
   168  C    0.119042
   169  H    0.021970
   170  H    0.037197
   171  H    0.010734
   172  H    0.127317
   173  Ca   1.304995
   174  O   -0.287709
   175  H    0.204906
   176  H    0.194689
 Sum of Mulliken charges =  -0.00000
 Mulliken charges with hydrogens summed into heavy atoms:
               1
     1  C    0.154346
     2  C    0.020034
     3  O   -0.294180
     7  N   -0.014715
     8  C    0.107912
     9  C    0.067369
    10  O   -0.278245
    11  C    0.032145
    12  C    0.161177
    13  O   -0.458221
    14  O   -0.378636
    19  N    0.010370
    20  C    0.157436
    21  C    0.092312
    22  O   -0.289597
    23  C    0.003852
    24  C    0.043039
    25  C    0.058571
    26  C    0.142058
    27  N    0.685782
    41  N   -0.016258
    42  C    0.123334
    43  C    0.052764
    44  O   -0.275946
    45  C    0.091820
    46  C    0.094371
    47  O   -0.474134
    48  O   -0.368409
    53  N   -0.029257
    54  C    0.305792
    55  C    0.012156
    56  O   -0.295619
    60  N    0.007719
    61  C    0.154603
    62  C    0.029424
    63  O   -0.286268
    64  C    0.122079
    65  C    0.035873
    66  N    0.239372
    67  O   -0.339733
    74  N   -0.038574
    75  C    0.366885
    76  C   -0.011717
    77  O   -0.314178
    81  N    0.015469
    82  C    0.142290
    83  C    0.113181
    84  O   -0.347309
    85  C    0.132285
    86  C   -0.024535
    87  C    0.034383
    88  C   -0.061109
    89  C    0.003639
    90  C   -0.125108
    91  C    0.136725
    92  O   -0.033393
   102  N    0.020770
   103  C    0.176885
   104  C    0.033785
   105  O   -0.292336
   106  C   -0.121773
   107  C   -0.019405
   108  C    0.119038
   109  C    0.055488
   121  N    0.027259
   122  C    0.063259
   123  C    0.096998
   124  O   -0.291823
   125  C    0.237186
   126  O   -0.180340
   132  N   -0.002138
   133  C    0.080470
   134  C    0.100224
   135  O   -0.262008
   136  C    0.118172
   142  N   -0.013201
   143  C    0.125981
   144  C    0.032862
   145  O   -0.280666
   146  C    0.086003
   152  N   -0.020659
   153  C    0.093425
   154  C    0.081456
   155  O   -0.278118
   156  C    0.074613
   157  C    0.044884
   158  C    0.169931
   159  O   -0.465801
   160  O   -0.375315
   167  N   -0.036356
   168  C    0.188944
   173  Ca   1.304995
   174  O    0.111886
 DipInt: DoE/N= T F RetVal/Mat= T F Init=T NMatP=  1 IDeriv=0 Min/MaxMlt=  0  4
 Entering OneElI...
 OneElI was handed  1333951383 working-precision words.
 Multipole integrals L=0 to 4 MinM= 0 MaxM= 0.
 Requested accuracy = 0.1000D-12
 ShPair: Thresh= 1.00D-13 NBox=     0 BxSize= 0.00D+00 RnKept= 2.55D+01
         NSMCal=               327645 NSMKep=              164059
 PrmmSu-InSpLW:  IPartL=    0 NPrtUS=    1 NPrtUL=    1 DoSpLW=F IThBeg=    0 IThEnd=    0 NThAct=    1.
 PrsmSu:  NPrtUS=   1 ThrOK=F IAlg=1 NPAlg=1 LenDen=           0 ISkipM=0 DoSpLW=F IThBeg=    0 IThEnd=    0.
 Prism:   IPart=     0 DynPar=F LinDyn=F Incr=         512.
 PRISM was handed  1323759229 working-precision words and164059 shell-pairs
 IPart=  0 NShTot=      164059 NBatch=         373 AvBLen=       439.8
 PrsmSu-ThDecC:  IPartSL=    0    0 NPrtUSL=    1    1 IThBeg=    0 IThEnd=    0 CPU=   -1 GPU=   -1 NThAct=    1.
 PrSmSu:  NxtVal=            513.
 Electronic moments (au):
       -716.00000000         10.71179219         -3.41117618         -7.61894115
     -49524.90835709     -28177.83663781     -13565.81494842         87.35066762
        -45.01471963        -15.79443516     -41587.63118423     -36699.30294974
     -23619.21689531       9844.64024680      74654.90945702      38991.27567046
     -11237.24740894       -920.96950746      29776.86297319        274.79490451
   -6792485.77854821   -2347273.75695936    -708010.25048925     158797.72708485
     226879.36176292    -259855.01003815      44149.27728612    -116584.47299556
       6353.41360169   -1677717.48438447    -719961.49878927    -451356.15350381
    -154989.12927701     -25433.75678278     -80843.15093439
 Electronic spatial extent (au):  <R**2>=          91268.5599
 DipInt: DoE/N= F T RetVal/Mat= T F Init=T NMatP=  1 IDeriv=0 Min/MaxMlt=  0  4
 Nuclear    moments (au):
        716.00000000          0.00000000         -0.00000000         -0.00000000
      49050.22828421      27824.77268087      13181.61602572          0.00000000
          0.00000000          0.00000000      42661.30527279      36890.41160530
      23548.39720803      -8303.48020839     -74521.54710944     -40021.09471740
      11641.65408587        817.31470176     -30677.56078198       -937.16126032
    6592897.30096299    2255148.76969235     662413.16270174    -152907.56883526
    -230383.14636010     271950.77767535     -48134.20487238     115433.30653292
      -5235.10901520    1643048.89186139     687289.26783806     430967.23620758
     152156.58403866      19139.04956907      84463.94071757
 Total      moments (au):
         -0.00000000         10.71179219         -3.41117618         -7.61894115
       -474.68007288       -353.06395694       -384.19892271         87.35066762
        -45.01471963        -15.79443516       1073.67408857        191.10865555
        -70.81968728       1541.16003841        133.36234758      -1029.81904694
        404.40667693       -103.65480570       -900.69780879       -662.36635582
    -199588.47758521     -92124.98726701     -45597.08778751       5890.15824959
      -3503.78459718      12095.76763719      -3984.92758626      -1151.16646263
       1118.30458649     -34668.59252307     -32672.23095122     -20388.91729623
      -2832.54523834      -6294.70721371       3620.78978318
 Traceless Quadrup. (au):
        -70.69908871         50.91702724         19.78206147         87.35066762
        -45.01471963        -15.79443516
 Charge=             -0.0000 electrons
 Dipole moment (field-independent basis, Debye):
    X=             27.2267    Y=             -8.6703    Z=            -19.3654  Tot=             34.5179
 Quadrupole moment (field-independent basis, Debye-Ang):
   XX=           -638.4610   YY=           -474.8831   ZZ=           -516.7607
   XY=            117.4896   XZ=            -60.5463   YZ=            -21.2441
 Traceless Quadrupole moment (field-independent basis, Debye-Ang):
   XX=            -95.0927   YY=             68.4851   ZZ=             26.6076
   XY=            117.4896   XZ=            -60.5463   YZ=            -21.2441
 Octapole moment (field-independent basis, Debye-Ang**2):
  XXX=            764.1999  YYY=            136.0238  ZZZ=            -50.4067  XYY=           1096.9383
  XXY=             94.9222  XXZ=           -732.9855  XZZ=            287.8411  YZZ=            -73.7775
  YYZ=           -641.0820  XYZ=           -471.4469
 Hexadecapole moment (field-independent basis, Debye-Ang**3):
 XXXX=         -75174.5912 YYYY=         -34698.6877 ZZZZ=         -17174.0497 XXXY=           2218.5160
 XXXZ=          -1319.6933 YYYX=           4555.8461 YYYZ=          -1500.9148 ZZZX=           -433.5845
 ZZZY=            421.2071 XXYY=         -13057.8544 XXZZ=         -12305.9289 YYZZ=          -7679.4439
 XXYZ=          -1066.8724 YYXZ=          -2370.8886 ZZXY=           1363.7631
 N-N= 2.182642724406D+04 E-N=-5.613053248909D+04  KE= 5.290421412220D+03
 Leave Link  601 at Sat Sep 14 23:57:38 2019, MaxMem=  1342177280 cpu:              50.4 elap:               1.3
 FitSet:  NAtFit=   176 NAtPot=   176 NAtFrz=     0 MDM=   180 TotChg=   0.00000
 Merz-Kollman atomic radii used.
 Read replacement radii for each type of atom:
 Rad(20) =   1.700000000000D+00
 Atom Element Radius
    1     6    1.50
    2     6    1.50
    3     8    1.40
    4     1    1.20
    5     1    1.20
    6     1    1.20
    7     7    1.50
    8     6    1.50
    9     6    1.50
   10     8    1.40
   11     6    1.50
   12     6    1.50
   13     8    1.40
   14     8    1.40
   15     1    1.20
   16     1    1.20
   17     1    1.20
   18     1    1.20
   19     7    1.50
   20     6    1.50
   21     6    1.50
   22     8    1.40
   23     6    1.50
   24     6    1.50
   25     6    1.50
   26     6    1.50
   27     7    1.50
   28     1    1.20
   29     1    1.20
   30     1    1.20
   31     1    1.20
   32     1    1.20
   33     1    1.20
   34     1    1.20
   35     1    1.20
   36     1    1.20
   37     1    1.20
   38     1    1.20
   39     1    1.20
   40     1    1.20
   41     7    1.50
   42     6    1.50
   43     6    1.50
   44     8    1.40
   45     6    1.50
   46     6    1.50
   47     8    1.40
   48     8    1.40
   49     1    1.20
   50     1    1.20
   51     1    1.20
   52     1    1.20
   53     7    1.50
   54     6    1.50
   55     6    1.50
   56     8    1.40
   57     1    1.20
   58     1    1.20
   59     1    1.20
   60     7    1.50
   61     6    1.50
   62     6    1.50
   63     8    1.40
   64     6    1.50
   65     6    1.50
   66     7    1.50
   67     8    1.40
   68     1    1.20
   69     1    1.20
   70     1    1.20
   71     1    1.20
   72     1    1.20
   73     1    1.20
   74     7    1.50
   75     6    1.50
   76     6    1.50
   77     8    1.40
   78     1    1.20
   79     1    1.20
   80     1    1.20
   81     7    1.50
   82     6    1.50
   83     6    1.50
   84     8    1.40
   85     6    1.50
   86     6    1.50
   87     6    1.50
   88     6    1.50
   89     6    1.50
   90     6    1.50
   91     6    1.50
   92     8    1.40
   93     1    1.20
   94     1    1.20
   95     1    1.20
   96     1    1.20
   97     1    1.20
   98     1    1.20
   99     1    1.20
  100     1    1.20
  101     1    1.20
  102     7    1.50
  103     6    1.50
  104     6    1.50
  105     8    1.40
  106     6    1.50
  107     6    1.50
  108     6    1.50
  109     6    1.50
  110     1    1.20
  111     1    1.20
  112     1    1.20
  113     1    1.20
  114     1    1.20
  115     1    1.20
  116     1    1.20
  117     1    1.20
  118     1    1.20
  119     1    1.20
  120     1    1.20
  121     7    1.50
  122     6    1.50
  123     6    1.50
  124     8    1.40
  125     6    1.50
  126     8    1.40
  127     1    1.20
  128     1    1.20
  129     1    1.20
  130     1    1.20
  131     1    1.20
  132     7    1.50
  133     6    1.50
  134     6    1.50
  135     8    1.40
  136     6    1.50
  137     1    1.20
  138     1    1.20
  139     1    1.20
  140     1    1.20
  141     1    1.20
  142     7    1.50
  143     6    1.50
  144     6    1.50
  145     8    1.40
  146     6    1.50
  147     1    1.20
  148     1    1.20
  149     1    1.20
  150     1    1.20
  151     1    1.20
  152     7    1.50
  153     6    1.50
  154     6    1.50
  155     8    1.40
  156     6    1.50
  157     6    1.50
  158     6    1.50
  159     8    1.40
  160     8    1.40
  161     1    1.20
  162     1    1.20
  163     1    1.20
  164     1    1.20
  165     1    1.20
  166     1    1.20
  167     7    1.50
  168     6    1.50
  169     1    1.20
  170     1    1.20
  171     1    1.20
  172     1    1.20
  173    20    1.70
  174     8    1.40
[...]
 **** Fit      -0.027503
 **** Fit      -0.027811
 **** Fit      -0.029160
 **** Fit      -0.031928
 **** Fit      -0.036612
 **** Fit      -0.036149
 **** Fit      -0.036504
 **** Fit      -0.036117
 **** Fit      -0.035107
 **** Fit      -0.033605
 **** Fit      -0.031750
 **** Fit      -0.029686
 **** Fit      -0.027565
 **** Fit      -0.025550
 **** Fit      -0.023820
 **** Fit      -0.022580
 **** Fit      -0.022065
 **** Fit      -0.022552
 **** Fit      -0.024353
 **** Fit      -0.027762
 **** Fit      -0.034960
 **** Fit      -0.038852
 **** Fit      -0.038614
 **** Fit      -0.037531
 **** Fit      -0.035725
 **** Fit      -0.033347
 **** Fit      -0.030558
 **** Fit      -0.027526
 **** Fit      -0.024424
 **** Fit      -0.021439
 **** Fit      -0.018776
 **** Fit      -0.016655
 **** Fit      -0.015328
 **** Fit      -0.015071
 **** Fit      -0.016138
 **** Fit      -0.038181
 **** Fit      -0.042948
 **** Fit      -0.042011
 **** Fit      -0.040025
 **** Fit      -0.037161
 **** Fit      -0.033627
 **** Fit      -0.029631
 **** Fit      -0.025373
 **** Fit      -0.021057
 **** Fit      -0.016895
 **** Fit      -0.013116
 **** Fit      -0.009961
 **** Fit      -0.007687
 **** Fit      -0.033717
 **** Fit      -0.027760
 **** Fit      -0.021626
 **** Fit      -0.015585
 **** Fit       0.060444
 **** Fit       0.062958
 **** Fit       0.073577
 **** Fit       0.061078
 **** Fit       0.067807
 **** Fit       0.021933
 **** Fit       0.056741
 **** Fit       0.058475
 **** Fit       0.055050
 **** Fit       0.046734
 **** Fit       0.035193
 **** Fit       0.023171
 **** Fit       0.047961
 **** Fit       0.044680
 **** Fit       0.036989
 **** Fit       0.027261
 **** Fit       0.018827
 **** Fit       0.038989
 **** Fit       0.034815
 **** Fit       0.027068
 **** Fit       0.020239
 **** Fit       0.017092
 **** Fit       0.026388
 **** Fit       0.020931
 **** Fit       0.015583
 **** Fit       0.012096
 **** Fit       0.003543
 **** Fit       0.014880
 **** Fit       0.008837
 **** Fit       0.003666
 **** Fit       0.005335
 **** Fit       0.014117
 **** Fit       0.012675
 **** Fit       0.009215
 **** Fit       0.012258
 **** Fit       0.012555
 **** Fit       0.016228
 **** Fit       0.010304
 **** Fit       0.001403
 **** Fit       0.002221
 **** Fit      -0.007794
 **** Fit      -0.004083
 **** Fit      -0.007410
 **** Fit      -0.006095
 **** Fit      -0.005553
 **** Fit      -0.009071
 **** Fit      -0.000176
 **** Fit       0.007370
 **** Fit      -0.012224
 **** Fit      -0.000794
 **** Fit       0.009479
 **** Fit       0.018427
 **** Fit       0.007161
 **** Fit       0.019292
 **** Fit       0.029882
 **** Fit       0.018078
 **** Fit       0.032568
 **** Fit       0.032003
 **** Fit       0.049061
 **** Fit      -0.020256
 **** Fit      -0.007477
 **** Fit       0.056930
 **** Fit       0.051865
 **** Fit       0.044314
 **** Fit       0.042734
 **** Fit       0.034687
 **** Fit       0.028599
 **** Fit       0.022195
 **** Fit       0.026670
 **** Fit      -0.036240
 **** Fit      -0.005127
 **** Fit      -0.005040
 **** Fit      -0.006814
 **** Fit      -0.007062
 **** Fit      -0.003545
 **** Fit      -0.004893
 **** Fit      -0.006654
 **** Fit      -0.009472
 **** Fit      -0.007546
 **** Fit      -0.002239
 **** Fit      -0.003391
 **** Fit      -0.004760
 **** Fit      -0.012552
 **** Fit      -0.010474
 **** Fit      -0.001155
 **** Fit      -0.002163
 **** Fit      -0.003370
 **** Fit      -0.004712
 **** Fit      -0.015897
 **** Fit      -0.012943
 **** Fit      -0.000103
 **** Fit      -0.001046
 **** Fit      -0.002133
 **** Fit      -0.003362
 **** Fit      -0.004803
 **** Fit      -0.021203
 **** Fit      -0.017612
 **** Fit      -0.013519
 **** Fit       0.001457
 **** Fit       0.000655
 **** Fit      -0.000224
 **** Fit      -0.001212
 **** Fit      -0.002320
 **** Fit      -0.003526
 **** Fit      -0.005068
 **** Fit      -0.025311
 **** Fit      -0.020009
 **** Fit      -0.014869
 **** Fit       0.002397
 **** Fit       0.001600
 **** Fit       0.000745
 **** Fit      -0.000210
 **** Fit      -0.001286
 **** Fit      -0.002476
 **** Fit      -0.003748
 **** Fit      -0.005521
 **** Fit      -0.022640
 **** Fit      -0.016564
 **** Fit       0.003269
 **** Fit       0.002485
 **** Fit       0.001647
 **** Fit       0.000719
 **** Fit      -0.000330
 **** Fit      -0.001507
 **** Fit      -0.002790
 **** Fit      -0.004141
 **** Fit      -0.006168
 **** Fit      -0.022344
 **** Fit      -0.015743
 **** Fit       0.004301
 **** Fit       0.003507
 **** Fit       0.002664
 **** Fit       0.001743
 **** Fit      -0.003199
 **** Fit      -0.004675
 **** Fit      -0.007024
 **** Fit      -0.008645
 **** Fit       0.005394
 **** Fit       0.004566
 **** Fit      -0.005413
 **** Fit      -0.008130
 **** Fit      -0.009888
 **** Fit       0.006830
 **** Fit       0.005920
 **** Fit      -0.011510
 **** Fit      -0.013549
 **** Fit       0.008980
 **** Fit       0.008067
 **** Fit      -0.013548
 **** Fit      -0.015721
 **** Fit      -0.018223
 **** Fit       0.010844
 **** Fit       0.011399
 **** Fit       0.010852
 **** Fit       0.009476
 **** Fit      -0.018371
 **** Fit      -0.020954
 **** Fit      -0.024188
 **** Fit      -0.021900
 **** Fit      -0.024628
 **** Fit      -0.028129
 **** Fit      -0.032740
 **** Fit      -0.026412
 **** Fit      -0.029292
 **** Fit      -0.033131
 **** Fit      -0.031923
 **** Fit      -0.034834
 **** Fit       0.002317
 **** Fit       0.001277
 **** Fit       0.000103
 **** Fit      -0.001183
 **** Fit      -0.002566
 **** Fit      -0.004827
 **** Fit       0.004037
 **** Fit       0.003065
 **** Fit       0.001958
 **** Fit       0.000752
 **** Fit      -0.000534
 **** Fit      -0.001891
 **** Fit      -0.003321
 **** Fit      -0.005861
 **** Fit      -0.007557
 **** Fit       0.005324
 **** Fit       0.004188
 **** Fit       0.002914
 **** Fit       0.001559
 **** Fit       0.000159
 **** Fit      -0.001272
 **** Fit      -0.002740
 **** Fit      -0.004262
 **** Fit      -0.007261
 **** Fit      -0.009008
 **** Fit      -0.010905
 **** Fit       0.006768
 **** Fit       0.005359
 **** Fit       0.003806
 **** Fit       0.002200
 **** Fit       0.000597
 **** Fit      -0.000976
 **** Fit      -0.002521
 **** Fit      -0.004059
 **** Fit      -0.005625
 **** Fit      -0.009207
 **** Fit      -0.010983
 **** Fit      -0.012943
 **** Fit       0.008870
 **** Fit       0.007036
 **** Fit       0.005007
 **** Fit       0.002944
 **** Fit       0.000944
 **** Fit      -0.000943
 **** Fit      -0.002705
 **** Fit      -0.004362
 **** Fit      -0.005959
 **** Fit      -0.007554
 **** Fit      -0.011950
 **** Fit      -0.013767
 **** Fit      -0.015820
 **** Fit       0.007693
 **** Fit       0.004727
 **** Fit       0.001865
 **** Fit      -0.000765
 **** Fit      -0.003107
 **** Fit      -0.005162
 **** Fit      -0.006984
 **** Fit      -0.008657
 **** Fit      -0.010278
 **** Fit      -0.015858
 **** Fit      -0.017632
 **** Fit      -0.019724
 **** Fit       0.004175
 **** Fit      -0.000019
 **** Fit      -0.003662
 **** Fit      -0.006682
 **** Fit      -0.009113
 **** Fit      -0.011075
 **** Fit      -0.012736
 **** Fit      -0.014276
 **** Fit      -0.022979
 **** Fit      -0.024891
 **** Fit      -0.009133
 **** Fit      -0.008530
 **** Fit      -0.010854
 **** Fit      -0.011774
 **** Fit      -0.009873
 **** Fit      -0.007054
 **** Fit      -0.008093
 **** Fit      -0.010296
 **** Fit      -0.012770
 **** Fit      -0.014776
 **** Fit      -0.015220
 **** Fit      -0.013607
 **** Fit      -0.006419
 **** Fit      -0.007850
 **** Fit      -0.009838
 **** Fit      -0.012240
 **** Fit      -0.014957
 **** Fit      -0.017613
 **** Fit      -0.019504
 **** Fit      -0.019829
 **** Fit      -0.018243
 **** Fit      -0.006236
 **** Fit      -0.007831
 **** Fit      -0.009725
 **** Fit      -0.012032
 **** Fit      -0.014821
 **** Fit      -0.018041
 **** Fit      -0.021421
 **** Fit      -0.024384
 **** Fit      -0.026094
 **** Fit      -0.025798
 **** Fit      -0.023347
 **** Fit      -0.006240
 **** Fit      -0.008061
 **** Fit      -0.009927
 **** Fit      -0.012197
 **** Fit      -0.015008
 **** Fit      -0.018451
 **** Fit      -0.022507
 **** Fit      -0.026938
 **** Fit      -0.031160
 **** Fit      -0.006460
 **** Fit      -0.008569
 **** Fit      -0.010389
 **** Fit      -0.012584
 **** Fit      -0.015315
 **** Fit      -0.018742
 **** Fit      -0.022998
 **** Fit      -0.028128
 **** Fit      -0.006975
 **** Fit      -0.009389
 **** Fit      -0.011277
 **** Fit      -0.013555
 **** Fit      -0.016421
 **** Fit      -0.020097
 **** Fit      -0.024828
 **** Fit      -0.030850
 **** Fit      -0.007712
 **** Fit      -0.010563
 **** Fit      -0.012503
 **** Fit      -0.014832
 **** Fit      -0.017773
 **** Fit      -0.021590
 **** Fit      -0.026612
 **** Fit      -0.012148
 **** Fit      -0.014184
 **** Fit      -0.016627
 **** Fit      -0.019730
 **** Fit      -0.023804
 **** Fit      -0.029271
 **** Fit      -0.016459
 **** Fit      -0.019180
 **** Fit      -0.022703
 **** Fit      -0.027444
 **** Fit      -0.022468
 **** Fit      -0.026595
 **** Fit      -0.032309
 **** Fit      -0.031056
 **** Fit      -0.002161
 **** Fit      -0.002503
 **** Fit      -0.004044
 **** Fit      -0.003709
 **** Fit      -0.001673
 **** Fit      -0.000404
 **** Fit      -0.000884
 **** Fit      -0.006641
 **** Fit      -0.005616
 **** Fit      -0.003412
 **** Fit      -0.001056
 **** Fit       0.000602
 **** Fit       0.001236
 **** Fit       0.001015
 **** Fit       0.000184
 **** Fit      -0.001089
 **** Fit      -0.008013
 **** Fit      -0.005565
 **** Fit      -0.002842
 **** Fit      -0.000333
 **** Fit       0.001535
 **** Fit       0.002521
 **** Fit       0.002765
 **** Fit       0.002522
 **** Fit       0.001942
 **** Fit       0.001091
 **** Fit       0.000021
 **** Fit      -0.010191
 **** Fit      -0.007103
 **** Fit      -0.003938
 **** Fit      -0.000913
 **** Fit       0.001705
 **** Fit       0.004192
 **** Fit       0.004244
 **** Fit       0.003970
 **** Fit       0.003499
 **** Fit       0.002849
 **** Fit       0.002031
 **** Fit       0.001071
 **** Fit      -0.011509
 **** Fit      -0.007677
 **** Fit      -0.003994
 **** Fit       0.005453
 **** Fit       0.004980
 **** Fit       0.004455
 **** Fit       0.003809
 **** Fit       0.003023
 **** Fit       0.002125
 **** Fit      -0.012944
 **** Fit      -0.008521
 **** Fit       0.006318
 **** Fit       0.005809
 **** Fit       0.005312
 **** Fit       0.004703
 **** Fit       0.003954
 **** Fit       0.003097
 **** Fit       0.006747
 **** Fit       0.006366
 **** Fit       0.005875
 **** Fit       0.005194
 **** Fit       0.004351
 **** Fit       0.007405
 **** Fit       0.007278
 **** Fit       0.007015
 **** Fit       0.006474
 **** Fit       0.007890
 **** Fit       0.008122
 **** Fit       0.007941
 **** Fit       0.008193
 **** Fit       0.009113
 **** Fit       0.009283
 **** Fit       0.009627
 **** Fit       0.017297
 **** Fit       0.010826
 **** Fit       0.001676
 **** Fit       0.024153
 **** Fit       0.016709
 **** Fit       0.007269
 **** Fit       0.035042
 **** Fit       0.025441
 **** Fit       0.014273
 **** Fit       0.000574
 **** Fit      -0.007949
 **** Fit       0.005954
 **** Fit       0.017364
 **** Fit       0.027624
 **** Fit       0.038005
 **** Fit       0.024798
 **** Fit       0.009754
 **** Fit      -0.001454
 **** Fit       0.013430
 **** Fit       0.026287
 **** Fit       0.021949
 **** Fit      -0.001791
 **** Fit       0.015952
 **** Fit       0.031323
 **** Fit       0.017203
 **** Fit       0.019322
 **** Fit       0.022378
 **** Fit       0.041820
 **** Fit       0.045268
 **** Fit       0.039083
 **** Fit       0.045505
 **** Fit       0.045406
 **** Fit       0.050165
 **** Fit       0.050073
 **** Fit       0.050796
 **** Fit       0.053497
 **** Fit       0.053571
 **** Fit       0.056242
 **** Fit       0.056136
 **** Fit       0.056616
 **** Fit       0.058539
 **** Fit       0.058205
 **** Fit       0.058382
 **** Fit       0.060789
 **** Fit       0.060155
 **** Fit       0.059878
 **** Fit       0.060029
 **** Fit       0.061785
 **** Fit       0.061502
 **** Fit       0.061337
 **** Fit       0.061478
 **** Fit       0.063069
 **** Fit       0.062921
 **** Fit       0.063026
 **** Fit       0.029450
 **** Fit       0.038042
 **** Fit       0.038939
 **** Fit       0.028009
 **** Fit       0.028558
 **** Fit       0.027080
 **** Fit       0.024270
 **** Fit       0.031811
 **** Fit       0.034882
 **** Fit       0.037282
 **** Fit       0.039655
 **** Fit       0.042563
 **** Fit       0.046231
 **** Fit       0.050497
 **** Fit       0.054860
 **** Fit       0.058708
 **** Fit       0.061688
 **** Fit       0.063711
 **** Fit       0.030026
 **** Fit       0.029692
 **** Fit       0.027909
 **** Fit       0.025133
 **** Fit       0.022818
 **** Fit       0.022679
 **** Fit       0.025178
 **** Fit       0.029134
 **** Fit       0.033158
 **** Fit       0.036726
 **** Fit       0.040042
 **** Fit       0.043499
 **** Fit       0.047266
 **** Fit       0.051157
 **** Fit       0.054730
 **** Fit       0.057568
 **** Fit       0.059469
 **** Fit       0.060345
 **** Fit       0.060121
 **** Fit       0.038916
 **** Fit       0.035670
 **** Fit       0.033915
 **** Fit       0.032573
 **** Fit       0.030698
 **** Fit       0.028363
 **** Fit       0.026669
 **** Fit       0.026902
 **** Fit       0.029281
 **** Fit       0.032859
 **** Fit       0.036665
 **** Fit       0.040367
 **** Fit       0.044029
 **** Fit       0.047676
 **** Fit       0.051084
 **** Fit       0.053887
 **** Fit       0.055793
 **** Fit       0.056651
 **** Fit       0.056369
 **** Fit       0.054886
 **** Fit       0.052174
 **** Fit       0.048276
 **** Fit       0.043529
 **** Fit       0.041598
 **** Fit       0.038478
 **** Fit       0.036122
 **** Fit       0.033968
 **** Fit       0.032019
 **** Fit       0.031204
 **** Fit       0.032361
 **** Fit       0.035204
 **** Fit       0.038812
 **** Fit       0.042569
 **** Fit       0.046207
 **** Fit       0.049437
 **** Fit       0.051868
 **** Fit       0.053173
 **** Fit       0.053168
 **** Fit       0.051782
 **** Fit       0.049084
 **** Fit       0.045423
 **** Fit       0.042938
 **** Fit       0.039715
 **** Fit       0.037189
 **** Fit       0.035770
 **** Fit       0.036440
 **** Fit       0.039206
 **** Fit       0.042928
 **** Fit       0.046530
 **** Fit       0.049157
 **** Fit       0.050130
 **** Fit       0.049152
 **** Fit       0.046455
 **** Fit       0.043456
 **** Fit       0.040410
 **** Fit       0.040174
 **** Fit       0.043262
 **** Fit       0.046391
 **** Fit       0.046441
 **** Fit       0.043488
 -----------------------------------------------------------------
 Leave Link  602 at Sat Sep 14 23:57:41 2019, MaxMem=  1342177280 cpu:             108.8 elap:               2.3

 Test job not archived.
 1\1\GINC-C506-093\SP\RB3LYP\SVP\C54H83Ca1N15O23\PENGZHI\14-Sep-2019\0\
 \#b3lyp/svp scf=(tight,noincore) Test #IOP(5/87=12) Density=Current Po
 p=(MK,readradii) iop(6/33=2) iop(6/42=6)\\CaMKII_loop3_73.0\\0,1\C,0,8
 2.017,66.58,36.2\C,0,81.437,66.56,37.61\O,0,81.517,65.53,38.26\H,0,83.
 037,66.197,36.222\H,0,81.408,65.954,35.547\H,0,82.022,67.603,35.823\N,
 0,80.837,67.62,38.16\C,0,80.037,67.52,39.37\C,0,78.807,66.64,39.19\O,0
 ,78.117,66.65,38.18\C,0,79.797,68.95,39.84\C,0,79.247,69.15,41.24\O,0,
 79.187,68.18,42.03\O,0,78.667,70.24,41.45\H,0,80.897,68.51,37.7\H,0,80
 .667,67.08,40.15\H,0,79.157,69.48,39.13\H,0,80.757,69.46,39.78\N,0,78.
 507,65.86,40.23\C,0,77.607,64.72,40.23\C,0,76.347,64.92,41.06\O,0,75.3
 37,64.38,40.61\C,0,78.457,63.47,40.41\C,0,77.667,62.18,40.16\C,0,78.44
 7,60.88,40.29\C,0,78.287,60.43,41.73\N,0,79.007,59.17,41.97\H,0,79.087
 ,66.05,41.03\H,0,77.297,64.49,39.21\H,0,78.877,63.56,41.41\H,0,79.307,
 63.53,39.74\H,0,77.317,62.26,39.14\H,0,76.867,62.14,40.9\H,0,79.477,61
 .07,39.97\H,0,78.097,60.17,39.54\H,0,77.207,60.44,41.92\H,0,78.597,61.
 2,42.43\H,0,78.727,58.76,42.85\H,0,78.667,58.47,41.32\H,0,80.007,59.27
 ,41.97\N,0,76.497,65.52,42.24\C,0,75.427,65.86,43.15\C,0,75.097,67.35,
 43.1\O,0,74.137,67.84,43.69\C,0,75.677,65.37,44.57\C,0,76.977,65.81,45
 .24\O,0,77.747,66.64,44.71\O,0,77.267,65.26,46.32\H,0,77.407,65.75,42.
 62\H,0,74.557,65.33,42.76\H,0,75.667,64.28,44.54\H,0,74.857,65.75,45.1
 9\N,0,75.947,68.12,42.43\C,0,75.607,69.42,41.89\C,0,75.697,70.64,42.79
 \O,0,75.287,71.75,42.45\H,0,76.887,67.76,42.34\H,0,74.597,69.42,41.46\
 H,0,76.267,69.73,41.08\N,0,76.237,70.49,44.\C,0,76.517,71.56,44.93\C,0
 ,77.337,72.75,44.43\O,0,77.177,73.84,44.98\C,0,77.167,71.,46.19\C,0,78
 .677,70.85,46.08\N,0,79.427,71.42,47.02\O,0,79.137,70.1,45.22\H,0,76.6
 87,69.61,44.2\H,0,75.597,72.02,45.29\H,0,76.677,70.04,46.31\H,0,76.927
 ,71.59,47.08\H,0,79.017,71.95,47.78\H,0,80.427,71.48,46.93\N,0,78.107,
 72.57,43.36\C,0,78.897,73.64,42.78\C,0,80.387,73.38,42.93\O,0,81.147,7
 4.31,42.67\H,0,78.037,71.67,42.89\H,0,78.657,74.61,43.22\H,0,78.687,73
 .58,41.71\N,0,80.857,72.2,43.34\C,0,82.257,71.84,43.2\C,0,82.467,70.35
 ,42.96\O,0,81.637,69.53,43.36\C,0,83.057,72.36,44.39\C,0,82.437,72.49,
 45.76\C,0,81.787,73.7,46.05\C,0,82.767,71.58,46.77\C,0,81.477,74.,47.3
 8\C,0,82.327,71.79,48.08\C,0,81.727,73.03,48.37\O,0,81.387,73.27,49.67
 \H,0,80.147,71.49,43.46\H,0,82.617,72.31,42.28\H,0,83.297,73.39,44.15\
 H,0,83.987,71.79,44.4\H,0,81.707,74.43,45.26\H,0,83.207,70.61,46.61\H,
 0,81.007,74.93,47.67\H,0,82.507,71.04,48.84\H,0,81.797,72.7,50.32\N,0,
 83.617,70.04,42.38\C,0,84.077,68.69,42.11\C,0,84.967,68.13,43.21\O,0,8
 5.997,68.73,43.51\C,0,84.837,68.7,40.79\C,0,84.047,69.32,39.64\C,0,85.
 337,67.31,40.42\C,0,84.827,69.81,38.42\H,0,84.337,70.75,42.28\H,0,83.1
 37,68.13,42.03\H,0,85.697,69.36,40.88\H,0,83.477,70.2,39.92\H,0,83.267
 ,68.62,39.34\H,0,86.107,67.23,39.66\H,0,85.707,66.92,41.38\H,0,84.507,
 66.7,40.07\H,0,84.047,70.08,37.71\H,0,85.487,70.62,38.73\H,0,85.497,69
 .12,37.91\N,0,84.577,67.06,43.89\C,0,85.427,66.21,44.71\C,0,86.117,65.
 14,43.88\O,0,85.667,64.83,42.77\C,0,84.697,65.59,45.9\O,0,83.757,64.61
 ,45.5\H,0,83.647,66.72,43.69\H,0,86.237,66.85,45.06\H,0,84.207,66.37,4
 6.48\H,0,85.467,65.03,46.43\H,0,83.207,65.,44.82\N,0,87.227,64.56,44.3
 3\C,0,88.137,63.72,43.57\C,0,87.517,62.39,43.17\O,0,87.777,61.81,42.12
 \C,0,89.487,63.62,44.28\H,0,87.677,64.83,45.19\H,0,88.387,64.36,42.72\
 H,0,90.227,63.04,43.73\H,0,89.907,64.6,44.52\H,0,89.317,63.09,45.22\N,
 0,86.447,62.,43.87\C,0,85.677,60.83,43.51\C,0,84.847,61.05,42.25\O,0,8
 4.687,60.1,41.48\C,0,84.747,60.48,44.66\H,0,86.347,62.4,44.79\H,0,86.2
 27,59.94,43.21\H,0,84.087,61.33,44.84\H,0,84.177,59.63,44.29\H,0,85.28
 7,60.33,45.6\N,0,84.467,62.3,41.98\C,0,83.667,62.64,40.82\C,0,84.607,6
 2.85,39.64\O,0,84.207,62.49,38.54\C,0,82.807,63.89,41.02\C,0,81.967,63
 .75,42.28\C,0,81.437,65.1,42.75\O,0,82.127,65.88,43.45\O,0,80.237,65.4
 2,42.64\H,0,84.657,63.07,42.61\H,0,83.027,61.79,40.59\H,0,82.137,63.91
 ,40.17\H,0,83.367,64.83,41.01\H,0,82.527,63.23,43.06\H,0,81.097,63.15,
 42.04\N,0,85.857,63.26,39.86\C,0,86.877,63.38,38.83\H,0,87.8,62.915,39
 .177\H,0,86.538,62.881,37.922\H,0,87.059,64.434,38.619\H,0,86.227,63.3
 6,40.79\Ca,0,80.15,67.56,44.41\O,0,82.23,67.65,46.12\H,0,83.05,68.05,4
 6.41\H,0,81.95,67.11,46.87\\Version=ES64L-G16RevA.03\State=1-A\HF=-533
 3.5757031\RMSD=2.671e-09\Dipole=7.4593862,-10.0225947,5.3227841\Quadru
 pole=-72.7630646,68.9495698,3.8134947,86.4718711,36.4545028,-7.6945219
 \PG=C01 [X(C54H83Ca1N15O23)]\\@


 THE FIRST AND LAST THING REQUIRED OF GENIUS IS THE LOVE OF TRUTH.

                          -- GOETHE
 Job cpu time:       0 days  7 hours 57 minutes  9.5 seconds.
 Elapsed time:       0 days  0 hours 10 minutes  3.5 seconds.
 File lengths (MBytes):  RWF=   1517 Int=      0 D2E=      0 Chk=    171 Scr=      1
 Normal termination of Gaussian 16 at Sat Sep 14 23:57:42 2019.
