 Entering Gaussian System, Link 0=g16
 Initial command:
 /home1/apps/gaussian/16rA.03/g16/l1.exe "/scratch/01990/pengzhi/4328950/Gau-141655.inp" -scrdir="/scratch/01990/pengzhi/4328950/"
 Entering Link 1 = /home1/apps/gaussian/16rA.03/g16/l1.exe PID=    141656.
  
 Copyright (c) 1988,1990,1992,1993,1995,1998,2003,2009,2016,
            Gaussian, Inc.  All Rights Reserved.
  
 This is part of the Gaussian(R) 16 program.  It is based on
 the Gaussian(R) 09 system (copyright 2009, Gaussian, Inc.),
 the Gaussian(R) 03 system (copyright 2003, Gaussian, Inc.),
 the Gaussian(R) 98 system (copyright 1998, Gaussian, Inc.),
 the Gaussian(R) 94 system (copyright 1995, Gaussian, Inc.),
 the Gaussian 92(TM) system (copyright 1992, Gaussian, Inc.),
 the Gaussian 90(TM) system (copyright 1990, Gaussian, Inc.),
 the Gaussian 88(TM) system (copyright 1988, Gaussian, Inc.),
 the Gaussian 86(TM) system (copyright 1986, Carnegie Mellon
 University), and the Gaussian 82(TM) system (copyright 1983,
 Carnegie Mellon University). Gaussian is a federally registered
 trademark of Gaussian, Inc.
  
 This software contains proprietary and confidential information,
 including trade secrets, belonging to Gaussian, Inc.
  
 This software is provided under written license and may be
 used, copied, transmitted, or stored only in accord with that
 written license.
  
 The following legend is applicable only to US Government
 contracts under FAR:
  
                    RESTRICTED RIGHTS LEGEND
  
 Use, reproduction and disclosure by the US Government is
 subject to restrictions as set forth in subparagraphs (a)
 and (c) of the Commercial Computer Software - Restricted
 Rights clause in FAR 52.227-19.
  
 Gaussian, Inc.
 340 Quinnipiac St., Bldg. 40, Wallingford CT 06492
  
  
 ---------------------------------------------------------------
 Warning -- This program may not be used in any manner that
 competes with the business of Gaussian, Inc. or will provide
 assistance to any competitor of Gaussian, Inc.  The licensee
 of this program is prohibited from giving any competitor of
 Gaussian, Inc. access to this program.  By using this program,
 the user acknowledges that Gaussian, Inc. is engaged in the
 business of creating and licensing software in the field of
 computational chemistry and represents and warrants to the
 licensee that it is not a competitor of Gaussian, Inc. and that
 it will not use this program in any manner prohibited above.
 ---------------------------------------------------------------
  

 Cite this work as:
 Gaussian 16, Revision A.03,
 M. J. Frisch, G. W. Trucks, H. B. Schlegel, G. E. Scuseria, 
 M. A. Robb, J. R. Cheeseman, G. Scalmani, V. Barone, 
 G. A. Petersson, H. Nakatsuji, X. Li, M. Caricato, A. V. Marenich, 
 J. Bloino, B. G. Janesko, R. Gomperts, B. Mennucci, H. P. Hratchian, 
 J. V. Ortiz, A. F. Izmaylov, J. L. Sonnenberg, D. Williams-Young, 
 F. Ding, F. Lipparini, F. Egidi, J. Goings, B. Peng, A. Petrone, 
 T. Henderson, D. Ranasinghe, V. G. Zakrzewski, J. Gao, N. Rega, 
 G. Zheng, W. Liang, M. Hada, M. Ehara, K. Toyota, R. Fukuda, 
 J. Hasegawa, M. Ishida, T. Nakajima, Y. Honda, O. Kitao, H. Nakai, 
 T. Vreven, K. Throssell, J. A. Montgomery, Jr., J. E. Peralta, 
 F. Ogliaro, M. J. Bearpark, J. J. Heyd, E. N. Brothers, K. N. Kudin, 
 V. N. Staroverov, T. A. Keith, R. Kobayashi, J. Normand, 
 K. Raghavachari, A. P. Rendell, J. C. Burant, S. S. Iyengar, 
 J. Tomasi, M. Cossi, J. M. Millam, M. Klene, C. Adamo, R. Cammi, 
 J. W. Ochterski, R. L. Martin, K. Morokuma, O. Farkas, 
 J. B. Foresman, and D. J. Fox, Gaussian, Inc., Wallingford CT, 2016.
 
 ******************************************
 Gaussian 16:  ES64L-G16RevA.03 25-Dec-2016
                14-Sep-2019 
 ******************************************
 %chk=CaMKII_loop3_77.0.chk
 %nprocshared=48
 Will use up to   48 processors via shared memory.
 %mem=10GB
 %nosave
 ----------------------------------------------------------------------
 #b3lyp/svp scf=(tight,noincore) Test #IOP(5/87=12) Density=Current Pop
 =(MK,readradii) iop(6/33=2) iop(6/42=6)
 ----------------------------------------------------------------------
 1/30=1,38=1,172=1/1;
 2/12=2,17=6,18=5,40=1/2;
 3/5=18,7=101,11=2,25=1,30=1,74=-5/1,2,3;
 4//1;
 5/5=4,32=2,38=5,87=12/2;
 6/7=2,8=2,9=2,10=2,15=8,20=101,22=-1,28=1,33=2,42=6/1,2;
 99/5=1,9=1/99;
 -----------------
 CaMKII_loop3_77.0
 -----------------
 Symbolic Z-matrix:
 Charge =  0 Multiplicity = 1
 C                     62.61     45.59     39.67 
 C                     61.92     44.91     40.85 
 O                     62.3      43.81     41.25 
 H                     63.614    45.182    39.552 
 H                     62.037    45.411    38.761 
 H                     62.674    46.662    39.854 
 N                     60.93     45.6      41.42 
 C                     60.25     45.23     42.64 
 C                     59.07     44.29     42.43 
 O                     57.96     44.55     41.98 
 C                     59.71     46.53     43.22 
 C                     59.04     46.47     44.58 
 O                     58.54     47.53     45.03 
 O                     59.15     45.42     45.24 
 H                     60.62     46.4      40.89 
 H                     61.       44.81     43.31 
 H                     59.08     46.87     42.39 
 H                     60.45     47.32     43.28 
 N                     59.37     43.01     42.66 
 C                     58.51     41.9      42.3 
 C                     57.25     41.81     43.15 
 O                     56.28     41.37     42.53 
 C                     59.46     40.7      42.27 
 C                     60.66     40.57     41.34 
 C                     60.35     40.84     39.87 
 C                     61.53     41.13     38.95 
 N                     61.09     41.08     37.55 
 H                     60.32     42.78     42.91 
 H                     58.18     42.13     41.29 
 H                     58.76     39.9      42.04 
 H                     59.76     40.48     43.29 
 H                     61.04     39.55     41.34 
 H                     61.47     41.21     41.69 
 H                     59.6      41.63     39.74 
 H                     59.83     39.96     39.5 
 H                     62.35     40.42     39.11 
 H                     61.96     42.12     39.1 
 H                     61.89     41.24     36.96 
 H                     60.75     40.16     37.3 
 H                     60.48     41.87     37.34 
 N                     57.26     42.25     44.4 
 C                     56.11     42.27     45.29 
 C                     55.46     43.63     45.49 
 O                     54.39     43.65     46.1 
 C                     56.5      41.76     46.67 
 C                     57.81     42.36     47.15 
 O                     58.82     41.66     47.33 
 O                     57.79     43.6      47.36 
 H                     58.12     42.55     44.85 
 H                     55.32     41.65     44.86 
 H                     56.67     40.68     46.59 
 H                     55.72     41.85     47.43 
 N                     55.99     44.72     44.93 
 C                     55.26     45.97     44.9 
 C                     55.34     46.78     46.19 
 O                     54.78     47.87     46.27 
 H                     56.94     44.68     44.61 
 H                     54.26     45.91     44.46 
 H                     55.85     46.62     44.26 
 N                     56.13     46.36     47.18 
 C                     56.33     46.92     48.5 
 C                     57.       48.28     48.59 
 O                     56.88     48.89     49.65 
 C                     56.88     45.95     49.54 
 C                     58.35     45.58     49.37 
 N                     58.76     44.61     50.19 
 O                     59.13     46.09     48.57 
 H                     56.66     45.52     46.98 
 H                     55.34     47.17     48.88 
 H                     56.26     45.06     49.5 
 H                     56.98     46.44     50.51 
 H                     58.03     44.14     50.7 
 H                     59.76     44.5      50.22 
 N                     57.68     48.81     47.57 
 C                     58.19     50.17     47.6 
 C                     59.7      50.18     47.82 
 O                     60.26     51.26     48.03 
 H                     57.76     48.28     46.71 
 H                     57.76     50.8      48.38 
 H                     57.82     50.61     46.67 
 N                     60.36     49.03     47.8 
 C                     61.8      48.84     47.72 
 C                     62.22     47.61     46.94 
 O                     61.59     46.56     46.82 
 C                     62.49     48.95     49.08 
 C                     62.02     48.       50.16 
 C                     60.81     48.13     50.85 
 C                     62.81     46.9      50.49 
 C                     60.36     47.28     51.87 
 C                     62.48     46.12     51.61 
 C                     61.25     46.26     52.27 
 O                     60.88     45.57     53.39 
 H                     59.85     48.16     47.86 
 H                     62.25     49.6      47.09 
 H                     62.22     49.9      49.55 
 H                     63.57     48.99     48.97 
 H                     60.2      49.       50.63 
 H                     63.8      46.9      50.05 
 H                     59.43     47.43     52.39 
 H                     63.2      45.43     52.02 
 H                     61.47     44.89     53.72 
 N                     63.44     47.73     46.42 
 C                     64.16     46.68     45.72 
 C                     65.01     45.95     46.76 
 O                     65.67     46.58     47.59 
 C                     65.01     47.26     44.6 
 C                     64.08     47.76     43.49 
 C                     65.9      46.2      43.95 
 C                     64.75     48.63     42.44 
 H                     63.99     48.51     46.73 
 H                     63.5      46.       45.18 
 H                     65.62     48.1      44.94 
 H                     63.28     48.34     43.94 
 H                     63.53     46.94     43.02 
 H                     66.66     45.78     44.62 
 H                     65.29     45.32     43.73 
 H                     66.35     46.52     43.02 
 H                     65.47     48.13     41.8 
 H                     64.       49.12     41.82 
 H                     65.38     49.34     42.99 
 N                     65.04     44.63     46.89 
 C                     65.87     43.89     47.81 
 C                     66.97     43.1      47.12 
 O                     66.93     42.88     45.91 
 C                     64.96     42.95     48.6 
 O                     64.44     41.88     47.84 
 H                     64.54     44.07     46.2 
 H                     66.24     44.61     48.54 
 H                     64.22     43.56     49.11 
 H                     65.52     42.42     49.36 
 H                     63.68     42.1      47.29 
 N                     67.97     42.61     47.86 
 C                     69.       41.81     47.22 
 C                     68.53     40.53     46.55 
 O                     69.12     40.1      45.57 
 C                     70.16     41.48     48.16 
 H                     68.08     42.81     48.84 
 H                     69.47     42.38     46.42 
 H                     70.95     41.05     47.55 
 H                     70.47     42.38     48.69 
 H                     69.91     40.67     48.84 
 N                     67.53     39.79     47.05 
 C                     66.84     38.68     46.43 
 C                     66.21     39.11     45.12 
 O                     66.48     38.44     44.12 
 C                     65.81     38.13     47.41 
 H                     67.04     40.32     47.76 
 H                     67.55     37.89     46.16 
 H                     65.03     38.87     47.56 
 H                     65.38     37.23     46.97 
 H                     66.26     37.86     48.37 
 N                     65.64     40.32     44.99 
 C                     65.08     40.83     43.76 
 C                     66.13     41.38     42.8 
 O                     65.85     41.39     41.6 
 C                     64.       41.86     44.07 
 C                     62.86     41.29     44.92 
 C                     61.99     42.47     45.32 
 O                     60.74     42.48     45.23 
 O                     62.49     43.47     45.88 
 H                     65.75     40.94     45.78 
 H                     64.68     40.       43.17 
 H                     63.5      42.25     43.18 
 H                     64.44     42.67     44.65 
 H                     63.17     40.71     45.79 
 H                     62.29     40.58     44.31 
 N                     67.26     41.97     43.18 
 C                     68.35     42.34     42.3 
 H                     69.239    41.767    42.563 
 H                     68.073    42.126    41.268 
 H                     68.559    43.404    42.407 
 H                     67.49     42.01     44.16 
 Ca                    60.3      44.25     47.12 
 O                     61.81     44.35     49.4 
 H                     62.04     43.61     49.96 
 H                     62.21     45.11     49.83 
 
 Stoichiometry    C54H83CaN15O23
 Framework group  C1[X(C54H83CaN15O23)]
 Deg. of freedom   522
 Full point group                 C1      NOp   1
 Largest Abelian subgroup         C1      NOp   1
 Largest concise Abelian subgroup C1      NOp   1
                         Standard orientation:                         
 ---------------------------------------------------------------------
 Center     Atomic      Atomic             Coordinates (Angstroms)
 Number     Number       Type             X           Y           Z
 ---------------------------------------------------------------------
      1          6           0        1.820373    3.982030    4.597409
      2          6           0        1.275025    3.615247    3.219379
      3          8           0        2.029619    3.514551    2.252504
      4          1           0        2.883679    3.745805    4.641915
      5          1           0        1.678279    5.047665    4.773141
      6          1           0        1.290857    3.413959    5.361637
      7          7           0       -0.037325    3.380609    3.157878
      8          6           0       -0.739307    2.864177    2.005394
      9          6           0       -1.189915    3.937597    1.023141
     10          8           0       -2.115935    4.732570    1.135854
     11          6           0       -1.986313    2.184641    2.554217
     12          6           0       -2.871541    1.438583    1.573468
     13          8           0       -3.931512    0.931321    2.015336
     14          8           0       -2.433929    1.240601    0.424773
     15          1           0       -0.550263    3.661112    3.979592
     16          1           0       -0.089439    2.123335    1.539964
     17          1           0       -2.454725    3.025305    3.078884
     18          1           0       -1.784414    1.495802    3.366644
     19          7           0       -0.366566    4.076588   -0.018050
     20          6           0       -0.428478    5.179154   -0.957099
     21          6           0       -1.650156    5.133482   -1.864633
     22          8           0       -2.067058    6.252503   -2.169402
     23          6           0        0.960896    5.186730   -1.599735
     24          6           0        2.263792    5.405132   -0.840418
     25          6           0        2.264722    6.630408    0.069855
     26          6           0        3.339468    6.697414    1.148433
     27          7           0        3.373662    8.045280    1.729973
     28          1           0        0.465658    3.507004   -0.047685
     29          1           0       -0.546576    6.060653   -0.331869
     30          1           0        0.842238    5.996079   -2.316516
     31          1           0        1.046589    4.307910   -2.231504
     32          1           0        3.085032    5.595206   -1.529066
     33          1           0        2.520940    4.505577   -0.281064
     34          1           0        1.287047    6.804644    0.536004
     35          1           0        2.371734    7.494948   -0.580390
     36          1           0        4.327146    6.436645    0.750196
     37          1           0        3.161969    6.011718    1.976572
     38          1           0        4.111543    8.077064    2.414239
     39          1           0        3.617248    8.742508    1.037846
     40          1           0        2.532861    8.216680    2.281313
     41          7           0       -2.193486    3.968784   -2.187852
     42          6           0       -3.389725    3.798566   -2.997196
     43          6           0       -4.656272    3.453588   -2.229766
     44          8           0       -5.711948    3.469122   -2.864358
     45          6           0       -3.181241    2.694483   -4.023906
     46          6           0       -2.525989    1.466895   -3.415489
     47          8           0       -1.391746    1.095810   -3.759422
     48          8           0       -3.215364    0.856943   -2.558273
     49          1           0       -1.752499    3.089201   -1.934937
     50          1           0       -3.619023    4.745273   -3.491734
     51          1           0       -2.482232    3.070612   -4.779958
     52          1           0       -4.072242    2.426156   -4.596809
     53          7           0       -4.612018    3.251580   -0.910738
     54          6           0       -5.828672    3.168784   -0.130226
     55          6           0       -6.508954    1.803951   -0.162601
     56          8           0       -7.534920    1.610312    0.483926
     57          1           0       -3.722639    3.068670   -0.484066
     58          1           0       -6.507319    4.019789   -0.241716
     59          1           0       -5.494665    3.162348    0.903504
     60          7           0       -5.911222    0.788096   -0.788185
     61          6           0       -6.376025   -0.566963   -0.997403
     62          6           0       -6.523512   -1.453953    0.226565
     63          8           0       -7.208191   -2.466558    0.100294
     64          6           0       -5.716084   -1.307980   -2.155147
     65          6           0       -4.273118   -1.738860   -1.912467
     66          7           0       -3.670213   -2.237113   -2.993970
     67          8           0       -3.670009   -1.657034   -0.845666
     68          1           0       -5.002479    1.000987   -1.182347
     69          1           0       -7.418884   -0.489420   -1.303071
     70          1           0       -5.774478   -0.655993   -3.020943
     71          1           0       -6.135473   -2.309907   -2.261239
     72          1           0       -4.174768   -2.125438   -3.858176
     73          1           0       -2.797869   -2.698311   -2.795695
     74          7           0       -5.954366   -1.155736    1.397393
     75          6           0       -6.217980   -1.918378    2.605485
     76          6           0       -5.034854   -2.818632    2.949513
     77          8           0       -5.165774   -3.647131    3.855355
     78          1           0       -5.395741   -0.313124    1.466985
     79          1           0       -7.094030   -2.566383    2.552314
     80          1           0       -6.494880   -1.158242    3.340957
     81          7           0       -3.912442   -2.698856    2.253565
     82          6           0       -2.607757   -3.252943    2.580497
     83          6           0       -1.441426   -2.381674    2.158284
     84          8           0       -1.407176   -1.602670    1.206560
     85          6           0       -2.454760   -4.709983    2.142974
     86          6           0       -2.657523   -5.003466    0.672411
     87          6           0       -3.904804   -5.025153    0.039230
     88          6           0       -1.545805   -5.243857   -0.133378
     89          6           0       -4.124844   -5.316611   -1.314297
     90          6           0       -1.728215   -5.698053   -1.449483
     91          6           0       -2.989000   -5.689844   -2.064669
     92          8           0       -3.249215   -6.157723   -3.321959
     93          1           0       -3.916584   -2.186626    1.382816
     94          1           0       -2.446726   -3.240617    3.653305
     95          1           0       -3.275435   -5.302953    2.556713
     96          1           0       -1.553745   -5.152018    2.558759
     97          1           0       -4.782749   -4.874888    0.658934
     98          1           0       -0.611370   -5.364452    0.401399
     99          1           0       -5.105668   -5.343256   -1.755969
    100          1           0       -0.899580   -6.118319   -1.996604
    101          1           0       -2.511593   -6.455605   -3.857290
    102          7           0       -0.355521   -2.591757    2.899819
    103          6           0        0.947637   -1.993195    2.666575
    104          6           0        1.735842   -2.964787    1.788087
    105          8           0        1.746386   -4.172995    2.036122
    106          6           0        1.658869   -1.714345    3.981753
    107          6           0        0.937685   -0.564834    4.692750
    108          6           0        3.094048   -1.233264    3.764904
    109          6           0        1.337388   -0.361664    6.144391
    110          1           0       -0.372041   -3.386214    3.512652
    111          1           0        0.884794   -0.998709    2.223124
    112          1           0        1.654047   -2.583280    4.643741
    113          1           0       -0.131135   -0.754124    4.666414
    114          1           0        1.016687    0.372151    4.134523
    115          1           0        3.752172   -1.978878    3.302484
    116          1           0        3.086837   -0.445734    3.006850
    117          1           0        3.553844   -0.820784    4.652737
    118          1           0        2.350919   -0.011370    6.311870
    119          1           0        0.639384    0.313699    6.638026
    120          1           0        1.357874   -1.360754    6.597049
    121          7           0        2.382796   -2.602394    0.687940
    122          6           0        3.191400   -3.464828   -0.139869
    123          6           0        4.676257   -3.150302   -0.059411
    124          8           0        5.074710   -2.083389    0.406457
    125          6           0        2.697576   -3.320027   -1.578955
    126          8           0        3.002914   -2.074392   -2.168923
    127          1           0        2.432260   -1.608004    0.467843
    128          1           0        2.944353   -4.487428    0.145538
    129          1           0        1.647397   -3.596863   -1.595899
    130          1           0        3.221361   -4.002111   -2.236611
    131          1           0        2.412367   -1.351919   -1.928534
    132          7           0        5.548724   -4.040951   -0.542364
    133          6           0        6.967459   -3.729364   -0.517756
    134          6           0        7.394613   -2.503098   -1.306433
    135          8           0        8.356471   -1.844334   -0.940019
    136          6           0        7.839186   -4.914591   -0.934201
    137          1           0        5.279223   -4.950045   -0.879141
    138          1           0        7.284780   -3.521436    0.502966
    139          1           0        8.867696   -4.647190   -0.706684
    140          1           0        7.506268   -5.814151   -0.417522
    141          1           0        7.854847   -5.044150   -2.013075
    142          7           0        6.804150   -2.156244   -2.459102
    143          6           0        6.951782   -0.926875   -3.207070
    144          6           0        6.566331    0.264899   -2.353255
    145          8           0        7.388735    1.179780   -2.261354
    146          6           0        6.114273   -1.018777   -4.477477
    147          1           0        5.946950   -2.683216   -2.571396
    148          1           0        8.002883   -0.762116   -3.470016
    149          1           0        5.062193   -1.035948   -4.210394
    150          1           0        6.324169   -0.133924   -5.078708
    151          1           0        6.364651   -1.902993   -5.071171
    152          7           0        5.528287    0.200284   -1.502261
    153          6           0        5.139533    1.265538   -0.607439
    154          6           0        5.988230    1.331899    0.658226
    155          8           0        6.071440    2.421602    1.227544
    156          6           0        3.652901    1.157979   -0.288446
    157          6           0        2.769124    1.229828   -1.537756
    158          6           0        1.357282    0.895444   -1.085885
    159          8           0        0.344263    1.560358   -1.405857
    160          8           0        1.123487   -0.155204   -0.449426
    161          1           0        5.100374   -0.709798   -1.406135
    162          1           0        5.379286    2.230546   -1.063814
    163          1           0        3.282906    1.966377    0.347005
    164          1           0        3.458784    0.189161    0.169604
    165          1           0        3.082115    0.597294   -2.369224
    166          1           0        2.814141    2.248268   -1.940067
    167          7           0        6.526464    0.273835    1.258397
    168          6           0        7.476457    0.322672    2.351342
    169          1           0        8.425523   -0.103291    2.026309
    170          1           0        7.628888    1.358154    2.654809
    171          1           0        7.091124   -0.250107    3.194354
    172          1           0        6.435644   -0.634265    0.831777
    173         20           0       -1.402664   -0.385740   -1.161829
    174          8           0       -0.812539   -2.966272   -1.855449
    175          1           0       -0.403487   -3.254435   -2.670150
    176          1           0       -0.974883   -3.777828   -1.368087
 ---------------------------------------------------------------------
 Rotational constants (GHZ):           0.0239411           0.0165566           0.0131528
 Standard basis: SVP (5D, 7F)
 There are  1809 symmetry adapted cartesian basis functions of A   symmetry.
 There are  1717 symmetry adapted basis functions of A   symmetry.
  1717 basis functions,  2922 primitive gaussians,  1809 cartesian basis functions
   358 alpha electrons      358 beta electrons
       nuclear repulsion energy     22166.0798259483 Hartrees.
 NAtoms=  176 NActive=  176 NUniq=  176 SFac= 1.00D+00 NAtFMM=   60 NAOKFM=T Big=T
 Integral buffers will be    131072 words long.
 Raffenetti 2 integral format.
 Two-electron integral symmetry is turned on.
 One-electron integrals computed using PRISM.
 NBasis=  1717 RedAO= T EigKep=  2.74D-04  NBF=  1717
 NBsUse=  1717 1.00D-06 EigRej= -1.00D+00 NBFU=  1717
 ExpMin= 1.98D-02 ExpMax= 3.51D+04 ExpMxC= 5.28D+03 IAcc=3 IRadAn=         5 AccDes= 0.00D+00
 Harris functional with IExCor=  402 and IRadAn=       5 diagonalized for initial guess.
 HarFok:  IExCor=  402 AccDes= 0.00D+00 IRadAn=         5 IDoV= 1 UseB2=F ITyADJ=14
 ICtDFT=  3500011 ScaDFX=  1.000000  1.000000  1.000000  1.000000
 FoFCou: FMM=F IPFlag=           0 FMFlag=      100000 FMFlg1=        2001
         NFxFlg=           0 DoJE=T BraDBF=F KetDBF=T FulRan=T
         wScrn=  0.000000 ICntrl=       500 IOpCl=  0 I1Cent=   200000004 NGrid=           0
         NMat0=    1 NMatS0=      1 NMatT0=    0 NMatD0=    1 NMtDS0=    0 NMtDT0=    0
 Petite list used in FoFCou.
 Requested convergence on RMS density matrix=1.00D-08 within 128 cycles.
 Requested convergence on MAX density matrix=1.00D-06.
 Requested convergence on             energy=1.00D-06.
 No special actions if energy rises.
 EnCoef did     4 forward-backward iterations
 SCF Done:  E(RB3LYP) =  -5333.62188412     A.U. after   18 cycles
            NFock= 18  Conv=0.37D-08     -V/T= 2.0082
 SCF density gives NOpUse=  1 NOpAll=  1.
 Hyperfine terms turned off by default for NAtoms > 100.

 **********************************************************************

            Population analysis using the SCF density.

 **********************************************************************

 Orbital symmetries:
 BldTbl:  Degeneracy threshold= 1.00D-02
       Occupied  (A) (A) (A) (A) (A) (A) (A) (A) (A) (A) (A) (A)
                 (A) (A) (A) (A) (A) (A) (A) (A) (A) (A) (A) (A)
                 (A) (A) (A) (A) (A) (A) (A) (A) (A) (A) (A) (A)
                 (A) (A) (A) (A) (A) (A) (A) (A) (A) (A) (A) (A)
                 (A) (A) (A) (A) (A) (A) (A) (A) (A) (A) (A) (A)
                 (A) (A) (A) (A) (A) (A) (A) (A) (A) (A) (A) (A)
                 (A) (A) (A) (A) (A) (A) (A) (A) (A) (A) (A) (A)
                 (A) (A) (A) (A) (A) (A) (A) (A) (A) (A) (A) (A)
                 (A) (A) (A) (A) (A) (A) (A) (A) (A) (A) (A) (A)
                 (A) (A) (A) (A) (A) (A) (A) (A) (A) (A) (A) (A)
                 (A) (A) (A) (A) (A) (A) (A) (A) (A) (A) (A) (A)
                 (A) (A) (A) (A) (A) (A) (A) (A) (A) (A) (A) (A)
                 (A) (A) (A) (A) (A) (A) (A) (A) (A) (A) (A) (A)
                 (A) (A) (A) (A) (A) (A) (A) (A) (A) (A) (A) (A)
                 (A) (A) (A) (A) (A) (A) (A) (A) (A) (A) (A) (A)
                 (A) (A) (A) (A) (A) (A) (A) (A) (A) (A) (A) (A)
                 (A) (A) (A) (A) (A) (A) (A) (A) (A) (A) (A) (A)
                 (A) (A) (A) (A) (A) (A) (A) (A) (A) (A) (A) (A)
                 (A) (A) (A) (A) (A) (A) (A) (A) (A) (A) (A) (A)
                 (A) (A) (A) (A) (A) (A) (A) (A) (A) (A) (A) (A)
                 (A) (A) (A) (A) (A) (A) (A) (A) (A) (A) (A) (A)
                 (A) (A) (A) (A) (A) (A) (A) (A) (A) (A) (A) (A)
                 (A) (A) (A) (A) (A) (A) (A) (A) (A) (A) (A) (A)
                 (A) (A) (A) (A) (A) (A) (A) (A) (A) (A) (A) (A)
                 (A) (A) (A) (A) (A) (A) (A) (A) (A) (A) (A) (A)
                 (A) (A) (A) (A) (A) (A) (A) (A) (A) (A) (A) (A)
                 (A) (A) (A) (A) (A) (A) (A) (A) (A) (A) (A) (A)
                 (A) (A) (A) (A) (A) (A) (A) (A) (A) (A) (A) (A)
                 (A) (A) (A) (A) (A) (A) (A) (A) (A) (A) (A) (A)
                 (A) (A) (A) (A) (A) (A) (A) (A) (A) (A)
       Virtual   (A) (A) (A) (A) (A) (A) (A) (A) (A) (A) (A) (A)
                 (A) (A) (A) (A) (A) (A) (A) (A) (A) (A) (A) (A)
                 (A) (A) (A) (A) (A) (A) (A) (A) (A) (A) (A) (A)
                 (A) (A) (A) (A) (A) (A) (A) (A) (A) (A) (A) (A)
                 (A) (A) (A) (A) (A) (A) (A) (A) (A) (A) (A) (A)
                 (A) (A) (A) (A) (A) (A) (A) (A) (A) (A) (A) (A)
                 (A) (A) (A) (A) (A) (A) (A) (A) (A) (A) (A) (A)
                 (A) (A) (A) (A) (A) (A) (A) (A) (A) (A) (A) (A)
                 (A) (A) (A) (A) (A) (A) (A) (A) (A) (A) (A) (A)
                 (A) (A) (A) (A) (A) (A) (A) (A) (A) (A) (A) (A)
                 (A) (A) (A) (A) (A) (A) (A) (A) (A) (A) (A) (A)
                 (A) (A) (A) (A) (A) (A) (A) (A) (A) (A) (A) (A)
                 (A) (A) (A) (A) (A) (A) (A) (A) (A) (A) (A) (A)
                 (A) (A) (A) (A) (A) (A) (A) (A) (A) (A) (A) (A)
                 (A) (A) (A) (A) (A) (A) (A) (A) (A) (A) (A) (A)
                 (A) (A) (A) (A) (A) (A) (A) (A) (A) (A) (A) (A)
                 (A) (A) (A) (A) (A) (A) (A) (A) (A) (A) (A) (A)
                 (A) (A) (A) (A) (A) (A) (A) (A) (A) (A) (A) (A)
                 (A) (A) (A) (A) (A) (A) (A) (A) (A) (A) (A) (A)
                 (A) (A) (A) (A) (A) (A) (A) (A) (A) (A) (A) (A)
                 (A) (A) (A) (A) (A) (A) (A) (A) (A) (A) (A) (A)
                 (A) (A) (A) (A) (A) (A) (A) (A) (A) (A) (A) (A)
                 (A) (A) (A) (A) (A) (A) (A) (A) (A) (A) (A) (A)
                 (A) (A) (A) (A) (A) (A) (A) (A) (A) (A) (A) (A)
                 (A) (A) (A) (A) (A) (A) (A) (A) (A) (A) (A) (A)
                 (A) (A) (A) (A) (A) (A) (A) (A) (A) (A) (A) (A)
                 (A) (A) (A) (A) (A) (A) (A) (A) (A) (A) (A) (A)
                 (A) (A) (A) (A) (A) (A) (A) (A) (A) (A) (A) (A)
                 (A) (A) (A) (A) (A) (A) (A) (A) (A) (A) (A) (A)
                 (A) (A) (A) (A) (A) (A) (A) (A) (A) (A) (A) (A)
                 (A) (A) (A) (A) (A) (A) (A) (A) (A) (A) (A) (A)
                 (A) (A) (A) (A) (A) (A) (A) (A) (A) (A) (A) (A)
                 (A) (A) (A) (A) (A) (A) (A) (A) (A) (A) (A) (A)
                 (A) (A) (A) (A) (A) (A) (A) (A) (A) (A) (A) (A)
                 (A) (A) (A) (A) (A) (A) (A) (A) (A) (A) (A) (A)
                 (A) (A) (A) (A) (A) (A) (A) (A) (A) (A) (A) (A)
                 (A) (A) (A) (A) (A) (A) (A) (A) (A) (A) (A) (A)
                 (A) (A) (A) (A) (A) (A) (A) (A) (A) (A) (A) (A)
                 (A) (A) (A) (A) (A) (A) (A) (A) (A) (A) (A) (A)
                 (A) (A) (A) (A) (A) (A) (A) (A) (A) (A) (A) (A)
                 (A) (A) (A) (A) (A) (A) (A) (A) (A) (A) (A) (A)
                 (A) (A) (A) (A) (A) (A) (A) (A) (A) (A) (A) (A)
                 (A) (A) (A) (A) (A) (A) (A) (A) (A) (A) (A) (A)
                 (A) (A) (A) (A) (A) (A) (A) (A) (A) (A) (A) (A)
                 (A) (A) (A) (A) (A) (A) (A) (A) (A) (A) (A) (A)
                 (A) (A) (A) (A) (A) (A) (A) (A) (A) (A) (A) (A)
                 (A) (A) (A) (A) (A) (A) (A) (A) (A) (A) (A) (A)
                 (A) (A) (A) (A) (A) (A) (A) (A) (A) (A) (A) (A)
                 (A) (A) (A) (A) (A) (A) (A) (A) (A) (A) (A) (A)
                 (A) (A) (A) (A) (A) (A) (A) (A) (A) (A) (A) (A)
                 (A) (A) (A) (A) (A) (A) (A) (A) (A) (A) (A) (A)
                 (A) (A) (A) (A) (A) (A) (A) (A) (A) (A) (A) (A)
                 (A) (A) (A) (A) (A) (A) (A) (A) (A) (A) (A) (A)
                 (A) (A) (A) (A) (A) (A) (A) (A) (A) (A) (A) (A)
                 (A) (A) (A) (A) (A) (A) (A) (A) (A) (A) (A) (A)
                 (A) (A) (A) (A) (A) (A) (A) (A) (A) (A) (A) (A)
                 (A) (A) (A) (A) (A) (A) (A) (A) (A) (A) (A) (A)
                 (A) (A) (A) (A) (A) (A) (A) (A) (A) (A) (A) (A)
                 (A) (A) (A) (A) (A) (A) (A) (A) (A) (A) (A) (A)
                 (A) (A) (A) (A) (A) (A) (A) (A) (A) (A) (A) (A)
                 (A) (A) (A) (A) (A) (A) (A) (A) (A) (A) (A) (A)
                 (A) (A) (A) (A) (A) (A) (A) (A) (A) (A) (A) (A)
                 (A) (A) (A) (A) (A) (A) (A) (A) (A) (A) (A) (A)
                 (A) (A) (A) (A) (A) (A) (A) (A) (A) (A) (A) (A)
                 (A) (A) (A) (A) (A) (A) (A) (A) (A) (A) (A) (A)
                 (A) (A) (A) (A) (A) (A) (A) (A) (A) (A) (A) (A)
                 (A) (A) (A) (A) (A) (A) (A) (A) (A) (A) (A) (A)
                 (A) (A) (A) (A) (A) (A) (A) (A) (A) (A) (A) (A)
                 (A) (A) (A) (A) (A) (A) (A) (A) (A) (A) (A) (A)
                 (A) (A) (A) (A) (A) (A) (A) (A) (A) (A) (A) (A)
                 (A) (A) (A) (A) (A) (A) (A) (A) (A) (A) (A) (A)
                 (A) (A) (A) (A) (A) (A) (A) (A) (A) (A) (A) (A)
                 (A) (A) (A) (A) (A) (A) (A) (A) (A) (A) (A) (A)
                 (A) (A) (A) (A) (A) (A) (A) (A) (A) (A) (A) (A)
                 (A) (A) (A) (A) (A) (A) (A) (A) (A) (A) (A) (A)
                 (A) (A) (A) (A) (A) (A) (A) (A) (A) (A) (A) (A)
                 (A) (A) (A) (A) (A) (A) (A) (A) (A) (A) (A) (A)
                 (A) (A) (A) (A) (A) (A) (A) (A) (A) (A) (A) (A)
                 (A) (A) (A) (A) (A) (A) (A) (A) (A) (A) (A) (A)
                 (A) (A) (A) (A) (A) (A) (A) (A) (A) (A) (A) (A)
                 (A) (A) (A) (A) (A) (A) (A) (A) (A) (A) (A) (A)
                 (A) (A) (A) (A) (A) (A) (A) (A) (A) (A) (A) (A)
                 (A) (A) (A) (A) (A) (A) (A) (A) (A) (A) (A) (A)
                 (A) (A) (A) (A) (A) (A) (A) (A) (A) (A) (A) (A)
                 (A) (A) (A) (A) (A) (A) (A) (A) (A) (A) (A) (A)
                 (A) (A) (A) (A) (A) (A) (A) (A) (A) (A) (A) (A)
                 (A) (A) (A) (A) (A) (A) (A) (A) (A) (A) (A) (A)
                 (A) (A) (A) (A) (A) (A) (A) (A) (A) (A) (A) (A)
                 (A) (A) (A) (A) (A) (A) (A) (A) (A) (A) (A) (A)
                 (A) (A) (A) (A) (A) (A) (A) (A) (A) (A) (A) (A)
                 (A) (A) (A) (A) (A) (A) (A) (A) (A) (A) (A) (A)
                 (A) (A) (A) (A) (A) (A) (A) (A) (A) (A) (A) (A)
                 (A) (A) (A) (A) (A) (A) (A) (A) (A) (A) (A) (A)
                 (A) (A) (A) (A) (A) (A) (A) (A) (A) (A) (A) (A)
                 (A) (A) (A) (A) (A) (A) (A) (A) (A) (A) (A) (A)
                 (A) (A) (A) (A) (A) (A) (A) (A) (A) (A) (A) (A)
                 (A) (A) (A) (A) (A) (A) (A) (A) (A) (A) (A) (A)
                 (A) (A) (A) (A) (A) (A) (A) (A) (A) (A) (A) (A)
                 (A) (A) (A) (A) (A) (A) (A) (A) (A) (A) (A) (A)
                 (A) (A) (A) (A) (A) (A) (A) (A) (A) (A) (A) (A)
                 (A) (A) (A) (A) (A) (A) (A) (A) (A) (A) (A) (A)
                 (A) (A) (A) (A) (A) (A) (A) (A) (A) (A) (A) (A)
                 (A) (A) (A) (A) (A) (A) (A) (A) (A) (A) (A) (A)
                 (A) (A) (A) (A) (A) (A) (A) (A) (A) (A) (A) (A)
                 (A) (A) (A) (A) (A) (A) (A) (A) (A) (A) (A) (A)
                 (A) (A) (A) (A) (A) (A) (A) (A) (A) (A) (A) (A)
                 (A) (A) (A) (A) (A) (A) (A) (A) (A) (A) (A) (A)
                 (A) (A) (A) (A) (A) (A) (A) (A) (A) (A) (A) (A)
                 (A) (A) (A) (A) (A) (A) (A) (A) (A) (A) (A) (A)
                 (A) (A) (A) (A) (A) (A) (A) (A) (A) (A) (A) (A)
                 (A) (A) (A) (A) (A) (A) (A) (A) (A) (A) (A) (A)
                 (A) (A) (A) (A) (A) (A) (A) (A) (A) (A) (A) (A)
                 (A) (A) (A) (A) (A) (A) (A) (A) (A) (A) (A) (A)
                 (A) (A) (A)
 The electronic state is 1-A.
 Alpha  occ. eigenvalues -- -145.35677 -19.18919 -19.17886 -19.16342 -19.14338
 Alpha  occ. eigenvalues --  -19.12032 -19.11768 -19.10506 -19.10276 -19.10240
 Alpha  occ. eigenvalues --  -19.08696 -19.08306 -19.08290 -19.07073 -19.06469
 Alpha  occ. eigenvalues --  -19.06251 -19.06104 -19.04501 -19.04375 -19.04283
 Alpha  occ. eigenvalues --  -19.04157 -19.04122 -19.02980 -19.02546 -15.41414
 Alpha  occ. eigenvalues --  -14.58052 -14.40232 -14.37082 -14.37059 -14.36629
 Alpha  occ. eigenvalues --  -14.36172 -14.34859 -14.34413 -14.32802 -14.32745
 Alpha  occ. eigenvalues --  -14.32699 -14.32458 -14.30161 -14.29522 -14.29266
 Alpha  occ. eigenvalues --  -12.55022 -12.54995 -12.54980 -10.33479 -10.32624
 Alpha  occ. eigenvalues --  -10.30401 -10.30329 -10.29340 -10.29268 -10.28570
 Alpha  occ. eigenvalues --  -10.27103 -10.27038 -10.27032 -10.26997 -10.26373
 Alpha  occ. eigenvalues --  -10.26174 -10.26091 -10.25912 -10.25736 -10.25468
 Alpha  occ. eigenvalues --  -10.25213 -10.24535 -10.23923 -10.23797 -10.23382
 Alpha  occ. eigenvalues --  -10.23082 -10.23037 -10.22854 -10.22647 -10.22396
 Alpha  occ. eigenvalues --  -10.22239 -10.22218 -10.21954 -10.21873 -10.21827
 Alpha  occ. eigenvalues --  -10.21174 -10.20632 -10.20602 -10.20274 -10.20196
 Alpha  occ. eigenvalues --  -10.20105 -10.19894 -10.19854 -10.19817 -10.19731
 Alpha  occ. eigenvalues --  -10.19585 -10.19349 -10.18808 -10.18681 -10.18661
 Alpha  occ. eigenvalues --  -10.18635 -10.18594 -10.18369 -10.18317 -10.17791
 Alpha  occ. eigenvalues --  -10.16145 -10.14318  -1.78342  -1.13275  -1.07656
 Alpha  occ. eigenvalues --   -1.06292  -1.06194  -1.06050  -1.05883  -1.04903
 Alpha  occ. eigenvalues --   -1.04891  -1.04361  -1.04274  -1.04080  -1.03613
 Alpha  occ. eigenvalues --   -1.03418  -1.02889  -1.01600  -1.01385  -0.99706
 Alpha  occ. eigenvalues --   -0.99411  -0.99193  -0.98926  -0.97993  -0.97712
 Alpha  occ. eigenvalues --   -0.97284  -0.96465  -0.96111  -0.94240  -0.93886
 Alpha  occ. eigenvalues --   -0.93318  -0.92703  -0.91774  -0.91008  -0.90683
 Alpha  occ. eigenvalues --   -0.90425  -0.89976  -0.89368  -0.88979  -0.88420
 Alpha  occ. eigenvalues --   -0.88180  -0.87153  -0.87088  -0.86636  -0.86236
 Alpha  occ. eigenvalues --   -0.85583  -0.83334  -0.81782  -0.80435  -0.79368
 Alpha  occ. eigenvalues --   -0.79272  -0.78727  -0.78572  -0.77507  -0.76070
 Alpha  occ. eigenvalues --   -0.75791  -0.75680  -0.75282  -0.73878  -0.73836
 Alpha  occ. eigenvalues --   -0.73764  -0.73348  -0.72241  -0.71435  -0.70948
 Alpha  occ. eigenvalues --   -0.69430  -0.69337  -0.68325  -0.68263  -0.67914
 Alpha  occ. eigenvalues --   -0.67706  -0.66544  -0.65847  -0.64900  -0.64593
 Alpha  occ. eigenvalues --   -0.64506  -0.63917  -0.63448  -0.62566  -0.61421
 Alpha  occ. eigenvalues --   -0.61371  -0.61298  -0.60736  -0.60390  -0.59909
 Alpha  occ. eigenvalues --   -0.59623  -0.59442  -0.58534  -0.58421  -0.58258
 Alpha  occ. eigenvalues --   -0.58171  -0.58074  -0.57180  -0.56956  -0.56433
 Alpha  occ. eigenvalues --   -0.56234  -0.56097  -0.55643  -0.55527  -0.55247
 Alpha  occ. eigenvalues --   -0.54840  -0.54495  -0.54074  -0.53653  -0.53378
 Alpha  occ. eigenvalues --   -0.53073  -0.53016  -0.52865  -0.51924  -0.51767
 Alpha  occ. eigenvalues --   -0.51179  -0.50460  -0.50375  -0.50254  -0.50056
 Alpha  occ. eigenvalues --   -0.49715  -0.49507  -0.49407  -0.49321  -0.48999
 Alpha  occ. eigenvalues --   -0.48669  -0.48576  -0.48079  -0.47909  -0.47760
 Alpha  occ. eigenvalues --   -0.47500  -0.47387  -0.47277  -0.47192  -0.47032
 Alpha  occ. eigenvalues --   -0.46788  -0.46608  -0.46169  -0.45951  -0.45859
 Alpha  occ. eigenvalues --   -0.45747  -0.45619  -0.45218  -0.45031  -0.44950
 Alpha  occ. eigenvalues --   -0.44803  -0.44467  -0.44342  -0.44251  -0.44055
 Alpha  occ. eigenvalues --   -0.43978  -0.43836  -0.43736  -0.43342  -0.43157
 Alpha  occ. eigenvalues --   -0.42995  -0.42835  -0.42756  -0.42475  -0.42231
 Alpha  occ. eigenvalues --   -0.42183  -0.41851  -0.41751  -0.41685  -0.41585
 Alpha  occ. eigenvalues --   -0.41465  -0.41347  -0.41289  -0.41056  -0.40894
 Alpha  occ. eigenvalues --   -0.40832  -0.40603  -0.40304  -0.40293  -0.40254
 Alpha  occ. eigenvalues --   -0.40137  -0.40002  -0.39851  -0.39695  -0.39641
 Alpha  occ. eigenvalues --   -0.39471  -0.39303  -0.39265  -0.39153  -0.39125
 Alpha  occ. eigenvalues --   -0.38988  -0.38843  -0.38714  -0.38699  -0.38449
 Alpha  occ. eigenvalues --   -0.38270  -0.37990  -0.37915  -0.37741  -0.37402
 Alpha  occ. eigenvalues --   -0.37335  -0.37150  -0.36992  -0.36833  -0.36729
 Alpha  occ. eigenvalues --   -0.36620  -0.36577  -0.36511  -0.36335  -0.36163
 Alpha  occ. eigenvalues --   -0.35867  -0.35643  -0.35553  -0.35220  -0.35065
 Alpha  occ. eigenvalues --   -0.34980  -0.34927  -0.34647  -0.34401  -0.34315
 Alpha  occ. eigenvalues --   -0.34217  -0.34183  -0.34042  -0.33889  -0.33377
 Alpha  occ. eigenvalues --   -0.33031  -0.32804  -0.32409  -0.32118  -0.31977
 Alpha  occ. eigenvalues --   -0.31899  -0.31618  -0.31404  -0.30651  -0.30050
 Alpha  occ. eigenvalues --   -0.29810  -0.29005  -0.28754  -0.28228  -0.28066
 Alpha  occ. eigenvalues --   -0.27801  -0.27446  -0.27366  -0.27193  -0.26747
 Alpha  occ. eigenvalues --   -0.26260  -0.26146  -0.26071  -0.26036  -0.25779
 Alpha  occ. eigenvalues --   -0.24814  -0.24459  -0.24260  -0.23795  -0.23642
 Alpha  occ. eigenvalues --   -0.23530  -0.23223  -0.22999  -0.22868  -0.22814
 Alpha  occ. eigenvalues --   -0.22453  -0.22051  -0.21921  -0.21845  -0.21721
 Alpha  occ. eigenvalues --   -0.21321  -0.20967  -0.20049  -0.19925  -0.19568
 Alpha  occ. eigenvalues --   -0.18985  -0.18694  -0.18316
 Alpha virt. eigenvalues --   -0.10338  -0.04238  -0.04080  -0.03795  -0.02795
 Alpha virt. eigenvalues --   -0.01797  -0.00891  -0.00355  -0.00236  -0.00092
 Alpha virt. eigenvalues --    0.00580   0.00833   0.00972   0.01863   0.02190
 Alpha virt. eigenvalues --    0.02237   0.02813   0.03141   0.03425   0.03635
 Alpha virt. eigenvalues --    0.03815   0.04095   0.04368   0.04627   0.04903
 Alpha virt. eigenvalues --    0.05060   0.05133   0.05432   0.05653   0.05700
 Alpha virt. eigenvalues --    0.06037   0.06053   0.06570   0.06690   0.06843
 Alpha virt. eigenvalues --    0.07026   0.07188   0.07667   0.07792   0.08194
 Alpha virt. eigenvalues --    0.08289   0.08435   0.08548   0.08722   0.08973
 Alpha virt. eigenvalues --    0.09351   0.09451   0.09709   0.09950   0.10249
 Alpha virt. eigenvalues --    0.10590   0.10607   0.10898   0.10944   0.11199
 Alpha virt. eigenvalues --    0.11294   0.11368   0.11499   0.11682   0.11971
 Alpha virt. eigenvalues --    0.12052   0.12145   0.12238   0.12315   0.12569
 Alpha virt. eigenvalues --    0.12792   0.12982   0.12995   0.13214   0.13415
 Alpha virt. eigenvalues --    0.13439   0.13600   0.13843   0.13955   0.14273
 Alpha virt. eigenvalues --    0.14408   0.14529   0.14679   0.14842   0.15042
 Alpha virt. eigenvalues --    0.15266   0.15354   0.15576   0.15700   0.16023
 Alpha virt. eigenvalues --    0.16105   0.16259   0.16346   0.16534   0.16694
 Alpha virt. eigenvalues --    0.17049   0.17086   0.17415   0.17595   0.17856
 Alpha virt. eigenvalues --    0.17950   0.18183   0.18269   0.18409   0.18506
 Alpha virt. eigenvalues --    0.18607   0.18878   0.19093   0.19139   0.19258
 Alpha virt. eigenvalues --    0.19554   0.19592   0.19810   0.20006   0.20182
 Alpha virt. eigenvalues --    0.20250   0.20344   0.20537   0.20703   0.20781
 Alpha virt. eigenvalues --    0.21167   0.21270   0.21659   0.21746   0.22069
 Alpha virt. eigenvalues --    0.22142   0.22341   0.22482   0.22648   0.22905
 Alpha virt. eigenvalues --    0.23095   0.23501   0.23620   0.23754   0.23872
 Alpha virt. eigenvalues --    0.24034   0.24463   0.24671   0.24842   0.25185
 Alpha virt. eigenvalues --    0.25541   0.25836   0.26167   0.26291   0.26494
 Alpha virt. eigenvalues --    0.26610   0.26923   0.27280   0.27398   0.27498
 Alpha virt. eigenvalues --    0.27794   0.28078   0.28296   0.28547   0.28956
 Alpha virt. eigenvalues --    0.29214   0.29654   0.29793   0.30010   0.30097
 Alpha virt. eigenvalues --    0.30565   0.30572   0.30779   0.31161   0.31508
 Alpha virt. eigenvalues --    0.31667   0.31879   0.32076   0.32337   0.32481
 Alpha virt. eigenvalues --    0.32612   0.32765   0.32841   0.33187   0.33477
 Alpha virt. eigenvalues --    0.33676   0.33903   0.34177   0.34578   0.35033
 Alpha virt. eigenvalues --    0.35520   0.35592   0.35669   0.36204   0.36380
 Alpha virt. eigenvalues --    0.36655   0.36890   0.37289   0.37549   0.37798
 Alpha virt. eigenvalues --    0.38248   0.38561   0.38676   0.38733   0.39297
 Alpha virt. eigenvalues --    0.39370   0.39494   0.39775   0.40013   0.40217
 Alpha virt. eigenvalues --    0.40583   0.40892   0.41160   0.41421   0.41595
 Alpha virt. eigenvalues --    0.41973   0.42070   0.42584   0.42653   0.42836
 Alpha virt. eigenvalues --    0.43032   0.43193   0.43389   0.43488   0.43882
 Alpha virt. eigenvalues --    0.44089   0.44498   0.44645   0.44712   0.44825
 Alpha virt. eigenvalues --    0.45169   0.45452   0.45531   0.45839   0.45954
 Alpha virt. eigenvalues --    0.46262   0.46349   0.46546   0.46622   0.46995
 Alpha virt. eigenvalues --    0.47133   0.47294   0.47329   0.47496   0.47868
 Alpha virt. eigenvalues --    0.47980   0.48144   0.48287   0.48494   0.48572
 Alpha virt. eigenvalues --    0.48684   0.49115   0.49297   0.49391   0.49481
 Alpha virt. eigenvalues --    0.49911   0.49980   0.50549   0.50800   0.50858
 Alpha virt. eigenvalues --    0.51359   0.51494   0.51852   0.51902   0.52229
 Alpha virt. eigenvalues --    0.52330   0.52403   0.52498   0.52865   0.52911
 Alpha virt. eigenvalues --    0.53046   0.53381   0.53516   0.53742   0.53816
 Alpha virt. eigenvalues --    0.54243   0.54295   0.54741   0.54927   0.55062
 Alpha virt. eigenvalues --    0.55188   0.55552   0.55853   0.55916   0.56245
 Alpha virt. eigenvalues --    0.56570   0.56639   0.56838   0.56880   0.56980
 Alpha virt. eigenvalues --    0.57447   0.57531   0.57714   0.57783   0.58059
 Alpha virt. eigenvalues --    0.58337   0.58359   0.58554   0.58717   0.58837
 Alpha virt. eigenvalues --    0.58935   0.59070   0.59343   0.59429   0.59595
 Alpha virt. eigenvalues --    0.59806   0.59886   0.60082   0.60395   0.60493
 Alpha virt. eigenvalues --    0.60624   0.60691   0.60989   0.61069   0.61143
 Alpha virt. eigenvalues --    0.61328   0.61390   0.61574   0.61687   0.61888
 Alpha virt. eigenvalues --    0.61997   0.62048   0.62296   0.62325   0.62502
 Alpha virt. eigenvalues --    0.62602   0.62737   0.62829   0.63022   0.63172
 Alpha virt. eigenvalues --    0.63337   0.63509   0.63566   0.63735   0.63770
 Alpha virt. eigenvalues --    0.63920   0.63966   0.64134   0.64351   0.64491
 Alpha virt. eigenvalues --    0.64564   0.64696   0.64815   0.64887   0.65007
 Alpha virt. eigenvalues --    0.65104   0.65186   0.65286   0.65449   0.65594
 Alpha virt. eigenvalues --    0.65653   0.65764   0.65959   0.66098   0.66220
 Alpha virt. eigenvalues --    0.66248   0.66360   0.66404   0.66562   0.66609
 Alpha virt. eigenvalues --    0.66745   0.66795   0.66987   0.67190   0.67305
 Alpha virt. eigenvalues --    0.67503   0.67671   0.67859   0.67895   0.67978
 Alpha virt. eigenvalues --    0.68056   0.68092   0.68302   0.68401   0.68433
 Alpha virt. eigenvalues --    0.68562   0.68642   0.68787   0.68841   0.68952
 Alpha virt. eigenvalues --    0.68989   0.69150   0.69305   0.69576   0.69655
 Alpha virt. eigenvalues --    0.69769   0.69932   0.70049   0.70203   0.70331
 Alpha virt. eigenvalues --    0.70424   0.70438   0.70624   0.70652   0.70908
 Alpha virt. eigenvalues --    0.71069   0.71349   0.71515   0.71592   0.71647
 Alpha virt. eigenvalues --    0.71928   0.71982   0.72289   0.72429   0.72580
 Alpha virt. eigenvalues --    0.72732   0.72861   0.72986   0.73175   0.73275
 Alpha virt. eigenvalues --    0.73434   0.73603   0.73952   0.74026   0.74112
 Alpha virt. eigenvalues --    0.74269   0.74465   0.74666   0.74772   0.74959
 Alpha virt. eigenvalues --    0.75010   0.75303   0.75475   0.75745   0.76010
 Alpha virt. eigenvalues --    0.76204   0.76509   0.76708   0.76805   0.77205
 Alpha virt. eigenvalues --    0.77484   0.77521   0.77769   0.77926   0.78024
 Alpha virt. eigenvalues --    0.78244   0.78562   0.78754   0.79020   0.79231
 Alpha virt. eigenvalues --    0.79433   0.79928   0.80072   0.80348   0.80573
 Alpha virt. eigenvalues --    0.80711   0.80854   0.81139   0.81401   0.81549
 Alpha virt. eigenvalues --    0.81756   0.81909   0.82295   0.82480   0.83053
 Alpha virt. eigenvalues --    0.83273   0.83396   0.83573   0.83941   0.83995
 Alpha virt. eigenvalues --    0.84458   0.84624   0.85145   0.85153   0.85422
 Alpha virt. eigenvalues --    0.85791   0.85960   0.86293   0.86379   0.86828
 Alpha virt. eigenvalues --    0.87168   0.87546   0.87584   0.87650   0.88428
 Alpha virt. eigenvalues --    0.88733   0.89105   0.89260   0.89749   0.89992
 Alpha virt. eigenvalues --    0.90097   0.90443   0.90747   0.91161   0.91374
 Alpha virt. eigenvalues --    0.91655   0.91848   0.92230   0.92753   0.92764
 Alpha virt. eigenvalues --    0.93270   0.93465   0.93783   0.94144   0.94507
 Alpha virt. eigenvalues --    0.94667   0.95168   0.95339   0.95544   0.95770
 Alpha virt. eigenvalues --    0.95898   0.96394   0.96700   0.96954   0.97132
 Alpha virt. eigenvalues --    0.97394   0.97864   0.98049   0.98331   0.98635
 Alpha virt. eigenvalues --    0.98786   0.98960   0.99212   0.99545   0.99792
 Alpha virt. eigenvalues --    0.99994   1.00377   1.00532   1.00553   1.01230
 Alpha virt. eigenvalues --    1.01537   1.01815   1.02097   1.02643   1.02660
 Alpha virt. eigenvalues --    1.02942   1.03079   1.03533   1.03711   1.04486
 Alpha virt. eigenvalues --    1.04537   1.04629   1.04940   1.05119   1.05646
 Alpha virt. eigenvalues --    1.06027   1.06468   1.06512   1.06687   1.06972
 Alpha virt. eigenvalues --    1.07402   1.07692   1.08355   1.08403   1.08840
 Alpha virt. eigenvalues --    1.08916   1.09644   1.10117   1.10312   1.10454
 Alpha virt. eigenvalues --    1.10483   1.10880   1.11017   1.11910   1.12112
 Alpha virt. eigenvalues --    1.12362   1.12541   1.12880   1.13074   1.13195
 Alpha virt. eigenvalues --    1.13730   1.13863   1.14098   1.14459   1.14710
 Alpha virt. eigenvalues --    1.14730   1.15018   1.15055   1.15119   1.15654
 Alpha virt. eigenvalues --    1.15765   1.16264   1.16618   1.16662   1.17009
 Alpha virt. eigenvalues --    1.17285   1.17612   1.17969   1.18199   1.18481
 Alpha virt. eigenvalues --    1.18687   1.18899   1.19183   1.19370   1.19723
 Alpha virt. eigenvalues --    1.19856   1.20335   1.20502   1.20599   1.20813
 Alpha virt. eigenvalues --    1.21537   1.21781   1.21797   1.22126   1.22367
 Alpha virt. eigenvalues --    1.22645   1.22688   1.23118   1.23246   1.23737
 Alpha virt. eigenvalues --    1.24075   1.24200   1.24249   1.24567   1.25158
 Alpha virt. eigenvalues --    1.25190   1.25390   1.25424   1.25829   1.25894
 Alpha virt. eigenvalues --    1.26290   1.26865   1.26953   1.27229   1.27431
 Alpha virt. eigenvalues --    1.27591   1.27946   1.28113   1.28305   1.28653
 Alpha virt. eigenvalues --    1.29071   1.29347   1.29545   1.29791   1.30133
 Alpha virt. eigenvalues --    1.30541   1.30620   1.31109   1.31338   1.31720
 Alpha virt. eigenvalues --    1.32105   1.32712   1.32774   1.33046   1.33295
 Alpha virt. eigenvalues --    1.33722   1.33863   1.34057   1.34196   1.34673
 Alpha virt. eigenvalues --    1.34924   1.35058   1.35713   1.35938   1.36182
 Alpha virt. eigenvalues --    1.36765   1.36898   1.37005   1.37339   1.37555
 Alpha virt. eigenvalues --    1.37793   1.38040   1.38190   1.38291   1.38329
 Alpha virt. eigenvalues --    1.38884   1.39280   1.39309   1.39870   1.40054
 Alpha virt. eigenvalues --    1.40297   1.40589   1.41163   1.41397   1.41782
 Alpha virt. eigenvalues --    1.41947   1.42351   1.42662   1.42741   1.42903
 Alpha virt. eigenvalues --    1.43511   1.43715   1.43876   1.43967   1.44197
 Alpha virt. eigenvalues --    1.44573   1.44786   1.45266   1.45637   1.45813
 Alpha virt. eigenvalues --    1.46052   1.46260   1.46940   1.47090   1.47521
 Alpha virt. eigenvalues --    1.47843   1.47950   1.48196   1.48344   1.48425
 Alpha virt. eigenvalues --    1.48926   1.49235   1.49410   1.49511   1.49909
 Alpha virt. eigenvalues --    1.50008   1.50467   1.50751   1.51072   1.51498
 Alpha virt. eigenvalues --    1.51815   1.52069   1.52248   1.52475   1.52889
 Alpha virt. eigenvalues --    1.52989   1.53345   1.53464   1.53719   1.54035
 Alpha virt. eigenvalues --    1.54350   1.54856   1.55320   1.56003   1.56225
 Alpha virt. eigenvalues --    1.56394   1.56721   1.57098   1.57117   1.57756
 Alpha virt. eigenvalues --    1.57996   1.58621   1.58784   1.59350   1.59523
 Alpha virt. eigenvalues --    1.59685   1.59833   1.60001   1.60256   1.60270
 Alpha virt. eigenvalues --    1.61152   1.61398   1.61662   1.62273   1.62443
 Alpha virt. eigenvalues --    1.62733   1.63082   1.63298   1.63443   1.63801
 Alpha virt. eigenvalues --    1.64146   1.64451   1.64648   1.65007   1.65300
 Alpha virt. eigenvalues --    1.65564   1.65584   1.66055   1.66493   1.66525
 Alpha virt. eigenvalues --    1.66669   1.66870   1.67416   1.67752   1.68122
 Alpha virt. eigenvalues --    1.68407   1.68849   1.69220   1.69368   1.69491
 Alpha virt. eigenvalues --    1.69794   1.70050   1.70347   1.70677   1.71262
 Alpha virt. eigenvalues --    1.71302   1.71420   1.71786   1.71935   1.72252
 Alpha virt. eigenvalues --    1.72515   1.72691   1.72752   1.72968   1.73687
 Alpha virt. eigenvalues --    1.73990   1.74025   1.74243   1.74319   1.74474
 Alpha virt. eigenvalues --    1.74666   1.74864   1.75228   1.75333   1.75473
 Alpha virt. eigenvalues --    1.75642   1.75752   1.75828   1.76276   1.76286
 Alpha virt. eigenvalues --    1.76584   1.76641   1.76747   1.76969   1.77154
 Alpha virt. eigenvalues --    1.77606   1.77653   1.77747   1.77803   1.78049
 Alpha virt. eigenvalues --    1.78170   1.78189   1.78408   1.78461   1.78587
 Alpha virt. eigenvalues --    1.78826   1.78989   1.79188   1.79312   1.79546
 Alpha virt. eigenvalues --    1.79936   1.80136   1.80309   1.80401   1.80585
 Alpha virt. eigenvalues --    1.80796   1.80883   1.80953   1.81229   1.81350
 Alpha virt. eigenvalues --    1.81370   1.81578   1.81676   1.81706   1.81859
 Alpha virt. eigenvalues --    1.82061   1.82300   1.82579   1.82856   1.83073
 Alpha virt. eigenvalues --    1.83360   1.83448   1.83824   1.83989   1.84071
 Alpha virt. eigenvalues --    1.84214   1.84328   1.84489   1.84685   1.84879
 Alpha virt. eigenvalues --    1.85179   1.85436   1.85653   1.85877   1.86076
 Alpha virt. eigenvalues --    1.86114   1.86242   1.86415   1.86571   1.86792
 Alpha virt. eigenvalues --    1.87008   1.87132   1.87287   1.87735   1.87862
 Alpha virt. eigenvalues --    1.87911   1.87996   1.88403   1.88642   1.88712
 Alpha virt. eigenvalues --    1.88794   1.88854   1.89232   1.89336   1.89469
 Alpha virt. eigenvalues --    1.89645   1.89841   1.89923   1.90184   1.90631
 Alpha virt. eigenvalues --    1.90835   1.90971   1.91202   1.91479   1.91960
 Alpha virt. eigenvalues --    1.92110   1.92565   1.92710   1.92750   1.93064
 Alpha virt. eigenvalues --    1.93167   1.93397   1.93517   1.93822   1.94159
 Alpha virt. eigenvalues --    1.94368   1.94689   1.94774   1.94906   1.95141
 Alpha virt. eigenvalues --    1.95200   1.95283   1.95600   1.95742   1.95959
 Alpha virt. eigenvalues --    1.96074   1.96248   1.96552   1.96835   1.97159
 Alpha virt. eigenvalues --    1.97217   1.97281   1.97469   1.97603   1.97880
 Alpha virt. eigenvalues --    1.98398   1.98499   1.98666   1.98925   1.98991
 Alpha virt. eigenvalues --    1.99183   1.99377   1.99825   1.99939   2.00048
 Alpha virt. eigenvalues --    2.00395   2.00441   2.00825   2.01188   2.01518
 Alpha virt. eigenvalues --    2.02034   2.02256   2.02398   2.02685   2.02849
 Alpha virt. eigenvalues --    2.02961   2.03280   2.03635   2.03907   2.04240
 Alpha virt. eigenvalues --    2.04330   2.04593   2.05025   2.05471   2.05637
 Alpha virt. eigenvalues --    2.05735   2.05900   2.06067   2.06436   2.06694
 Alpha virt. eigenvalues --    2.07123   2.07304   2.07657   2.07910   2.08101
 Alpha virt. eigenvalues --    2.08177   2.08801   2.09187   2.09382   2.09431
 Alpha virt. eigenvalues --    2.09590   2.09922   2.09993   2.10205   2.10527
 Alpha virt. eigenvalues --    2.10747   2.10975   2.11280   2.11948   2.12192
 Alpha virt. eigenvalues --    2.12488   2.12701   2.13413   2.13797   2.13948
 Alpha virt. eigenvalues --    2.14178   2.14279   2.14471   2.14644   2.14981
 Alpha virt. eigenvalues --    2.15467   2.15741   2.15933   2.16181   2.16328
 Alpha virt. eigenvalues --    2.16709   2.17024   2.17392   2.17433   2.17706
 Alpha virt. eigenvalues --    2.17794   2.18236   2.18789   2.19039   2.19147
 Alpha virt. eigenvalues --    2.19261   2.19551   2.19791   2.20015   2.20310
 Alpha virt. eigenvalues --    2.20537   2.20963   2.21065   2.21366   2.21898
 Alpha virt. eigenvalues --    2.22407   2.22944   2.23340   2.23575   2.23719
 Alpha virt. eigenvalues --    2.23958   2.24083   2.24517   2.24976   2.25127
 Alpha virt. eigenvalues --    2.25388   2.25711   2.26190   2.26772   2.27367
 Alpha virt. eigenvalues --    2.27871   2.28099   2.28449   2.28700   2.29126
 Alpha virt. eigenvalues --    2.29544   2.29806   2.29902   2.30189   2.30932
 Alpha virt. eigenvalues --    2.31085   2.31478   2.31698   2.32113   2.32383
 Alpha virt. eigenvalues --    2.33294   2.33405   2.33700   2.33829   2.33882
 Alpha virt. eigenvalues --    2.34119   2.34292   2.34543   2.34989   2.35578
 Alpha virt. eigenvalues --    2.35764   2.36707   2.36986   2.37928   2.38056
 Alpha virt. eigenvalues --    2.38336   2.38577   2.38791   2.38898   2.39281
 Alpha virt. eigenvalues --    2.39540   2.39960   2.40416   2.40441   2.40774
 Alpha virt. eigenvalues --    2.40908   2.41392   2.41673   2.41897   2.42081
 Alpha virt. eigenvalues --    2.42343   2.42495   2.42797   2.43046   2.43248
 Alpha virt. eigenvalues --    2.43584   2.44027   2.44198   2.44326   2.44522
 Alpha virt. eigenvalues --    2.44857   2.45129   2.45368   2.45478   2.46024
 Alpha virt. eigenvalues --    2.46440   2.46548   2.47133   2.47659   2.48263
 Alpha virt. eigenvalues --    2.48523   2.49100   2.49323   2.49675   2.50035
 Alpha virt. eigenvalues --    2.50254   2.50806   2.51167   2.51497   2.51605
 Alpha virt. eigenvalues --    2.52171   2.52684   2.52753   2.52852   2.53576
 Alpha virt. eigenvalues --    2.54100   2.54294   2.54760   2.54867   2.55329
 Alpha virt. eigenvalues --    2.55433   2.55755   2.55971   2.56096   2.56592
 Alpha virt. eigenvalues --    2.56784   2.57302   2.57977   2.58323   2.58484
 Alpha virt. eigenvalues --    2.58677   2.59194   2.59881   2.60319   2.60495
 Alpha virt. eigenvalues --    2.60645   2.60696   2.60971   2.61270   2.61566
 Alpha virt. eigenvalues --    2.62068   2.62214   2.62466   2.63234   2.63243
 Alpha virt. eigenvalues --    2.63615   2.63672   2.64115   2.64480   2.64821
 Alpha virt. eigenvalues --    2.65038   2.65454   2.65650   2.65679   2.66073
 Alpha virt. eigenvalues --    2.66302   2.66523   2.66790   2.67020   2.67389
 Alpha virt. eigenvalues --    2.67407   2.68082   2.68597   2.68669   2.68963
 Alpha virt. eigenvalues --    2.69289   2.69754   2.70252   2.70492   2.70809
 Alpha virt. eigenvalues --    2.70921   2.71154   2.71367   2.71756   2.72068
 Alpha virt. eigenvalues --    2.72407   2.72555   2.72804   2.73022   2.73484
 Alpha virt. eigenvalues --    2.73560   2.73692   2.73945   2.74452   2.74555
 Alpha virt. eigenvalues --    2.74832   2.74910   2.75188   2.75368   2.75452
 Alpha virt. eigenvalues --    2.75871   2.76098   2.76362   2.76819   2.77056
 Alpha virt. eigenvalues --    2.77280   2.77547   2.77768   2.77900   2.78047
 Alpha virt. eigenvalues --    2.78493   2.78588   2.78740   2.79538   2.79933
 Alpha virt. eigenvalues --    2.80466   2.80558   2.80983   2.81260   2.81547
 Alpha virt. eigenvalues --    2.81727   2.81775   2.81920   2.82439   2.82958
 Alpha virt. eigenvalues --    2.83095   2.83201   2.83404   2.83917   2.84315
 Alpha virt. eigenvalues --    2.84427   2.84487   2.84643   2.84914   2.85284
 Alpha virt. eigenvalues --    2.85516   2.86003   2.86309   2.86374   2.87284
 Alpha virt. eigenvalues --    2.87506   2.87732   2.87796   2.88032   2.88751
 Alpha virt. eigenvalues --    2.89077   2.89321   2.89377   2.89782   2.89946
 Alpha virt. eigenvalues --    2.90192   2.90421   2.90607   2.90652   2.91066
 Alpha virt. eigenvalues --    2.91198   2.92115   2.92392   2.92750   2.92825
 Alpha virt. eigenvalues --    2.93320   2.93663   2.94029   2.94540   2.94647
 Alpha virt. eigenvalues --    2.94705   2.95453   2.95973   2.96282   2.96600
 Alpha virt. eigenvalues --    2.96851   2.96988   2.97818   2.97867   2.98156
 Alpha virt. eigenvalues --    2.98271   2.98416   2.98909   2.99386   3.00262
 Alpha virt. eigenvalues --    3.00436   3.00560   3.00968   3.01127   3.01386
 Alpha virt. eigenvalues --    3.01627   3.01798   3.02261   3.02416   3.03281
 Alpha virt. eigenvalues --    3.03351   3.03813   3.03996   3.04388   3.04478
 Alpha virt. eigenvalues --    3.05054   3.05274   3.05504   3.05672   3.06092
 Alpha virt. eigenvalues --    3.06387   3.06870   3.07346   3.08256   3.08998
 Alpha virt. eigenvalues --    3.09147   3.10080   3.10568   3.10986   3.11239
 Alpha virt. eigenvalues --    3.11506   3.11879   3.12155   3.12468   3.13836
 Alpha virt. eigenvalues --    3.14566   3.14846   3.15559   3.15911   3.16370
 Alpha virt. eigenvalues --    3.16577   3.16872   3.17441   3.18043   3.18706
 Alpha virt. eigenvalues --    3.18880   3.19562   3.19756   3.19821   3.19966
 Alpha virt. eigenvalues --    3.20371   3.20663   3.20905   3.21154   3.21329
 Alpha virt. eigenvalues --    3.21804   3.21967   3.22148   3.22433   3.23054
 Alpha virt. eigenvalues --    3.23137   3.23713   3.23794   3.24405   3.24940
 Alpha virt. eigenvalues --    3.25188   3.25391   3.25623   3.26142   3.26555
 Alpha virt. eigenvalues --    3.27434   3.27894   3.28768   3.30459   3.31037
 Alpha virt. eigenvalues --    3.31283   3.31992   3.32427   3.34169   3.34880
 Alpha virt. eigenvalues --    3.37509   3.38534   3.39311   3.39457   3.39931
 Alpha virt. eigenvalues --    3.40565   3.42935   3.49857   3.50508   3.51105
 Alpha virt. eigenvalues --    3.53131   3.54452   3.54960   3.55633   3.56795
 Alpha virt. eigenvalues --    3.56963   3.57755   3.59653   3.60324   3.61349
 Alpha virt. eigenvalues --    3.61533   3.62299   3.62597   3.63014   3.63853
 Alpha virt. eigenvalues --    3.66305   3.66595   3.67327   3.67818   3.68063
 Alpha virt. eigenvalues --    3.68203   3.68974   3.69635   3.69817   3.70131
 Alpha virt. eigenvalues --    3.70689   3.70960   3.71144   3.72111   3.72680
 Alpha virt. eigenvalues --    3.72896   3.73595   3.73693   3.74366   3.78580
 Alpha virt. eigenvalues --    3.79072   3.79993   3.81381   3.83189
          Condensed to atoms (all electrons):
 Mulliken charges:
               1
     1  C    0.032574
     2  C    0.016397
     3  O   -0.295627
     4  H    0.044603
     5  H    0.009680
     6  H    0.032387
     7  N   -0.110996
     8  C    0.122271
     9  C    0.070010
    10  O   -0.274862
    11  C    0.000717
    12  C    0.191299
    13  O   -0.372017
    14  O   -0.463753
    15  H    0.116324
    16  H    0.020279
    17  H   -0.001395
    18  H   -0.004006
    19  N   -0.129782
    20  C    0.126023
    21  C    0.080829
    22  O   -0.292591
    23  C    0.013627
    24  C    0.063571
    25  C   -0.061786
    26  C    0.023677
    27  N    0.075320
    28  H    0.131266
    29  H   -0.016484
    30  H   -0.006621
    31  H    0.033978
    32  H    0.009193
    33  H    0.049418
    34  H    0.024803
    35  H    0.001043
    36  H    0.083272
    37  H    0.076628
    38  H    0.180651
    39  H    0.194180
    40  H    0.201357
    41  N   -0.137707
    42  C    0.090690
    43  C    0.067906
    44  O   -0.296583
    45  C    0.148798
    46  C    0.023678
    47  O   -0.351447
    48  O   -0.444190
    49  H    0.175028
    50  H    0.026894
    51  H   -0.023729
    52  H    0.019903
    53  N   -0.166184
    54  C    0.239021
    55  C    0.017339
    56  O   -0.306794
    57  H    0.144958
    58  H    0.031413
    59  H    0.020657
    60  N   -0.136362
    61  C    0.193840
    62  C    0.034689
    63  O   -0.318218
    64  C    0.034041
    65  C    0.046627
    66  N   -0.033887
    67  O   -0.343009
    68  H    0.150075
    69  H    0.013097
    70  H    0.048170
    71  H    0.035903
    72  H    0.129288
    73  H    0.098735
    74  N   -0.174527
    75  C    0.224930
    76  C    0.028159
    77  O   -0.307316
    78  H    0.151879
    79  H    0.034361
    80  H    0.042421
    81  N   -0.132212
    82  C    0.121716
    83  C    0.120561
    84  O   -0.319350
    85  C    0.175622
    86  C   -0.039534
    87  C   -0.007838
    88  C   -0.059187
    89  C    0.010398
    90  C   -0.131572
    91  C    0.171832
    92  O   -0.205859
    93  H    0.174256
    94  H   -0.001551
    95  H    0.027572
    96  H   -0.012236
    97  H    0.012027
    98  H    0.001289
    99  H   -0.002877
   100  H   -0.046923
   101  H    0.172920
   102  N   -0.122287
   103  C    0.169298
   104  C    0.067529
   105  O   -0.321819
   106  C   -0.114978
   107  C    0.004512
   108  C    0.069581
   109  C    0.046609
   110  H    0.127870
   111  H    0.023438
   112  H   -0.011245
   113  H   -0.001775
   114  H   -0.007275
   115  H    0.018547
   116  H    0.008460
   117  H    0.005625
   118  H    0.003542
   119  H    0.013217
   120  H    0.001318
   121  N   -0.115951
   122  C    0.083149
   123  C    0.123896
   124  O   -0.283999
   125  C    0.261748
   126  O   -0.344884
   127  H    0.146454
   128  H    0.018899
   129  H   -0.031722
   130  H   -0.022364
   131  H    0.182454
   132  N   -0.123199
   133  C    0.097893
   134  C    0.012705
   135  O   -0.260709
   136  C    0.049539
   137  H    0.122096
   138  H    0.018889
   139  H    0.043392
   140  H    0.028928
   141  H    0.010328
   142  N   -0.134238
   143  C    0.119961
   144  C    0.047692
   145  O   -0.269748
   146  C    0.032735
   147  H    0.101345
   148  H    0.023353
   149  H    0.019869
   150  H    0.031666
   151  H    0.017954
   152  N   -0.167736
   153  C    0.180635
   154  C    0.067762
   155  O   -0.327725
   156  C   -0.020634
   157  C    0.070057
   158  C    0.113144
   159  O   -0.381162
   160  O   -0.451135
   161  H    0.115885
   162  H   -0.005473
   163  H    0.033069
   164  H   -0.000645
   165  H    0.011631
   166  H   -0.014112
   167  N   -0.150413
   168  C    0.125257
   169  H    0.027129
   170  H    0.027509
   171  H    0.006534
   172  H    0.127268
   173  Ca   1.260479
   174  O   -0.263918
   175  H    0.182540
   176  H    0.188699
 Sum of Mulliken charges =  -0.00000
 Mulliken charges with hydrogens summed into heavy atoms:
               1
     1  C    0.119245
     2  C    0.016397
     3  O   -0.295627
     7  N    0.005328
     8  C    0.142550
     9  C    0.070010
    10  O   -0.274862
    11  C   -0.004684
    12  C    0.191299
    13  O   -0.372017
    14  O   -0.463753
    19  N    0.001484
    20  C    0.109539
    21  C    0.080829
    22  O   -0.292591
    23  C    0.040984
    24  C    0.122182
    25  C   -0.035941
    26  C    0.183576
    27  N    0.651509
    41  N    0.037320
    42  C    0.117584
    43  C    0.067906
    44  O   -0.296583
    45  C    0.144972
    46  C    0.023678
    47  O   -0.351447
    48  O   -0.444190
    53  N   -0.021226
    54  C    0.291092
    55  C    0.017339
    56  O   -0.306794
    60  N    0.013713
    61  C    0.206938
    62  C    0.034689
    63  O   -0.318218
    64  C    0.118114
    65  C    0.046627
    66  N    0.194136
    67  O   -0.343009
    74  N   -0.022647
    75  C    0.301712
    76  C    0.028159
    77  O   -0.307316
    81  N    0.042044
    82  C    0.120165
    83  C    0.120561
    84  O   -0.319350
    85  C    0.190958
    86  C   -0.039534
    87  C    0.004190
    88  C   -0.057898
    89  C    0.007521
    90  C   -0.178495
    91  C    0.171832
    92  O   -0.032939
   102  N    0.005583
   103  C    0.192736
   104  C    0.067529
   105  O   -0.321819
   106  C   -0.126223
   107  C   -0.004539
   108  C    0.102212
   109  C    0.064686
   121  N    0.030503
   122  C    0.102048
   123  C    0.123896
   124  O   -0.283999
   125  C    0.207662
   126  O   -0.162430
   132  N   -0.001103
   133  C    0.116781
   134  C    0.012705
   135  O   -0.260709
   136  C    0.132188
   142  N   -0.032893
   143  C    0.143314
   144  C    0.047692
   145  O   -0.269748
   146  C    0.102223
   152  N   -0.051851
   153  C    0.175163
   154  C    0.067762
   155  O   -0.327725
   156  C    0.011790
   157  C    0.067576
   158  C    0.113144
   159  O   -0.381162
   160  O   -0.451135
   167  N   -0.023145
   168  C    0.186429
   173  Ca   1.260479
   174  O    0.107321
 DipInt: DoE/N= T F RetVal/Mat= T F Init=T NMatP=  1 IDeriv=0 Min/MaxMlt=  0  4
 Entering OneElI...
 OneElI was handed  1333951383 working-precision words.
 Multipole integrals L=0 to 4 MinM= 0 MaxM= 0.
 Requested accuracy = 0.1000D-12
 ShPair: Thresh= 1.00D-13 NBox=     0 BxSize= 0.00D+00 RnKept= 2.55D+01
         NSMCal=               327645 NSMKep=              167922
 PrmmSu-InSpLW:  IPartL=    0 NPrtUS=    1 NPrtUL=    1 DoSpLW=F IThBeg=    0 IThEnd=    0 NThAct=    1.
 PrsmSu:  NPrtUS=   1 ThrOK=F IAlg=1 NPAlg=1 LenDen=           0 ISkipM=0 DoSpLW=F IThBeg=    0 IThEnd=    0.
 Prism:   IPart=     0 DynPar=F LinDyn=F Incr=         512.
 PRISM was handed  1323603323 working-precision words and167922 shell-pairs
 IPart=  0 NShTot=      167922 NBatch=         383 AvBLen=       438.4
 PrsmSu-ThDecC:  IPartSL=    0    0 NPrtUSL=    1    1 IThBeg=    0 IThEnd=    0 CPU=   -1 GPU=   -1 NThAct=    1.
 PrSmSu:  NxtVal=            513.
 Electronic moments (au):
       -716.00000000         11.11254386          2.85142931          1.83105943
     -45936.77329443     -28299.69295155     -13447.96039771         58.44808434
         24.46137753         94.50054570     -83955.85629782     -45286.42969631
     -19839.92786904       1732.65562839      52016.81340845      35998.36036174
      -2518.01899994        567.64321707       4329.19729768     -27303.67397044
   -6155171.17988398   -2686222.05341199    -681414.43464269     474268.24704488
     408088.84392103    -380632.95087496    -158534.41137942     -38448.40582556
      13257.64858966   -1298060.14264838    -673417.43785594    -421229.17530019
     -44155.16137032    -137754.93545247     -30096.09283645
 Electronic spatial extent (au):  <R**2>=          87684.4266
 DipInt: DoE/N= F T RetVal/Mat= T F Init=T NMatP=  1 IDeriv=0 Min/MaxMlt=  0  4
 Nuclear    moments (au):
        716.00000000          0.00000000          0.00000000          0.00000000
      45392.66596053      28053.41817122      13054.65593559          0.00000000
          0.00000000          0.00000000      84747.73391904      47512.94833008
      19885.44893358        103.04466152     -52087.79531863     -36033.04314983
       2774.98301925       -513.71917996      -3820.20189996      27393.76119009
    5962370.94591630    2630294.05062819     635643.72665829    -476377.24133180
    -404492.07232901     399604.43143096     173663.19473202      39633.99393284
      -9179.26281533    1261225.06556788     638886.95327015     399989.12505271
      48982.61063369     140960.24556912      31065.47146109
 Total      moments (au):
         -0.00000000         11.11254386          2.85142931          1.83105943
       -544.10733391       -246.27478033       -393.30446211         58.44808434
         24.46137753         94.50054570        791.87762122       2226.51863377
         45.52106455       1835.70028991        -70.98191018        -34.68278809
        256.96401931         53.92403711        508.99539772         90.08721964
    -192800.23396769     -55928.00278380     -45770.70798440      -2108.99428692
       3596.77159203      18971.48055600      15128.78335260       1185.58810728
       4078.38577433     -36835.07708050     -34530.48458579     -21240.05024748
       4827.44926337       3205.31011665        969.37862463
 Traceless Quadrup. (au):
       -149.54514179        148.28741179          1.25773000         58.44808434
         24.46137753         94.50054570
 Charge=             -0.0000 electrons
 Dipole moment (field-independent basis, Debye):
    X=             28.2453    Y=              7.2476    Z=              4.6541  Tot=             29.5294
 Quadrupole moment (field-independent basis, Debye-Ang):
   XX=           -731.8430   YY=           -331.2480   ZZ=           -529.0080
   XY=             78.6147   XZ=             32.9014   YZ=            127.1065
 Traceless Quadrupole moment (field-independent basis, Debye-Ang):
   XX=           -201.1433   YY=            199.4516   ZZ=              1.6917
   XY=             78.6147   XZ=             32.9014   YZ=            127.1065
 Octapole moment (field-independent basis, Debye-Ang**2):
  XXX=            563.6280  YYY=           1584.7502  ZZZ=             32.4001  XYY=           1306.5807
  XXY=            -50.5222  XXZ=            -24.6859  XZZ=            182.8971  YZZ=             38.3811
  YYZ=            362.2833  XYZ=             64.1206
 Hexadecapole moment (field-independent basis, Debye-Ang**3):
 XXXX=         -72617.8132 YYYY=         -21065.1677 ZZZZ=         -17239.4434 XXXY=           -794.3484
 XXXZ=           1354.7167 YYYX=           7145.5693 YYYZ=           5698.2253 ZZZX=            446.5493
 ZZZY=           1536.1156 XXYY=         -13873.8563 XXZZ=         -13005.8363 YYZZ=          -8000.0214
 XXYZ=           1818.2489 YYXZ=           1207.2735 ZZXY=            365.1145
 N-N= 2.216607982595D+04 E-N=-5.681284075655D+04  KE= 5.290365468248D+03
 Leave Link  601 at Sat Sep 14 23:59:25 2019, MaxMem=  1342177280 cpu:              66.8 elap:               1.6
 FitSet:  NAtFit=   176 NAtPot=   176 NAtFrz=     0 MDM=   180 TotChg=   0.00000
 Merz-Kollman atomic radii used.
 Read replacement radii for each type of atom:
 Rad(20) =   1.700000000000D+00
 Atom Element Radius
    1     6    1.50
    2     6    1.50
    3     8    1.40
    4     1    1.20
    5     1    1.20
    6     1    1.20
    7     7    1.50
    8     6    1.50
    9     6    1.50
   10     8    1.40
   11     6    1.50
   12     6    1.50
   13     8    1.40
   14     8    1.40
   15     1    1.20
   16     1    1.20
   17     1    1.20
   18     1    1.20
   19     7    1.50
   20     6    1.50
   21     6    1.50
   22     8    1.40
   23     6    1.50
   24     6    1.50
   25     6    1.50
   26     6    1.50
   27     7    1.50
   28     1    1.20
   29     1    1.20
   30     1    1.20
   31     1    1.20
   32     1    1.20
   33     1    1.20
   34     1    1.20
   35     1    1.20
   36     1    1.20
   37     1    1.20
   38     1    1.20
   39     1    1.20
   40     1    1.20
   41     7    1.50
   42     6    1.50
   43     6    1.50
   44     8    1.40
   45     6    1.50
   46     6    1.50
   47     8    1.40
   48     8    1.40
   49     1    1.20
   50     1    1.20
   51     1    1.20
   52     1    1.20
   53     7    1.50
   54     6    1.50
   55     6    1.50
   56     8    1.40
   57     1    1.20
   58     1    1.20
   59     1    1.20
   60     7    1.50
   61     6    1.50
   62     6    1.50
   63     8    1.40
   64     6    1.50
   65     6    1.50
   66     7    1.50
   67     8    1.40
   68     1    1.20
   69     1    1.20
   70     1    1.20
   71     1    1.20
   72     1    1.20
   73     1    1.20
   74     7    1.50
   75     6    1.50
   76     6    1.50
   77     8    1.40
   78     1    1.20
   79     1    1.20
   80     1    1.20
   81     7    1.50
   82     6    1.50
   83     6    1.50
   84     8    1.40
   85     6    1.50
   86     6    1.50
   87     6    1.50
   88     6    1.50
   89     6    1.50
   90     6    1.50
   91     6    1.50
   92     8    1.40
   93     1    1.20
   94     1    1.20
   95     1    1.20
   96     1    1.20
   97     1    1.20
   98     1    1.20
   99     1    1.20
  100     1    1.20
  101     1    1.20
  102     7    1.50
  103     6    1.50
  104     6    1.50
  105     8    1.40
  106     6    1.50
  107     6    1.50
  108     6    1.50
  109     6    1.50
  110     1    1.20
  111     1    1.20
  112     1    1.20
  113     1    1.20
  114     1    1.20
  115     1    1.20
  116     1    1.20
  117     1    1.20
  118     1    1.20
  119     1    1.20
  120     1    1.20
  121     7    1.50
  122     6    1.50
  123     6    1.50
  124     8    1.40
  125     6    1.50
  126     8    1.40
  127     1    1.20
  128     1    1.20
  129     1    1.20
  130     1    1.20
  131     1    1.20
  132     7    1.50
  133     6    1.50
  134     6    1.50
  135     8    1.40
  136     6    1.50
  137     1    1.20
  138     1    1.20
  139     1    1.20
  140     1    1.20
  141     1    1.20
  142     7    1.50
  143     6    1.50
  144     6    1.50
  145     8    1.40
  146     6    1.50
  147     1    1.20
  148     1    1.20
  149     1    1.20
  150     1    1.20
  151     1    1.20
  152     7    1.50
  153     6    1.50
  154     6    1.50
  155     8    1.40
  156     6    1.50
  157     6    1.50
  158     6    1.50
  159     8    1.40
  160     8    1.40
  161     1    1.20
  162     1    1.20
  163     1    1.20
  164     1    1.20
  165     1    1.20
  166     1    1.20
  167     7    1.50
  168     6    1.50
  169     1    1.20
  170     1    1.20
  171     1    1.20
  172     1    1.20
  173    20    1.70
  174     8    1.40
[...]
 **** Fit      -0.017750
 **** Fit      -0.010940
 **** Fit      -0.007966
 **** Fit      -0.004003
 **** Fit       0.000444
 **** Fit       0.004645
 **** Fit       0.007592
 **** Fit       0.008125
 **** Fit       0.005225
 **** Fit      -0.012970
 **** Fit      -0.010113
 **** Fit      -0.006137
 **** Fit      -0.001295
 **** Fit       0.004018
 **** Fit       0.009139
 **** Fit       0.013061
 **** Fit       0.014532
 **** Fit      -0.016792
 **** Fit      -0.015118
 **** Fit      -0.012242
 **** Fit      -0.008266
 **** Fit      -0.003297
 **** Fit       0.002482
 **** Fit       0.008695
 **** Fit       0.014638
 **** Fit       0.019197
 **** Fit      -0.019171
 **** Fit      -0.017078
 **** Fit      -0.013884
 **** Fit      -0.009611
 **** Fit      -0.004283
 **** Fit       0.002020
 **** Fit       0.009059
 **** Fit       0.016281
 **** Fit      -0.023135
 **** Fit      -0.021686
 **** Fit      -0.019269
 **** Fit      -0.015874
 **** Fit      -0.011475
 **** Fit      -0.006045
 **** Fit       0.000414
 **** Fit       0.007796
 **** Fit       0.015772
 **** Fit      -0.027327
 **** Fit      -0.026196
 **** Fit      -0.024233
 **** Fit      -0.021421
 **** Fit      -0.017728
 **** Fit      -0.013108
 **** Fit      -0.007510
 **** Fit      -0.000902
 **** Fit       0.006675
 **** Fit      -0.032379
 **** Fit      -0.031262
 **** Fit      -0.029414
 **** Fit      -0.026835
 **** Fit      -0.023508
 **** Fit      -0.019393
 **** Fit      -0.014437
 **** Fit      -0.008584
 **** Fit      -0.001805
 **** Fit       0.005849
 **** Fit      -0.035749
 **** Fit      -0.033048
 **** Fit      -0.029766
 **** Fit      -0.025888
 **** Fit      -0.021376
 **** Fit      -0.016178
 **** Fit      -0.010256
 **** Fit      -0.003617
 **** Fit       0.003620
 **** Fit      -0.040942
 **** Fit      -0.036894
 **** Fit      -0.032457
 **** Fit      -0.027610
 **** Fit      -0.022300
 **** Fit      -0.016477
 **** Fit      -0.010142
 **** Fit      -0.003409
 **** Fit       0.003386
 **** Fit      -0.034726
 **** Fit      -0.028533
 **** Fit      -0.022168
 **** Fit      -0.015584
 **** Fit      -0.008875
 **** Fit      -0.002369
 **** Fit       0.003297
 **** Fit      -0.028667
 **** Fit      -0.021238
 **** Fit      -0.000426
 **** Fit       0.000233
 **** Fit       0.000245
 **** Fit      -0.031762
 **** Fit       0.000240
 **** Fit      -0.029490
 **** Fit      -0.037551
 **** Fit      -0.001015
 **** Fit      -0.002768
 **** Fit      -0.015936
 **** Fit      -0.022698
 **** Fit      -0.027620
 **** Fit      -0.027556
 **** Fit      -0.021604
 **** Fit      -0.004160
 **** Fit      -0.008039
 **** Fit      -0.013261
 **** Fit      -0.017891
 **** Fit      -0.018254
 **** Fit      -0.009850
 **** Fit      -0.008203
 **** Fit      -0.014469
 **** Fit      -0.037295
 **** Fit       0.004928
 **** Fit       0.012652
 **** Fit      -0.029567
 **** Fit      -0.019976
 **** Fit      -0.010795
 **** Fit      -0.001969
 **** Fit       0.006250
 **** Fit       0.013311
 **** Fit      -0.017142
 **** Fit      -0.007813
 **** Fit       0.000611
 **** Fit       0.008040
 **** Fit       0.014129
 **** Fit      -0.014437
 **** Fit      -0.005231
 **** Fit       0.002593
 **** Fit       0.009052
 **** Fit      -0.012534
 **** Fit      -0.003928
 **** Fit       0.002988
 **** Fit       0.008316
 **** Fit      -0.008082
 **** Fit      -0.000751
 **** Fit       0.004610
 **** Fit       0.008110
 **** Fit      -0.012315
 **** Fit      -0.004502
 **** Fit       0.000963
 **** Fit       0.004371
 **** Fit      -0.006399
 **** Fit      -0.001182
 **** Fit       0.001739
 **** Fit      -0.006059
 **** Fit      -0.001786
 **** Fit       0.000938
 **** Fit      -0.017454
 **** Fit      -0.008991
 **** Fit      -0.001871
 **** Fit       0.001635
 **** Fit      -0.000496
 **** Fit      -0.003057
 **** Fit      -0.016801
 **** Fit      -0.014395
 **** Fit      -0.008788
 **** Fit      -0.002966
 **** Fit       0.000824
 **** Fit       0.002089
 **** Fit      -0.000715
 **** Fit      -0.004019
 **** Fit      -0.007721
 **** Fit      -0.010100
 **** Fit      -0.008845
 **** Fit      -0.004438
 **** Fit       0.000032
 **** Fit      -0.000814
 **** Fit      -0.004223
 **** Fit      -0.004366
 **** Fit      -0.000474
 **** Fit      -0.000746
 **** Fit       0.008992
 **** Fit       0.004383
 **** Fit       0.007552
 **** Fit       0.010310
 **** Fit       0.000042
 **** Fit       0.001811
 **** Fit       0.004126
 **** Fit       0.006248
 **** Fit       0.007541
 **** Fit       0.007508
 **** Fit       0.000554
 **** Fit       0.001693
 **** Fit       0.003026
 **** Fit       0.003790
 **** Fit       0.003367
 **** Fit       0.000158
 **** Fit       0.000632
 **** Fit       0.000710
 **** Fit      -0.000430
 **** Fit      -0.003324
 **** Fit      -0.022871
 **** Fit      -0.001400
 **** Fit      -0.002116
 **** Fit      -0.004508
 **** Fit      -0.009164
 **** Fit      -0.015189
 **** Fit      -0.004803
 **** Fit      -0.008781
 **** Fit       0.005137
 **** Fit       0.004875
 **** Fit       0.004712
 **** Fit       0.004568
 **** Fit       0.004604
 **** Fit       0.004682
 **** Fit       0.004496
 **** Fit       0.004402
 **** Fit       0.004290
 **** Fit       0.004053
 **** Fit       0.003732
 **** Fit       0.003577
 **** Fit       0.005021
 **** Fit       0.004147
 **** Fit       0.004003
 **** Fit       0.003963
 **** Fit       0.003959
 **** Fit       0.002024
 **** Fit       0.002326
 **** Fit       0.004840
 **** Fit       0.004419
 **** Fit       0.003509
 **** Fit       0.003377
 **** Fit       0.003349
 **** Fit       0.003404
 **** Fit      -0.000394
 **** Fit      -0.000277
 **** Fit       0.000487
 **** Fit       0.004530
 **** Fit       0.004077
 **** Fit       0.003741
 **** Fit       0.002747
 **** Fit       0.002589
 **** Fit       0.002542
 **** Fit       0.002605
 **** Fit      -0.004253
 **** Fit      -0.003641
 **** Fit      -0.002346
 **** Fit      -0.000614
 **** Fit       0.004272
 **** Fit       0.003741
 **** Fit       0.003324
 **** Fit       0.002995
 **** Fit       0.001847
 **** Fit       0.001634
 **** Fit       0.001529
 **** Fit       0.001547
 **** Fit      -0.009787
 **** Fit      -0.008299
 **** Fit      -0.006224
 **** Fit       0.004742
 **** Fit       0.003995
 **** Fit       0.003385
 **** Fit       0.002895
 **** Fit       0.002489
 **** Fit       0.002139
 **** Fit       0.000798
 **** Fit       0.000498
 **** Fit       0.000304
 **** Fit       0.000237
 **** Fit      -0.012994
 **** Fit      -0.009724
 **** Fit       0.004728
 **** Fit       0.003817
 **** Fit       0.003064
 **** Fit      -0.000830
 **** Fit      -0.001140
 **** Fit      -0.001329
 **** Fit       0.006024
 **** Fit       0.004834
 **** Fit       0.003666
 **** Fit      -0.002840
 **** Fit      -0.003170
 **** Fit      -0.003409
 **** Fit       0.007860
 **** Fit       0.006933
 **** Fit       0.005426
 **** Fit       0.003784
 **** Fit      -0.005370
 **** Fit      -0.005795
 **** Fit       0.005101
 **** Fit      -0.007971
 **** Fit      -0.008589
 **** Fit      -0.011843
 **** Fit      -0.012868
 **** Fit      -0.015838
 **** Fit      -0.017236
 **** Fit      -0.019506
 **** Fit      -0.020712
 **** Fit      -0.022610
 **** Fit      -0.025670
 **** Fit      -0.025063
 **** Fit      -0.026521
 **** Fit      -0.028933
 **** Fit      -0.031794
 **** Fit      -0.033661
 **** Fit      -0.038629
 **** Fit       0.000585
 **** Fit       0.002514
 **** Fit       0.001865
 **** Fit       0.001346
 **** Fit       0.000930
 **** Fit      -0.000682
 **** Fit      -0.001002
 **** Fit      -0.001316
 **** Fit       0.002914
 **** Fit       0.001943
 **** Fit       0.001144
 **** Fit       0.000523
 **** Fit       0.000043
 **** Fit      -0.000344
 **** Fit      -0.002253
 **** Fit      -0.002583
 **** Fit      -0.002950
 **** Fit       0.002856
 **** Fit       0.001450
 **** Fit       0.000309
 **** Fit      -0.000541
 **** Fit      -0.001147
 **** Fit      -0.001586
 **** Fit      -0.001935
 **** Fit      -0.004237
 **** Fit      -0.004535
 **** Fit      -0.004916
 **** Fit      -0.005400
 **** Fit       0.002767
 **** Fit       0.000677
 **** Fit      -0.000991
 **** Fit      -0.002174
 **** Fit      -0.002946
 **** Fit      -0.003430
 **** Fit      -0.003744
 **** Fit      -0.003989
 **** Fit      -0.006768
 **** Fit      -0.006989
 **** Fit      -0.007352
 **** Fit      -0.007883
 **** Fit      -0.008613
 **** Fit      -0.000134
 **** Fit      -0.002841
 **** Fit      -0.004672
 **** Fit      -0.005748
 **** Fit      -0.006292
 **** Fit      -0.006519
 **** Fit      -0.006600
 **** Fit      -0.006656
 **** Fit      -0.010014
 **** Fit      -0.010096
 **** Fit      -0.010421
 **** Fit      -0.011016
 **** Fit      -0.011923
 **** Fit      -0.010227
 **** Fit      -0.011027
 **** Fit      -0.011088
 **** Fit      -0.010805
 **** Fit      -0.010439
 **** Fit      -0.010145
 **** Fit      -0.014178
 **** Fit      -0.014010
 **** Fit      -0.014255
 **** Fit      -0.014927
 **** Fit      -0.016069
 **** Fit      -0.016991
 **** Fit      -0.015712
 **** Fit      -0.014753
 **** Fit      -0.019507
 **** Fit      -0.018923
 **** Fit      -0.019007
 **** Fit      -0.019729
 **** Fit      -0.021103
 **** Fit      -0.022948
 **** Fit      -0.020822
 **** Fit      -0.026266
 **** Fit      -0.025005
 **** Fit      -0.024919
 **** Fit      -0.025868
 **** Fit      -0.032385
 **** Fit      -0.032090
 **** Fit      -0.033371
 **** Fit      -0.040562
 **** Fit       0.003900
 **** Fit       0.003465
 **** Fit       0.003938
 **** Fit       0.003853
 **** Fit       0.003443
 **** Fit       0.002749
 **** Fit       0.003595
 **** Fit       0.003669
 **** Fit       0.003604
 **** Fit       0.003225
 **** Fit       0.002461
 **** Fit       0.001458
 **** Fit       0.000594
 **** Fit       0.002947
 **** Fit       0.003064
 **** Fit       0.003136
 **** Fit       0.003004
 **** Fit       0.002514
 **** Fit       0.001569
 **** Fit       0.000221
 **** Fit      -0.001257
 **** Fit      -0.002412
 **** Fit       0.002001
 **** Fit       0.002115
 **** Fit       0.002227
 **** Fit       0.002193
 **** Fit       0.001855
 **** Fit       0.001058
 **** Fit      -0.000316
 **** Fit      -0.002250
 **** Fit      -0.004486
 **** Fit      -0.006502
 **** Fit      -0.007687
 **** Fit       0.000744
 **** Fit       0.000820
 **** Fit       0.000915
 **** Fit       0.000903
 **** Fit       0.000641
 **** Fit      -0.000030
 **** Fit      -0.001285
 **** Fit      -0.003271
 **** Fit      -0.006019
 **** Fit      -0.009311
 **** Fit      -0.000846
 **** Fit      -0.000826
 **** Fit      -0.000792
 **** Fit      -0.000883
 **** Fit      -0.001254
 **** Fit      -0.002090
 **** Fit      -0.003613
 **** Fit      -0.006068
 **** Fit      -0.009652
 **** Fit      -0.002871
 **** Fit      -0.002938
 **** Fit      -0.003156
 **** Fit      -0.003693
 **** Fit      -0.004753
 **** Fit      -0.006601
 **** Fit      -0.009566
 **** Fit      -0.005366
 **** Fit      -0.005579
 **** Fit      -0.006002
 **** Fit      -0.006832
 **** Fit      -0.008318
 **** Fit      -0.010796
 **** Fit      -0.008408
 **** Fit      -0.008855
 **** Fit      -0.009653
 **** Fit      -0.011080
 **** Fit      -0.013511
 **** Fit      -0.012924
 **** Fit      -0.014341
 **** Fit      -0.016793
 **** Fit      -0.017874
 **** Fit      -0.020144
 **** Fit       0.007104
 **** Fit       0.006684
 **** Fit       0.006515
 **** Fit       0.006854
 **** Fit       0.007444
 **** Fit       0.007539
 **** Fit       0.007156
 **** Fit       0.006193
 **** Fit       0.005922
 **** Fit       0.005797
 **** Fit       0.005876
 **** Fit       0.006295
 **** Fit       0.007029
 **** Fit       0.007694
 **** Fit       0.007904
 **** Fit       0.007779
 **** Fit       0.007501
 **** Fit       0.007084
 **** Fit       0.006603
 **** Fit       0.005639
 **** Fit       0.005372
 **** Fit       0.004875
 **** Fit       0.005266
 **** Fit       0.006051
 **** Fit       0.007044
 **** Fit       0.007836
 **** Fit       0.008068
 **** Fit       0.007935
 **** Fit       0.007781
 **** Fit       0.007617
 **** Fit       0.007344
 **** Fit       0.006934
 **** Fit       0.006454
 **** Fit       0.006001
 **** Fit       0.003753
 **** Fit       0.004725
 **** Fit       0.006037
 **** Fit       0.007582
 **** Fit       0.007504
 **** Fit       0.007529
 **** Fit       0.007469
 **** Fit       0.007232
 **** Fit       0.006821
 **** Fit       0.006309
 **** Fit       0.005797
 **** Fit       0.005362
 **** Fit       0.003028
 **** Fit       0.006998
 **** Fit       0.007275
 **** Fit       0.007360
 **** Fit       0.007194
 **** Fit       0.006789
 **** Fit       0.006229
 **** Fit       0.005630
 **** Fit       0.005093
 **** Fit       0.006560
 **** Fit       0.007061
 **** Fit       0.007290
 **** Fit       0.007196
 **** Fit       0.006796
 **** Fit       0.006180
 **** Fit       0.005483
 **** Fit       0.004832
 **** Fit       0.006538
 **** Fit       0.007140
 **** Fit       0.007340
 **** Fit       0.007089
 **** Fit       0.006461
 **** Fit       0.005622
 **** Fit       0.005636
 **** Fit       0.006724
 **** Fit       0.007393
 **** Fit       0.007459
 **** Fit       0.006928
 **** Fit       0.005976
 **** Fit       0.005151
 **** Fit       0.006789
 **** Fit       0.007702
 **** Fit       0.007681
 **** Fit       0.005658
 **** Fit       0.007701
 **** Fit       0.014375
 **** Fit       0.004046
 **** Fit       0.008667
 **** Fit       0.052954
 **** Fit       0.018356
 **** Fit       0.054230
 **** Fit       0.052116
 **** Fit       0.050095
 **** Fit       0.022610
 **** Fit       0.019501
 **** Fit       0.015266
 **** Fit       0.010617
 **** Fit       0.056279
 **** Fit       0.054026
 **** Fit       0.051726
 **** Fit       0.049482
 **** Fit       0.046993
 **** Fit       0.043807
 **** Fit       0.035141
 **** Fit       0.030665
 **** Fit       0.026696
 **** Fit       0.022965
 **** Fit       0.018958
 **** Fit       0.015057
 **** Fit       0.012754
 **** Fit       0.013656
 **** Fit       0.044846
 **** Fit       0.051984
 **** Fit       0.052080
 **** Fit       0.050648
 **** Fit       0.048640
 **** Fit       0.046263
 **** Fit       0.043316
 **** Fit       0.039569
 **** Fit       0.035439
 **** Fit       0.031132
 **** Fit       0.026979
 **** Fit       0.023071
 **** Fit       0.019969
 **** Fit       0.019061
 **** Fit       0.021376
 **** Fit       0.039639
 **** Fit       0.043058
 **** Fit       0.046219
 **** Fit       0.047665
 **** Fit       0.047183
 **** Fit       0.045471
 **** Fit       0.042909
 **** Fit       0.039520
 **** Fit       0.035379
 **** Fit       0.030938
 **** Fit       0.027021
 **** Fit       0.024977
 **** Fit       0.026311
 **** Fit       0.030541
 **** Fit       0.035296
 **** Fit       0.039325
 **** Fit       0.042390
 **** Fit       0.043458
 **** Fit       0.042281
 **** Fit       0.039413
 **** Fit       0.035160
 **** Fit       0.031050
 **** Fit       0.030826
 **** Fit       0.034937
 **** Fit       0.038706
 **** Fit       0.038767
 **** Fit       0.034957
 -----------------------------------------------------------------
 Leave Link  602 at Sat Sep 14 23:59:27 2019, MaxMem=  1342177280 cpu:             107.6 elap:               2.3

 Test job not archived.
 1\1\GINC-C506-092\SP\RB3LYP\SVP\C54H83Ca1N15O23\PENGZHI\14-Sep-2019\0\
 \#b3lyp/svp scf=(tight,noincore) Test #IOP(5/87=12) Density=Current Po
 p=(MK,readradii) iop(6/33=2) iop(6/42=6)\\CaMKII_loop3_77.0\\0,1\C,0,6
 2.61,45.59,39.67\C,0,61.92,44.91,40.85\O,0,62.3,43.81,41.25\H,0,63.614
 ,45.182,39.552\H,0,62.037,45.411,38.761\H,0,62.674,46.662,39.854\N,0,6
 0.93,45.6,41.42\C,0,60.25,45.23,42.64\C,0,59.07,44.29,42.43\O,0,57.96,
 44.55,41.98\C,0,59.71,46.53,43.22\C,0,59.04,46.47,44.58\O,0,58.54,47.5
 3,45.03\O,0,59.15,45.42,45.24\H,0,60.62,46.4,40.89\H,0,61.,44.81,43.31
 \H,0,59.08,46.87,42.39\H,0,60.45,47.32,43.28\N,0,59.37,43.01,42.66\C,0
 ,58.51,41.9,42.3\C,0,57.25,41.81,43.15\O,0,56.28,41.37,42.53\C,0,59.46
 ,40.7,42.27\C,0,60.66,40.57,41.34\C,0,60.35,40.84,39.87\C,0,61.53,41.1
 3,38.95\N,0,61.09,41.08,37.55\H,0,60.32,42.78,42.91\H,0,58.18,42.13,41
 .29\H,0,58.76,39.9,42.04\H,0,59.76,40.48,43.29\H,0,61.04,39.55,41.34\H
 ,0,61.47,41.21,41.69\H,0,59.6,41.63,39.74\H,0,59.83,39.96,39.5\H,0,62.
 35,40.42,39.11\H,0,61.96,42.12,39.1\H,0,61.89,41.24,36.96\H,0,60.75,40
 .16,37.3\H,0,60.48,41.87,37.34\N,0,57.26,42.25,44.4\C,0,56.11,42.27,45
 .29\C,0,55.46,43.63,45.49\O,0,54.39,43.65,46.1\C,0,56.5,41.76,46.67\C,
 0,57.81,42.36,47.15\O,0,58.82,41.66,47.33\O,0,57.79,43.6,47.36\H,0,58.
 12,42.55,44.85\H,0,55.32,41.65,44.86\H,0,56.67,40.68,46.59\H,0,55.72,4
 1.85,47.43\N,0,55.99,44.72,44.93\C,0,55.26,45.97,44.9\C,0,55.34,46.78,
 46.19\O,0,54.78,47.87,46.27\H,0,56.94,44.68,44.61\H,0,54.26,45.91,44.4
 6\H,0,55.85,46.62,44.26\N,0,56.13,46.36,47.18\C,0,56.33,46.92,48.5\C,0
 ,57.,48.28,48.59\O,0,56.88,48.89,49.65\C,0,56.88,45.95,49.54\C,0,58.35
 ,45.58,49.37\N,0,58.76,44.61,50.19\O,0,59.13,46.09,48.57\H,0,56.66,45.
 52,46.98\H,0,55.34,47.17,48.88\H,0,56.26,45.06,49.5\H,0,56.98,46.44,50
 .51\H,0,58.03,44.14,50.7\H,0,59.76,44.5,50.22\N,0,57.68,48.81,47.57\C,
 0,58.19,50.17,47.6\C,0,59.7,50.18,47.82\O,0,60.26,51.26,48.03\H,0,57.7
 6,48.28,46.71\H,0,57.76,50.8,48.38\H,0,57.82,50.61,46.67\N,0,60.36,49.
 03,47.8\C,0,61.8,48.84,47.72\C,0,62.22,47.61,46.94\O,0,61.59,46.56,46.
 82\C,0,62.49,48.95,49.08\C,0,62.02,48.,50.16\C,0,60.81,48.13,50.85\C,0
 ,62.81,46.9,50.49\C,0,60.36,47.28,51.87\C,0,62.48,46.12,51.61\C,0,61.2
 5,46.26,52.27\O,0,60.88,45.57,53.39\H,0,59.85,48.16,47.86\H,0,62.25,49
 .6,47.09\H,0,62.22,49.9,49.55\H,0,63.57,48.99,48.97\H,0,60.2,49.,50.63
 \H,0,63.8,46.9,50.05\H,0,59.43,47.43,52.39\H,0,63.2,45.43,52.02\H,0,61
 .47,44.89,53.72\N,0,63.44,47.73,46.42\C,0,64.16,46.68,45.72\C,0,65.01,
 45.95,46.76\O,0,65.67,46.58,47.59\C,0,65.01,47.26,44.6\C,0,64.08,47.76
 ,43.49\C,0,65.9,46.2,43.95\C,0,64.75,48.63,42.44\H,0,63.99,48.51,46.73
 \H,0,63.5,46.,45.18\H,0,65.62,48.1,44.94\H,0,63.28,48.34,43.94\H,0,63.
 53,46.94,43.02\H,0,66.66,45.78,44.62\H,0,65.29,45.32,43.73\H,0,66.35,4
 6.52,43.02\H,0,65.47,48.13,41.8\H,0,64.,49.12,41.82\H,0,65.38,49.34,42
 .99\N,0,65.04,44.63,46.89\C,0,65.87,43.89,47.81\C,0,66.97,43.1,47.12\O
 ,0,66.93,42.88,45.91\C,0,64.96,42.95,48.6\O,0,64.44,41.88,47.84\H,0,64
 .54,44.07,46.2\H,0,66.24,44.61,48.54\H,0,64.22,43.56,49.11\H,0,65.52,4
 2.42,49.36\H,0,63.68,42.1,47.29\N,0,67.97,42.61,47.86\C,0,69.,41.81,47
 .22\C,0,68.53,40.53,46.55\O,0,69.12,40.1,45.57\C,0,70.16,41.48,48.16\H
 ,0,68.08,42.81,48.84\H,0,69.47,42.38,46.42\H,0,70.95,41.05,47.55\H,0,7
 0.47,42.38,48.69\H,0,69.91,40.67,48.84\N,0,67.53,39.79,47.05\C,0,66.84
 ,38.68,46.43\C,0,66.21,39.11,45.12\O,0,66.48,38.44,44.12\C,0,65.81,38.
 13,47.41\H,0,67.04,40.32,47.76\H,0,67.55,37.89,46.16\H,0,65.03,38.87,4
 7.56\H,0,65.38,37.23,46.97\H,0,66.26,37.86,48.37\N,0,65.64,40.32,44.99
 \C,0,65.08,40.83,43.76\C,0,66.13,41.38,42.8\O,0,65.85,41.39,41.6\C,0,6
 4.,41.86,44.07\C,0,62.86,41.29,44.92\C,0,61.99,42.47,45.32\O,0,60.74,4
 2.48,45.23\O,0,62.49,43.47,45.88\H,0,65.75,40.94,45.78\H,0,64.68,40.,4
 3.17\H,0,63.5,42.25,43.18\H,0,64.44,42.67,44.65\H,0,63.17,40.71,45.79\
 H,0,62.29,40.58,44.31\N,0,67.26,41.97,43.18\C,0,68.35,42.34,42.3\H,0,6
 9.239,41.767,42.563\H,0,68.073,42.126,41.268\H,0,68.559,43.404,42.407\
 H,0,67.49,42.01,44.16\Ca,0,60.3,44.25,47.12\O,0,61.81,44.35,49.4\H,0,6
 2.04,43.61,49.96\H,0,62.21,45.11,49.83\\Version=ES64L-G16RevA.03\State
 =1-A\HF=-5333.6218841\RMSD=3.733e-09\Dipole=8.3647762,-5.1259591,-6.22
 31118\Quadrupole=-129.0951431,-68.7485844,197.8437275,50.1772382,46.77
 77571,12.2142796\PG=C01 [X(C54H83Ca1N15O23)]\\@


 OLD AGE AND TREACHERY WILL ALWAYS PREVAIL OVER YOUTH AND SKILL.
 Job cpu time:       0 days  9 hours 11 minutes 46.1 seconds.
 Elapsed time:       0 days  0 hours 11 minutes 37.4 seconds.
 File lengths (MBytes):  RWF=   1517 Int=      0 D2E=      0 Chk=    171 Scr=      1
 Normal termination of Gaussian 16 at Sat Sep 14 23:59:29 2019.
