 Entering Gaussian System, Link 0=g16
 Initial command:
 /home1/apps/gaussian/16rA.03/g16/l1.exe "/scratch/01990/pengzhi/4328951/Gau-106189.inp" -scrdir="/scratch/01990/pengzhi/4328951/"
 Entering Link 1 = /home1/apps/gaussian/16rA.03/g16/l1.exe PID=    106190.
  
 Copyright (c) 1988,1990,1992,1993,1995,1998,2003,2009,2016,
            Gaussian, Inc.  All Rights Reserved.
  
 This is part of the Gaussian(R) 16 program.  It is based on
 the Gaussian(R) 09 system (copyright 2009, Gaussian, Inc.),
 the Gaussian(R) 03 system (copyright 2003, Gaussian, Inc.),
 the Gaussian(R) 98 system (copyright 1998, Gaussian, Inc.),
 the Gaussian(R) 94 system (copyright 1995, Gaussian, Inc.),
 the Gaussian 92(TM) system (copyright 1992, Gaussian, Inc.),
 the Gaussian 90(TM) system (copyright 1990, Gaussian, Inc.),
 the Gaussian 88(TM) system (copyright 1988, Gaussian, Inc.),
 the Gaussian 86(TM) system (copyright 1986, Carnegie Mellon
 University), and the Gaussian 82(TM) system (copyright 1983,
 Carnegie Mellon University). Gaussian is a federally registered
 trademark of Gaussian, Inc.
  
 This software contains proprietary and confidential information,
 including trade secrets, belonging to Gaussian, Inc.
  
 This software is provided under written license and may be
 used, copied, transmitted, or stored only in accord with that
 written license.
  
 The following legend is applicable only to US Government
 contracts under FAR:
  
                    RESTRICTED RIGHTS LEGEND
  
 Use, reproduction and disclosure by the US Government is
 subject to restrictions as set forth in subparagraphs (a)
 and (c) of the Commercial Computer Software - Restricted
 Rights clause in FAR 52.227-19.
  
 Gaussian, Inc.
 340 Quinnipiac St., Bldg. 40, Wallingford CT 06492
  
  
 ---------------------------------------------------------------
 Warning -- This program may not be used in any manner that
 competes with the business of Gaussian, Inc. or will provide
 assistance to any competitor of Gaussian, Inc.  The licensee
 of this program is prohibited from giving any competitor of
 Gaussian, Inc. access to this program.  By using this program,
 the user acknowledges that Gaussian, Inc. is engaged in the
 business of creating and licensing software in the field of
 computational chemistry and represents and warrants to the
 licensee that it is not a competitor of Gaussian, Inc. and that
 it will not use this program in any manner prohibited above.
 ---------------------------------------------------------------
  

 Cite this work as:
 Gaussian 16, Revision A.03,
 M. J. Frisch, G. W. Trucks, H. B. Schlegel, G. E. Scuseria, 
 M. A. Robb, J. R. Cheeseman, G. Scalmani, V. Barone, 
 G. A. Petersson, H. Nakatsuji, X. Li, M. Caricato, A. V. Marenich, 
 J. Bloino, B. G. Janesko, R. Gomperts, B. Mennucci, H. P. Hratchian, 
 J. V. Ortiz, A. F. Izmaylov, J. L. Sonnenberg, D. Williams-Young, 
 F. Ding, F. Lipparini, F. Egidi, J. Goings, B. Peng, A. Petrone, 
 T. Henderson, D. Ranasinghe, V. G. Zakrzewski, J. Gao, N. Rega, 
 G. Zheng, W. Liang, M. Hada, M. Ehara, K. Toyota, R. Fukuda, 
 J. Hasegawa, M. Ishida, T. Nakajima, Y. Honda, O. Kitao, H. Nakai, 
 T. Vreven, K. Throssell, J. A. Montgomery, Jr., J. E. Peralta, 
 F. Ogliaro, M. J. Bearpark, J. J. Heyd, E. N. Brothers, K. N. Kudin, 
 V. N. Staroverov, T. A. Keith, R. Kobayashi, J. Normand, 
 K. Raghavachari, A. P. Rendell, J. C. Burant, S. S. Iyengar, 
 J. Tomasi, M. Cossi, J. M. Millam, M. Klene, C. Adamo, R. Cammi, 
 J. W. Ochterski, R. L. Martin, K. Morokuma, O. Farkas, 
 J. B. Foresman, and D. J. Fox, Gaussian, Inc., Wallingford CT, 2016.
 
 ******************************************
 Gaussian 16:  ES64L-G16RevA.03 25-Dec-2016
                14-Sep-2019 
 ******************************************
 %chk=CaMKII_loop3_78.0.chk
 %nprocshared=48
 Will use up to   48 processors via shared memory.
 %mem=10GB
 %nosave
 ----------------------------------------------------------------------
 #b3lyp/svp scf=(tight,noincore) Test #IOP(5/87=12) Density=Current Pop
 =(MK,readradii) iop(6/33=2) iop(6/42=6)
 ----------------------------------------------------------------------
 1/30=1,38=1,172=1/1;
 2/12=2,17=6,18=5,40=1/2;
 3/5=18,7=101,11=2,25=1,30=1,74=-5/1,2,3;
 4//1;
 5/5=4,32=2,38=5,87=12/2;
 6/7=2,8=2,9=2,10=2,15=8,20=101,22=-1,28=1,33=2,42=6/1,2;
 99/5=1,9=1/99;
 -----------------
 CaMKII_loop3_78.0
 -----------------
 Symbolic Z-matrix:
 Charge =  0 Multiplicity = 1
 C                     67.45     46.09     29.68 
 C                     66.39     45.42     30.55 
 O                     66.71     44.51     31.3 
 H                     68.371    45.508    29.718 
 H                     67.096    46.143    28.65 
 H                     67.642    47.097    30.051 
 N                     65.15     45.9      30.54 
 C                     64.       45.19     31.05 
 C                     63.68     44.08     30.06 
 O                     63.55     44.37     28.87 
 C                     62.87     46.21     31.14 
 C                     61.63     45.73     31.88 
 O                     61.54     44.49     32.05 
 O                     60.75     46.55     32.21 
 H                     64.99     46.72     29.96 
 H                     64.18     44.87     32.07 
 H                     62.53     46.45     30.13 
 H                     63.26     47.11     31.62 
 N                     63.65     42.85     30.59 
 C                     63.35     41.71     29.76 
 C                     61.89     41.6      29.34 
 O                     61.57     40.94     28.36 
 C                     63.8      40.44     30.48 
 C                     63.81     39.1      29.75 
 C                     64.44     38.       30.6 
 C                     64.29     36.56     30.11 
 N                     64.72     35.67     31.2 
 H                     63.75     42.72     31.59 
 H                     63.92     41.8      28.84 
 H                     63.14     40.26     31.33 
 H                     64.78     40.68     30.91 
 H                     64.5      39.25     28.91 
 H                     62.87     38.67     29.4 
 H                     64.05     38.12     31.61 
 H                     65.5      38.24     30.74 
 H                     64.87     36.33     29.22 
 H                     63.21     36.48     29.98 
 H                     64.67     34.72     30.86 
 H                     65.71     35.77     31.35 
 H                     64.28     35.72     32.11 
 N                     60.96     42.12     30.14 
 C                     59.52     41.94     30.04 
 C                     58.74     43.24     29.94 
 O                     57.66     43.18     29.36 
 C                     58.95     41.12     31.19 
 C                     59.53     41.66     32.49 
 O                     60.45     40.98     32.98 
 O                     59.23     42.77     32.99 
 H                     61.3      42.65     30.93 
 H                     59.35     41.48     29.06 
 H                     59.33     40.12     30.97 
 H                     57.88     40.95     31.22 
 N                     59.15     44.36     30.53 
 C                     58.51     45.64     30.31 
 C                     57.64     46.14     31.44 
 O                     56.76     46.99     31.28 
 H                     59.97     44.36     31.14 
 H                     57.84     45.6      29.45 
 H                     59.31     46.37     30.19 
 N                     57.95     45.67     32.65 
 C                     57.24     46.03     33.86 
 C                     57.71     47.33     34.51 
 O                     57.22     47.83     35.52 
 C                     57.2      44.85     34.82 
 C                     58.5      44.73     35.62 
 N                     58.34     44.61     36.94 
 O                     59.62     44.76     35.12 
 H                     58.76     45.07     32.73 
 H                     56.18     46.21     33.66 
 H                     57.       43.91     34.3 
 H                     56.42     45.08     35.54 
 H                     57.43     44.79     37.33 
 H                     59.1      44.36     37.56 
 N                     58.71     47.96     33.89 
 C                     59.25     49.24     34.29 
 C                     60.49     49.17     35.17 
 O                     60.92     50.09     35.87 
 H                     59.17     47.31     33.27 
 H                     58.51     49.9      34.74 
 H                     59.53     49.8      33.4 
 N                     61.11     48.       35.23 
 C                     62.05     47.52     36.23 
 C                     63.11     46.56     35.72 
 O                     62.86     45.63     34.95 
 C                     61.45     46.79     37.42 
 C                     60.71     47.64     38.42 
 C                     61.35     48.21     39.53 
 C                     59.33     47.76     38.27 
 C                     60.58     48.88     40.5 
 C                     58.56     48.46     39.21 
 C                     59.19     49.01     40.35 
 O                     58.41     49.63     41.28 
 H                     60.78     47.33     34.54 
 H                     62.45     48.34     36.83 
 H                     62.33     46.41     37.94 
 H                     60.92     45.9      37.08 
 H                     62.41     48.2      39.7 
 H                     58.85     47.2      37.48 
 H                     61.1      49.29     41.35 
 H                     57.48     48.44     39.19 
 H                     57.5      49.62     40.98 
 N                     64.33     46.88     36.16 
 C                     65.49     46.1      35.78 
 C                     65.84     45.3      37.03 
 O                     65.71     45.67     38.19 
 C                     66.67     46.95     35.31 
 C                     66.37     47.71     34.02 
 C                     67.87     46.07     34.99 
 C                     67.3      48.87     33.65 
 H                     64.48     47.64     36.81 
 H                     65.3      45.45     34.92 
 H                     66.96     47.59     36.14 
 H                     65.43     48.25     33.95 
 H                     66.36     46.99     33.21 
 H                     68.38     45.7      35.89 
 H                     67.57     45.18     34.43 
 H                     68.69     46.67     34.6 
 H                     67.18     49.69     34.35 
 H                     68.35     48.61     33.75 
 H                     67.03     49.21     32.65 
 N                     66.56     44.19     36.88 
 C                     67.03     43.3      37.92 
 C                     68.21     42.51     37.38 
 O                     68.47     42.52     36.18 
 C                     65.98     42.31     38.4 
 O                     65.32     41.68     37.33 
 H                     66.62     43.84     35.93 
 H                     67.43     43.91     38.74 
 H                     65.29     42.88     39.03 
 H                     66.47     41.57     39.04 
 H                     64.81     40.93     37.63 
 N                     68.97     41.87     38.27 
 C                     70.26     41.31     37.91 
 C                     70.31     40.21     36.86 
 O                     71.16     40.28     35.97 
 C                     70.81     40.82     39.24 
 H                     68.72     41.99     39.24 
 H                     70.87     42.16     37.6 
 H                     70.66     41.6      39.99 
 H                     70.4      39.85     39.55 
 H                     71.89     40.79     39.2 
 N                     69.32     39.32     36.81 
 C                     69.12     38.29     35.81 
 C                     68.74     38.82     34.43 
 O                     69.1      38.14     33.46 
 C                     68.04     37.33     36.31 
 H                     68.75     39.16     37.62 
 H                     70.02     37.68     35.81 
 H                     67.75     36.72     35.45 
 H                     68.35     36.66     37.11 
 H                     67.16     37.89     36.62 
 N                     68.18     40.02     34.39 
 C                     67.89     40.77     33.18 
 C                     69.01     41.67     32.7 
 O                     69.31     41.62     31.51 
 C                     66.55     41.47     33.43 
 C                     65.41     40.59     33.92 
 C                     64.12     41.39     33.99 
 O                     63.17     40.99     34.69 
 O                     63.87     42.45     33.37 
 H                     68.14     40.57     35.23 
 H                     67.76     40.04     32.38 
 H                     66.32     41.87     32.44 
 H                     66.68     42.32     34.1 
 H                     65.69     40.37     34.95 
 H                     65.26     39.71     33.3 
 N                     69.81     42.3      33.57 
 C                     71.       43.02     33.15 
 H                     71.824    42.318    33.026 
 H                     70.806    43.522    32.202 
 H                     71.264    43.759    33.906 
 H                     69.51     42.24     34.53 
 Ca                    61.66     43.21     34.27 
 O                     60.34     41.86     36.32 
 H                     59.48     41.65     36.69 
 H                     60.9      42.03     37.09 
 
 Stoichiometry    C54H83CaN15O23
 Framework group  C1[X(C54H83CaN15O23)]
 Deg. of freedom   522
 Full point group                 C1      NOp   1
 Largest Abelian subgroup         C1      NOp   1
 Largest concise Abelian subgroup C1      NOp   1
                         Standard orientation:                         
 ---------------------------------------------------------------------
 Center     Atomic      Atomic             Coordinates (Angstroms)
 Number     Number       Type             X           Y           Z
 ---------------------------------------------------------------------
      1          6           0        2.137214    1.263011    5.855856
      2          6           0        1.605537    1.204516    4.426416
      3          8           0        2.355779    0.890583    3.514504
      4          1           0        3.224563    1.186346    5.841603
      5          1           0        1.845664    2.208185    6.314842
      6          1           0        1.723030    0.435563    6.432342
      7          7           0        0.309743    1.411431    4.211465
      8          6           0       -0.263204    1.698506    2.916854
      9          6           0        0.121298    3.126679    2.560371
     10          8           0       -0.111881    4.021253    3.374290
     11          6           0       -1.772233    1.541030    3.069939
     12          6           0       -2.555223    1.564132    1.765335
     13          8           0       -1.943000    2.016360    0.767701
     14          8           0       -3.752684    1.215278    1.755938
     15          1           0       -0.262807    1.572109    5.036552
     16          1           0        0.033388    0.941099    2.200218
     17          1           0       -2.157154    2.380185    3.653852
     18          1           0       -1.965858    0.605640    3.599140
     19          7           0        0.766659    3.257016    1.393657
     20          6           0        1.179585    4.559986    0.935114
     21          6           0        0.043220    5.446831    0.442896
     22          8           0        0.176265    6.662666    0.393467
     23          6           0        2.239463    4.390436   -0.151952
     24          6           0        3.017999    5.597464   -0.667282
     25          6           0        4.128270    5.183054   -1.629032
     26          6           0        4.822590    6.291016   -2.420575
     27          7           0        5.642462    5.650380   -3.461006
     28          1           0        0.891487    2.456813    0.784564
     29          1           0        1.630193    5.087321    1.770739
     30          1           0        1.766603    3.991927   -1.050892
     31          1           0        2.904953    3.597545    0.210466
     32          1           0        3.532172    5.991251    0.218584
     33          1           0        2.489268    6.397047   -1.188924
     34          1           0        3.706956    4.425741   -2.289010
     35          1           0        4.868982    4.602721   -1.067465
     36          1           0        5.459167    6.935351   -1.819741
     37          1           0        3.975689    6.797247   -2.885536
     38          1           0        6.141629    6.378706   -3.951897
     39          1           0        6.402960    5.148786   -3.033635
     40          1           0        5.221820    5.024159   -4.135624
     41          7           0       -1.042671    4.862796   -0.062123
     42          6           0       -2.133192    5.510485   -0.774347
     43          6           0       -3.502450    5.265369   -0.163240
     44          8           0       -4.346722    6.134042   -0.360753
     45          6           0       -2.183425    5.124331   -2.246815
     46          6           0       -2.043712    3.611433   -2.344886
     47          8           0       -0.916349    3.206385   -2.682361
     48          8           0       -2.927301    2.795969   -1.989374
     49          1           0       -1.080755    3.856063    0.012966
     50          1           0       -1.987390    6.585253   -0.617773
     51          1           0       -1.303474    5.631885   -2.647908
     52          1           0       -2.976708    5.535928   -2.859996
     53          7           0       -3.805647    4.132676    0.465789
     54          6           0       -5.043977    3.948694    1.193174
     55          6           0       -6.079067    3.081141    0.515132
     56          8           0       -7.278254    3.123218    0.802670
     57          1           0       -3.144398    3.353745    0.488519
     58          1           0       -5.550859    4.901797    1.350541
     59          1           0       -4.784363    3.448088    2.125533
     60          7           0       -5.596784    2.191250   -0.354695
     61          6           0       -6.423518    1.267421   -1.103594
     62          6           0       -6.779263   -0.016586   -0.356485
     63          8           0       -7.495580   -0.912659   -0.797102
     64          6           0       -5.827533    1.023439   -2.482316
     65          6           0       -4.707118   -0.019098   -2.435526
     66          7           0       -4.813270   -1.000724   -3.334159
     67          8           0       -3.779836    0.004034   -1.632461
     68          1           0       -4.592717    2.125345   -0.454723
     69          1           0       -7.396800    1.706813   -1.339512
     70          1           0       -5.452810    1.946199   -2.931868
     71          1           0       -6.624739    0.586605   -3.076739
     72          1           0       -5.680253   -1.098790   -3.835481
     73          1           0       -4.062552   -1.654386   -3.517591
     74          7           0       -6.282675   -0.126201    0.877486
     75          6           0       -6.561552   -1.218245    1.782841
     76          6           0       -5.521246   -2.329359    1.792487
     77          8           0       -5.699608   -3.468878    2.229501
     78          1           0       -5.519469    0.525994    0.980724
     79          1           0       -7.557304   -1.640613    1.657215
     80          1           0       -6.614644   -0.831458    2.798556
     81          7           0       -4.355989   -2.056454    1.222751
     82          6           0       -3.339295   -2.979967    0.745827
     83          6           0       -1.908926   -2.479454    0.839800
     84          8           0       -1.573582   -1.338046    0.515715
     85          6           0       -3.465860   -3.429888   -0.700047
     86          6           0       -4.584510   -4.392494   -1.003546
     87          6           0       -4.405965   -5.782283   -0.946904
     88          6           0       -5.791181   -3.859726   -1.452326
     89          6           0       -5.448111   -6.628417   -1.371980
     90          6           0       -6.849151   -4.694697   -1.839654
     91          6           0       -6.668655   -6.096826   -1.818281
     92          8           0       -7.689962   -6.883903   -2.260031
     93          1           0       -4.234543   -1.072145    0.998504
     94          1           0       -3.483656   -3.981504    1.156294
     95          1           0       -2.540019   -3.982327   -0.863841
     96          1           0       -3.398195   -2.567607   -1.363744
     97          1           0       -3.526644   -6.274006   -0.575956
     98          1           0       -5.852442   -2.792381   -1.610824
     99          1           0       -5.271804   -7.690700   -1.333644
    100          1           0       -7.732910   -4.306492   -2.324902
    101          1           0       -8.429757   -6.326148   -2.504598
    102          7           0       -1.089384   -3.397466    1.359422
    103          6           0        0.319460   -3.119488    1.549909
    104          6           0        1.017862   -3.906172    0.446114
    105          8           0        0.668014   -4.988000   -0.008479
    106          6           0        0.837922   -3.513151    2.932669
    107          6           0        0.204530   -2.692091    4.053551
    108          6           0        2.333907   -3.252787    3.037738
    109          6           0        0.339612   -3.224962    5.483656
    110          1           0       -1.409091   -4.329131    1.588307
    111          1           0        0.551042   -2.050906    1.497908
    112          1           0        0.695760   -4.586006    3.039312
    113          1           0       -0.874153   -2.563581    4.048159
    114          1           0        0.622903   -1.693480    4.005174
    115          1           0        2.935718   -3.999250    2.501440
    116          1           0        2.599030   -2.286103    2.600780
    117          1           0        2.690933   -3.478244    4.040834
    118          1           0       -0.238997   -4.134461    5.605406
    119          1           0        1.352315   -3.542157    5.715861
    120          1           0       -0.043384   -2.462918    6.162702
    121          7           0        2.238988   -3.520682    0.081081
    122          6           0        3.093560   -4.133469   -0.913303
    123          6           0        4.529473   -3.725577   -0.630675
    124          8           0        4.776259   -2.826711    0.168597
    125          6           0        2.760724   -3.728218   -2.340885
    126          8           0        2.597856   -2.337527   -2.470694
    127          1           0        2.513194   -2.597794    0.399966
    128          1           0        3.059660   -5.221396   -0.772716
    129          1           0        1.851145   -4.275163   -2.608126
    130          1           0        3.560421   -4.085515   -2.996723
    131          1           0        2.584356   -2.073827   -3.388779
    132          7           0        5.489581   -4.425277   -1.237234
    133          6           0        6.882823   -4.307232   -0.847053
    134          6           0        7.570387   -2.958292   -0.997438
    135          8           0        8.263413   -2.540667   -0.067489
    136          6           0        7.571598   -5.367705   -1.691142
    137          1           0        5.185581   -5.196574   -1.812112
    138          1           0        6.923738   -4.641604    0.190840
    139          1           0        6.988905   -6.290270   -1.638765
    140          1           0        7.763497   -5.046064   -2.723044
    141          1           0        8.485102   -5.683700   -1.206829
    142          7           0        7.247734   -2.180979   -2.030095
    143          6           0        7.687397   -0.821123   -2.271730
    144          6           0        7.118794    0.205409   -1.295706
    145          8           0        7.826550    1.193740   -1.060795
    146          6           0        7.312329   -0.435917   -3.703141
    147          1           0        6.839565   -2.585755   -2.852381
    148          1           0        8.774125   -0.846666   -2.293412
    149          1           0        7.438666    0.648100   -3.772035
    150          1           0        7.918799   -0.896615   -4.480927
    151          1           0        6.260590   -0.650345   -3.881933
    152          7           0        5.985933   -0.117759   -0.689581
    153          6           0        5.363962    0.638432    0.383745
    154          6           0        5.805073    0.250495    1.780071
    155          8           0        6.118207    1.154886    2.549892
    156          6           0        3.854495    0.564498    0.130480
    157          6           0        3.385332    0.941825   -1.266520
    158          6           0        1.867030    0.954356   -1.326535
    159          8           0        1.281084    0.876828   -2.423420
    160          8           0        1.087131    1.069433   -0.352361
    161          1           0        5.620059   -1.047251   -0.798577
    162          1           0        5.688106    1.673614    0.269160
    163          1           0        3.470874    1.277645    0.863458
    164          1           0        3.467361   -0.417779    0.401697
    165          1           0        3.708727    0.097234   -1.874617
    166          1           0        3.771093    1.903144   -1.595692
    167          7           0        6.090158   -1.022087    2.085131
    168          6           0        6.687934   -1.401431    3.353856
    169          1           0        7.766789   -1.257360    3.304152
    170          1           0        6.275949   -0.781304    4.150132
    171          1           0        6.471227   -2.449360    3.559367
    172          1           0        5.845464   -1.686708    1.368469
    173         20           0       -1.197146    0.723772   -1.318952
    174          8           0       -1.601060    0.086778   -4.001952
    175          1           0       -2.208306    0.165306   -4.740658
    176          1           0       -1.255186   -0.814046   -4.067433
 ---------------------------------------------------------------------
 Rotational constants (GHZ):           0.0235525           0.0151723           0.0118619
 Standard basis: SVP (5D, 7F)
 There are  1809 symmetry adapted cartesian basis functions of A   symmetry.
 There are  1717 symmetry adapted basis functions of A   symmetry.
  1717 basis functions,  2922 primitive gaussians,  1809 cartesian basis functions
   358 alpha electrons      358 beta electrons
       nuclear repulsion energy     21695.9893474797 Hartrees.
 NAtoms=  176 NActive=  176 NUniq=  176 SFac= 1.00D+00 NAtFMM=   60 NAOKFM=T Big=T
 Integral buffers will be    131072 words long.
 Raffenetti 2 integral format.
 Two-electron integral symmetry is turned on.
 One-electron integrals computed using PRISM.
 NBasis=  1717 RedAO= T EigKep=  2.66D-04  NBF=  1717
 NBsUse=  1717 1.00D-06 EigRej= -1.00D+00 NBFU=  1717
 ExpMin= 1.98D-02 ExpMax= 3.51D+04 ExpMxC= 5.28D+03 IAcc=3 IRadAn=         5 AccDes= 0.00D+00
 Harris functional with IExCor=  402 and IRadAn=       5 diagonalized for initial guess.
 HarFok:  IExCor=  402 AccDes= 0.00D+00 IRadAn=         5 IDoV= 1 UseB2=F ITyADJ=14
 ICtDFT=  3500011 ScaDFX=  1.000000  1.000000  1.000000  1.000000
 FoFCou: FMM=F IPFlag=           0 FMFlag=      100000 FMFlg1=        2001
         NFxFlg=           0 DoJE=T BraDBF=F KetDBF=T FulRan=T
         wScrn=  0.000000 ICntrl=       500 IOpCl=  0 I1Cent=   200000004 NGrid=           0
         NMat0=    1 NMatS0=      1 NMatT0=    0 NMatD0=    1 NMtDS0=    0 NMtDT0=    0
 Petite list used in FoFCou.
 Requested convergence on RMS density matrix=1.00D-08 within 128 cycles.
 Requested convergence on MAX density matrix=1.00D-06.
 Requested convergence on             energy=1.00D-06.
 No special actions if energy rises.
 EnCoef did     4 forward-backward iterations
 EnCoef did     2 forward-backward iterations
 EnCoef did     2 forward-backward iterations
 Restarting incremental Fock formation.
 SCF Done:  E(RB3LYP) =  -5333.56273336     A.U. after   21 cycles
            NFock= 21  Conv=0.18D-08     -V/T= 2.0081
 SCF density gives NOpUse=  1 NOpAll=  1.
 Hyperfine terms turned off by default for NAtoms > 100.

 **********************************************************************

            Population analysis using the SCF density.

 **********************************************************************

 Orbital symmetries:
 BldTbl:  Degeneracy threshold= 1.00D-02
       Occupied  (A) (A) (A) (A) (A) (A) (A) (A) (A) (A) (A) (A)
                 (A) (A) (A) (A) (A) (A) (A) (A) (A) (A) (A) (A)
                 (A) (A) (A) (A) (A) (A) (A) (A) (A) (A) (A) (A)
                 (A) (A) (A) (A) (A) (A) (A) (A) (A) (A) (A) (A)
                 (A) (A) (A) (A) (A) (A) (A) (A) (A) (A) (A) (A)
                 (A) (A) (A) (A) (A) (A) (A) (A) (A) (A) (A) (A)
                 (A) (A) (A) (A) (A) (A) (A) (A) (A) (A) (A) (A)
                 (A) (A) (A) (A) (A) (A) (A) (A) (A) (A) (A) (A)
                 (A) (A) (A) (A) (A) (A) (A) (A) (A) (A) (A) (A)
                 (A) (A) (A) (A) (A) (A) (A) (A) (A) (A) (A) (A)
                 (A) (A) (A) (A) (A) (A) (A) (A) (A) (A) (A) (A)
                 (A) (A) (A) (A) (A) (A) (A) (A) (A) (A) (A) (A)
                 (A) (A) (A) (A) (A) (A) (A) (A) (A) (A) (A) (A)
                 (A) (A) (A) (A) (A) (A) (A) (A) (A) (A) (A) (A)
                 (A) (A) (A) (A) (A) (A) (A) (A) (A) (A) (A) (A)
                 (A) (A) (A) (A) (A) (A) (A) (A) (A) (A) (A) (A)
                 (A) (A) (A) (A) (A) (A) (A) (A) (A) (A) (A) (A)
                 (A) (A) (A) (A) (A) (A) (A) (A) (A) (A) (A) (A)
                 (A) (A) (A) (A) (A) (A) (A) (A) (A) (A) (A) (A)
                 (A) (A) (A) (A) (A) (A) (A) (A) (A) (A) (A) (A)
                 (A) (A) (A) (A) (A) (A) (A) (A) (A) (A) (A) (A)
                 (A) (A) (A) (A) (A) (A) (A) (A) (A) (A) (A) (A)
                 (A) (A) (A) (A) (A) (A) (A) (A) (A) (A) (A) (A)
                 (A) (A) (A) (A) (A) (A) (A) (A) (A) (A) (A) (A)
                 (A) (A) (A) (A) (A) (A) (A) (A) (A) (A) (A) (A)
                 (A) (A) (A) (A) (A) (A) (A) (A) (A) (A) (A) (A)
                 (A) (A) (A) (A) (A) (A) (A) (A) (A) (A) (A) (A)
                 (A) (A) (A) (A) (A) (A) (A) (A) (A) (A) (A) (A)
                 (A) (A) (A) (A) (A) (A) (A) (A) (A) (A) (A) (A)
                 (A) (A) (A) (A) (A) (A) (A) (A) (A) (A)
       Virtual   (A) (A) (A) (A) (A) (A) (A) (A) (A) (A) (A) (A)
                 (A) (A) (A) (A) (A) (A) (A) (A) (A) (A) (A) (A)
                 (A) (A) (A) (A) (A) (A) (A) (A) (A) (A) (A) (A)
                 (A) (A) (A) (A) (A) (A) (A) (A) (A) (A) (A) (A)
                 (A) (A) (A) (A) (A) (A) (A) (A) (A) (A) (A) (A)
                 (A) (A) (A) (A) (A) (A) (A) (A) (A) (A) (A) (A)
                 (A) (A) (A) (A) (A) (A) (A) (A) (A) (A) (A) (A)
                 (A) (A) (A) (A) (A) (A) (A) (A) (A) (A) (A) (A)
                 (A) (A) (A) (A) (A) (A) (A) (A) (A) (A) (A) (A)
                 (A) (A) (A) (A) (A) (A) (A) (A) (A) (A) (A) (A)
                 (A) (A) (A) (A) (A) (A) (A) (A) (A) (A) (A) (A)
                 (A) (A) (A) (A) (A) (A) (A) (A) (A) (A) (A) (A)
                 (A) (A) (A) (A) (A) (A) (A) (A) (A) (A) (A) (A)
                 (A) (A) (A) (A) (A) (A) (A) (A) (A) (A) (A) (A)
                 (A) (A) (A) (A) (A) (A) (A) (A) (A) (A) (A) (A)
                 (A) (A) (A) (A) (A) (A) (A) (A) (A) (A) (A) (A)
                 (A) (A) (A) (A) (A) (A) (A) (A) (A) (A) (A) (A)
                 (A) (A) (A) (A) (A) (A) (A) (A) (A) (A) (A) (A)
                 (A) (A) (A) (A) (A) (A) (A) (A) (A) (A) (A) (A)
                 (A) (A) (A) (A) (A) (A) (A) (A) (A) (A) (A) (A)
                 (A) (A) (A) (A) (A) (A) (A) (A) (A) (A) (A) (A)
                 (A) (A) (A) (A) (A) (A) (A) (A) (A) (A) (A) (A)
                 (A) (A) (A) (A) (A) (A) (A) (A) (A) (A) (A) (A)
                 (A) (A) (A) (A) (A) (A) (A) (A) (A) (A) (A) (A)
                 (A) (A) (A) (A) (A) (A) (A) (A) (A) (A) (A) (A)
                 (A) (A) (A) (A) (A) (A) (A) (A) (A) (A) (A) (A)
                 (A) (A) (A) (A) (A) (A) (A) (A) (A) (A) (A) (A)
                 (A) (A) (A) (A) (A) (A) (A) (A) (A) (A) (A) (A)
                 (A) (A) (A) (A) (A) (A) (A) (A) (A) (A) (A) (A)
                 (A) (A) (A) (A) (A) (A) (A) (A) (A) (A) (A) (A)
                 (A) (A) (A) (A) (A) (A) (A) (A) (A) (A) (A) (A)
                 (A) (A) (A) (A) (A) (A) (A) (A) (A) (A) (A) (A)
                 (A) (A) (A) (A) (A) (A) (A) (A) (A) (A) (A) (A)
                 (A) (A) (A) (A) (A) (A) (A) (A) (A) (A) (A) (A)
                 (A) (A) (A) (A) (A) (A) (A) (A) (A) (A) (A) (A)
                 (A) (A) (A) (A) (A) (A) (A) (A) (A) (A) (A) (A)
                 (A) (A) (A) (A) (A) (A) (A) (A) (A) (A) (A) (A)
                 (A) (A) (A) (A) (A) (A) (A) (A) (A) (A) (A) (A)
                 (A) (A) (A) (A) (A) (A) (A) (A) (A) (A) (A) (A)
                 (A) (A) (A) (A) (A) (A) (A) (A) (A) (A) (A) (A)
                 (A) (A) (A) (A) (A) (A) (A) (A) (A) (A) (A) (A)
                 (A) (A) (A) (A) (A) (A) (A) (A) (A) (A) (A) (A)
                 (A) (A) (A) (A) (A) (A) (A) (A) (A) (A) (A) (A)
                 (A) (A) (A) (A) (A) (A) (A) (A) (A) (A) (A) (A)
                 (A) (A) (A) (A) (A) (A) (A) (A) (A) (A) (A) (A)
                 (A) (A) (A) (A) (A) (A) (A) (A) (A) (A) (A) (A)
                 (A) (A) (A) (A) (A) (A) (A) (A) (A) (A) (A) (A)
                 (A) (A) (A) (A) (A) (A) (A) (A) (A) (A) (A) (A)
                 (A) (A) (A) (A) (A) (A) (A) (A) (A) (A) (A) (A)
                 (A) (A) (A) (A) (A) (A) (A) (A) (A) (A) (A) (A)
                 (A) (A) (A) (A) (A) (A) (A) (A) (A) (A) (A) (A)
                 (A) (A) (A) (A) (A) (A) (A) (A) (A) (A) (A) (A)
                 (A) (A) (A) (A) (A) (A) (A) (A) (A) (A) (A) (A)
                 (A) (A) (A) (A) (A) (A) (A) (A) (A) (A) (A) (A)
                 (A) (A) (A) (A) (A) (A) (A) (A) (A) (A) (A) (A)
                 (A) (A) (A) (A) (A) (A) (A) (A) (A) (A) (A) (A)
                 (A) (A) (A) (A) (A) (A) (A) (A) (A) (A) (A) (A)
                 (A) (A) (A) (A) (A) (A) (A) (A) (A) (A) (A) (A)
                 (A) (A) (A) (A) (A) (A) (A) (A) (A) (A) (A) (A)
                 (A) (A) (A) (A) (A) (A) (A) (A) (A) (A) (A) (A)
                 (A) (A) (A) (A) (A) (A) (A) (A) (A) (A) (A) (A)
                 (A) (A) (A) (A) (A) (A) (A) (A) (A) (A) (A) (A)
                 (A) (A) (A) (A) (A) (A) (A) (A) (A) (A) (A) (A)
                 (A) (A) (A) (A) (A) (A) (A) (A) (A) (A) (A) (A)
                 (A) (A) (A) (A) (A) (A) (A) (A) (A) (A) (A) (A)
                 (A) (A) (A) (A) (A) (A) (A) (A) (A) (A) (A) (A)
                 (A) (A) (A) (A) (A) (A) (A) (A) (A) (A) (A) (A)
                 (A) (A) (A) (A) (A) (A) (A) (A) (A) (A) (A) (A)
                 (A) (A) (A) (A) (A) (A) (A) (A) (A) (A) (A) (A)
                 (A) (A) (A) (A) (A) (A) (A) (A) (A) (A) (A) (A)
                 (A) (A) (A) (A) (A) (A) (A) (A) (A) (A) (A) (A)
                 (A) (A) (A) (A) (A) (A) (A) (A) (A) (A) (A) (A)
                 (A) (A) (A) (A) (A) (A) (A) (A) (A) (A) (A) (A)
                 (A) (A) (A) (A) (A) (A) (A) (A) (A) (A) (A) (A)
                 (A) (A) (A) (A) (A) (A) (A) (A) (A) (A) (A) (A)
                 (A) (A) (A) (A) (A) (A) (A) (A) (A) (A) (A) (A)
                 (A) (A) (A) (A) (A) (A) (A) (A) (A) (A) (A) (A)
                 (A) (A) (A) (A) (A) (A) (A) (A) (A) (A) (A) (A)
                 (A) (A) (A) (A) (A) (A) (A) (A) (A) (A) (A) (A)
                 (A) (A) (A) (A) (A) (A) (A) (A) (A) (A) (A) (A)
                 (A) (A) (A) (A) (A) (A) (A) (A) (A) (A) (A) (A)
                 (A) (A) (A) (A) (A) (A) (A) (A) (A) (A) (A) (A)
                 (A) (A) (A) (A) (A) (A) (A) (A) (A) (A) (A) (A)
                 (A) (A) (A) (A) (A) (A) (A) (A) (A) (A) (A) (A)
                 (A) (A) (A) (A) (A) (A) (A) (A) (A) (A) (A) (A)
                 (A) (A) (A) (A) (A) (A) (A) (A) (A) (A) (A) (A)
                 (A) (A) (A) (A) (A) (A) (A) (A) (A) (A) (A) (A)
                 (A) (A) (A) (A) (A) (A) (A) (A) (A) (A) (A) (A)
                 (A) (A) (A) (A) (A) (A) (A) (A) (A) (A) (A) (A)
                 (A) (A) (A) (A) (A) (A) (A) (A) (A) (A) (A) (A)
                 (A) (A) (A) (A) (A) (A) (A) (A) (A) (A) (A) (A)
                 (A) (A) (A) (A) (A) (A) (A) (A) (A) (A) (A) (A)
                 (A) (A) (A) (A) (A) (A) (A) (A) (A) (A) (A) (A)
                 (A) (A) (A) (A) (A) (A) (A) (A) (A) (A) (A) (A)
                 (A) (A) (A) (A) (A) (A) (A) (A) (A) (A) (A) (A)
                 (A) (A) (A) (A) (A) (A) (A) (A) (A) (A) (A) (A)
                 (A) (A) (A) (A) (A) (A) (A) (A) (A) (A) (A) (A)
                 (A) (A) (A) (A) (A) (A) (A) (A) (A) (A) (A) (A)
                 (A) (A) (A) (A) (A) (A) (A) (A) (A) (A) (A) (A)
                 (A) (A) (A) (A) (A) (A) (A) (A) (A) (A) (A) (A)
                 (A) (A) (A) (A) (A) (A) (A) (A) (A) (A) (A) (A)
                 (A) (A) (A) (A) (A) (A) (A) (A) (A) (A) (A) (A)
                 (A) (A) (A) (A) (A) (A) (A) (A) (A) (A) (A) (A)
                 (A) (A) (A) (A) (A) (A) (A) (A) (A) (A) (A) (A)
                 (A) (A) (A) (A) (A) (A) (A) (A) (A) (A) (A) (A)
                 (A) (A) (A) (A) (A) (A) (A) (A) (A) (A) (A) (A)
                 (A) (A) (A) (A) (A) (A) (A) (A) (A) (A) (A) (A)
                 (A) (A) (A) (A) (A) (A) (A) (A) (A) (A) (A) (A)
                 (A) (A) (A) (A) (A) (A) (A) (A) (A) (A) (A) (A)
                 (A) (A) (A) (A) (A) (A) (A) (A) (A) (A) (A) (A)
                 (A) (A) (A) (A) (A) (A) (A) (A) (A) (A) (A) (A)
                 (A) (A) (A) (A) (A) (A) (A) (A) (A) (A) (A) (A)
                 (A) (A) (A) (A) (A) (A) (A) (A) (A) (A) (A) (A)
                 (A) (A) (A)
 The electronic state is 1-A.
 Alpha  occ. eigenvalues -- -145.36567 -19.17565 -19.17546 -19.15804 -19.15224
 Alpha  occ. eigenvalues --  -19.13174 -19.12517 -19.11785 -19.11346 -19.10106
 Alpha  occ. eigenvalues --  -19.06814 -19.06496 -19.06258 -19.06185 -19.06082
 Alpha  occ. eigenvalues --  -19.05942 -19.05820 -19.05333 -19.04901 -19.04871
 Alpha  occ. eigenvalues --  -19.03853 -19.02424 -19.02369 -19.01698 -15.42264
 Alpha  occ. eigenvalues --  -14.58105 -14.41201 -14.39041 -14.37722 -14.37125
 Alpha  occ. eigenvalues --  -14.37026 -14.35828 -14.32570 -14.32401 -14.32231
 Alpha  occ. eigenvalues --  -14.31354 -14.30735 -14.30175 -14.29910 -14.28055
 Alpha  occ. eigenvalues --  -12.55897 -12.55846 -12.55818 -10.34428 -10.33661
 Alpha  occ. eigenvalues --  -10.31710 -10.30923 -10.30206 -10.29895 -10.29119
 Alpha  occ. eigenvalues --  -10.28085 -10.27850 -10.27681 -10.25763 -10.25695
 Alpha  occ. eigenvalues --  -10.25436 -10.25264 -10.25229 -10.25180 -10.24892
 Alpha  occ. eigenvalues --  -10.24841 -10.24839 -10.24071 -10.24007 -10.23690
 Alpha  occ. eigenvalues --  -10.23643 -10.22878 -10.22727 -10.22430 -10.21912
 Alpha  occ. eigenvalues --  -10.21446 -10.21321 -10.21282 -10.20917 -10.20685
 Alpha  occ. eigenvalues --  -10.20181 -10.20100 -10.20071 -10.19189 -10.19098
 Alpha  occ. eigenvalues --  -10.19063 -10.18656 -10.18487 -10.18401 -10.18247
 Alpha  occ. eigenvalues --  -10.18061 -10.17940 -10.17905 -10.17729 -10.17727
 Alpha  occ. eigenvalues --  -10.17612 -10.17488 -10.17472 -10.16811 -10.16324
 Alpha  occ. eigenvalues --  -10.15326 -10.13531  -1.79051  -1.13498  -1.09078
 Alpha  occ. eigenvalues --   -1.06793  -1.06481  -1.06376  -1.05929  -1.05533
 Alpha  occ. eigenvalues --   -1.05457  -1.04728  -1.04262  -1.04069  -1.03293
 Alpha  occ. eigenvalues --   -1.02586  -1.01933  -1.00282  -0.99907  -0.99837
 Alpha  occ. eigenvalues --   -0.99519  -0.99024  -0.98680  -0.98366  -0.97889
 Alpha  occ. eigenvalues --   -0.97241  -0.96816  -0.95822  -0.95696  -0.94794
 Alpha  occ. eigenvalues --   -0.93767  -0.92903  -0.91972  -0.90617  -0.90076
 Alpha  occ. eigenvalues --   -0.89701  -0.89187  -0.88821  -0.88517  -0.88346
 Alpha  occ. eigenvalues --   -0.87635  -0.86981  -0.86844  -0.86545  -0.84621
 Alpha  occ. eigenvalues --   -0.84192  -0.83783  -0.82923  -0.80715  -0.80107
 Alpha  occ. eigenvalues --   -0.79383  -0.78880  -0.78474  -0.76697  -0.75675
 Alpha  occ. eigenvalues --   -0.75148  -0.74275  -0.73132  -0.73013  -0.72801
 Alpha  occ. eigenvalues --   -0.72679  -0.72077  -0.71480  -0.70897  -0.70821
 Alpha  occ. eigenvalues --   -0.70278  -0.69907  -0.69168  -0.68223  -0.67927
 Alpha  occ. eigenvalues --   -0.67030  -0.65869  -0.65447  -0.65029  -0.64333
 Alpha  occ. eigenvalues --   -0.63515  -0.63258  -0.62549  -0.62398  -0.61871
 Alpha  occ. eigenvalues --   -0.61268  -0.61041  -0.60704  -0.60606  -0.60416
 Alpha  occ. eigenvalues --   -0.59966  -0.59351  -0.59100  -0.58155  -0.58004
 Alpha  occ. eigenvalues --   -0.56987  -0.56794  -0.56712  -0.56333  -0.56229
 Alpha  occ. eigenvalues --   -0.55868  -0.55792  -0.55763  -0.55065  -0.54982
 Alpha  occ. eigenvalues --   -0.54630  -0.54515  -0.54160  -0.53745  -0.53612
 Alpha  occ. eigenvalues --   -0.53559  -0.52618  -0.52261  -0.52149  -0.52087
 Alpha  occ. eigenvalues --   -0.51532  -0.51297  -0.50870  -0.50392  -0.50212
 Alpha  occ. eigenvalues --   -0.49487  -0.49147  -0.49137  -0.48857  -0.48548
 Alpha  occ. eigenvalues --   -0.48406  -0.48307  -0.48073  -0.47824  -0.47775
 Alpha  occ. eigenvalues --   -0.47491  -0.47285  -0.47187  -0.46834  -0.46802
 Alpha  occ. eigenvalues --   -0.46278  -0.45927  -0.45798  -0.45660  -0.45591
 Alpha  occ. eigenvalues --   -0.45118  -0.44987  -0.44806  -0.44651  -0.44295
 Alpha  occ. eigenvalues --   -0.44159  -0.43974  -0.43866  -0.43819  -0.43751
 Alpha  occ. eigenvalues --   -0.43517  -0.43297  -0.43191  -0.43078  -0.42950
 Alpha  occ. eigenvalues --   -0.42899  -0.42708  -0.42574  -0.42184  -0.42069
 Alpha  occ. eigenvalues --   -0.41921  -0.41858  -0.41763  -0.41634  -0.41477
 Alpha  occ. eigenvalues --   -0.41300  -0.41262  -0.41194  -0.40898  -0.40764
 Alpha  occ. eigenvalues --   -0.40736  -0.40499  -0.40430  -0.40150  -0.39904
 Alpha  occ. eigenvalues --   -0.39724  -0.39640  -0.39542  -0.39294  -0.39004
 Alpha  occ. eigenvalues --   -0.38896  -0.38729  -0.38608  -0.38466  -0.38305
 Alpha  occ. eigenvalues --   -0.38183  -0.38047  -0.37865  -0.37827  -0.37665
 Alpha  occ. eigenvalues --   -0.37632  -0.37515  -0.37391  -0.37226  -0.37187
 Alpha  occ. eigenvalues --   -0.36976  -0.36792  -0.36651  -0.36618  -0.36259
 Alpha  occ. eigenvalues --   -0.35994  -0.35740  -0.35474  -0.35288  -0.35102
 Alpha  occ. eigenvalues --   -0.34734  -0.34621  -0.34587  -0.34430  -0.34331
 Alpha  occ. eigenvalues --   -0.34081  -0.33975  -0.33682  -0.33521  -0.33466
 Alpha  occ. eigenvalues --   -0.33275  -0.33235  -0.33109  -0.33039  -0.32860
 Alpha  occ. eigenvalues --   -0.32701  -0.32534  -0.32427  -0.32328  -0.32036
 Alpha  occ. eigenvalues --   -0.31948  -0.31372  -0.31291  -0.30790  -0.30771
 Alpha  occ. eigenvalues --   -0.30074  -0.29623  -0.29232  -0.29109  -0.28624
 Alpha  occ. eigenvalues --   -0.28199  -0.27736  -0.27621  -0.27064  -0.27021
 Alpha  occ. eigenvalues --   -0.26450  -0.25560  -0.25040  -0.24604  -0.24537
 Alpha  occ. eigenvalues --   -0.24260  -0.23691  -0.23659  -0.23501  -0.23174
 Alpha  occ. eigenvalues --   -0.22814  -0.22698  -0.22347  -0.21991  -0.21950
 Alpha  occ. eigenvalues --   -0.21676  -0.21412  -0.21133  -0.20901  -0.20868
 Alpha  occ. eigenvalues --   -0.20731  -0.20299  -0.20004  -0.19897  -0.19752
 Alpha  occ. eigenvalues --   -0.18065  -0.17973  -0.16829
 Alpha virt. eigenvalues --   -0.09994  -0.04276  -0.03746  -0.03515  -0.02802
 Alpha virt. eigenvalues --   -0.02354  -0.01553  -0.00776  -0.00365  -0.00294
 Alpha virt. eigenvalues --    0.00012   0.00267   0.00587   0.01001   0.01769
 Alpha virt. eigenvalues --    0.01990   0.02432   0.03336   0.03720   0.03958
 Alpha virt. eigenvalues --    0.04288   0.04367   0.04581   0.04716   0.04999
 Alpha virt. eigenvalues --    0.05064   0.05126   0.05296   0.05347   0.05761
 Alpha virt. eigenvalues --    0.06069   0.06280   0.06397   0.06527   0.06805
 Alpha virt. eigenvalues --    0.07136   0.07162   0.07267   0.07513   0.07703
 Alpha virt. eigenvalues --    0.07777   0.08170   0.08226   0.08588   0.08675
 Alpha virt. eigenvalues --    0.08957   0.09213   0.09307   0.09428   0.09733
 Alpha virt. eigenvalues --    0.09897   0.09984   0.10239   0.10363   0.10477
 Alpha virt. eigenvalues --    0.10870   0.10918   0.11207   0.11434   0.11523
 Alpha virt. eigenvalues --    0.11687   0.11964   0.12112   0.12435   0.12577
 Alpha virt. eigenvalues --    0.12628   0.12818   0.13147   0.13482   0.13598
 Alpha virt. eigenvalues --    0.13777   0.13923   0.14072   0.14514   0.14644
 Alpha virt. eigenvalues --    0.14834   0.15009   0.15253   0.15436   0.15516
 Alpha virt. eigenvalues --    0.15603   0.15714   0.16006   0.16195   0.16292
 Alpha virt. eigenvalues --    0.16438   0.16569   0.16822   0.16919   0.17139
 Alpha virt. eigenvalues --    0.17368   0.17516   0.17670   0.17859   0.17995
 Alpha virt. eigenvalues --    0.18006   0.18362   0.18518   0.18661   0.18679
 Alpha virt. eigenvalues --    0.18914   0.19097   0.19163   0.19437   0.19497
 Alpha virt. eigenvalues --    0.19659   0.19994   0.20090   0.20234   0.20476
 Alpha virt. eigenvalues --    0.20855   0.20992   0.21174   0.21554   0.21829
 Alpha virt. eigenvalues --    0.21998   0.22085   0.22188   0.22391   0.22525
 Alpha virt. eigenvalues --    0.22856   0.22973   0.23158   0.23343   0.23556
 Alpha virt. eigenvalues --    0.23671   0.23853   0.24083   0.24232   0.24494
 Alpha virt. eigenvalues --    0.24544   0.24679   0.24862   0.25445   0.25620
 Alpha virt. eigenvalues --    0.25862   0.25968   0.26043   0.26133   0.26443
 Alpha virt. eigenvalues --    0.26782   0.26831   0.27606   0.27732   0.28002
 Alpha virt. eigenvalues --    0.28034   0.28214   0.28550   0.28706   0.28960
 Alpha virt. eigenvalues --    0.29214   0.29349   0.29820   0.30032   0.30208
 Alpha virt. eigenvalues --    0.30350   0.30600   0.30711   0.31213   0.31433
 Alpha virt. eigenvalues --    0.31736   0.31944   0.32082   0.32298   0.32790
 Alpha virt. eigenvalues --    0.32944   0.33102   0.33547   0.33659   0.33804
 Alpha virt. eigenvalues --    0.34373   0.34841   0.35159   0.35468   0.35726
 Alpha virt. eigenvalues --    0.35762   0.36032   0.36219   0.36290   0.36742
 Alpha virt. eigenvalues --    0.36865   0.37181   0.37554   0.37983   0.38350
 Alpha virt. eigenvalues --    0.38744   0.38943   0.39023   0.39313   0.39612
 Alpha virt. eigenvalues --    0.39801   0.39849   0.40106   0.40335   0.40854
 Alpha virt. eigenvalues --    0.40966   0.41198   0.41694   0.41962   0.42183
 Alpha virt. eigenvalues --    0.42286   0.42545   0.42713   0.43131   0.43234
 Alpha virt. eigenvalues --    0.43333   0.43507   0.43686   0.43940   0.44068
 Alpha virt. eigenvalues --    0.44428   0.44851   0.45024   0.45187   0.45352
 Alpha virt. eigenvalues --    0.45529   0.45707   0.45829   0.45897   0.46142
 Alpha virt. eigenvalues --    0.46412   0.46479   0.46783   0.46989   0.47207
 Alpha virt. eigenvalues --    0.47344   0.47462   0.47766   0.48137   0.48337
 Alpha virt. eigenvalues --    0.48518   0.48637   0.48962   0.48990   0.49090
 Alpha virt. eigenvalues --    0.49423   0.49488   0.49600   0.49976   0.49998
 Alpha virt. eigenvalues --    0.50385   0.50552   0.50617   0.51113   0.51160
 Alpha virt. eigenvalues --    0.51372   0.51471   0.51690   0.52018   0.52190
 Alpha virt. eigenvalues --    0.52426   0.52524   0.52962   0.53333   0.53503
 Alpha virt. eigenvalues --    0.53607   0.53712   0.53973   0.54125   0.54293
 Alpha virt. eigenvalues --    0.54529   0.54651   0.54925   0.55091   0.55130
 Alpha virt. eigenvalues --    0.55242   0.55342   0.55543   0.55635   0.55909
 Alpha virt. eigenvalues --    0.55982   0.56309   0.56420   0.56538   0.56613
 Alpha virt. eigenvalues --    0.56930   0.57019   0.57192   0.57265   0.57596
 Alpha virt. eigenvalues --    0.57805   0.57858   0.58271   0.58435   0.58568
 Alpha virt. eigenvalues --    0.58759   0.59038   0.59180   0.59300   0.59400
 Alpha virt. eigenvalues --    0.59612   0.59647   0.59899   0.60041   0.60195
 Alpha virt. eigenvalues --    0.60400   0.60561   0.60680   0.60758   0.60930
 Alpha virt. eigenvalues --    0.60976   0.61198   0.61264   0.61496   0.61550
 Alpha virt. eigenvalues --    0.61769   0.61808   0.62071   0.62205   0.62443
 Alpha virt. eigenvalues --    0.62532   0.62699   0.62772   0.62927   0.63056
 Alpha virt. eigenvalues --    0.63186   0.63391   0.63469   0.63590   0.63786
 Alpha virt. eigenvalues --    0.63852   0.63985   0.64093   0.64307   0.64370
 Alpha virt. eigenvalues --    0.64520   0.64618   0.64735   0.64835   0.64911
 Alpha virt. eigenvalues --    0.64974   0.65184   0.65244   0.65394   0.65465
 Alpha virt. eigenvalues --    0.65653   0.65780   0.65865   0.66000   0.66098
 Alpha virt. eigenvalues --    0.66328   0.66414   0.66619   0.66698   0.66868
 Alpha virt. eigenvalues --    0.66908   0.67083   0.67142   0.67185   0.67269
 Alpha virt. eigenvalues --    0.67381   0.67611   0.67690   0.67827   0.67845
 Alpha virt. eigenvalues --    0.67997   0.68149   0.68311   0.68346   0.68556
 Alpha virt. eigenvalues --    0.68624   0.68710   0.68931   0.68980   0.69171
 Alpha virt. eigenvalues --    0.69315   0.69370   0.69570   0.69690   0.69773
 Alpha virt. eigenvalues --    0.69892   0.69955   0.70115   0.70205   0.70359
 Alpha virt. eigenvalues --    0.70625   0.70697   0.70787   0.70911   0.70963
 Alpha virt. eigenvalues --    0.71196   0.71417   0.71543   0.71609   0.71760
 Alpha virt. eigenvalues --    0.72035   0.72203   0.72233   0.72398   0.72594
 Alpha virt. eigenvalues --    0.72729   0.72862   0.73047   0.73306   0.73412
 Alpha virt. eigenvalues --    0.73554   0.73632   0.73910   0.73936   0.74175
 Alpha virt. eigenvalues --    0.74306   0.74348   0.74476   0.74702   0.74884
 Alpha virt. eigenvalues --    0.75085   0.75128   0.75247   0.75421   0.75573
 Alpha virt. eigenvalues --    0.75890   0.75967   0.76342   0.76501   0.76974
 Alpha virt. eigenvalues --    0.76989   0.77367   0.77455   0.77639   0.78309
 Alpha virt. eigenvalues --    0.78369   0.78431   0.78629   0.78747   0.79184
 Alpha virt. eigenvalues --    0.79359   0.79646   0.79849   0.80066   0.80500
 Alpha virt. eigenvalues --    0.80687   0.81021   0.81088   0.81172   0.81542
 Alpha virt. eigenvalues --    0.81699   0.81950   0.82222   0.82574   0.82796
 Alpha virt. eigenvalues --    0.82857   0.83469   0.83722   0.83846   0.84371
 Alpha virt. eigenvalues --    0.84535   0.84612   0.85214   0.85366   0.85590
 Alpha virt. eigenvalues --    0.86203   0.86316   0.86627   0.86830   0.87350
 Alpha virt. eigenvalues --    0.87749   0.88018   0.88420   0.88733   0.88886
 Alpha virt. eigenvalues --    0.89173   0.89368   0.89761   0.90061   0.90217
 Alpha virt. eigenvalues --    0.90317   0.90966   0.91109   0.91647   0.91956
 Alpha virt. eigenvalues --    0.92272   0.92333   0.92977   0.93028   0.93484
 Alpha virt. eigenvalues --    0.93743   0.94117   0.94331   0.94767   0.95042
 Alpha virt. eigenvalues --    0.95405   0.95515   0.95661   0.95845   0.96004
 Alpha virt. eigenvalues --    0.96287   0.96478   0.96878   0.97147   0.97531
 Alpha virt. eigenvalues --    0.97705   0.98132   0.98152   0.98206   0.98503
 Alpha virt. eigenvalues --    0.99008   0.99168   0.99296   0.99449   0.99849
 Alpha virt. eigenvalues --    0.99946   1.00171   1.00389   1.00629   1.00788
 Alpha virt. eigenvalues --    1.00858   1.01127   1.01685   1.02285   1.02506
 Alpha virt. eigenvalues --    1.02648   1.03028   1.03227   1.03378   1.03894
 Alpha virt. eigenvalues --    1.04135   1.04278   1.04586   1.04732   1.05121
 Alpha virt. eigenvalues --    1.05948   1.06035   1.06544   1.06829   1.06979
 Alpha virt. eigenvalues --    1.07407   1.07638   1.07972   1.08266   1.08480
 Alpha virt. eigenvalues --    1.08778   1.09294   1.09345   1.09617   1.09836
 Alpha virt. eigenvalues --    1.09892   1.10329   1.10634   1.10996   1.11347
 Alpha virt. eigenvalues --    1.11703   1.12216   1.12397   1.12646   1.12761
 Alpha virt. eigenvalues --    1.13055   1.13522   1.13782   1.13852   1.14214
 Alpha virt. eigenvalues --    1.14484   1.14845   1.15190   1.15476   1.15919
 Alpha virt. eigenvalues --    1.16118   1.16204   1.16533   1.16783   1.16964
 Alpha virt. eigenvalues --    1.17460   1.17875   1.17943   1.18095   1.18417
 Alpha virt. eigenvalues --    1.18925   1.18990   1.19304   1.19572   1.19583
 Alpha virt. eigenvalues --    1.19831   1.20142   1.20529   1.20669   1.20791
 Alpha virt. eigenvalues --    1.21363   1.21650   1.21725   1.21865   1.22248
 Alpha virt. eigenvalues --    1.22373   1.22762   1.22933   1.23104   1.23926
 Alpha virt. eigenvalues --    1.24037   1.24219   1.24385   1.24897   1.25165
 Alpha virt. eigenvalues --    1.25376   1.25626   1.25746   1.26029   1.26427
 Alpha virt. eigenvalues --    1.26840   1.27031   1.27205   1.27303   1.27373
 Alpha virt. eigenvalues --    1.27742   1.27822   1.28161   1.28516   1.28712
 Alpha virt. eigenvalues --    1.29131   1.29450   1.29594   1.29884   1.30219
 Alpha virt. eigenvalues --    1.30357   1.30419   1.30865   1.31092   1.31335
 Alpha virt. eigenvalues --    1.31645   1.31937   1.32285   1.32446   1.32914
 Alpha virt. eigenvalues --    1.33377   1.33600   1.33768   1.34036   1.34564
 Alpha virt. eigenvalues --    1.34905   1.35171   1.35419   1.35820   1.36053
 Alpha virt. eigenvalues --    1.36260   1.36572   1.36879   1.37258   1.37411
 Alpha virt. eigenvalues --    1.37694   1.37983   1.38160   1.38570   1.38896
 Alpha virt. eigenvalues --    1.39107   1.39309   1.39477   1.39592   1.39831
 Alpha virt. eigenvalues --    1.40213   1.40512   1.40824   1.40917   1.41214
 Alpha virt. eigenvalues --    1.41375   1.41637   1.41917   1.42340   1.42495
 Alpha virt. eigenvalues --    1.42782   1.43165   1.43476   1.43564   1.43826
 Alpha virt. eigenvalues --    1.44265   1.44536   1.44726   1.44952   1.45269
 Alpha virt. eigenvalues --    1.45457   1.45748   1.46300   1.46674   1.46855
 Alpha virt. eigenvalues --    1.47278   1.47777   1.47856   1.48143   1.48406
 Alpha virt. eigenvalues --    1.48442   1.48851   1.49105   1.49293   1.49525
 Alpha virt. eigenvalues --    1.49742   1.50006   1.50339   1.50566   1.50682
 Alpha virt. eigenvalues --    1.51103   1.51725   1.51894   1.52102   1.52300
 Alpha virt. eigenvalues --    1.53173   1.53252   1.53451   1.53693   1.53777
 Alpha virt. eigenvalues --    1.54026   1.54372   1.54544   1.54748   1.55208
 Alpha virt. eigenvalues --    1.55483   1.55783   1.56118   1.56408   1.56872
 Alpha virt. eigenvalues --    1.57128   1.58011   1.58369   1.58703   1.58814
 Alpha virt. eigenvalues --    1.59324   1.59458   1.59875   1.60002   1.60389
 Alpha virt. eigenvalues --    1.60888   1.61439   1.61583   1.61849   1.62120
 Alpha virt. eigenvalues --    1.62166   1.62343   1.63046   1.63437   1.63563
 Alpha virt. eigenvalues --    1.63800   1.64024   1.64697   1.65179   1.65402
 Alpha virt. eigenvalues --    1.65621   1.65948   1.66057   1.66576   1.66862
 Alpha virt. eigenvalues --    1.67430   1.67740   1.67862   1.68409   1.68621
 Alpha virt. eigenvalues --    1.69038   1.69445   1.69594   1.70027   1.70354
 Alpha virt. eigenvalues --    1.70519   1.70771   1.70872   1.71137   1.71418
 Alpha virt. eigenvalues --    1.71729   1.71893   1.72278   1.72300   1.72474
 Alpha virt. eigenvalues --    1.72599   1.72749   1.72967   1.73157   1.73349
 Alpha virt. eigenvalues --    1.73489   1.73786   1.73845   1.74051   1.74222
 Alpha virt. eigenvalues --    1.74293   1.74475   1.74700   1.74792   1.74867
 Alpha virt. eigenvalues --    1.75183   1.75576   1.75689   1.75805   1.75902
 Alpha virt. eigenvalues --    1.76260   1.76385   1.76638   1.76682   1.76991
 Alpha virt. eigenvalues --    1.77101   1.77357   1.77456   1.77621   1.77875
 Alpha virt. eigenvalues --    1.78017   1.78317   1.78362   1.78630   1.78810
 Alpha virt. eigenvalues --    1.78878   1.79049   1.79335   1.79746   1.80021
 Alpha virt. eigenvalues --    1.80045   1.80322   1.80474   1.80630   1.80733
 Alpha virt. eigenvalues --    1.80817   1.80851   1.80973   1.81068   1.81170
 Alpha virt. eigenvalues --    1.81227   1.81388   1.81580   1.81724   1.81941
 Alpha virt. eigenvalues --    1.82125   1.82267   1.82478   1.82579   1.82708
 Alpha virt. eigenvalues --    1.82909   1.82993   1.83279   1.83310   1.83500
 Alpha virt. eigenvalues --    1.83591   1.84047   1.84402   1.84594   1.84840
 Alpha virt. eigenvalues --    1.85121   1.85269   1.85415   1.85494   1.85944
 Alpha virt. eigenvalues --    1.86134   1.86322   1.86393   1.86659   1.86844
 Alpha virt. eigenvalues --    1.86924   1.87145   1.87182   1.87358   1.87591
 Alpha virt. eigenvalues --    1.87947   1.88144   1.88345   1.88385   1.88542
 Alpha virt. eigenvalues --    1.89025   1.89236   1.89440   1.89633   1.89785
 Alpha virt. eigenvalues --    1.90136   1.90181   1.90277   1.90644   1.90787
 Alpha virt. eigenvalues --    1.90911   1.90950   1.91427   1.91713   1.91875
 Alpha virt. eigenvalues --    1.92261   1.92315   1.92427   1.92695   1.93185
 Alpha virt. eigenvalues --    1.93373   1.93488   1.93825   1.94030   1.94075
 Alpha virt. eigenvalues --    1.94258   1.94554   1.94960   1.95036   1.95336
 Alpha virt. eigenvalues --    1.95561   1.95868   1.96016   1.96279   1.96362
 Alpha virt. eigenvalues --    1.96413   1.97076   1.97343   1.97415   1.97603
 Alpha virt. eigenvalues --    1.97960   1.98207   1.98531   1.98638   1.98792
 Alpha virt. eigenvalues --    1.98864   1.99399   1.99454   1.99653   1.99875
 Alpha virt. eigenvalues --    2.00075   2.00294   2.00637   2.00898   2.01034
 Alpha virt. eigenvalues --    2.01380   2.01518   2.01629   2.01712   2.02159
 Alpha virt. eigenvalues --    2.02264   2.02461   2.02664   2.02841   2.03257
 Alpha virt. eigenvalues --    2.03733   2.03955   2.04386   2.04730   2.05118
 Alpha virt. eigenvalues --    2.05220   2.05256   2.05607   2.05702   2.05876
 Alpha virt. eigenvalues --    2.06304   2.06634   2.06857   2.07046   2.07341
 Alpha virt. eigenvalues --    2.07679   2.07841   2.08163   2.08362   2.08531
 Alpha virt. eigenvalues --    2.08933   2.09169   2.09362   2.09581   2.09956
 Alpha virt. eigenvalues --    2.10304   2.10547   2.10988   2.11046   2.11412
 Alpha virt. eigenvalues --    2.11785   2.11990   2.12087   2.12326   2.12513
 Alpha virt. eigenvalues --    2.13045   2.13265   2.13447   2.13646   2.13896
 Alpha virt. eigenvalues --    2.14248   2.14507   2.14563   2.14700   2.15809
 Alpha virt. eigenvalues --    2.16000   2.16031   2.16417   2.16817   2.16881
 Alpha virt. eigenvalues --    2.17065   2.17102   2.17512   2.17579   2.17911
 Alpha virt. eigenvalues --    2.18270   2.18425   2.18563   2.18723   2.18960
 Alpha virt. eigenvalues --    2.19389   2.19733   2.19960   2.20300   2.20639
 Alpha virt. eigenvalues --    2.20875   2.21257   2.21695   2.22095   2.22361
 Alpha virt. eigenvalues --    2.22511   2.22809   2.23141   2.23469   2.23680
 Alpha virt. eigenvalues --    2.23886   2.24047   2.24145   2.24504   2.25084
 Alpha virt. eigenvalues --    2.25781   2.25795   2.26028   2.26553   2.26845
 Alpha virt. eigenvalues --    2.27332   2.27741   2.28532   2.28567   2.28770
 Alpha virt. eigenvalues --    2.29114   2.29333   2.29453   2.30081   2.30348
 Alpha virt. eigenvalues --    2.31475   2.31650   2.32331   2.32763   2.33197
 Alpha virt. eigenvalues --    2.33258   2.33407   2.33722   2.33960   2.34182
 Alpha virt. eigenvalues --    2.34448   2.34563   2.35201   2.35482   2.35843
 Alpha virt. eigenvalues --    2.36430   2.36661   2.36896   2.36994   2.37252
 Alpha virt. eigenvalues --    2.37392   2.38084   2.38193   2.38447   2.38642
 Alpha virt. eigenvalues --    2.39037   2.39369   2.39521   2.39962   2.40183
 Alpha virt. eigenvalues --    2.40487   2.40987   2.41245   2.41967   2.42233
 Alpha virt. eigenvalues --    2.42912   2.43329   2.43594   2.44049   2.44298
 Alpha virt. eigenvalues --    2.44430   2.44718   2.44884   2.45127   2.45672
 Alpha virt. eigenvalues --    2.45802   2.46295   2.46805   2.47302   2.47415
 Alpha virt. eigenvalues --    2.47815   2.48085   2.48190   2.48342   2.48612
 Alpha virt. eigenvalues --    2.49051   2.49362   2.49439   2.49640   2.50253
 Alpha virt. eigenvalues --    2.50625   2.50931   2.51629   2.52018   2.52198
 Alpha virt. eigenvalues --    2.52310   2.52928   2.53560   2.53693   2.54032
 Alpha virt. eigenvalues --    2.54376   2.54529   2.54600   2.54749   2.55308
 Alpha virt. eigenvalues --    2.55450   2.55901   2.56164   2.56324   2.57170
 Alpha virt. eigenvalues --    2.57655   2.57940   2.58351   2.58462   2.58601
 Alpha virt. eigenvalues --    2.58746   2.59213   2.59563   2.59794   2.59984
 Alpha virt. eigenvalues --    2.60561   2.60900   2.61085   2.61204   2.61273
 Alpha virt. eigenvalues --    2.62069   2.62323   2.62517   2.62585   2.62919
 Alpha virt. eigenvalues --    2.63032   2.63589   2.63906   2.64326   2.64530
 Alpha virt. eigenvalues --    2.64881   2.65122   2.65657   2.65827   2.66368
 Alpha virt. eigenvalues --    2.66404   2.66839   2.66992   2.67338   2.67553
 Alpha virt. eigenvalues --    2.67940   2.68229   2.68280   2.68816   2.68998
 Alpha virt. eigenvalues --    2.69289   2.69425   2.69617   2.70199   2.70784
 Alpha virt. eigenvalues --    2.70865   2.71223   2.71324   2.71599   2.71902
 Alpha virt. eigenvalues --    2.72320   2.72671   2.73098   2.73285   2.73520
 Alpha virt. eigenvalues --    2.73854   2.74281   2.74511   2.74780   2.75145
 Alpha virt. eigenvalues --    2.75342   2.75744   2.75812   2.76061   2.76193
 Alpha virt. eigenvalues --    2.76294   2.76587   2.76840   2.77018   2.77315
 Alpha virt. eigenvalues --    2.77560   2.78470   2.78552   2.78708   2.78902
 Alpha virt. eigenvalues --    2.79290   2.79750   2.79966   2.80002   2.80358
 Alpha virt. eigenvalues --    2.80460   2.80654   2.80859   2.80907   2.81149
 Alpha virt. eigenvalues --    2.81290   2.81717   2.82325   2.82504   2.83231
 Alpha virt. eigenvalues --    2.83595   2.84002   2.84104   2.84371   2.84437
 Alpha virt. eigenvalues --    2.84669   2.84958   2.85117   2.85383   2.85848
 Alpha virt. eigenvalues --    2.86086   2.86101   2.86307   2.86528   2.87690
 Alpha virt. eigenvalues --    2.87888   2.88386   2.88545   2.88782   2.89179
 Alpha virt. eigenvalues --    2.89745   2.90008   2.90155   2.90243   2.90654
 Alpha virt. eigenvalues --    2.91031   2.91293   2.91568   2.91695   2.92223
 Alpha virt. eigenvalues --    2.92475   2.92938   2.93121   2.93321   2.93423
 Alpha virt. eigenvalues --    2.93812   2.94034   2.94478   2.94717   2.95092
 Alpha virt. eigenvalues --    2.95163   2.95681   2.95827   2.96293   2.96540
 Alpha virt. eigenvalues --    2.96907   2.97225   2.97401   2.97632   2.97827
 Alpha virt. eigenvalues --    2.98163   2.98426   2.98909   2.98962   2.99219
 Alpha virt. eigenvalues --    2.99852   3.00279   3.00471   3.00572   3.00897
 Alpha virt. eigenvalues --    3.01076   3.01456   3.01736   3.02600   3.03308
 Alpha virt. eigenvalues --    3.03738   3.03907   3.04467   3.04617   3.05174
 Alpha virt. eigenvalues --    3.05396   3.05707   3.05771   3.05963   3.06925
 Alpha virt. eigenvalues --    3.07133   3.07223   3.07581   3.08122   3.09731
 Alpha virt. eigenvalues --    3.09797   3.10534   3.11095   3.11462   3.11733
 Alpha virt. eigenvalues --    3.12624   3.12985   3.13328   3.13846   3.14038
 Alpha virt. eigenvalues --    3.14333   3.14733   3.15190   3.15382   3.16251
 Alpha virt. eigenvalues --    3.16779   3.16832   3.17454   3.17664   3.18275
 Alpha virt. eigenvalues --    3.18508   3.18901   3.19441   3.19962   3.20239
 Alpha virt. eigenvalues --    3.20544   3.20812   3.21203   3.21332   3.21522
 Alpha virt. eigenvalues --    3.21924   3.22253   3.22336   3.22727   3.23089
 Alpha virt. eigenvalues --    3.23251   3.23653   3.24064   3.24114   3.24953
 Alpha virt. eigenvalues --    3.25197   3.25744   3.26065   3.27185   3.28671
 Alpha virt. eigenvalues --    3.28719   3.29996   3.30078   3.30409   3.30614
 Alpha virt. eigenvalues --    3.31262   3.31612   3.33262   3.34681   3.35175
 Alpha virt. eigenvalues --    3.36152   3.37247   3.37542   3.39354   3.40345
 Alpha virt. eigenvalues --    3.41951   3.43633   3.47314   3.50097   3.50520
 Alpha virt. eigenvalues --    3.51039   3.52079   3.52825   3.53421   3.54339
 Alpha virt. eigenvalues --    3.54607   3.59468   3.60470   3.61053   3.61201
 Alpha virt. eigenvalues --    3.61450   3.61875   3.63866   3.64151   3.64574
 Alpha virt. eigenvalues --    3.64678   3.65788   3.66152   3.67754   3.68458
 Alpha virt. eigenvalues --    3.69154   3.69325   3.69561   3.69889   3.70115
 Alpha virt. eigenvalues --    3.70832   3.71172   3.71676   3.72409   3.72607
 Alpha virt. eigenvalues --    3.73038   3.73754   3.74411   3.74631   3.75608
 Alpha virt. eigenvalues --    3.78239   3.79759   3.80235   3.82646
          Condensed to atoms (all electrons):
 Mulliken charges:
               1
     1  C    0.047046
     2  C    0.025142
     3  O   -0.286086
     4  H    0.033845
     5  H    0.028601
     6  H    0.016839
     7  N   -0.128600
     8  C    0.113387
     9  C    0.096582
    10  O   -0.288561
    11  C    0.060356
    12  C    0.164909
    13  O   -0.493455
    14  O   -0.368472
    15  H    0.112870
    16  H   -0.002921
    17  H    0.021448
    18  H   -0.001689
    19  N   -0.157211
    20  C    0.173964
    21  C    0.056303
    22  O   -0.299393
    23  C   -0.056468
    24  C    0.097545
    25  C   -0.148389
    26  C    0.090238
    27  N    0.080202
    28  H    0.157788
    29  H    0.000028
    30  H    0.035249
    31  H    0.026140
    32  H    0.008921
    33  H    0.025119
    34  H    0.028232
    35  H    0.032913
    36  H    0.082666
    37  H    0.078061
    38  H    0.179689
    39  H    0.186432
    40  H    0.195281
    41  N   -0.145650
    42  C    0.075215
    43  C    0.060158
    44  O   -0.301696
    45  C    0.198690
    46  C    0.027496
    47  O   -0.392503
    48  O   -0.407963
    49  H    0.155840
    50  H    0.016248
    51  H   -0.037265
    52  H   -0.004484
    53  N   -0.183108
    54  C    0.238881
    55  C    0.020070
    56  O   -0.296254
    57  H    0.159906
    58  H    0.023958
    59  H    0.027737
    60  N   -0.168253
    61  C    0.130150
    62  C    0.020848
    63  O   -0.300057
    64  C    0.105690
    65  C    0.073841
    66  N   -0.054541
    67  O   -0.328695
    68  H    0.158338
    69  H    0.031605
    70  H    0.067441
    71  H   -0.011141
    72  H    0.133639
    73  H    0.108940
    74  N   -0.160124
    75  C    0.246845
    76  C    0.007540
    77  O   -0.294265
    78  H    0.163333
    79  H    0.036772
    80  H    0.028464
    81  N   -0.122742
    82  C    0.140205
    83  C    0.148254
    84  O   -0.342281
    85  C    0.096082
    86  C    0.014757
    87  C   -0.010248
    88  C    0.007418
    89  C   -0.037804
    90  C   -0.031468
    91  C    0.171026
    92  O   -0.191127
    93  H    0.130131
    94  H   -0.008994
    95  H   -0.022909
    96  H   -0.038488
    97  H   -0.039800
    98  H   -0.032657
    99  H   -0.035797
   100  H   -0.041395
   101  H    0.170633
   102  N   -0.108722
   103  C    0.083304
   104  C    0.082363
   105  O   -0.293637
   106  C   -0.058691
   107  C    0.016713
   108  C    0.046308
   109  C    0.034203
   110  H    0.141349
   111  H    0.040830
   112  H   -0.026664
   113  H    0.002297
   114  H    0.022826
   115  H   -0.010702
   116  H    0.036544
   117  H    0.005793
   118  H    0.000865
   119  H   -0.004621
   120  H    0.020393
   121  N   -0.131790
   122  C    0.103491
   123  C    0.067860
   124  O   -0.291093
   125  C    0.237365
   126  O   -0.288162
   127  H    0.157184
   128  H    0.031558
   129  H    0.018858
   130  H   -0.034700
   131  H    0.180508
   132  N   -0.116667
   133  C    0.088963
   134  C    0.081078
   135  O   -0.243386
   136  C    0.014269
   137  H    0.124752
   138  H    0.026834
   139  H    0.015493
   140  H    0.027208
   141  H    0.037294
   142  N   -0.127215
   143  C    0.086208
   144  C    0.072933
   145  O   -0.297443
   146  C    0.018455
   147  H    0.099895
   148  H    0.021860
   149  H    0.011261
   150  H    0.026106
   151  H    0.004723
   152  N   -0.144098
   153  C    0.129254
   154  C    0.099923
   155  O   -0.285012
   156  C   -0.040689
   157  C    0.130345
   158  C    0.129472
   159  O   -0.394862
   160  O   -0.467877
   161  H    0.139659
   162  H   -0.014492
   163  H    0.049036
   164  H   -0.008752
   165  H   -0.027182
   166  H   -0.027374
   167  N   -0.169195
   168  C    0.152616
   169  H    0.024643
   170  H    0.037544
   171  H   -0.001303
   172  H    0.111555
   173  Ca   1.258634
   174  O   -0.253881
   175  H    0.177954
   176  H    0.160637
 Sum of Mulliken charges =  -0.00000
 Mulliken charges with hydrogens summed into heavy atoms:
               1
     1  C    0.126332
     2  C    0.025142
     3  O   -0.286086
     7  N   -0.015730
     8  C    0.110466
     9  C    0.096582
    10  O   -0.288561
    11  C    0.080114
    12  C    0.164909
    13  O   -0.493455
    14  O   -0.368472
    19  N    0.000577
    20  C    0.173992
    21  C    0.056303
    22  O   -0.299393
    23  C    0.004921
    24  C    0.131585
    25  C   -0.087244
    26  C    0.250965
    27  N    0.641605
    41  N    0.010190
    42  C    0.091462
    43  C    0.060158
    44  O   -0.301696
    45  C    0.156941
    46  C    0.027496
    47  O   -0.392503
    48  O   -0.407963
    53  N   -0.023201
    54  C    0.290576
    55  C    0.020070
    56  O   -0.296254
    60  N   -0.009915
    61  C    0.161755
    62  C    0.020848
    63  O   -0.300057
    64  C    0.161990
    65  C    0.073841
    66  N    0.188037
    67  O   -0.328695
    74  N    0.003209
    75  C    0.312082
    76  C    0.007540
    77  O   -0.294265
    81  N    0.007389
    82  C    0.131211
    83  C    0.148254
    84  O   -0.342281
    85  C    0.034684
    86  C    0.014757
    87  C   -0.050048
    88  C   -0.025239
    89  C   -0.073600
    90  C   -0.072864
    91  C    0.171026
    92  O   -0.020494
   102  N    0.032627
   103  C    0.124135
   104  C    0.082363
   105  O   -0.293637
   106  C   -0.085355
   107  C    0.041836
   108  C    0.077944
   109  C    0.050839
   121  N    0.025394
   122  C    0.135049
   123  C    0.067860
   124  O   -0.291093
   125  C    0.221523
   126  O   -0.107654
   132  N    0.008085
   133  C    0.115797
   134  C    0.081078
   135  O   -0.243386
   136  C    0.094264
   142  N   -0.027321
   143  C    0.108067
   144  C    0.072933
   145  O   -0.297443
   146  C    0.060545
   152  N   -0.004439
   153  C    0.114762
   154  C    0.099923
   155  O   -0.285012
   156  C   -0.000404
   157  C    0.075790
   158  C    0.129472
   159  O   -0.394862
   160  O   -0.467877
   167  N   -0.057641
   168  C    0.213501
   173  Ca   1.258634
   174  O    0.084709
 DipInt: DoE/N= T F RetVal/Mat= T F Init=T NMatP=  1 IDeriv=0 Min/MaxMlt=  0  4
 Entering OneElI...
 OneElI was handed  1333951383 working-precision words.
 Multipole integrals L=0 to 4 MinM= 0 MaxM= 0.
 Requested accuracy = 0.1000D-12
 ShPair: Thresh= 1.00D-13 NBox=     0 BxSize= 0.00D+00 RnKept= 2.55D+01
         NSMCal=               327645 NSMKep=              160960
 PrmmSu-InSpLW:  IPartL=    0 NPrtUS=    1 NPrtUL=    1 DoSpLW=F IThBeg=    0 IThEnd=    0 NThAct=    1.
 PrsmSu:  NPrtUS=   1 ThrOK=F IAlg=1 NPAlg=1 LenDen=           0 ISkipM=0 DoSpLW=F IThBeg=    0 IThEnd=    0.
 Prism:   IPart=     0 DynPar=F LinDyn=F Incr=         512.
 PRISM was handed  1323871835 working-precision words and160960 shell-pairs
 IPart=  0 NShTot=      160960 NBatch=         367 AvBLen=       438.6
 PrsmSu-ThDecC:  IPartSL=    0    0 NPrtUSL=    1    1 IThBeg=    0 IThEnd=    0 CPU=   -1 GPU=   -1 NThAct=    1.
 PrSmSu:  NxtVal=            513.
 Electronic moments (au):
       -716.00000000         12.24941333         -3.15706726         -9.96226257
     -52264.45763690     -29875.44349004     -12467.97396359         70.69335276
        -61.15619552        -42.39852362     -50014.54942370     -12897.93261140
     -27388.37966397      28571.91446549      90206.22960483      56599.77061741
     -17158.42789467       1114.10523170      27057.23917471      15391.05436773
   -7529418.19507369   -2746646.57755148    -641727.33987175      -7371.16331967
     205183.63407006    -475807.17643922     -25852.80478418     -78680.65749807
      50018.41503671   -2154547.22645953    -699965.52511436    -382756.70760134
    -211780.18220963      11985.91936891     -75920.87555731
 Electronic spatial extent (au):  <R**2>=          94607.8751
 DipInt: DoE/N= F T RetVal/Mat= T F Init=T NMatP=  1 IDeriv=0 Min/MaxMlt=  0  4
 Nuclear    moments (au):
        716.00000000         -0.00000000         -0.00000000         -0.00000000
      51837.47837336      29482.27107701      12124.03064443          0.00000000
          0.00000000          0.00000000      51223.22271841      13046.99880084
      26917.76868701     -26521.16833424     -89974.08219153     -58047.05309926
      17502.63168173       -932.31350517     -27890.54015262     -16000.65283248
    7335930.87098981    2641780.43411548     604595.89739290      16740.12464826
    -212356.20642221     485786.48930078      17801.95132531      76618.35686926
     -51984.33751307    2115999.61161768     670323.91994469     362219.27190998
     207437.00906362     -19873.40199043      79014.24384005
 Total      moments (au):
          0.00000000         12.24941333         -3.15706726         -9.96226257
       -426.97926354       -393.17241303       -343.94331916         70.69335276
        -61.15619552        -42.39852362       1208.67329471        149.06618945
       -470.61097696       2050.74613125        232.14741331      -1447.28248185
        344.20378706        181.79172653       -833.30097791       -609.59846475
    -193487.32408389    -104866.14343600     -37131.44247885       9368.96132859
      -7172.57235215       9979.31286156      -8050.85345887      -2062.30062881
      -1965.92247636     -38547.61484185     -29641.60516967     -20537.43569137
      -4343.17314600      -7887.48262152       3093.36828274
 Traceless Quadrup. (au):
        -38.94759830         -5.14074778         44.08834608         70.69335276
        -61.15619552        -42.39852362
 Charge=              0.0000 electrons
 Dipole moment (field-independent basis, Debye):
    X=             31.1349    Y=             -8.0245    Z=            -25.3215  Tot=             40.9262
 Quadrupole moment (field-independent basis, Debye-Ang):
   XX=           -574.3017   YY=           -528.8304   ZZ=           -462.6155
   XY=             95.0850   XZ=            -82.2572   YZ=            -57.0275
 Traceless Quadrupole moment (field-independent basis, Debye-Ang):
   XX=            -52.3859   YY=             -6.9145   ZZ=             59.3003
   XY=             95.0850   XZ=            -82.2572   YZ=            -57.0275
 Octapole moment (field-independent basis, Debye-Ang**2):
  XXX=            860.2871  YYY=            106.0996  ZZZ=           -334.9628  XYY=           1459.6421
  XXY=            165.2336  XXZ=          -1030.1199  XZZ=            244.9910  YZZ=            129.3923
  YYZ=           -593.1115  XYZ=           -433.8887
 Hexadecapole moment (field-independent basis, Debye-Ang**3):
 XXXX=         -72876.6043 YYYY=         -39497.6181 ZZZZ=         -13985.4817 XXXY=           3528.8001
 XXXZ=          -2701.5347 YYYX=           3758.6877 YYYZ=          -3032.3375 ZZZX=           -776.7613
 ZZZY=           -740.4607 XXYY=         -14518.8802 XXZZ=         -11164.4499 YYZZ=          -7735.3831
 XXYZ=          -1635.8473 YYXZ=          -2970.8042 ZZXY=           1165.1108
 N-N= 2.169598934748D+04 E-N=-5.587484958864D+04  KE= 5.290591560522D+03
 Leave Link  601 at Sun Sep 15 00:01:10 2019, MaxMem=  1342177280 cpu:              42.1 elap:               1.1
 FitSet:  NAtFit=   176 NAtPot=   176 NAtFrz=     0 MDM=   180 TotChg=   0.00000
 Merz-Kollman atomic radii used.
 Read replacement radii for each type of atom:
 Rad(20) =   1.700000000000D+00
 Atom Element Radius
    1     6    1.50
    2     6    1.50
    3     8    1.40
    4     1    1.20
    5     1    1.20
    6     1    1.20
    7     7    1.50
    8     6    1.50
    9     6    1.50
   10     8    1.40
   11     6    1.50
   12     6    1.50
   13     8    1.40
   14     8    1.40
   15     1    1.20
   16     1    1.20
   17     1    1.20
   18     1    1.20
   19     7    1.50
   20     6    1.50
   21     6    1.50
   22     8    1.40
   23     6    1.50
   24     6    1.50
   25     6    1.50
   26     6    1.50
   27     7    1.50
   28     1    1.20
   29     1    1.20
   30     1    1.20
   31     1    1.20
   32     1    1.20
   33     1    1.20
   34     1    1.20
   35     1    1.20
   36     1    1.20
   37     1    1.20
   38     1    1.20
   39     1    1.20
   40     1    1.20
   41     7    1.50
   42     6    1.50
   43     6    1.50
   44     8    1.40
   45     6    1.50
   46     6    1.50
   47     8    1.40
   48     8    1.40
   49     1    1.20
   50     1    1.20
   51     1    1.20
   52     1    1.20
   53     7    1.50
   54     6    1.50
   55     6    1.50
   56     8    1.40
   57     1    1.20
   58     1    1.20
   59     1    1.20
   60     7    1.50
   61     6    1.50
   62     6    1.50
   63     8    1.40
   64     6    1.50
   65     6    1.50
   66     7    1.50
   67     8    1.40
   68     1    1.20
   69     1    1.20
   70     1    1.20
   71     1    1.20
   72     1    1.20
   73     1    1.20
   74     7    1.50
   75     6    1.50
   76     6    1.50
   77     8    1.40
   78     1    1.20
   79     1    1.20
   80     1    1.20
   81     7    1.50
   82     6    1.50
   83     6    1.50
   84     8    1.40
   85     6    1.50
   86     6    1.50
   87     6    1.50
   88     6    1.50
   89     6    1.50
   90     6    1.50
   91     6    1.50
   92     8    1.40
   93     1    1.20
   94     1    1.20
   95     1    1.20
   96     1    1.20
   97     1    1.20
   98     1    1.20
   99     1    1.20
  100     1    1.20
  101     1    1.20
  102     7    1.50
  103     6    1.50
  104     6    1.50
  105     8    1.40
  106     6    1.50
  107     6    1.50
  108     6    1.50
  109     6    1.50
  110     1    1.20
  111     1    1.20
  112     1    1.20
  113     1    1.20
  114     1    1.20
  115     1    1.20
  116     1    1.20
  117     1    1.20
  118     1    1.20
  119     1    1.20
  120     1    1.20
  121     7    1.50
  122     6    1.50
  123     6    1.50
  124     8    1.40
  125     6    1.50
  126     8    1.40
  127     1    1.20
  128     1    1.20
  129     1    1.20
  130     1    1.20
  131     1    1.20
  132     7    1.50
  133     6    1.50
  134     6    1.50
  135     8    1.40
  136     6    1.50
  137     1    1.20
  138     1    1.20
  139     1    1.20
  140     1    1.20
  141     1    1.20
  142     7    1.50
  143     6    1.50
  144     6    1.50
  145     8    1.40
  146     6    1.50
  147     1    1.20
  148     1    1.20
  149     1    1.20
  150     1    1.20
  151     1    1.20
  152     7    1.50
  153     6    1.50
  154     6    1.50
  155     8    1.40
  156     6    1.50
  157     6    1.50
  158     6    1.50
  159     8    1.40
  160     8    1.40
  161     1    1.20
  162     1    1.20
  163     1    1.20
  164     1    1.20
  165     1    1.20
  166     1    1.20
  167     7    1.50
[...]
 **** Fit       0.006123
 **** Fit       0.002558
 **** Fit      -0.005197
 **** Fit      -0.009874
 **** Fit      -0.016371
 **** Fit      -0.024038
 **** Fit      -0.029796
 **** Fit      -0.000422
 **** Fit       0.000443
 **** Fit      -0.001631
 **** Fit      -0.009641
 **** Fit      -0.016023
 **** Fit      -0.021601
 **** Fit      -0.018951
 **** Fit      -0.010623
 **** Fit      -0.006948
 **** Fit      -0.014133
 **** Fit      -0.014235
 **** Fit      -0.012915
 **** Fit      -0.027034
 **** Fit      -0.018426
 **** Fit      -0.011058
 **** Fit      -0.005257
 **** Fit      -0.001218
 **** Fit      -0.011688
 **** Fit      -0.002525
 **** Fit       0.004901
 **** Fit       0.005599
 **** Fit      -0.040923
 **** Fit       0.024340
 **** Fit       0.015028
 **** Fit       0.016038
 **** Fit       0.034034
 **** Fit       0.024981
 **** Fit       0.059744
 **** Fit       0.069057
 **** Fit       0.060749
 **** Fit       0.051171
 **** Fit       0.062445
 **** Fit       0.049633
 **** Fit       0.060111
 **** Fit       0.069528
 **** Fit       0.044985
 **** Fit       0.053684
 **** Fit       0.056056
 **** Fit       0.029140
 **** Fit       0.040517
 **** Fit       0.027713
 **** Fit      -0.007223
 **** Fit      -0.005819
 **** Fit      -0.007290
 **** Fit      -0.004676
 **** Fit      -0.004114
 **** Fit      -0.004480
 **** Fit      -0.005624
 **** Fit      -0.007399
 **** Fit      -0.009324
 **** Fit      -0.004757
 **** Fit      -0.003390
 **** Fit      -0.002660
 **** Fit      -0.002629
 **** Fit      -0.003214
 **** Fit      -0.004271
 **** Fit      -0.005689
 **** Fit      -0.007529
 **** Fit      -0.009547
 **** Fit      -0.011774
 **** Fit      -0.004042
 **** Fit      -0.002381
 **** Fit      -0.001322
 **** Fit      -0.000927
 **** Fit      -0.001154
 **** Fit      -0.001875
 **** Fit      -0.002939
 **** Fit      -0.004247
 **** Fit      -0.005769
 **** Fit      -0.007661
 **** Fit      -0.009612
 **** Fit      -0.011863
 **** Fit      -0.014371
 **** Fit      -0.004598
 **** Fit      -0.002408
 **** Fit      -0.000776
 **** Fit      -0.001905
 **** Fit      -0.003153
 **** Fit      -0.004500
 **** Fit      -0.005980
 **** Fit      -0.012115
 **** Fit      -0.014888
 **** Fit      -0.018020
 **** Fit      -0.021401
 **** Fit      -0.008359
 **** Fit      -0.005032
 **** Fit      -0.000648
 **** Fit      -0.001977
 **** Fit      -0.003312
 **** Fit      -0.004669
 **** Fit      -0.006120
 **** Fit      -0.018555
 **** Fit      -0.022500
 **** Fit      -0.026891
 **** Fit      -0.010080
 **** Fit      -0.000928
 **** Fit      -0.002340
 **** Fit      -0.003668
 **** Fit      -0.028794
 **** Fit      -0.034811
 **** Fit      -0.021050
 **** Fit       0.000258
 **** Fit      -0.001374
 **** Fit      -0.002837
 **** Fit      -0.000489
 **** Fit      -0.002211
 **** Fit      -0.001494
 **** Fit      -0.003358
 **** Fit      -0.002577
 **** Fit      -0.004804
 **** Fit      -0.001219
 **** Fit      -0.004504
 **** Fit      -0.007222
 **** Fit      -0.003575
 **** Fit      -0.007776
 **** Fit      -0.011164
 **** Fit      -0.008392
 **** Fit      -0.010435
 **** Fit      -0.006699
 **** Fit      -0.008408
 **** Fit      -0.010316
 **** Fit      -0.012653
 **** Fit      -0.015454
 **** Fit      -0.005491
 **** Fit      -0.006836
 **** Fit      -0.008543
 **** Fit      -0.010350
 **** Fit      -0.012601
 **** Fit      -0.015407
 **** Fit      -0.018852
 **** Fit      -0.004621
 **** Fit      -0.005792
 **** Fit      -0.007062
 **** Fit      -0.008897
 **** Fit      -0.010563
 **** Fit      -0.012648
 **** Fit      -0.015283
 **** Fit      -0.018614
 **** Fit      -0.022806
 **** Fit      -0.004173
 **** Fit      -0.005271
 **** Fit      -0.006358
 **** Fit      -0.007532
 **** Fit      -0.009577
 **** Fit      -0.011181
 **** Fit      -0.013221
 **** Fit      -0.015846
 **** Fit      -0.019244
 **** Fit      -0.023669
 **** Fit      -0.029465
 **** Fit      -0.003827
 **** Fit      -0.005045
 **** Fit      -0.006125
 **** Fit      -0.007166
 **** Fit      -0.008278
 **** Fit      -0.010707
 **** Fit      -0.012196
 **** Fit      -0.014121
 **** Fit      -0.016635
 **** Fit      -0.019935
 **** Fit      -0.024301
 **** Fit      -0.030167
 **** Fit      -0.005352
 **** Fit      -0.006548
 **** Fit      -0.007565
 **** Fit      -0.008516
 **** Fit      -0.009522
 **** Fit      -0.012440
 **** Fit      -0.013797
 **** Fit      -0.015614
 **** Fit      -0.018045
 **** Fit      -0.021290
 **** Fit      -0.025644
 **** Fit      -0.031583
 **** Fit      -0.007646
 **** Fit      -0.008817
 **** Fit      -0.009736
 **** Fit      -0.010549
 **** Fit      -0.011403
 **** Fit      -0.014974
 **** Fit      -0.016186
 **** Fit      -0.017947
 **** Fit      -0.020430
 **** Fit      -0.023856
 **** Fit      -0.028559
 **** Fit      -0.035114
 **** Fit      -0.010991
 **** Fit      -0.012179
 **** Fit      -0.012953
 **** Fit      -0.013538
 **** Fit      -0.014148
 **** Fit      -0.018569
 **** Fit      -0.019509
 **** Fit      -0.021160
 **** Fit      -0.023709
 **** Fit      -0.027383
 **** Fit      -0.032527
 **** Fit      -0.017506
 **** Fit      -0.017929
 **** Fit      -0.018028
 **** Fit      -0.018149
 **** Fit      -0.023561
 **** Fit      -0.023943
 **** Fit      -0.025265
 **** Fit      -0.027687
 **** Fit      -0.031362
 **** Fit      -0.036484
 **** Fit      -0.029699
 **** Fit      -0.030522
 **** Fit      -0.032850
 **** Fit      -0.036579
 **** Fit      -0.010108
 **** Fit      -0.009999
 **** Fit      -0.011920
 **** Fit      -0.012094
 **** Fit      -0.010419
 **** Fit      -0.008639
 **** Fit      -0.008409
 **** Fit      -0.010060
 **** Fit      -0.012286
 **** Fit      -0.014183
 **** Fit      -0.015034
 **** Fit      -0.014477
 **** Fit      -0.012927
 **** Fit      -0.011000
 **** Fit      -0.009010
 **** Fit      -0.007413
 **** Fit      -0.006647
 **** Fit      -0.006901
 **** Fit      -0.008123
 **** Fit      -0.010269
 **** Fit      -0.012598
 **** Fit      -0.014962
 **** Fit      -0.017014
 **** Fit      -0.018310
 **** Fit      -0.018460
 **** Fit      -0.017408
 **** Fit      -0.015659
 **** Fit      -0.013854
 **** Fit      -0.011984
 **** Fit      -0.009919
 **** Fit      -0.007921
 **** Fit      -0.006329
 **** Fit      -0.013136
 **** Fit      -0.015838
 **** Fit      -0.018532
 **** Fit      -0.020920
 **** Fit      -0.022606
 **** Fit      -0.023182
 **** Fit      -0.022401
 **** Fit      -0.012513
 **** Fit      -0.010078
 **** Fit      -0.007742
 **** Fit      -0.005814
 **** Fit      -0.016952
 **** Fit      -0.020227
 **** Fit      -0.023487
 **** Fit      -0.026402
 **** Fit      -0.028528
 **** Fit      -0.029409
 **** Fit      -0.028724
 **** Fit      -0.014986
 **** Fit      -0.011886
 **** Fit      -0.008850
 **** Fit      -0.025945
 **** Fit      -0.030006
 **** Fit      -0.033692
 **** Fit      -0.036477
 **** Fit      -0.037844
 **** Fit      -0.037477
 **** Fit      -0.018846
 **** Fit      -0.014713
 **** Fit      -0.010759
 **** Fit      -0.035123
 **** Fit      -0.024184
 **** Fit      -0.018259
 **** Fit      -0.001406
 **** Fit       0.000005
 **** Fit       0.000410
 **** Fit      -0.000109
 **** Fit      -0.001467
 **** Fit       0.000478
 **** Fit       0.001665
 **** Fit       0.002107
 **** Fit       0.001889
 **** Fit       0.001129
 **** Fit      -0.000015
 **** Fit      -0.000133
 **** Fit       0.001902
 **** Fit       0.003151
 **** Fit       0.003744
 **** Fit       0.003781
 **** Fit       0.003323
 **** Fit       0.002442
 **** Fit       0.001243
 **** Fit       0.002815
 **** Fit       0.004350
 **** Fit       0.005200
 **** Fit       0.005536
 **** Fit       0.005414
 **** Fit       0.004856
 **** Fit       0.003900
 **** Fit       0.002625
 **** Fit       0.001144
 **** Fit       0.006532
 **** Fit       0.007088
 **** Fit       0.007251
 **** Fit       0.007017
 **** Fit       0.006379
 **** Fit       0.005355
 **** Fit       0.004000
 **** Fit       0.002409
 **** Fit       0.000706
 **** Fit       0.007887
 **** Fit       0.008585
 **** Fit       0.008907
 **** Fit       0.008824
 **** Fit       0.008302
 **** Fit       0.007332
 **** Fit       0.005942
 **** Fit       0.004210
 **** Fit       0.002258
 **** Fit       0.000242
 **** Fit       0.009830
 **** Fit       0.010421
 **** Fit       0.010575
 **** Fit       0.010248
 **** Fit       0.009408
 **** Fit       0.008054
 **** Fit       0.006239
 **** Fit       0.004068
 **** Fit       0.001700
 **** Fit       0.011415
 **** Fit       0.012099
 **** Fit       0.012235
 **** Fit       0.011767
 **** Fit       0.010656
 **** Fit       0.008904
 **** Fit       0.006587
 **** Fit       0.003851
 **** Fit       0.000905
 **** Fit       0.013365
 **** Fit       0.013949
 **** Fit       0.013730
 **** Fit       0.012619
 **** Fit       0.010580
 **** Fit       0.007689
 **** Fit       0.004147
 **** Fit       0.000261
 **** Fit       0.013357
 **** Fit       0.015060
 **** Fit       0.015699
 **** Fit       0.015090
 **** Fit       0.013068
 **** Fit       0.009629
 **** Fit       0.005024
 **** Fit      -0.000276
 **** Fit       0.038526
 **** Fit      -0.036797
 **** Fit      -0.041330
 **** Fit       0.008493
 **** Fit       0.003513
 **** Fit      -0.006031
 **** Fit      -0.013883
 **** Fit      -0.020045
 **** Fit      -0.024887
 **** Fit      -0.028704
 **** Fit      -0.031358
 **** Fit      -0.032270
 **** Fit      -0.030825
 **** Fit      -0.026926
 **** Fit      -0.021136
 **** Fit       0.014158
 **** Fit       0.009228
 **** Fit       0.001004
 **** Fit      -0.005869
 **** Fit      -0.011271
 **** Fit      -0.015277
 **** Fit      -0.017851
 **** Fit      -0.018714
 **** Fit      -0.017507
 **** Fit      -0.014123
 **** Fit       0.018290
 **** Fit       0.013699
 **** Fit       0.006627
 **** Fit       0.000775
 **** Fit      -0.003610
 **** Fit      -0.006392
 **** Fit      -0.007382
 **** Fit      -0.006349
 **** Fit       0.029252
 **** Fit       0.021481
 **** Fit       0.017620
 **** Fit       0.011428
 **** Fit       0.006597
 **** Fit       0.003531
 **** Fit       0.002519
 **** Fit       0.031445
 **** Fit       0.024553
 **** Fit       0.021419
 **** Fit       0.015928
 **** Fit       0.012397
 **** Fit       0.039672
 **** Fit       0.034294
 **** Fit       0.027911
 **** Fit       0.025351
 **** Fit      -0.015364
 **** Fit      -0.007141
 **** Fit      -0.016316
 **** Fit      -0.010266
 **** Fit      -0.003922
 **** Fit       0.002777
 **** Fit       0.009439
 **** Fit      -0.013627
 **** Fit      -0.008847
 **** Fit      -0.003814
 **** Fit       0.001458
 **** Fit       0.006979
 **** Fit       0.012578
 **** Fit       0.017967
 **** Fit      -0.007544
 **** Fit      -0.005169
 **** Fit      -0.001858
 **** Fit       0.002030
 **** Fit       0.006300
 **** Fit       0.010855
 **** Fit       0.015570
 **** Fit       0.020275
 **** Fit       0.024825
 **** Fit       0.049960
 **** Fit       0.051286
 **** Fit       0.052438
 **** Fit       0.002020
 **** Fit       0.002106
 **** Fit       0.003577
 **** Fit       0.006115
 **** Fit       0.009402
 **** Fit       0.013201
 **** Fit       0.017334
 **** Fit       0.021630
 **** Fit       0.025925
 **** Fit       0.030108
 **** Fit       0.034119
 **** Fit       0.037891
 **** Fit       0.041265
 **** Fit       0.044028
 **** Fit       0.046076
 **** Fit       0.047502
 **** Fit       0.048448
 **** Fit       0.048834
 **** Fit       0.013451
 **** Fit       0.011002
 **** Fit       0.010221
 **** Fit       0.010925
 **** Fit       0.012833
 **** Fit       0.015633
 **** Fit       0.019045
 **** Fit       0.022829
 **** Fit       0.026763
 **** Fit       0.030658
 **** Fit       0.034357
 **** Fit       0.037702
 **** Fit       0.040521
 **** Fit       0.042676
 **** Fit       0.044130
 **** Fit       0.044878
 **** Fit       0.044765
 **** Fit       0.043407
 **** Fit       0.040376
 **** Fit       0.026266
 **** Fit       0.021634
 **** Fit       0.018455
 **** Fit       0.017054
 **** Fit       0.017368
 **** Fit       0.019106
 **** Fit       0.021882
 **** Fit       0.025304
 **** Fit       0.029006
 **** Fit       0.032658
 **** Fit       0.035963
 **** Fit       0.038660
 **** Fit       0.040545
 **** Fit       0.041480
 **** Fit       0.041275
 **** Fit       0.039615
 **** Fit       0.036273
 **** Fit       0.031522
 **** Fit       0.028529
 **** Fit       0.024594
 **** Fit       0.022669
 **** Fit       0.023082
 **** Fit       0.025393
 **** Fit       0.028817
 **** Fit       0.032512
 **** Fit       0.035705
 **** Fit       0.037770
 **** Fit       0.038231
 **** Fit       0.036697
 **** Fit       0.033140
 **** Fit       0.030171
 **** Fit       0.027355
 **** Fit       0.028500
 **** Fit       0.032082
 **** Fit       0.034746
 **** Fit       0.034002
 **** Fit       0.031324
 **** Fit       0.043956
 **** Fit       0.043177
 **** Fit       0.043457
 **** Fit       0.043362
 **** Fit       0.042964
 **** Fit       0.044490
 **** Fit       0.044157
 **** Fit       0.044268
 **** Fit       0.044170
 **** Fit       0.046439
 **** Fit       0.045531
 **** Fit       0.045593
 **** Fit       0.046089
 **** Fit       0.046523
 **** Fit       0.049491
 **** Fit       0.047406
 **** Fit       0.046814
 **** Fit       0.047087
 **** Fit       0.047823
 **** Fit       0.048698
 **** Fit       0.049443
 **** Fit       0.051244
 **** Fit       0.048821
 **** Fit       0.047925
 **** Fit       0.047979
 **** Fit       0.048601
 **** Fit       0.049496
 **** Fit       0.050401
 **** Fit       0.023303
 **** Fit       0.053383
 **** Fit       0.050404
 **** Fit       0.048910
 **** Fit       0.048458
 **** Fit       0.048663
 **** Fit       0.049200
 **** Fit       0.049740
 **** Fit       0.049828
 **** Fit       0.048580
 **** Fit       0.026016
 **** Fit       0.054547
 **** Fit       0.051626
 **** Fit       0.049748
 **** Fit       0.048796
 **** Fit       0.048495
 **** Fit       0.048528
 **** Fit       0.048541
 **** Fit       0.048068
 **** Fit       0.046398
 **** Fit       0.042549
 **** Fit       0.035714
 **** Fit       0.028024
 **** Fit       0.054212
 **** Fit       0.051620
 **** Fit       0.049753
 **** Fit       0.048620
 **** Fit       0.047995
 **** Fit       0.047521
 **** Fit       0.046735
 **** Fit       0.045021
 **** Fit       0.041626
 **** Fit       0.035944
 **** Fit       0.029929
 **** Fit       0.051484
 **** Fit       0.049500
 **** Fit       0.048105
 **** Fit       0.047055
 **** Fit       0.045933
 **** Fit       0.044183
 **** Fit       0.041173
 **** Fit       0.036409
 **** Fit       0.049715
 **** Fit       0.047756
 **** Fit       0.046114
 **** Fit       0.044275
 **** Fit       0.041589
 **** Fit       0.037521
 **** Fit       0.045773
 **** Fit       0.043119
 **** Fit       0.039495
 -----------------------------------------------------------------
 Leave Link  602 at Sun Sep 15 00:01:13 2019, MaxMem=  1342177280 cpu:             126.4 elap:               2.7

 Test job not archived.
 1\1\GINC-C495-102\SP\RB3LYP\SVP\C54H83Ca1N15O23\PENGZHI\15-Sep-2019\0\
 \#b3lyp/svp scf=(tight,noincore) Test #IOP(5/87=12) Density=Current Po
 p=(MK,readradii) iop(6/33=2) iop(6/42=6)\\CaMKII_loop3_78.0\\0,1\C,0,6
 7.45,46.09,29.68\C,0,66.39,45.42,30.55\O,0,66.71,44.51,31.3\H,0,68.371
 ,45.508,29.718\H,0,67.096,46.143,28.65\H,0,67.642,47.097,30.051\N,0,65
 .15,45.9,30.54\C,0,64.,45.19,31.05\C,0,63.68,44.08,30.06\O,0,63.55,44.
 37,28.87\C,0,62.87,46.21,31.14\C,0,61.63,45.73,31.88\O,0,61.54,44.49,3
 2.05\O,0,60.75,46.55,32.21\H,0,64.99,46.72,29.96\H,0,64.18,44.87,32.07
 \H,0,62.53,46.45,30.13\H,0,63.26,47.11,31.62\N,0,63.65,42.85,30.59\C,0
 ,63.35,41.71,29.76\C,0,61.89,41.6,29.34\O,0,61.57,40.94,28.36\C,0,63.8
 ,40.44,30.48\C,0,63.81,39.1,29.75\C,0,64.44,38.,30.6\C,0,64.29,36.56,3
 0.11\N,0,64.72,35.67,31.2\H,0,63.75,42.72,31.59\H,0,63.92,41.8,28.84\H
 ,0,63.14,40.26,31.33\H,0,64.78,40.68,30.91\H,0,64.5,39.25,28.91\H,0,62
 .87,38.67,29.4\H,0,64.05,38.12,31.61\H,0,65.5,38.24,30.74\H,0,64.87,36
 .33,29.22\H,0,63.21,36.48,29.98\H,0,64.67,34.72,30.86\H,0,65.71,35.77,
 31.35\H,0,64.28,35.72,32.11\N,0,60.96,42.12,30.14\C,0,59.52,41.94,30.0
 4\C,0,58.74,43.24,29.94\O,0,57.66,43.18,29.36\C,0,58.95,41.12,31.19\C,
 0,59.53,41.66,32.49\O,0,60.45,40.98,32.98\O,0,59.23,42.77,32.99\H,0,61
 .3,42.65,30.93\H,0,59.35,41.48,29.06\H,0,59.33,40.12,30.97\H,0,57.88,4
 0.95,31.22\N,0,59.15,44.36,30.53\C,0,58.51,45.64,30.31\C,0,57.64,46.14
 ,31.44\O,0,56.76,46.99,31.28\H,0,59.97,44.36,31.14\H,0,57.84,45.6,29.4
 5\H,0,59.31,46.37,30.19\N,0,57.95,45.67,32.65\C,0,57.24,46.03,33.86\C,
 0,57.71,47.33,34.51\O,0,57.22,47.83,35.52\C,0,57.2,44.85,34.82\C,0,58.
 5,44.73,35.62\N,0,58.34,44.61,36.94\O,0,59.62,44.76,35.12\H,0,58.76,45
 .07,32.73\H,0,56.18,46.21,33.66\H,0,57.,43.91,34.3\H,0,56.42,45.08,35.
 54\H,0,57.43,44.79,37.33\H,0,59.1,44.36,37.56\N,0,58.71,47.96,33.89\C,
 0,59.25,49.24,34.29\C,0,60.49,49.17,35.17\O,0,60.92,50.09,35.87\H,0,59
 .17,47.31,33.27\H,0,58.51,49.9,34.74\H,0,59.53,49.8,33.4\N,0,61.11,48.
 ,35.23\C,0,62.05,47.52,36.23\C,0,63.11,46.56,35.72\O,0,62.86,45.63,34.
 95\C,0,61.45,46.79,37.42\C,0,60.71,47.64,38.42\C,0,61.35,48.21,39.53\C
 ,0,59.33,47.76,38.27\C,0,60.58,48.88,40.5\C,0,58.56,48.46,39.21\C,0,59
 .19,49.01,40.35\O,0,58.41,49.63,41.28\H,0,60.78,47.33,34.54\H,0,62.45,
 48.34,36.83\H,0,62.33,46.41,37.94\H,0,60.92,45.9,37.08\H,0,62.41,48.2,
 39.7\H,0,58.85,47.2,37.48\H,0,61.1,49.29,41.35\H,0,57.48,48.44,39.19\H
 ,0,57.5,49.62,40.98\N,0,64.33,46.88,36.16\C,0,65.49,46.1,35.78\C,0,65.
 84,45.3,37.03\O,0,65.71,45.67,38.19\C,0,66.67,46.95,35.31\C,0,66.37,47
 .71,34.02\C,0,67.87,46.07,34.99\C,0,67.3,48.87,33.65\H,0,64.48,47.64,3
 6.81\H,0,65.3,45.45,34.92\H,0,66.96,47.59,36.14\H,0,65.43,48.25,33.95\
 H,0,66.36,46.99,33.21\H,0,68.38,45.7,35.89\H,0,67.57,45.18,34.43\H,0,6
 8.69,46.67,34.6\H,0,67.18,49.69,34.35\H,0,68.35,48.61,33.75\H,0,67.03,
 49.21,32.65\N,0,66.56,44.19,36.88\C,0,67.03,43.3,37.92\C,0,68.21,42.51
 ,37.38\O,0,68.47,42.52,36.18\C,0,65.98,42.31,38.4\O,0,65.32,41.68,37.3
 3\H,0,66.62,43.84,35.93\H,0,67.43,43.91,38.74\H,0,65.29,42.88,39.03\H,
 0,66.47,41.57,39.04\H,0,64.81,40.93,37.63\N,0,68.97,41.87,38.27\C,0,70
 .26,41.31,37.91\C,0,70.31,40.21,36.86\O,0,71.16,40.28,35.97\C,0,70.81,
 40.82,39.24\H,0,68.72,41.99,39.24\H,0,70.87,42.16,37.6\H,0,70.66,41.6,
 39.99\H,0,70.4,39.85,39.55\H,0,71.89,40.79,39.2\N,0,69.32,39.32,36.81\
 C,0,69.12,38.29,35.81\C,0,68.74,38.82,34.43\O,0,69.1,38.14,33.46\C,0,6
 8.04,37.33,36.31\H,0,68.75,39.16,37.62\H,0,70.02,37.68,35.81\H,0,67.75
 ,36.72,35.45\H,0,68.35,36.66,37.11\H,0,67.16,37.89,36.62\N,0,68.18,40.
 02,34.39\C,0,67.89,40.77,33.18\C,0,69.01,41.67,32.7\O,0,69.31,41.62,31
 .51\C,0,66.55,41.47,33.43\C,0,65.41,40.59,33.92\C,0,64.12,41.39,33.99\
 O,0,63.17,40.99,34.69\O,0,63.87,42.45,33.37\H,0,68.14,40.57,35.23\H,0,
 67.76,40.04,32.38\H,0,66.32,41.87,32.44\H,0,66.68,42.32,34.1\H,0,65.69
 ,40.37,34.95\H,0,65.26,39.71,33.3\N,0,69.81,42.3,33.57\C,0,71.,43.02,3
 3.15\H,0,71.824,42.318,33.026\H,0,70.806,43.522,32.202\H,0,71.264,43.7
 59,33.906\H,0,69.51,42.24,34.53\Ca,0,61.66,43.21,34.27\O,0,60.34,41.86
 ,36.32\H,0,59.48,41.65,36.69\H,0,60.9,42.03,37.09\\Version=ES64L-G16Re
 vA.03\State=1-A\HF=-5333.5627334\RMSD=1.842e-09\Dipole=6.7653792,-12.3
 271872,7.844232\Quadrupole=-90.5176498,118.041313,-27.5236632,16.09491
 29,-22.1722886,9.2626558\PG=C01 [X(C54H83Ca1N15O23)]\\@


 CHILDREN YOU ARE VERY LITTLE,
 AND YOUR BONES ARE VERY BRITTLE;
 IF YOU WOULD GROW GREAT AND STATELY
 YOU MUST TRY TO WALK SEDATELY.
 YOU MUST STILL BE BRIGHT AND QUIET,
 AND CONTENT WITH SIMPLE DIET;
 AND REMAIN, THROUGH ALL BEWILD'RING
 INNOCENT AND HONEST CHILDREN.
     -- A CHILD'S GARDEN OF VERSE,
        ROBERT LOUIS STEVENSON
 Job cpu time:       0 days 10 hours 25 minutes 34.0 seconds.
 Elapsed time:       0 days  0 hours 13 minutes 10.6 seconds.
 File lengths (MBytes):  RWF=   1517 Int=      0 D2E=      0 Chk=    171 Scr=      1
 Normal termination of Gaussian 16 at Sun Sep 15 00:01:14 2019.
