 Entering Gaussian System, Link 0=g16
 Initial command:
 /home1/apps/gaussian/16rA.03/g16/l1.exe "/scratch/01990/pengzhi/4328841/Gau-131507.inp" -scrdir="/scratch/01990/pengzhi/4328841/"
 Entering Link 1 = /home1/apps/gaussian/16rA.03/g16/l1.exe PID=    131508.
  
 Copyright (c) 1988,1990,1992,1993,1995,1998,2003,2009,2016,
            Gaussian, Inc.  All Rights Reserved.
  
 This is part of the Gaussian(R) 16 program.  It is based on
 the Gaussian(R) 09 system (copyright 2009, Gaussian, Inc.),
 the Gaussian(R) 03 system (copyright 2003, Gaussian, Inc.),
 the Gaussian(R) 98 system (copyright 1998, Gaussian, Inc.),
 the Gaussian(R) 94 system (copyright 1995, Gaussian, Inc.),
 the Gaussian 92(TM) system (copyright 1992, Gaussian, Inc.),
 the Gaussian 90(TM) system (copyright 1990, Gaussian, Inc.),
 the Gaussian 88(TM) system (copyright 1988, Gaussian, Inc.),
 the Gaussian 86(TM) system (copyright 1986, Carnegie Mellon
 University), and the Gaussian 82(TM) system (copyright 1983,
 Carnegie Mellon University). Gaussian is a federally registered
 trademark of Gaussian, Inc.
  
 This software contains proprietary and confidential information,
 including trade secrets, belonging to Gaussian, Inc.
  
 This software is provided under written license and may be
 used, copied, transmitted, or stored only in accord with that
 written license.
  
 The following legend is applicable only to US Government
 contracts under FAR:
  
                    RESTRICTED RIGHTS LEGEND
  
 Use, reproduction and disclosure by the US Government is
 subject to restrictions as set forth in subparagraphs (a)
 and (c) of the Commercial Computer Software - Restricted
 Rights clause in FAR 52.227-19.
  
 Gaussian, Inc.
 340 Quinnipiac St., Bldg. 40, Wallingford CT 06492
  
  
 ---------------------------------------------------------------
 Warning -- This program may not be used in any manner that
 competes with the business of Gaussian, Inc. or will provide
 assistance to any competitor of Gaussian, Inc.  The licensee
 of this program is prohibited from giving any competitor of
 Gaussian, Inc. access to this program.  By using this program,
 the user acknowledges that Gaussian, Inc. is engaged in the
 business of creating and licensing software in the field of
 computational chemistry and represents and warrants to the
 licensee that it is not a competitor of Gaussian, Inc. and that
 it will not use this program in any manner prohibited above.
 ---------------------------------------------------------------
  

 Cite this work as:
 Gaussian 16, Revision A.03,
 M. J. Frisch, G. W. Trucks, H. B. Schlegel, G. E. Scuseria, 
 M. A. Robb, J. R. Cheeseman, G. Scalmani, V. Barone, 
 G. A. Petersson, H. Nakatsuji, X. Li, M. Caricato, A. V. Marenich, 
 J. Bloino, B. G. Janesko, R. Gomperts, B. Mennucci, H. P. Hratchian, 
 J. V. Ortiz, A. F. Izmaylov, J. L. Sonnenberg, D. Williams-Young, 
 F. Ding, F. Lipparini, F. Egidi, J. Goings, B. Peng, A. Petrone, 
 T. Henderson, D. Ranasinghe, V. G. Zakrzewski, J. Gao, N. Rega, 
 G. Zheng, W. Liang, M. Hada, M. Ehara, K. Toyota, R. Fukuda, 
 J. Hasegawa, M. Ishida, T. Nakajima, Y. Honda, O. Kitao, H. Nakai, 
 T. Vreven, K. Throssell, J. A. Montgomery, Jr., J. E. Peralta, 
 F. Ogliaro, M. J. Bearpark, J. J. Heyd, E. N. Brothers, K. N. Kudin, 
 V. N. Staroverov, T. A. Keith, R. Kobayashi, J. Normand, 
 K. Raghavachari, A. P. Rendell, J. C. Burant, S. S. Iyengar, 
 J. Tomasi, M. Cossi, J. M. Millam, M. Klene, C. Adamo, R. Cammi, 
 J. W. Ochterski, R. L. Martin, K. Morokuma, O. Farkas, 
 J. B. Foresman, and D. J. Fox, Gaussian, Inc., Wallingford CT, 2016.
 
 ******************************************
 Gaussian 16:  ES64L-G16RevA.03 25-Dec-2016
                14-Sep-2019 
 ******************************************
 %chk=CaMKII_loop3_102.0.chk
 %nprocshared=48
 Will use up to   48 processors via shared memory.
 %mem=10GB
 %nosave
 ----------------------------------------------------------------------
 #b3lyp/svp scf=(tight,noincore) Test #IOP(5/87=12) Density=Current Pop
 =(MK,readradii) iop(6/33=2) iop(6/42=6)
 ----------------------------------------------------------------------
 1/30=1,38=1,172=1/1;
 2/12=2,17=6,18=5,40=1/2;
 3/5=18,7=101,11=2,25=1,30=1,74=-5/1,2,3;
 4//1;
 5/5=4,32=2,38=5,87=12/2;
 6/7=2,8=2,9=2,10=2,15=8,20=101,22=-1,28=1,33=2,42=6/1,2;
 99/5=1,9=1/99;
 ------------------
 CaMKII_loop3_102.0
 ------------------
 Symbolic Z-matrix:
 Charge =  0 Multiplicity = 1
 C                     35.31     38.25     97.869 
 C                     35.92     36.86     97.709 
 O                     36.95     36.72     97.059 
 H                     34.341    38.166    98.361 
 H                     35.972    38.87     98.473 
 H                     35.18     38.706    96.887 
 N                     35.3      35.91     98.409 
 C                     35.59     34.49     98.299 
 C                     34.92     33.82     97.119 
 O                     33.74     34.03     96.839 
 C                     35.39     33.9      99.699 
 C                     35.62     32.41     99.849 
 O                     35.09     31.83     100.829 
 O                     36.23     31.73     98.989 
 H                     34.42     36.16     98.849 
 H                     36.67     34.44     98.119 
 H                     34.37     34.11     100.019 
 H                     36.09     34.25     100.449 
 N                     35.69     33.1      96.299 
 C                     35.43     32.64     94.949 
 C                     34.95     31.19     94.869 
 O                     34.08     30.81     94.099 
 C                     36.74     32.9      94.199 
 C                     36.56     33.1      92.699 
 C                     37.85     33.41     91.939 
 C                     37.57     33.81     90.499 
 N                     37.       32.74     89.669 
 H                     36.63     32.84     96.569 
 H                     34.67     33.21     94.429 
 H                     37.41     32.05     94.349 
 H                     37.19     33.81     94.589 
 H                     35.87     33.93     92.559 
 H                     36.01     32.29     92.219 
 H                     38.48     32.52     91.949 
 H                     38.4      34.2      92.459 
 H                     38.48     34.16     89.999 
 H                     36.94     34.71     90.499 
 H                     37.59     31.92     89.739 
 H                     36.06     32.4      89.779 
 H                     36.98     33.18     88.759 
 N                     35.39     30.38     95.839 
 C                     35.06     28.97     95.889 
 C                     34.2      28.69     97.109 
 O                     33.66     27.59     97.219 
 C                     36.28     28.05     95.849 
 C                     37.17     28.14     97.079 
 O                     37.       29.1      97.859 
 O                     38.08     27.29     97.159 
 H                     36.14     30.69     96.449 
 H                     34.47     28.64     95.029 
 H                     36.85     28.33     94.959 
 H                     35.9      27.04     95.769 
 N                     34.1      29.68     97.999 
 C                     33.36     29.52     99.239 
 C                     33.95     28.61     100.309 
 O                     33.24     28.09     101.169 
 H                     34.62     30.53     97.839 
 H                     32.42     29.08     98.919 
 H                     33.24     30.5      99.709 
 N                     35.26     28.36     100.289 
 C                     35.95     27.52     101.259 
 C                     36.16     28.12     102.639 
 O                     36.69     27.4      103.479 
 C                     37.26     26.93     100.759 
 C                     38.47     27.86     100.759 
 N                     39.66     27.32     100.459 
 O                     38.43     29.06     100.969 
 H                     35.86     28.78     99.599 
 H                     35.24     26.71     101.429 
 H                     37.15     26.51     99.759 
 H                     37.49     26.08     101.389 
 H                     39.79     26.32     100.389 
 H                     40.46     27.79     100.849 
 N                     35.66     29.33     102.899 
 C                     35.62     29.96     104.199 
 C                     36.72     31.       104.419 
 O                     36.66     31.66     105.449 
 H                     35.26     29.81     102.099 
 H                     35.91     29.23     104.959 
 H                     34.65     30.41     104.399 
 N                     37.65     31.2      103.489 
 C                     38.63     32.26     103.519 
 C                     38.95     32.88     102.159 
 O                     38.76     32.3      101.089 
 C                     39.88     31.71     104.199 
 C                     40.04     30.25     104.529 
 C                     40.11     29.84     105.869 
 C                     40.1      29.33     103.479 
 C                     40.19     28.48     106.169 
 C                     40.31     27.98     103.809 
 C                     40.2      27.52     105.139 
 O                     40.44     26.2      105.409 
 H                     37.54     30.6      102.679 
 H                     38.3      33.04     104.199 
 H                     39.93     32.21     105.169 
 H                     40.77     32.08     103.679 
 H                     40.02     30.47     106.749 
 H                     40.15     29.64     102.449 
 H                     40.2      28.15     107.199 
 H                     40.4      27.25     103.029 
 H                     40.59     25.98     106.329 
 N                     39.45     34.12     102.239 
 C                     39.86     34.91     101.099 
 C                     41.37     34.7      101.009 
 O                     42.07     34.8      102.009 
 C                     39.6      36.4      101.289 
 C                     38.19     36.72     101.779 
 C                     39.82     37.17     99.999 
 C                     37.97     38.14     102.289 
 H                     39.6      34.47     103.179 
 H                     39.46     34.5      100.169 
 H                     40.37     36.78     101.969 
 H                     37.82     36.08     102.569 
 H                     37.54     36.61     100.909 
 H                     39.17     36.82     99.189 
 H                     39.77     38.25     100.159 
 H                     40.82     37.05     99.599 
 H                     38.41     38.12     103.279 
 H                     38.38     38.93     101.649 
 H                     36.93     38.46     102.389 
 N                     41.91     34.56     99.799 
 C                     43.33     34.61     99.489 
 C                     43.62     35.61     98.379 
 O                     42.72     36.07     97.679 
 C                     43.93     33.26     99.109 
 O                     43.2      32.64     98.069 
 H                     41.26     34.58     99.029 
 H                     43.86     35.01     100.349 
 H                     43.93     32.62     99.989 
 H                     44.96     33.2      98.739 
 H                     43.45     31.72     97.949 
 N                     44.83     36.09     98.049 
 C                     45.18     37.21     97.209 
 C                     44.65     37.07     95.789 
 O                     44.16     38.04     95.209 
 C                     46.68     37.49     97.209 
 H                     45.52     35.77     98.709 
 H                     44.73     38.14     97.539 
 H                     46.9      38.4      96.649 
 H                     47.05     37.51     98.239 
 H                     47.23     36.66     96.779 
 N                     44.71     35.91     95.129 
 C                     44.04     35.78     93.849 
 C                     42.56     36.09     93.719 
 O                     42.17     36.64     92.679 
 C                     44.2      34.35     93.349 
 H                     45.17     35.12     95.549 
 H                     44.62     36.42     93.179 
 H                     43.98     34.37     92.279 
 H                     45.24     34.04     93.419 
 H                     43.66     33.53     93.829 
 N                     41.8      35.8      94.769 
 C                     40.39     36.11     94.919 
 C                     40.12     37.57     95.239 
 O                     39.31     38.25     94.609 
 C                     39.76     35.24     96.009 
 C                     40.19     33.78     95.959 
 C                     39.41     32.96     96.979 
 O                     38.42     32.26     96.689 
 O                     39.8      32.91     98.169 
 H                     42.22     35.37     95.579 
 H                     39.94     35.92     93.939 
 H                     38.67     35.34     95.939 
 H                     40.17     35.57     96.959 
 H                     41.23     33.89     96.259 
 H                     39.96     33.36     94.979 
 N                     40.96     38.22     96.039 
 C                     41.1      39.65     96.279 
 H                     41.971    40.024    95.742 
 H                     40.207    40.167    95.927 
 H                     41.228    39.829    97.347 
 H                     41.67     37.66     96.489 
 Ca                    38.55     30.83     98.99 
 O                     39.98     29.19     97.5 
 H                     39.52     28.4      97.24 
 H                     40.77     29.2      96.95 
 
 Stoichiometry    C54H83CaN15O23
 Framework group  C1[X(C54H83CaN15O23)]
 Deg. of freedom   522
 Full point group                 C1      NOp   1
 Largest Abelian subgroup         C1      NOp   1
 Largest concise Abelian subgroup C1      NOp   1
                         Standard orientation:                         
 ---------------------------------------------------------------------
 Center     Atomic      Atomic             Coordinates (Angstroms)
 Number     Number       Type             X           Y           Z
 ---------------------------------------------------------------------
      1          6           0        2.817290    1.531779    5.769494
      2          6           0        2.234740    1.551726    4.358807
      3          8           0        2.969999    1.366172    3.395499
      4          1           0        2.052029    1.839867    6.481912
      5          1           0        3.152950    0.523287    6.009777
      6          1           0        3.662045    2.219181    5.824517
      7          7           0        0.907796    1.672590    4.319906
      8          6           0        0.138831    1.875280    3.103267
      9          6           0        0.113372    3.312426    2.629809
     10          8           0       -0.077558    4.247294    3.407284
     11          6           0       -1.188714    1.137010    3.304967
     12          6           0       -2.187226    1.208920    2.167732
     13          8           0       -3.395003    0.987484    2.432195
     14          8           0       -1.868365    1.571867    1.009848
     15          1           0        0.437186    1.884656    5.194008
     16          1           0        0.672665    1.300229    2.337998
     17          1           0       -1.673465    1.536543    4.195074
     18          1           0       -1.107208    0.058947    3.383308
     19          7           0        0.449115    3.549720    1.359113
     20          6           0        0.842197    4.790371    0.720387
     21          6           0       -0.292388    5.488033   -0.031468
     22          8           0       -0.454340    6.699631   -0.033018
     23          6           0        2.026788    4.402014   -0.169627
     24          6           0        2.989857    5.550202   -0.446324
     25          6           0        4.205729    5.171117   -1.292344
     26          6           0        5.225121    6.298067   -1.345487
     27          7           0        4.761083    7.507522   -2.038730
     28          1           0        0.510315    2.792023    0.691094
     29          1           0        1.217528    5.538846    1.407272
     30          1           0        1.647318    4.040225   -1.128278
     31          1           0        2.597154    3.622503    0.330118
     32          1           0        3.341294    5.922524    0.514128
     33          1           0        2.498765    6.438077   -0.845707
     34          1           0        3.866683    4.944905   -2.303767
     35          1           0        4.659199    4.259064   -0.892937
     36          1           0        6.149690    5.975578   -1.837191
     37          1           0        5.564887    6.514896   -0.323506
     38          1           0        4.416106    7.249276   -2.955081
     39          1           0        4.065701    8.126763   -1.658881
     40          1           0        5.598372    8.074131   -2.037497
     41          7           0       -1.237110    4.682754   -0.531093
     42          6           0       -2.359334    5.179173   -1.301601
     43          6           0       -3.649590    4.937693   -0.537844
     44          8           0       -4.687991    5.461222   -0.939518
     45          6           0       -2.437708    4.604819   -2.715947
     46          6           0       -2.740418    3.115293   -2.768665
     47          8           0       -2.635008    2.456004   -1.713617
     48          8           0       -2.975666    2.644714   -3.900130
     49          1           0       -1.076928    3.680685   -0.561080
     50          1           0       -2.314250    6.258686   -1.472532
     51          1           0       -1.469716    4.802114   -3.184420
     52          1           0       -3.232771    5.138376   -3.220023
     53          7           0       -3.560512    4.146662    0.533853
     54          6           0       -4.730820    3.784724    1.314993
     55          6           0       -5.739596    2.830822    0.687664
     56          8           0       -6.911011    2.801083    1.063166
     57          1           0       -2.669220    3.727784    0.754400
     58          1           0       -5.234397    4.733958    1.472997
     59          1           0       -4.403713    3.309744    2.244023
     60          7           0       -5.339500    2.033494   -0.303896
     61          6           0       -6.198215    1.069381   -0.978948
     62          6           0       -6.536134   -0.190790   -0.200307
     63          8           0       -7.303453   -0.982639   -0.737983
     64          6           0       -5.738171    0.691231   -2.378792
     65          6           0       -4.596090   -0.316761   -2.471532
     66          7           0       -4.273907   -0.769728   -3.691663
     67          8           0       -3.929680   -0.707577   -1.528738
     68          1           0       -4.384860    2.036641   -0.621942
     69          1           0       -7.149291    1.597989   -1.050548
     70          1           0       -5.465398    1.573188   -2.958659
     71          1           0       -6.594118    0.277212   -2.896714
     72          1           0       -4.851482   -0.583191   -4.500001
     73          1           0       -3.851797   -1.683049   -3.717479
     74          7           0       -6.088641   -0.315078    1.051093
     75          6           0       -6.464324   -1.359160    1.976974
     76          6           0       -5.427412   -2.476254    2.107027
     77          8           0       -5.628522   -3.320536    2.971227
     78          1           0       -5.452199    0.415480    1.353792
     79          1           0       -7.292159   -1.932641    1.552228
     80          1           0       -6.693448   -0.960248    2.962759
     81          7           0       -4.336289   -2.470865    1.345960
     82          6           0       -3.222301   -3.376985    1.497214
     83          6           0       -1.847623   -2.753462    1.256634
     84          8           0       -1.674646   -1.732843    0.588939
     85          6           0       -3.472351   -4.568816    0.578295
     86          6           0       -4.588912   -4.586061   -0.431207
     87          6           0       -5.644007   -5.500191   -0.290700
     88          6           0       -4.551252   -3.669614   -1.485345
     89          6           0       -6.708976   -5.465253   -1.191045
     90          6           0       -5.572307   -3.744437   -2.448335
     91          6           0       -6.731630   -4.521118   -2.235409
     92          8           0       -7.683499   -4.579535   -3.216955
     93          1           0       -4.299602   -1.684836    0.706418
     94          1           0       -3.246100   -3.818729    2.489179
     95          1           0       -3.698532   -5.407381    1.240904
     96          1           0       -2.530721   -4.868200    0.105958
     97          1           0       -5.787663   -6.210585    0.518067
     98          1           0       -3.699601   -3.034540   -1.661048
     99          1           0       -7.548625   -6.135599   -1.066449
    100          1           0       -5.556460   -3.083361   -3.292211
    101          1           0       -8.323055   -5.288317   -3.140159
    102          7           0       -0.846296   -3.417639    1.848423
    103          6           0        0.548723   -3.048975    1.749382
    104          6           0        1.103041   -3.937512    0.637837
    105          8           0        0.865025   -5.138870    0.628404
    106          6           0        1.329448   -3.344356    3.024929
    107          6           0        0.650671   -2.832770    4.293053
    108          6           0        2.720666   -2.738102    2.976256
    109          6           0        1.208170   -3.368075    5.607414
    110          1           0       -1.113138   -4.267561    2.333219
    111          1           0        0.662773   -2.027350    1.380228
    112          1           0        1.503171   -4.425338    3.056498
    113          1           0       -0.415025   -3.010802    4.349600
    114          1           0        0.824792   -1.755328    4.310391
    115          1           0        2.696595   -1.650200    2.845910
    116          1           0        3.331973   -3.059814    3.823195
    117          1           0        3.305914   -3.087165    2.133617
    118          1           0        0.784670   -4.363445    5.670542
    119          1           0        2.301667   -3.357251    5.684538
    120          1           0        0.921843   -2.822326    6.509730
    121          7           0        1.967738   -3.397887   -0.220302
    122          6           0        2.791983   -4.127242   -1.170912
    123          6           0        4.259666   -3.747330   -1.037588
    124          8           0        4.609785   -2.752872   -0.405077
    125          6           0        2.364854   -3.952125   -2.624802
    126          8           0        2.263219   -2.586577   -2.976725
    127          1           0        2.169310   -2.420939   -0.076286
    128          1           0        2.768650   -5.182609   -0.913703
    129          1           0        1.402148   -4.439522   -2.764944
    130          1           0        2.985264   -4.355870   -3.433184
    131          1           0        1.820804   -2.461501   -3.820481
    132          7           0        5.296983   -4.419021   -1.563139
    133          6           0        6.708350   -4.298765   -1.287311
    134          6           0        7.244900   -2.900468   -1.558934
    135          8           0        8.041190   -2.376803   -0.778487
    136          6           0        7.534915   -5.354121   -2.016295
    137          1           0        4.976234   -5.276974   -1.981631
    138          1           0        6.945869   -4.443952   -0.239072
    139          1           0        8.580416   -5.301465   -1.709286
    140          1           0        7.084542   -6.340676   -1.867725
    141          1           0        7.467708   -5.225819   -3.091154
    142          7           0        6.885362   -2.209736   -2.644486
    143          6           0        7.284731   -0.821173   -2.773327
    144          6           0        6.943338    0.182703   -1.687471
    145          8           0        7.776014    1.062829   -1.426264
    146          6           0        6.688948   -0.251078   -4.054160
    147          1           0        6.294316   -2.639081   -3.336170
    148          1           0        8.367318   -0.868050   -2.917226
    149          1           0        7.254199    0.655899   -4.281281
    150          1           0        6.879508   -0.920717   -4.889547
    151          1           0        5.616433   -0.054653   -4.128512
    152          7           0        5.791352   -0.001089   -1.052373
    153          6           0        5.310859    0.756053    0.088925
    154          6           0        5.988687    0.380930    1.395344
    155          8           0        6.483356    1.216756    2.151716
    156          6           0        3.798481    0.586622    0.249880
    157          6           0        3.025837    0.662586   -1.060177
    158          6           0        1.525669    0.631432   -0.796120
    159          8           0        0.807238    1.650148   -0.779573
    160          8           0        0.940057   -0.467298   -0.652763
    161          1           0        5.191132   -0.763170   -1.328723
    162          1           0        5.582319    1.797613   -0.112227
    163          1           0        3.444911    1.336088    0.968411
    164          1           0        3.622617   -0.438137    0.563634
    165          1           0        3.361214   -0.265112   -1.519088
    166          1           0        3.235545    1.609673   -1.558923
    167          7           0        6.302058   -0.892354    1.615909
    168          6           0        7.182143   -1.474983    2.619948
    169          1           0        8.128649   -1.750512    2.156164
    170          1           0        7.363855   -0.746899    3.410844
    171          1           0        6.713328   -2.363899    3.043136
    172          1           0        5.954439   -1.559854    0.942259
    173         20           0       -1.490425    0.235480   -1.055009
    174          8           0       -1.091157    0.720040   -3.616335
    175          1           0       -1.663165    1.386432   -3.979692
    176          1           0       -0.416955    0.588432   -4.290745
 ---------------------------------------------------------------------
 Rotational constants (GHZ):           0.0238519           0.0153425           0.0123122
 Standard basis: SVP (5D, 7F)
 There are  1809 symmetry adapted cartesian basis functions of A   symmetry.
 There are  1717 symmetry adapted basis functions of A   symmetry.
  1717 basis functions,  2922 primitive gaussians,  1809 cartesian basis functions
   358 alpha electrons      358 beta electrons
       nuclear repulsion energy     21793.8002187432 Hartrees.
 NAtoms=  176 NActive=  176 NUniq=  176 SFac= 1.00D+00 NAtFMM=   60 NAOKFM=T Big=T
 Integral buffers will be    131072 words long.
 Raffenetti 2 integral format.
 Two-electron integral symmetry is turned on.
 One-electron integrals computed using PRISM.
 NBasis=  1717 RedAO= T EigKep=  3.39D-04  NBF=  1717
 NBsUse=  1717 1.00D-06 EigRej= -1.00D+00 NBFU=  1717
 ExpMin= 1.98D-02 ExpMax= 3.51D+04 ExpMxC= 5.28D+03 IAcc=3 IRadAn=         5 AccDes= 0.00D+00
 Harris functional with IExCor=  402 and IRadAn=       5 diagonalized for initial guess.
 HarFok:  IExCor=  402 AccDes= 0.00D+00 IRadAn=         5 IDoV= 1 UseB2=F ITyADJ=14
 ICtDFT=  3500011 ScaDFX=  1.000000  1.000000  1.000000  1.000000
 FoFCou: FMM=F IPFlag=           0 FMFlag=      100000 FMFlg1=        2001
         NFxFlg=           0 DoJE=T BraDBF=F KetDBF=T FulRan=T
         wScrn=  0.000000 ICntrl=       500 IOpCl=  0 I1Cent=   200000004 NGrid=           0
         NMat0=    1 NMatS0=      1 NMatT0=    0 NMatD0=    1 NMtDS0=    0 NMtDT0=    0
 Petite list used in FoFCou.
 Requested convergence on RMS density matrix=1.00D-08 within 128 cycles.
 Requested convergence on MAX density matrix=1.00D-06.
 Requested convergence on             energy=1.00D-06.
 No special actions if energy rises.
 EnCoef did     1 forward-backward iterations
 SCF Done:  E(RB3LYP) =  -5333.59499518     A.U. after   16 cycles
            NFock= 16  Conv=0.24D-08     -V/T= 2.0082
 SCF density gives NOpUse=  1 NOpAll=  1.
 Hyperfine terms turned off by default for NAtoms > 100.

 **********************************************************************

            Population analysis using the SCF density.

 **********************************************************************

 Orbital symmetries:
 BldTbl:  Degeneracy threshold= 1.00D-02
       Occupied  (A) (A) (A) (A) (A) (A) (A) (A) (A) (A) (A) (A)
                 (A) (A) (A) (A) (A) (A) (A) (A) (A) (A) (A) (A)
                 (A) (A) (A) (A) (A) (A) (A) (A) (A) (A) (A) (A)
                 (A) (A) (A) (A) (A) (A) (A) (A) (A) (A) (A) (A)
                 (A) (A) (A) (A) (A) (A) (A) (A) (A) (A) (A) (A)
                 (A) (A) (A) (A) (A) (A) (A) (A) (A) (A) (A) (A)
                 (A) (A) (A) (A) (A) (A) (A) (A) (A) (A) (A) (A)
                 (A) (A) (A) (A) (A) (A) (A) (A) (A) (A) (A) (A)
                 (A) (A) (A) (A) (A) (A) (A) (A) (A) (A) (A) (A)
                 (A) (A) (A) (A) (A) (A) (A) (A) (A) (A) (A) (A)
                 (A) (A) (A) (A) (A) (A) (A) (A) (A) (A) (A) (A)
                 (A) (A) (A) (A) (A) (A) (A) (A) (A) (A) (A) (A)
                 (A) (A) (A) (A) (A) (A) (A) (A) (A) (A) (A) (A)
                 (A) (A) (A) (A) (A) (A) (A) (A) (A) (A) (A) (A)
                 (A) (A) (A) (A) (A) (A) (A) (A) (A) (A) (A) (A)
                 (A) (A) (A) (A) (A) (A) (A) (A) (A) (A) (A) (A)
                 (A) (A) (A) (A) (A) (A) (A) (A) (A) (A) (A) (A)
                 (A) (A) (A) (A) (A) (A) (A) (A) (A) (A) (A) (A)
                 (A) (A) (A) (A) (A) (A) (A) (A) (A) (A) (A) (A)
                 (A) (A) (A) (A) (A) (A) (A) (A) (A) (A) (A) (A)
                 (A) (A) (A) (A) (A) (A) (A) (A) (A) (A) (A) (A)
                 (A) (A) (A) (A) (A) (A) (A) (A) (A) (A) (A) (A)
                 (A) (A) (A) (A) (A) (A) (A) (A) (A) (A) (A) (A)
                 (A) (A) (A) (A) (A) (A) (A) (A) (A) (A) (A) (A)
                 (A) (A) (A) (A) (A) (A) (A) (A) (A) (A) (A) (A)
                 (A) (A) (A) (A) (A) (A) (A) (A) (A) (A) (A) (A)
                 (A) (A) (A) (A) (A) (A) (A) (A) (A) (A) (A) (A)
                 (A) (A) (A) (A) (A) (A) (A) (A) (A) (A) (A) (A)
                 (A) (A) (A) (A) (A) (A) (A) (A) (A) (A) (A) (A)
                 (A) (A) (A) (A) (A) (A) (A) (A) (A) (A)
       Virtual   (A) (A) (A) (A) (A) (A) (A) (A) (A) (A) (A) (A)
                 (A) (A) (A) (A) (A) (A) (A) (A) (A) (A) (A) (A)
                 (A) (A) (A) (A) (A) (A) (A) (A) (A) (A) (A) (A)
                 (A) (A) (A) (A) (A) (A) (A) (A) (A) (A) (A) (A)
                 (A) (A) (A) (A) (A) (A) (A) (A) (A) (A) (A) (A)
                 (A) (A) (A) (A) (A) (A) (A) (A) (A) (A) (A) (A)
                 (A) (A) (A) (A) (A) (A) (A) (A) (A) (A) (A) (A)
                 (A) (A) (A) (A) (A) (A) (A) (A) (A) (A) (A) (A)
                 (A) (A) (A) (A) (A) (A) (A) (A) (A) (A) (A) (A)
                 (A) (A) (A) (A) (A) (A) (A) (A) (A) (A) (A) (A)
                 (A) (A) (A) (A) (A) (A) (A) (A) (A) (A) (A) (A)
                 (A) (A) (A) (A) (A) (A) (A) (A) (A) (A) (A) (A)
                 (A) (A) (A) (A) (A) (A) (A) (A) (A) (A) (A) (A)
                 (A) (A) (A) (A) (A) (A) (A) (A) (A) (A) (A) (A)
                 (A) (A) (A) (A) (A) (A) (A) (A) (A) (A) (A) (A)
                 (A) (A) (A) (A) (A) (A) (A) (A) (A) (A) (A) (A)
                 (A) (A) (A) (A) (A) (A) (A) (A) (A) (A) (A) (A)
                 (A) (A) (A) (A) (A) (A) (A) (A) (A) (A) (A) (A)
                 (A) (A) (A) (A) (A) (A) (A) (A) (A) (A) (A) (A)
                 (A) (A) (A) (A) (A) (A) (A) (A) (A) (A) (A) (A)
                 (A) (A) (A) (A) (A) (A) (A) (A) (A) (A) (A) (A)
                 (A) (A) (A) (A) (A) (A) (A) (A) (A) (A) (A) (A)
                 (A) (A) (A) (A) (A) (A) (A) (A) (A) (A) (A) (A)
                 (A) (A) (A) (A) (A) (A) (A) (A) (A) (A) (A) (A)
                 (A) (A) (A) (A) (A) (A) (A) (A) (A) (A) (A) (A)
                 (A) (A) (A) (A) (A) (A) (A) (A) (A) (A) (A) (A)
                 (A) (A) (A) (A) (A) (A) (A) (A) (A) (A) (A) (A)
                 (A) (A) (A) (A) (A) (A) (A) (A) (A) (A) (A) (A)
                 (A) (A) (A) (A) (A) (A) (A) (A) (A) (A) (A) (A)
                 (A) (A) (A) (A) (A) (A) (A) (A) (A) (A) (A) (A)
                 (A) (A) (A) (A) (A) (A) (A) (A) (A) (A) (A) (A)
                 (A) (A) (A) (A) (A) (A) (A) (A) (A) (A) (A) (A)
                 (A) (A) (A) (A) (A) (A) (A) (A) (A) (A) (A) (A)
                 (A) (A) (A) (A) (A) (A) (A) (A) (A) (A) (A) (A)
                 (A) (A) (A) (A) (A) (A) (A) (A) (A) (A) (A) (A)
                 (A) (A) (A) (A) (A) (A) (A) (A) (A) (A) (A) (A)
                 (A) (A) (A) (A) (A) (A) (A) (A) (A) (A) (A) (A)
                 (A) (A) (A) (A) (A) (A) (A) (A) (A) (A) (A) (A)
                 (A) (A) (A) (A) (A) (A) (A) (A) (A) (A) (A) (A)
                 (A) (A) (A) (A) (A) (A) (A) (A) (A) (A) (A) (A)
                 (A) (A) (A) (A) (A) (A) (A) (A) (A) (A) (A) (A)
                 (A) (A) (A) (A) (A) (A) (A) (A) (A) (A) (A) (A)
                 (A) (A) (A) (A) (A) (A) (A) (A) (A) (A) (A) (A)
                 (A) (A) (A) (A) (A) (A) (A) (A) (A) (A) (A) (A)
                 (A) (A) (A) (A) (A) (A) (A) (A) (A) (A) (A) (A)
                 (A) (A) (A) (A) (A) (A) (A) (A) (A) (A) (A) (A)
                 (A) (A) (A) (A) (A) (A) (A) (A) (A) (A) (A) (A)
                 (A) (A) (A) (A) (A) (A) (A) (A) (A) (A) (A) (A)
                 (A) (A) (A) (A) (A) (A) (A) (A) (A) (A) (A) (A)
                 (A) (A) (A) (A) (A) (A) (A) (A) (A) (A) (A) (A)
                 (A) (A) (A) (A) (A) (A) (A) (A) (A) (A) (A) (A)
                 (A) (A) (A) (A) (A) (A) (A) (A) (A) (A) (A) (A)
                 (A) (A) (A) (A) (A) (A) (A) (A) (A) (A) (A) (A)
                 (A) (A) (A) (A) (A) (A) (A) (A) (A) (A) (A) (A)
                 (A) (A) (A) (A) (A) (A) (A) (A) (A) (A) (A) (A)
                 (A) (A) (A) (A) (A) (A) (A) (A) (A) (A) (A) (A)
                 (A) (A) (A) (A) (A) (A) (A) (A) (A) (A) (A) (A)
                 (A) (A) (A) (A) (A) (A) (A) (A) (A) (A) (A) (A)
                 (A) (A) (A) (A) (A) (A) (A) (A) (A) (A) (A) (A)
                 (A) (A) (A) (A) (A) (A) (A) (A) (A) (A) (A) (A)
                 (A) (A) (A) (A) (A) (A) (A) (A) (A) (A) (A) (A)
                 (A) (A) (A) (A) (A) (A) (A) (A) (A) (A) (A) (A)
                 (A) (A) (A) (A) (A) (A) (A) (A) (A) (A) (A) (A)
                 (A) (A) (A) (A) (A) (A) (A) (A) (A) (A) (A) (A)
                 (A) (A) (A) (A) (A) (A) (A) (A) (A) (A) (A) (A)
                 (A) (A) (A) (A) (A) (A) (A) (A) (A) (A) (A) (A)
                 (A) (A) (A) (A) (A) (A) (A) (A) (A) (A) (A) (A)
                 (A) (A) (A) (A) (A) (A) (A) (A) (A) (A) (A) (A)
                 (A) (A) (A) (A) (A) (A) (A) (A) (A) (A) (A) (A)
                 (A) (A) (A) (A) (A) (A) (A) (A) (A) (A) (A) (A)
                 (A) (A) (A) (A) (A) (A) (A) (A) (A) (A) (A) (A)
                 (A) (A) (A) (A) (A) (A) (A) (A) (A) (A) (A) (A)
                 (A) (A) (A) (A) (A) (A) (A) (A) (A) (A) (A) (A)
                 (A) (A) (A) (A) (A) (A) (A) (A) (A) (A) (A) (A)
                 (A) (A) (A) (A) (A) (A) (A) (A) (A) (A) (A) (A)
                 (A) (A) (A) (A) (A) (A) (A) (A) (A) (A) (A) (A)
                 (A) (A) (A) (A) (A) (A) (A) (A) (A) (A) (A) (A)
                 (A) (A) (A) (A) (A) (A) (A) (A) (A) (A) (A) (A)
                 (A) (A) (A) (A) (A) (A) (A) (A) (A) (A) (A) (A)
                 (A) (A) (A) (A) (A) (A) (A) (A) (A) (A) (A) (A)
                 (A) (A) (A) (A) (A) (A) (A) (A) (A) (A) (A) (A)
                 (A) (A) (A) (A) (A) (A) (A) (A) (A) (A) (A) (A)
                 (A) (A) (A) (A) (A) (A) (A) (A) (A) (A) (A) (A)
                 (A) (A) (A) (A) (A) (A) (A) (A) (A) (A) (A) (A)
                 (A) (A) (A) (A) (A) (A) (A) (A) (A) (A) (A) (A)
                 (A) (A) (A) (A) (A) (A) (A) (A) (A) (A) (A) (A)
                 (A) (A) (A) (A) (A) (A) (A) (A) (A) (A) (A) (A)
                 (A) (A) (A) (A) (A) (A) (A) (A) (A) (A) (A) (A)
                 (A) (A) (A) (A) (A) (A) (A) (A) (A) (A) (A) (A)
                 (A) (A) (A) (A) (A) (A) (A) (A) (A) (A) (A) (A)
                 (A) (A) (A) (A) (A) (A) (A) (A) (A) (A) (A) (A)
                 (A) (A) (A) (A) (A) (A) (A) (A) (A) (A) (A) (A)
                 (A) (A) (A) (A) (A) (A) (A) (A) (A) (A) (A) (A)
                 (A) (A) (A) (A) (A) (A) (A) (A) (A) (A) (A) (A)
                 (A) (A) (A) (A) (A) (A) (A) (A) (A) (A) (A) (A)
                 (A) (A) (A) (A) (A) (A) (A) (A) (A) (A) (A) (A)
                 (A) (A) (A) (A) (A) (A) (A) (A) (A) (A) (A) (A)
                 (A) (A) (A) (A) (A) (A) (A) (A) (A) (A) (A) (A)
                 (A) (A) (A) (A) (A) (A) (A) (A) (A) (A) (A) (A)
                 (A) (A) (A) (A) (A) (A) (A) (A) (A) (A) (A) (A)
                 (A) (A) (A) (A) (A) (A) (A) (A) (A) (A) (A) (A)
                 (A) (A) (A) (A) (A) (A) (A) (A) (A) (A) (A) (A)
                 (A) (A) (A) (A) (A) (A) (A) (A) (A) (A) (A) (A)
                 (A) (A) (A) (A) (A) (A) (A) (A) (A) (A) (A) (A)
                 (A) (A) (A) (A) (A) (A) (A) (A) (A) (A) (A) (A)
                 (A) (A) (A) (A) (A) (A) (A) (A) (A) (A) (A) (A)
                 (A) (A) (A) (A) (A) (A) (A) (A) (A) (A) (A) (A)
                 (A) (A) (A) (A) (A) (A) (A) (A) (A) (A) (A) (A)
                 (A) (A) (A) (A) (A) (A) (A) (A) (A) (A) (A) (A)
                 (A) (A) (A) (A) (A) (A) (A) (A) (A) (A) (A) (A)
                 (A) (A) (A) (A) (A) (A) (A) (A) (A) (A) (A) (A)
                 (A) (A) (A) (A) (A) (A) (A) (A) (A) (A) (A) (A)
                 (A) (A) (A) (A) (A) (A) (A) (A) (A) (A) (A) (A)
                 (A) (A) (A)
 The electronic state is 1-A.
 Alpha  occ. eigenvalues -- -145.35975 -19.16119 -19.14549 -19.13981 -19.13899
 Alpha  occ. eigenvalues --  -19.12411 -19.12409 -19.11082 -19.10312 -19.09088
 Alpha  occ. eigenvalues --  -19.07502 -19.07463 -19.07397 -19.07189 -19.06129
 Alpha  occ. eigenvalues --  -19.06116 -19.05459 -19.05376 -19.05289 -19.04600
 Alpha  occ. eigenvalues --  -19.04053 -19.03791 -19.03696 -19.01733 -15.41754
 Alpha  occ. eigenvalues --  -14.58683 -14.40060 -14.37581 -14.36991 -14.36586
 Alpha  occ. eigenvalues --  -14.36020 -14.35175 -14.33685 -14.32069 -14.31871
 Alpha  occ. eigenvalues --  -14.31781 -14.31540 -14.31011 -14.29799 -14.29417
 Alpha  occ. eigenvalues --  -12.55352 -12.55337 -12.55313 -10.34861 -10.32845
 Alpha  occ. eigenvalues --  -10.30430 -10.30396 -10.30033 -10.28755 -10.28210
 Alpha  occ. eigenvalues --  -10.27773 -10.27532 -10.27026 -10.26762 -10.26736
 Alpha  occ. eigenvalues --  -10.26347 -10.25565 -10.25162 -10.24824 -10.24426
 Alpha  occ. eigenvalues --  -10.24364 -10.24292 -10.23913 -10.23603 -10.23600
 Alpha  occ. eigenvalues --  -10.23140 -10.22887 -10.22712 -10.22638 -10.22590
 Alpha  occ. eigenvalues --  -10.22466 -10.22233 -10.21781 -10.20993 -10.20428
 Alpha  occ. eigenvalues --  -10.19923 -10.19798 -10.19690 -10.19661 -10.18981
 Alpha  occ. eigenvalues --  -10.18562 -10.18419 -10.18130 -10.17994 -10.17794
 Alpha  occ. eigenvalues --  -10.17680 -10.17661 -10.17628 -10.17523 -10.17329
 Alpha  occ. eigenvalues --  -10.17311 -10.17247 -10.17238 -10.17130 -10.16898
 Alpha  occ. eigenvalues --  -10.15682 -10.15212  -1.78711  -1.14006  -1.07987
 Alpha  occ. eigenvalues --   -1.06647  -1.06287  -1.06222  -1.05287  -1.04760
 Alpha  occ. eigenvalues --   -1.04597  -1.04358  -1.03505  -1.02907  -1.02717
 Alpha  occ. eigenvalues --   -1.01499  -1.00762  -1.00547  -1.00335  -0.99525
 Alpha  occ. eigenvalues --   -0.99153  -0.98924  -0.98853  -0.98391  -0.97513
 Alpha  occ. eigenvalues --   -0.97144  -0.96476  -0.96177  -0.93903  -0.93809
 Alpha  occ. eigenvalues --   -0.93267  -0.92091  -0.91688  -0.91267  -0.90667
 Alpha  occ. eigenvalues --   -0.90410  -0.89928  -0.89627  -0.88573  -0.88105
 Alpha  occ. eigenvalues --   -0.87883  -0.87541  -0.86939  -0.86633  -0.85532
 Alpha  occ. eigenvalues --   -0.83243  -0.82880  -0.81964  -0.81337  -0.79958
 Alpha  occ. eigenvalues --   -0.79115  -0.78012  -0.77557  -0.76851  -0.75900
 Alpha  occ. eigenvalues --   -0.75324  -0.74608  -0.74302  -0.73183  -0.72886
 Alpha  occ. eigenvalues --   -0.72431  -0.72297  -0.70535  -0.70510  -0.70110
 Alpha  occ. eigenvalues --   -0.70104  -0.69427  -0.68238  -0.68101  -0.67933
 Alpha  occ. eigenvalues --   -0.67720  -0.66150  -0.65009  -0.64365  -0.64060
 Alpha  occ. eigenvalues --   -0.63983  -0.63223  -0.62818  -0.61818  -0.61567
 Alpha  occ. eigenvalues --   -0.61045  -0.60502  -0.60375  -0.60028  -0.59867
 Alpha  occ. eigenvalues --   -0.59678  -0.59164  -0.58293  -0.58237  -0.58120
 Alpha  occ. eigenvalues --   -0.57467  -0.56309  -0.55858  -0.55511  -0.55396
 Alpha  occ. eigenvalues --   -0.55340  -0.55123  -0.54873  -0.54800  -0.54251
 Alpha  occ. eigenvalues --   -0.53907  -0.53871  -0.53803  -0.53468  -0.53123
 Alpha  occ. eigenvalues --   -0.52977  -0.52887  -0.52718  -0.51627  -0.51373
 Alpha  occ. eigenvalues --   -0.51197  -0.50980  -0.50641  -0.50495  -0.49951
 Alpha  occ. eigenvalues --   -0.49384  -0.49181  -0.48994  -0.48940  -0.48613
 Alpha  occ. eigenvalues --   -0.48533  -0.48211  -0.47730  -0.47549  -0.47332
 Alpha  occ. eigenvalues --   -0.47166  -0.47031  -0.46948  -0.46914  -0.45948
 Alpha  occ. eigenvalues --   -0.45790  -0.45595  -0.45432  -0.45282  -0.45084
 Alpha  occ. eigenvalues --   -0.44744  -0.44598  -0.44498  -0.44392  -0.44338
 Alpha  occ. eigenvalues --   -0.44226  -0.44060  -0.43809  -0.43738  -0.43565
 Alpha  occ. eigenvalues --   -0.43366  -0.43198  -0.43135  -0.43031  -0.42924
 Alpha  occ. eigenvalues --   -0.42428  -0.42278  -0.42122  -0.42093  -0.41927
 Alpha  occ. eigenvalues --   -0.41720  -0.41674  -0.41445  -0.41329  -0.41302
 Alpha  occ. eigenvalues --   -0.41159  -0.41112  -0.40959  -0.40696  -0.40592
 Alpha  occ. eigenvalues --   -0.40354  -0.40219  -0.40082  -0.39932  -0.39728
 Alpha  occ. eigenvalues --   -0.39674  -0.39400  -0.39367  -0.39310  -0.39084
 Alpha  occ. eigenvalues --   -0.39000  -0.38869  -0.38828  -0.38778  -0.38490
 Alpha  occ. eigenvalues --   -0.38359  -0.38286  -0.38187  -0.38085  -0.37940
 Alpha  occ. eigenvalues --   -0.37473  -0.37299  -0.37214  -0.37154  -0.36981
 Alpha  occ. eigenvalues --   -0.36818  -0.36760  -0.36456  -0.36278  -0.36148
 Alpha  occ. eigenvalues --   -0.35961  -0.35745  -0.35451  -0.35364  -0.35338
 Alpha  occ. eigenvalues --   -0.35088  -0.34766  -0.34718  -0.34456  -0.34363
 Alpha  occ. eigenvalues --   -0.34312  -0.34180  -0.33901  -0.33595  -0.33507
 Alpha  occ. eigenvalues --   -0.33234  -0.33106  -0.32871  -0.32770  -0.32568
 Alpha  occ. eigenvalues --   -0.32249  -0.32061  -0.31973  -0.31823  -0.31494
 Alpha  occ. eigenvalues --   -0.31357  -0.31266  -0.31029  -0.30673  -0.30373
 Alpha  occ. eigenvalues --   -0.29371  -0.29330  -0.28583  -0.28449  -0.27997
 Alpha  occ. eigenvalues --   -0.27788  -0.27366  -0.26820  -0.26717  -0.26250
 Alpha  occ. eigenvalues --   -0.25860  -0.25636  -0.25220  -0.24876  -0.24620
 Alpha  occ. eigenvalues --   -0.24418  -0.24317  -0.24008  -0.23805  -0.23284
 Alpha  occ. eigenvalues --   -0.23118  -0.22947  -0.22812  -0.22552  -0.22043
 Alpha  occ. eigenvalues --   -0.21830  -0.21819  -0.21656  -0.21323  -0.20872
 Alpha  occ. eigenvalues --   -0.20688  -0.20637  -0.20481  -0.20243  -0.19513
 Alpha  occ. eigenvalues --   -0.19238  -0.18599  -0.17534
 Alpha virt. eigenvalues --   -0.10445  -0.04973  -0.04352  -0.03038  -0.01895
 Alpha virt. eigenvalues --   -0.00692  -0.00409  -0.00181  -0.00053   0.00378
 Alpha virt. eigenvalues --    0.00526   0.01167   0.01626   0.01934   0.02215
 Alpha virt. eigenvalues --    0.02746   0.02925   0.03325   0.03426   0.03737
 Alpha virt. eigenvalues --    0.04008   0.04395   0.04788   0.04893   0.05116
 Alpha virt. eigenvalues --    0.05280   0.05440   0.05800   0.06073   0.06200
 Alpha virt. eigenvalues --    0.06395   0.06431   0.06763   0.06809   0.07163
 Alpha virt. eigenvalues --    0.07192   0.07376   0.07711   0.07821   0.08021
 Alpha virt. eigenvalues --    0.08056   0.08205   0.08427   0.08562   0.08841
 Alpha virt. eigenvalues --    0.09019   0.09052   0.09228   0.09382   0.09654
 Alpha virt. eigenvalues --    0.09733   0.10195   0.10374   0.10590   0.10767
 Alpha virt. eigenvalues --    0.11056   0.11131   0.11297   0.11606   0.11824
 Alpha virt. eigenvalues --    0.11869   0.12337   0.12435   0.12532   0.12650
 Alpha virt. eigenvalues --    0.13093   0.13214   0.13371   0.13472   0.13521
 Alpha virt. eigenvalues --    0.13847   0.14096   0.14299   0.14470   0.14536
 Alpha virt. eigenvalues --    0.14846   0.14960   0.15066   0.15236   0.15514
 Alpha virt. eigenvalues --    0.15618   0.15753   0.16137   0.16324   0.16423
 Alpha virt. eigenvalues --    0.16545   0.16712   0.16782   0.16873   0.17101
 Alpha virt. eigenvalues --    0.17136   0.17280   0.17528   0.17832   0.17964
 Alpha virt. eigenvalues --    0.18093   0.18522   0.18623   0.18845   0.18921
 Alpha virt. eigenvalues --    0.19264   0.19324   0.19555   0.19771   0.19850
 Alpha virt. eigenvalues --    0.20188   0.20278   0.20345   0.20450   0.20592
 Alpha virt. eigenvalues --    0.20949   0.21311   0.21426   0.21667   0.21728
 Alpha virt. eigenvalues --    0.21876   0.21991   0.22180   0.22304   0.22598
 Alpha virt. eigenvalues --    0.22694   0.23193   0.23394   0.23531   0.23609
 Alpha virt. eigenvalues --    0.23901   0.24324   0.24648   0.24790   0.24915
 Alpha virt. eigenvalues --    0.25078   0.25401   0.25466   0.25744   0.25822
 Alpha virt. eigenvalues --    0.25903   0.26094   0.26432   0.26620   0.26907
 Alpha virt. eigenvalues --    0.26970   0.27109   0.27502   0.27678   0.28061
 Alpha virt. eigenvalues --    0.28215   0.28559   0.28755   0.28895   0.29109
 Alpha virt. eigenvalues --    0.29567   0.29702   0.30039   0.30321   0.30555
 Alpha virt. eigenvalues --    0.30714   0.30822   0.31016   0.31307   0.31494
 Alpha virt. eigenvalues --    0.31657   0.31734   0.31977   0.32357   0.32666
 Alpha virt. eigenvalues --    0.32710   0.32808   0.33223   0.33782   0.33879
 Alpha virt. eigenvalues --    0.34013   0.34249   0.34607   0.34778   0.35017
 Alpha virt. eigenvalues --    0.35341   0.36173   0.36484   0.36795   0.37252
 Alpha virt. eigenvalues --    0.37445   0.37495   0.37692   0.37854   0.38140
 Alpha virt. eigenvalues --    0.38553   0.38843   0.39091   0.39368   0.39552
 Alpha virt. eigenvalues --    0.39813   0.40092   0.40301   0.40503   0.40858
 Alpha virt. eigenvalues --    0.41148   0.41315   0.41515   0.41923   0.42176
 Alpha virt. eigenvalues --    0.42477   0.42812   0.42958   0.43206   0.43465
 Alpha virt. eigenvalues --    0.43789   0.44075   0.44296   0.44347   0.44651
 Alpha virt. eigenvalues --    0.44938   0.45095   0.45370   0.45561   0.45650
 Alpha virt. eigenvalues --    0.45751   0.45914   0.46214   0.46287   0.46451
 Alpha virt. eigenvalues --    0.46603   0.46810   0.47103   0.47458   0.47530
 Alpha virt. eigenvalues --    0.47660   0.47854   0.48119   0.48308   0.48392
 Alpha virt. eigenvalues --    0.48635   0.48808   0.49180   0.49422   0.49479
 Alpha virt. eigenvalues --    0.49625   0.49744   0.49859   0.50258   0.50415
 Alpha virt. eigenvalues --    0.50558   0.50773   0.50938   0.51118   0.51281
 Alpha virt. eigenvalues --    0.51386   0.51543   0.51839   0.52150   0.52470
 Alpha virt. eigenvalues --    0.52546   0.52998   0.53119   0.53167   0.53321
 Alpha virt. eigenvalues --    0.53576   0.53804   0.53840   0.54067   0.54176
 Alpha virt. eigenvalues --    0.54278   0.54388   0.54849   0.55031   0.55123
 Alpha virt. eigenvalues --    0.55233   0.55343   0.55474   0.55784   0.55860
 Alpha virt. eigenvalues --    0.55989   0.56052   0.56403   0.56516   0.56681
 Alpha virt. eigenvalues --    0.56946   0.57201   0.57438   0.57579   0.57651
 Alpha virt. eigenvalues --    0.57832   0.58061   0.58104   0.58428   0.58520
 Alpha virt. eigenvalues --    0.58559   0.58813   0.59177   0.59461   0.59547
 Alpha virt. eigenvalues --    0.59762   0.59786   0.59904   0.60068   0.60192
 Alpha virt. eigenvalues --    0.60415   0.60620   0.60838   0.60977   0.61302
 Alpha virt. eigenvalues --    0.61328   0.61398   0.61467   0.61652   0.61728
 Alpha virt. eigenvalues --    0.62098   0.62157   0.62255   0.62361   0.62513
 Alpha virt. eigenvalues --    0.62718   0.62773   0.62982   0.63113   0.63157
 Alpha virt. eigenvalues --    0.63381   0.63534   0.63636   0.63869   0.64043
 Alpha virt. eigenvalues --    0.64155   0.64226   0.64282   0.64413   0.64444
 Alpha virt. eigenvalues --    0.64761   0.64831   0.64998   0.65103   0.65145
 Alpha virt. eigenvalues --    0.65281   0.65297   0.65415   0.65522   0.65586
 Alpha virt. eigenvalues --    0.65727   0.65922   0.66004   0.66148   0.66274
 Alpha virt. eigenvalues --    0.66437   0.66480   0.66593   0.66632   0.66857
 Alpha virt. eigenvalues --    0.66930   0.67011   0.67197   0.67261   0.67407
 Alpha virt. eigenvalues --    0.67447   0.67654   0.67785   0.67986   0.68002
 Alpha virt. eigenvalues --    0.68210   0.68235   0.68398   0.68555   0.68638
 Alpha virt. eigenvalues --    0.68713   0.68954   0.69023   0.69074   0.69194
 Alpha virt. eigenvalues --    0.69320   0.69353   0.69563   0.69644   0.69702
 Alpha virt. eigenvalues --    0.69897   0.69963   0.70079   0.70165   0.70480
 Alpha virt. eigenvalues --    0.70532   0.70604   0.70782   0.70843   0.70918
 Alpha virt. eigenvalues --    0.71056   0.71153   0.71229   0.71437   0.71534
 Alpha virt. eigenvalues --    0.71621   0.71685   0.72106   0.72183   0.72412
 Alpha virt. eigenvalues --    0.72550   0.72773   0.72888   0.73176   0.73211
 Alpha virt. eigenvalues --    0.73415   0.73522   0.73818   0.73931   0.74094
 Alpha virt. eigenvalues --    0.74301   0.74532   0.74789   0.74884   0.75126
 Alpha virt. eigenvalues --    0.75262   0.75450   0.75846   0.75882   0.76165
 Alpha virt. eigenvalues --    0.76344   0.76724   0.76776   0.77025   0.77172
 Alpha virt. eigenvalues --    0.77272   0.77480   0.77563   0.77840   0.77991
 Alpha virt. eigenvalues --    0.78097   0.78729   0.78910   0.79152   0.79492
 Alpha virt. eigenvalues --    0.79774   0.79977   0.80213   0.80556   0.80614
 Alpha virt. eigenvalues --    0.81050   0.81351   0.81488   0.81568   0.81716
 Alpha virt. eigenvalues --    0.82208   0.82698   0.82929   0.83056   0.83295
 Alpha virt. eigenvalues --    0.83585   0.83834   0.83983   0.84241   0.84551
 Alpha virt. eigenvalues --    0.84597   0.84813   0.85330   0.85513   0.85862
 Alpha virt. eigenvalues --    0.85945   0.86059   0.86552   0.86901   0.87098
 Alpha virt. eigenvalues --    0.87550   0.87650   0.87797   0.88033   0.88414
 Alpha virt. eigenvalues --    0.89083   0.89180   0.89456   0.89625   0.90127
 Alpha virt. eigenvalues --    0.90208   0.90698   0.90822   0.91148   0.91473
 Alpha virt. eigenvalues --    0.91664   0.91898   0.92134   0.92297   0.92576
 Alpha virt. eigenvalues --    0.93000   0.93419   0.93632   0.93754   0.93909
 Alpha virt. eigenvalues --    0.94215   0.94672   0.95042   0.95314   0.95657
 Alpha virt. eigenvalues --    0.95871   0.96384   0.96593   0.96901   0.97051
 Alpha virt. eigenvalues --    0.97208   0.97435   0.97772   0.98085   0.98466
 Alpha virt. eigenvalues --    0.98753   0.98761   0.99257   0.99595   0.99788
 Alpha virt. eigenvalues --    1.00100   1.00270   1.00613   1.01046   1.01323
 Alpha virt. eigenvalues --    1.01684   1.01802   1.02017   1.02145   1.02665
 Alpha virt. eigenvalues --    1.02790   1.03053   1.03288   1.03630   1.03887
 Alpha virt. eigenvalues --    1.04690   1.04988   1.05260   1.05549   1.05849
 Alpha virt. eigenvalues --    1.05907   1.06339   1.06624   1.06816   1.07182
 Alpha virt. eigenvalues --    1.07424   1.07662   1.07786   1.08135   1.08460
 Alpha virt. eigenvalues --    1.08992   1.09341   1.09509   1.09993   1.10373
 Alpha virt. eigenvalues --    1.10481   1.10831   1.11021   1.11176   1.11682
 Alpha virt. eigenvalues --    1.12118   1.12371   1.12523   1.12638   1.12947
 Alpha virt. eigenvalues --    1.13129   1.13612   1.14110   1.14350   1.14454
 Alpha virt. eigenvalues --    1.14543   1.14962   1.15068   1.15272   1.15695
 Alpha virt. eigenvalues --    1.15721   1.16258   1.16582   1.17100   1.17303
 Alpha virt. eigenvalues --    1.17480   1.17788   1.18007   1.18171   1.18628
 Alpha virt. eigenvalues --    1.18846   1.19031   1.19339   1.19631   1.20008
 Alpha virt. eigenvalues --    1.20153   1.20371   1.20449   1.21024   1.21132
 Alpha virt. eigenvalues --    1.21439   1.21727   1.21990   1.22225   1.22537
 Alpha virt. eigenvalues --    1.22984   1.23140   1.23743   1.23887   1.24115
 Alpha virt. eigenvalues --    1.24219   1.24499   1.24573   1.24850   1.24922
 Alpha virt. eigenvalues --    1.25239   1.25400   1.25556   1.26018   1.26336
 Alpha virt. eigenvalues --    1.26767   1.27185   1.27339   1.27617   1.28032
 Alpha virt. eigenvalues --    1.28126   1.28359   1.28762   1.29000   1.29251
 Alpha virt. eigenvalues --    1.29529   1.29712   1.30066   1.30136   1.30645
 Alpha virt. eigenvalues --    1.30809   1.31018   1.31196   1.31498   1.31573
 Alpha virt. eigenvalues --    1.32027   1.32202   1.32312   1.32828   1.32947
 Alpha virt. eigenvalues --    1.33040   1.33357   1.33665   1.33884   1.34585
 Alpha virt. eigenvalues --    1.34656   1.35063   1.35273   1.35850   1.36178
 Alpha virt. eigenvalues --    1.36322   1.36704   1.36931   1.37550   1.37775
 Alpha virt. eigenvalues --    1.37952   1.38269   1.38429   1.38532   1.38620
 Alpha virt. eigenvalues --    1.38829   1.38956   1.39552   1.39858   1.39942
 Alpha virt. eigenvalues --    1.40249   1.40490   1.40653   1.40868   1.40980
 Alpha virt. eigenvalues --    1.41561   1.42078   1.42204   1.42488   1.42703
 Alpha virt. eigenvalues --    1.42791   1.43184   1.43500   1.43583   1.44277
 Alpha virt. eigenvalues --    1.44668   1.45145   1.45288   1.45541   1.45610
 Alpha virt. eigenvalues --    1.45850   1.46510   1.46627   1.47295   1.47597
 Alpha virt. eigenvalues --    1.47777   1.47901   1.48378   1.48573   1.48850
 Alpha virt. eigenvalues --    1.49216   1.49398   1.49755   1.50017   1.50196
 Alpha virt. eigenvalues --    1.50363   1.50434   1.50808   1.51222   1.51573
 Alpha virt. eigenvalues --    1.51789   1.52147   1.52637   1.52812   1.52980
 Alpha virt. eigenvalues --    1.53164   1.53322   1.53541   1.53689   1.53765
 Alpha virt. eigenvalues --    1.54087   1.54180   1.54591   1.54619   1.54843
 Alpha virt. eigenvalues --    1.55527   1.55961   1.56317   1.56503   1.56907
 Alpha virt. eigenvalues --    1.57136   1.57617   1.58026   1.58148   1.58889
 Alpha virt. eigenvalues --    1.59326   1.59680   1.59860   1.60379   1.60660
 Alpha virt. eigenvalues --    1.61237   1.61305   1.61822   1.62051   1.62314
 Alpha virt. eigenvalues --    1.62446   1.62728   1.63538   1.63560   1.64002
 Alpha virt. eigenvalues --    1.64114   1.64396   1.64907   1.65008   1.65545
 Alpha virt. eigenvalues --    1.65850   1.66059   1.66608   1.66722   1.66983
 Alpha virt. eigenvalues --    1.67378   1.67586   1.67963   1.68160   1.68634
 Alpha virt. eigenvalues --    1.68730   1.68881   1.69156   1.69434   1.69552
 Alpha virt. eigenvalues --    1.69891   1.70004   1.70141   1.70556   1.70713
 Alpha virt. eigenvalues --    1.70874   1.70988   1.71312   1.71586   1.71997
 Alpha virt. eigenvalues --    1.72135   1.72163   1.72465   1.72624   1.73286
 Alpha virt. eigenvalues --    1.73381   1.73856   1.74121   1.74228   1.74442
 Alpha virt. eigenvalues --    1.74625   1.74744   1.74785   1.75033   1.75123
 Alpha virt. eigenvalues --    1.75313   1.75515   1.75747   1.75970   1.76210
 Alpha virt. eigenvalues --    1.76451   1.76564   1.76741   1.77132   1.77361
 Alpha virt. eigenvalues --    1.77593   1.77701   1.77755   1.77966   1.78226
 Alpha virt. eigenvalues --    1.78323   1.78491   1.78496   1.78565   1.78784
 Alpha virt. eigenvalues --    1.78896   1.79191   1.79391   1.79412   1.79562
 Alpha virt. eigenvalues --    1.79728   1.79889   1.79998   1.80217   1.80335
 Alpha virt. eigenvalues --    1.80742   1.80798   1.80802   1.81160   1.81198
 Alpha virt. eigenvalues --    1.81486   1.81577   1.81668   1.81829   1.82040
 Alpha virt. eigenvalues --    1.82194   1.82520   1.82684   1.82703   1.83112
 Alpha virt. eigenvalues --    1.83324   1.83432   1.83579   1.83728   1.83862
 Alpha virt. eigenvalues --    1.84019   1.84109   1.84312   1.84420   1.84504
 Alpha virt. eigenvalues --    1.84734   1.84948   1.85116   1.85302   1.85575
 Alpha virt. eigenvalues --    1.86020   1.86139   1.86344   1.86661   1.86796
 Alpha virt. eigenvalues --    1.86925   1.87221   1.87436   1.87581   1.87605
 Alpha virt. eigenvalues --    1.87851   1.87918   1.88272   1.88392   1.88515
 Alpha virt. eigenvalues --    1.88791   1.89144   1.89397   1.89580   1.89961
 Alpha virt. eigenvalues --    1.90125   1.90174   1.90414   1.90690   1.90841
 Alpha virt. eigenvalues --    1.90870   1.90999   1.91472   1.91551   1.91765
 Alpha virt. eigenvalues --    1.92141   1.92207   1.92608   1.92836   1.92878
 Alpha virt. eigenvalues --    1.93217   1.93365   1.93615   1.93632   1.94232
 Alpha virt. eigenvalues --    1.94259   1.94503   1.94810   1.94987   1.95160
 Alpha virt. eigenvalues --    1.95737   1.95822   1.95968   1.96040   1.96214
 Alpha virt. eigenvalues --    1.96807   1.96981   1.97124   1.97237   1.97555
 Alpha virt. eigenvalues --    1.97863   1.97976   1.98212   1.98265   1.98532
 Alpha virt. eigenvalues --    1.98875   1.99117   1.99225   1.99446   1.99660
 Alpha virt. eigenvalues --    1.99891   2.00227   2.00451   2.00602   2.01001
 Alpha virt. eigenvalues --    2.01155   2.01382   2.01633   2.01791   2.02015
 Alpha virt. eigenvalues --    2.02222   2.02398   2.02762   2.02957   2.03144
 Alpha virt. eigenvalues --    2.03380   2.03576   2.03856   2.03961   2.04072
 Alpha virt. eigenvalues --    2.04381   2.04731   2.05256   2.05296   2.05638
 Alpha virt. eigenvalues --    2.05890   2.06228   2.06768   2.07001   2.07215
 Alpha virt. eigenvalues --    2.07457   2.07628   2.07771   2.08052   2.08160
 Alpha virt. eigenvalues --    2.08472   2.08921   2.09310   2.09515   2.09708
 Alpha virt. eigenvalues --    2.09869   2.10254   2.10430   2.10633   2.10982
 Alpha virt. eigenvalues --    2.11276   2.11359   2.12282   2.12716   2.13090
 Alpha virt. eigenvalues --    2.13260   2.13474   2.13815   2.14080   2.14289
 Alpha virt. eigenvalues --    2.14548   2.14929   2.15049   2.15156   2.15368
 Alpha virt. eigenvalues --    2.15649   2.15799   2.15927   2.16180   2.16429
 Alpha virt. eigenvalues --    2.16583   2.16934   2.17389   2.17409   2.17835
 Alpha virt. eigenvalues --    2.18387   2.18510   2.18795   2.18991   2.19171
 Alpha virt. eigenvalues --    2.19398   2.19538   2.19921   2.20055   2.20914
 Alpha virt. eigenvalues --    2.21051   2.21189   2.21761   2.21826   2.22058
 Alpha virt. eigenvalues --    2.22205   2.22567   2.22985   2.23558   2.23895
 Alpha virt. eigenvalues --    2.24255   2.24348   2.24664   2.25000   2.25052
 Alpha virt. eigenvalues --    2.25250   2.25784   2.25943   2.26355   2.26857
 Alpha virt. eigenvalues --    2.26955   2.27162   2.28142   2.28828   2.28992
 Alpha virt. eigenvalues --    2.29503   2.29858   2.30101   2.30476   2.30903
 Alpha virt. eigenvalues --    2.31465   2.31579   2.32489   2.32757   2.33138
 Alpha virt. eigenvalues --    2.33714   2.34200   2.34587   2.34850   2.35099
 Alpha virt. eigenvalues --    2.35333   2.35482   2.35831   2.35973   2.36122
 Alpha virt. eigenvalues --    2.36272   2.36645   2.36824   2.37082   2.37302
 Alpha virt. eigenvalues --    2.37510   2.37737   2.37952   2.38280   2.38805
 Alpha virt. eigenvalues --    2.39485   2.39864   2.40004   2.40396   2.40498
 Alpha virt. eigenvalues --    2.40797   2.40842   2.40989   2.41401   2.41703
 Alpha virt. eigenvalues --    2.42058   2.42538   2.42791   2.43558   2.43735
 Alpha virt. eigenvalues --    2.43830   2.43946   2.44152   2.44195   2.44788
 Alpha virt. eigenvalues --    2.45198   2.45390   2.46076   2.46140   2.46205
 Alpha virt. eigenvalues --    2.46384   2.46595   2.46677   2.47473   2.47657
 Alpha virt. eigenvalues --    2.48020   2.48177   2.48376   2.48929   2.49769
 Alpha virt. eigenvalues --    2.50363   2.50517   2.50738   2.51068   2.51230
 Alpha virt. eigenvalues --    2.51418   2.51689   2.52402   2.52783   2.53449
 Alpha virt. eigenvalues --    2.53667   2.54046   2.54212   2.54540   2.54722
 Alpha virt. eigenvalues --    2.55027   2.56137   2.56478   2.56664   2.57163
 Alpha virt. eigenvalues --    2.57607   2.58787   2.59039   2.59249   2.59446
 Alpha virt. eigenvalues --    2.59643   2.59688   2.59968   2.60135   2.60375
 Alpha virt. eigenvalues --    2.60549   2.60738   2.61269   2.61316   2.62370
 Alpha virt. eigenvalues --    2.62668   2.62731   2.62815   2.63009   2.63255
 Alpha virt. eigenvalues --    2.63739   2.63950   2.64245   2.64530   2.64783
 Alpha virt. eigenvalues --    2.65124   2.65283   2.65529   2.66058   2.66614
 Alpha virt. eigenvalues --    2.67114   2.67246   2.67436   2.67627   2.68065
 Alpha virt. eigenvalues --    2.68361   2.68510   2.69180   2.69257   2.69513
 Alpha virt. eigenvalues --    2.69959   2.70219   2.70633   2.70801   2.70967
 Alpha virt. eigenvalues --    2.71286   2.71517   2.71747   2.71968   2.72345
 Alpha virt. eigenvalues --    2.72605   2.72931   2.73268   2.73301   2.73595
 Alpha virt. eigenvalues --    2.73671   2.73893   2.74229   2.74815   2.74999
 Alpha virt. eigenvalues --    2.75243   2.75625   2.75816   2.76146   2.76436
 Alpha virt. eigenvalues --    2.76602   2.76723   2.76868   2.77363   2.77499
 Alpha virt. eigenvalues --    2.77805   2.78147   2.78610   2.78654   2.79056
 Alpha virt. eigenvalues --    2.79295   2.79462   2.79622   2.80425   2.80808
 Alpha virt. eigenvalues --    2.80930   2.81038   2.81319   2.81623   2.81854
 Alpha virt. eigenvalues --    2.81959   2.82607   2.82623   2.82959   2.83285
 Alpha virt. eigenvalues --    2.83383   2.83747   2.83895   2.84464   2.84627
 Alpha virt. eigenvalues --    2.85283   2.85330   2.85486   2.85561   2.85890
 Alpha virt. eigenvalues --    2.86208   2.86567   2.86693   2.86927   2.87209
 Alpha virt. eigenvalues --    2.87384   2.87743   2.88293   2.88740   2.89153
 Alpha virt. eigenvalues --    2.89198   2.89574   2.89854   2.90400   2.90918
 Alpha virt. eigenvalues --    2.91537   2.91566   2.91622   2.92121   2.92250
 Alpha virt. eigenvalues --    2.92647   2.93205   2.93427   2.93512   2.93627
 Alpha virt. eigenvalues --    2.93880   2.94515   2.94610   2.94886   2.95238
 Alpha virt. eigenvalues --    2.95347   2.96522   2.96601   2.96707   2.97307
 Alpha virt. eigenvalues --    2.97512   2.97671   2.98221   2.98572   2.98788
 Alpha virt. eigenvalues --    2.99286   2.99418   2.99506   3.00077   3.00237
 Alpha virt. eigenvalues --    3.00951   3.01210   3.01387   3.01554   3.01918
 Alpha virt. eigenvalues --    3.02451   3.02533   3.02973   3.03269   3.03464
 Alpha virt. eigenvalues --    3.03656   3.03885   3.03965   3.04126   3.04657
 Alpha virt. eigenvalues --    3.05021   3.05398   3.06196   3.06458   3.06767
 Alpha virt. eigenvalues --    3.06970   3.07114   3.08247   3.08498   3.08921
 Alpha virt. eigenvalues --    3.09060   3.09300   3.09836   3.10167   3.10346
 Alpha virt. eigenvalues --    3.10910   3.11457   3.11725   3.12019   3.12289
 Alpha virt. eigenvalues --    3.14367   3.15461   3.15674   3.15931   3.16164
 Alpha virt. eigenvalues --    3.16422   3.16578   3.16986   3.17780   3.18366
 Alpha virt. eigenvalues --    3.18837   3.18991   3.19176   3.19498   3.20384
 Alpha virt. eigenvalues --    3.20454   3.20776   3.20807   3.21041   3.21319
 Alpha virt. eigenvalues --    3.21438   3.21539   3.22355   3.22483   3.22577
 Alpha virt. eigenvalues --    3.22730   3.22919   3.23508   3.23816   3.23950
 Alpha virt. eigenvalues --    3.24881   3.25547   3.25688   3.26542   3.26564
 Alpha virt. eigenvalues --    3.27043   3.28451   3.29578   3.30566   3.30918
 Alpha virt. eigenvalues --    3.31419   3.33094   3.33625   3.33819   3.35281
 Alpha virt. eigenvalues --    3.35646   3.35673   3.36849   3.38435   3.38778
 Alpha virt. eigenvalues --    3.41241   3.43102   3.48507   3.50721   3.52364
 Alpha virt. eigenvalues --    3.53016   3.53355   3.53882   3.55925   3.56165
 Alpha virt. eigenvalues --    3.56961   3.57437   3.60049   3.61035   3.61162
 Alpha virt. eigenvalues --    3.62359   3.62966   3.63335   3.63851   3.64577
 Alpha virt. eigenvalues --    3.64712   3.66245   3.67430   3.68179   3.68403
 Alpha virt. eigenvalues --    3.68540   3.68864   3.69981   3.70087   3.70639
 Alpha virt. eigenvalues --    3.70973   3.71759   3.71869   3.72370   3.72587
 Alpha virt. eigenvalues --    3.72712   3.73684   3.74386   3.74506   3.74690
 Alpha virt. eigenvalues --    3.76639   3.78220   3.81120   3.84736
          Condensed to atoms (all electrons):
 Mulliken charges:
               1
     1  C    0.055152
     2  C    0.029222
     3  O   -0.280134
     4  H   -0.011096
     5  H    0.035914
     6  H    0.040261
     7  N   -0.133502
     8  C    0.123966
     9  C    0.092126
    10  O   -0.284921
    11  C    0.066669
    12  C    0.102544
    13  O   -0.369063
    14  O   -0.489395
    15  H    0.125022
    16  H   -0.000586
    17  H    0.008611
    18  H    0.017531
    19  N   -0.152065
    20  C    0.129057
    21  C    0.061808
    22  O   -0.276873
    23  C    0.055661
    24  C   -0.030768
    25  C    0.001107
    26  C    0.006738
    27  N    0.078709
    28  H    0.165465
    29  H   -0.011043
    30  H    0.013387
    31  H    0.028186
    32  H   -0.002894
    33  H   -0.032429
    34  H    0.015520
    35  H    0.074248
    36  H    0.074004
    37  H    0.085070
    38  H    0.196139
    39  H    0.193391
    40  H    0.194614
    41  N   -0.167172
    42  C    0.136829
    43  C    0.038742
    44  O   -0.289783
    45  C    0.077089
    46  C    0.149102
    47  O   -0.459868
    48  O   -0.403526
    49  H    0.149798
    50  H    0.007659
    51  H   -0.014457
    52  H    0.024723
    53  N   -0.157028
    54  C    0.253066
    55  C    0.019933
    56  O   -0.299390
    57  H    0.146203
    58  H    0.014669
    59  H    0.039780
    60  N   -0.168092
    61  C    0.153208
    62  C    0.035814
    63  O   -0.292894
    64  C    0.059677
    65  C    0.076120
    66  N   -0.025325
    67  O   -0.353106
    68  H    0.142439
    69  H    0.027847
    70  H    0.060649
    71  H    0.030270
    72  H    0.124323
    73  H    0.124144
    74  N   -0.171063
    75  C    0.256781
    76  C   -0.004838
    77  O   -0.307006
    78  H    0.154222
    79  H    0.035337
    80  H    0.045411
    81  N   -0.120903
    82  C    0.116766
    83  C    0.153585
    84  O   -0.362216
    85  C    0.137751
    86  C   -0.033604
    87  C    0.027406
    88  C    0.030388
    89  C   -0.071893
    90  C   -0.028752
    91  C    0.196270
    92  O   -0.214336
    93  H    0.151063
    94  H    0.007871
    95  H   -0.020514
    96  H    0.002400
    97  H   -0.022779
    98  H   -0.052959
    99  H   -0.043775
   100  H   -0.068941
   101  H    0.173229
   102  N   -0.117076
   103  C    0.139041
   104  C    0.038217
   105  O   -0.294278
   106  C   -0.058782
   107  C    0.041344
   108  C    0.018899
   109  C    0.018524
   110  H    0.135866
   111  H    0.029536
   112  H   -0.015005
   113  H   -0.006147
   114  H    0.006399
   115  H    0.045968
   116  H    0.006894
   117  H   -0.016333
   118  H    0.002955
   119  H    0.004518
   120  H    0.009789
   121  N   -0.107900
   122  C    0.164228
   123  C    0.057370
   124  O   -0.296783
   125  C    0.216542
   126  O   -0.308390
   127  H    0.158970
   128  H    0.027618
   129  H    0.013096
   130  H   -0.018722
   131  H    0.172062
   132  N   -0.101559
   133  C    0.107988
   134  C    0.046760
   135  O   -0.262061
   136  C    0.043317
   137  H    0.103384
   138  H    0.017513
   139  H    0.055478
   140  H    0.022733
   141  H    0.000357
   142  N   -0.124308
   143  C    0.104361
   144  C    0.084848
   145  O   -0.282189
   146  C    0.012920
   147  H    0.103170
   148  H    0.017322
   149  H    0.025316
   150  H   -0.002905
   151  H    0.017574
   152  N   -0.147562
   153  C    0.130505
   154  C    0.087006
   155  O   -0.284260
   156  C   -0.092222
   157  C    0.152276
   158  C    0.125602
   159  O   -0.412413
   160  O   -0.443569
   161  H    0.136565
   162  H   -0.020305
   163  H    0.067988
   164  H    0.010270
   165  H   -0.022374
   166  H   -0.031644
   167  N   -0.164857
   168  C    0.132283
   169  H    0.029348
   170  H    0.034041
   171  H    0.003364
   172  H    0.120963
   173  Ca   1.301944
   174  O   -0.318742
   175  H    0.158132
   176  H    0.167528
 Sum of Mulliken charges =  -0.00000
 Mulliken charges with hydrogens summed into heavy atoms:
               1
     1  C    0.120231
     2  C    0.029222
     3  O   -0.280134
     7  N   -0.008481
     8  C    0.123379
     9  C    0.092126
    10  O   -0.284921
    11  C    0.092810
    12  C    0.102544
    13  O   -0.369063
    14  O   -0.489395
    19  N    0.013399
    20  C    0.118015
    21  C    0.061808
    22  O   -0.276873
    23  C    0.097233
    24  C   -0.066092
    25  C    0.090876
    26  C    0.165812
    27  N    0.662854
    41  N   -0.017374
    42  C    0.144488
    43  C    0.038742
    44  O   -0.289783
    45  C    0.087355
    46  C    0.149102
    47  O   -0.459868
    48  O   -0.403526
    53  N   -0.010825
    54  C    0.307514
    55  C    0.019933
    56  O   -0.299390
    60  N   -0.025653
    61  C    0.181055
    62  C    0.035814
    63  O   -0.292894
    64  C    0.150597
    65  C    0.076120
    66  N    0.223142
    67  O   -0.353106
    74  N   -0.016842
    75  C    0.337529
    76  C   -0.004838
    77  O   -0.307006
    81  N    0.030159
    82  C    0.124638
    83  C    0.153585
    84  O   -0.362216
    85  C    0.119637
    86  C   -0.033604
    87  C    0.004627
    88  C   -0.022571
    89  C   -0.115668
    90  C   -0.097693
    91  C    0.196270
    92  O   -0.041107
   102  N    0.018790
   103  C    0.168577
   104  C    0.038217
   105  O   -0.294278
   106  C   -0.073787
   107  C    0.041596
   108  C    0.055428
   109  C    0.035786
   121  N    0.051071
   122  C    0.191846
   123  C    0.057370
   124  O   -0.296783
   125  C    0.210916
   126  O   -0.136329
   132  N    0.001825
   133  C    0.125500
   134  C    0.046760
   135  O   -0.262061
   136  C    0.121885
   142  N   -0.021138
   143  C    0.121683
   144  C    0.084848
   145  O   -0.282189
   146  C    0.052905
   152  N   -0.010996
   153  C    0.110200
   154  C    0.087006
   155  O   -0.284260
   156  C   -0.013965
   157  C    0.098257
   158  C    0.125602
   159  O   -0.412413
   160  O   -0.443569
   167  N   -0.043894
   168  C    0.199036
   173  Ca   1.301944
   174  O    0.006919
 DipInt: DoE/N= T F RetVal/Mat= T F Init=T NMatP=  1 IDeriv=0 Min/MaxMlt=  0  4
 Entering OneElI...
 OneElI was handed  1333951383 working-precision words.
 Multipole integrals L=0 to 4 MinM= 0 MaxM= 0.
 Requested accuracy = 0.1000D-12
 ShPair: Thresh= 1.00D-13 NBox=     0 BxSize= 0.00D+00 RnKept= 2.55D+01
         NSMCal=               327645 NSMKep=              162048
 PrmmSu-InSpLW:  IPartL=    0 NPrtUS=    1 NPrtUL=    1 DoSpLW=F IThBeg=    0 IThEnd=    0 NThAct=    1.
 PrsmSu:  NPrtUS=   1 ThrOK=F IAlg=1 NPAlg=1 LenDen=           0 ISkipM=0 DoSpLW=F IThBeg=    0 IThEnd=    0.
 Prism:   IPart=     0 DynPar=F LinDyn=F Incr=         512.
 PRISM was handed  1323832501 working-precision words and162048 shell-pairs
 IPart=  0 NShTot=      162048 NBatch=         368 AvBLen=       440.3
 PrsmSu-ThDecC:  IPartSL=    0    0 NPrtUSL=    1    1 IThBeg=    0 IThEnd=    0 CPU=   -1 GPU=   -1 NThAct=    1.
 PrSmSu:  NxtVal=            513.
 Electronic moments (au):
       -716.00000000         11.63652039          0.62158356         -7.99803801
     -50700.54441107     -28557.21721688     -13337.84420030        105.25699795
        -36.29748381        -27.70209778     -49006.27389457     -42998.05179123
     -24857.33875495       1560.92505809      78368.65764812      58637.38169676
     -12212.39807007       6778.67088779      19321.15434993      -1801.95054786
   -6978014.33108172   -2509950.20238189    -698004.54295305     -16961.61148051
     245786.77981209    -336549.92943380      95335.56975989    -127553.84207021
      15079.39277250   -1881704.74225468    -781516.23234764    -388780.91003476
    -233702.03780446      69168.96682474     -18137.84403069
 Electronic spatial extent (au):  <R**2>=          92595.6058
 DipInt: DoE/N= F T RetVal/Mat= T F Init=T NMatP=  1 IDeriv=0 Min/MaxMlt=  0  4
 Nuclear    moments (au):
        716.00000000          0.00000000          0.00000000         -0.00000000
      50229.53286910      28263.99769851      12963.08142577         -0.00000000
         -0.00000000          0.00000000      49571.97497912      44413.76696860
      24596.51012067        568.24643381     -78335.33973031     -59471.08977445
      12545.62879300      -6789.51408043     -20240.50099477       1345.83732257
    6782884.30071422    2439217.55616234     655430.16605284      27152.40804743
    -247234.63019804     362156.59092040    -103547.60848727     127224.42528866
     -14581.42656582    1853216.84871735     746672.69969560     367167.70259560
     232927.83000075     -75845.24193267      19018.66928297
 Total      moments (au):
         -0.00000000         11.63652039          0.62158356         -7.99803801
       -471.01154198       -293.21951837       -374.76277452        105.25699795
        -36.29748381        -27.70209778        565.70108455       1415.71517737
       -260.82863428       2129.17149191         33.31791782       -833.70807769
        333.23072293        -10.84319264       -919.34664483       -456.11322529
    -195130.03036750     -70732.64621956     -42574.37690021      10190.79656692
      -1447.85038595      25606.66148661      -8212.03872738       -329.41678156
        497.96620668     -28487.89353733     -34843.53265204     -21613.20743916
       -774.20780371      -6676.27510794        880.82525228
 Traceless Quadrup. (au):
        -91.34693035         86.44509325          4.90183710        105.25699795
        -36.29748381        -27.70209778
 Charge=             -0.0000 electrons
 Dipole moment (field-independent basis, Debye):
    X=             29.5771    Y=              1.5799    Z=            -20.3290  Tot=             35.9245
 Quadrupole moment (field-independent basis, Debye-Ang):
   XX=           -633.5267   YY=           -394.3903   ZZ=           -504.0688
   XY=            141.5743   XZ=            -48.8214   YZ=            -37.2603
 Traceless Quadrupole moment (field-independent basis, Debye-Ang):
   XX=           -122.8648   YY=            116.2716   ZZ=              6.5931
   XY=            141.5743   XZ=            -48.8214   YZ=            -37.2603
 Octapole moment (field-independent basis, Debye-Ang**2):
  XXX=            402.6442  YYY=           1007.6515  ZZZ=           -185.6478  XYY=           1515.4622
  XXY=             23.7144  XXZ=           -593.4013  XZZ=            237.1808  YZZ=             -7.7178
  YYZ=           -654.3555  XYZ=           -324.6438
 Hexadecapole moment (field-independent basis, Debye-Ang**3):
 XXXX=         -73495.3262 YYYY=         -26641.3063 ZZZZ=         -16035.5518 XXXY=           3838.3427
 XXXZ=           -545.3299 YYYX=           9644.6966 YYYZ=          -3093.0476 ZZZX=           -124.0742
 ZZZY=            187.5580 XXYY=         -10729.9067 XXZZ=         -13123.7452 YYZZ=          -8140.5703
 XXYZ=           -291.6038 YYXZ=          -2514.6053 ZZXY=            331.7610
 N-N= 2.179380021874D+04 E-N=-5.607141158945D+04  KE= 5.290392561315D+03
 Leave Link  601 at Sat Sep 14 23:29:23 2019, MaxMem=  1342177280 cpu:              43.5 elap:               1.1
 FitSet:  NAtFit=   176 NAtPot=   176 NAtFrz=     0 MDM=   180 TotChg=   0.00000
 Merz-Kollman atomic radii used.
 Read replacement radii for each type of atom:
 Rad(20) =   1.700000000000D+00
 Atom Element Radius
    1     6    1.50
    2     6    1.50
    3     8    1.40
    4     1    1.20
    5     1    1.20
    6     1    1.20
    7     7    1.50
    8     6    1.50
    9     6    1.50
   10     8    1.40
   11     6    1.50
   12     6    1.50
   13     8    1.40
   14     8    1.40
   15     1    1.20
   16     1    1.20
   17     1    1.20
   18     1    1.20
   19     7    1.50
   20     6    1.50
   21     6    1.50
   22     8    1.40
   23     6    1.50
   24     6    1.50
   25     6    1.50
   26     6    1.50
   27     7    1.50
   28     1    1.20
   29     1    1.20
   30     1    1.20
   31     1    1.20
   32     1    1.20
   33     1    1.20
   34     1    1.20
   35     1    1.20
   36     1    1.20
   37     1    1.20
   38     1    1.20
   39     1    1.20
   40     1    1.20
   41     7    1.50
   42     6    1.50
   43     6    1.50
   44     8    1.40
   45     6    1.50
   46     6    1.50
   47     8    1.40
   48     8    1.40
   49     1    1.20
   50     1    1.20
   51     1    1.20
   52     1    1.20
   53     7    1.50
   54     6    1.50
   55     6    1.50
   56     8    1.40
   57     1    1.20
   58     1    1.20
   59     1    1.20
   60     7    1.50
   61     6    1.50
   62     6    1.50
   63     8    1.40
   64     6    1.50
   65     6    1.50
   66     7    1.50
   67     8    1.40
   68     1    1.20
   69     1    1.20
   70     1    1.20
   71     1    1.20
   72     1    1.20
   73     1    1.20
   74     7    1.50
   75     6    1.50
   76     6    1.50
   77     8    1.40
   78     1    1.20
   79     1    1.20
   80     1    1.20
   81     7    1.50
   82     6    1.50
   83     6    1.50
   84     8    1.40
   85     6    1.50
   86     6    1.50
   87     6    1.50
   88     6    1.50
   89     6    1.50
   90     6    1.50
   91     6    1.50
   92     8    1.40
   93     1    1.20
   94     1    1.20
   95     1    1.20
   96     1    1.20
   97     1    1.20
   98     1    1.20
   99     1    1.20
  100     1    1.20
  101     1    1.20
  102     7    1.50
  103     6    1.50
  104     6    1.50
  105     8    1.40
  106     6    1.50
  107     6    1.50
  108     6    1.50
  109     6    1.50
  110     1    1.20
  111     1    1.20
  112     1    1.20
  113     1    1.20
  114     1    1.20
  115     1    1.20
  116     1    1.20
  117     1    1.20
  118     1    1.20
  119     1    1.20
  120     1    1.20
  121     7    1.50
  122     6    1.50
  123     6    1.50
  124     8    1.40
  125     6    1.50
  126     8    1.40
  127     1    1.20
  128     1    1.20
  129     1    1.20
  130     1    1.20
  131     1    1.20
  132     7    1.50
  133     6    1.50
  134     6    1.50
  135     8    1.40
  136     6    1.50
  137     1    1.20
  138     1    1.20
  139     1    1.20
  140     1    1.20
  141     1    1.20
  142     7    1.50
  143     6    1.50
  144     6    1.50
  145     8    1.40
  146     6    1.50
  147     1    1.20
  148     1    1.20
  149     1    1.20
  150     1    1.20
  151     1    1.20
  152     7    1.50
  153     6    1.50
  154     6    1.50
  155     8    1.40
  156     6    1.50
  157     6    1.50
  158     6    1.50
  159     8    1.40
  160     8    1.40
  161     1    1.20
  162     1    1.20
[...]
 **** Fit      -0.041400
 **** Fit      -0.045120
 **** Fit      -0.044638
 **** Fit      -0.043265
 **** Fit      -0.041051
 **** Fit      -0.038072
 **** Fit      -0.034426
 **** Fit      -0.030237
 **** Fit      -0.025670
 **** Fit      -0.020956
 **** Fit      -0.016425
 **** Fit      -0.012505
 **** Fit      -0.009663
 **** Fit      -0.008272
 **** Fit      -0.008489
 **** Fit      -0.010241
 **** Fit      -0.044691
 **** Fit      -0.049563
 **** Fit      -0.048693
 **** Fit      -0.046733
 **** Fit      -0.043733
 **** Fit      -0.039801
 **** Fit      -0.035071
 **** Fit      -0.029704
 **** Fit      -0.023896
 **** Fit      -0.017917
 **** Fit      -0.012141
 **** Fit      -0.007042
 **** Fit      -0.049381
 **** Fit      -0.041874
 **** Fit      -0.035264
 **** Fit      -0.027968
 **** Fit      -0.020286
 **** Fit      -0.012595
 **** Fit       0.015816
 **** Fit       0.020352
 **** Fit       0.021805
 **** Fit       0.025306
 **** Fit       0.024197
 **** Fit       0.022936
 **** Fit       0.022985
 **** Fit       0.024186
 **** Fit       0.024492
 **** Fit       0.024798
 **** Fit       0.023977
 **** Fit       0.024187
 **** Fit       0.024259
 **** Fit       0.024785
 **** Fit       0.024542
 **** Fit       0.013374
 **** Fit      -0.004938
 **** Fit       0.009401
 **** Fit       0.006650
 **** Fit       0.002448
 **** Fit       0.008999
 **** Fit       0.005597
 **** Fit      -0.006344
 **** Fit      -0.008704
 **** Fit       0.004147
 **** Fit      -0.017462
 **** Fit      -0.002585
 **** Fit       0.002301
 **** Fit       0.009185
 **** Fit       0.028441
 **** Fit       0.031244
 **** Fit       0.037262
 **** Fit       0.032593
 **** Fit       0.036921
 **** Fit       0.030418
 **** Fit       0.023019
 **** Fit       0.016113
 **** Fit       0.011378
 **** Fit       0.029552
 **** Fit       0.032684
 **** Fit       0.034874
 **** Fit       0.034582
 **** Fit       0.031273
 **** Fit       0.026006
 **** Fit       0.020788
 **** Fit       0.017567
 **** Fit       0.029560
 **** Fit       0.031000
 **** Fit       0.029831
 **** Fit       0.026163
 **** Fit       0.022510
 **** Fit       0.026814
 **** Fit       0.027920
 **** Fit       0.025975
 **** Fit       0.023625
 **** Fit       0.025489
 **** Fit      -0.048284
 **** Fit      -0.007618
 **** Fit      -0.007251
 **** Fit      -0.010324
 **** Fit      -0.007862
 **** Fit      -0.006151
 **** Fit      -0.005514
 **** Fit      -0.005808
 **** Fit      -0.006747
 **** Fit      -0.011159
 **** Fit      -0.008288
 **** Fit      -0.003964
 **** Fit      -0.004544
 **** Fit      -0.005460
 **** Fit      -0.006623
 **** Fit      -0.013995
 **** Fit      -0.010387
 **** Fit      -0.003287
 **** Fit      -0.004242
 **** Fit      -0.005366
 **** Fit      -0.006643
 **** Fit      -0.008330
 **** Fit      -0.019902
 **** Fit      -0.015615
 **** Fit      -0.011462
 **** Fit      -0.002316
 **** Fit      -0.003309
 **** Fit      -0.004397
 **** Fit      -0.005592
 **** Fit      -0.006903
 **** Fit      -0.008766
 **** Fit      -0.028678
 **** Fit      -0.023297
 **** Fit      -0.017975
 **** Fit      -0.001140
 **** Fit      -0.002219
 **** Fit      -0.003341
 **** Fit      -0.004534
 **** Fit      -0.005824
 **** Fit      -0.007231
 **** Fit      -0.009334
 **** Fit      -0.011130
 **** Fit      -0.034242
 **** Fit      -0.027455
 **** Fit      -0.001234
 **** Fit      -0.002407
 **** Fit      -0.003606
 **** Fit      -0.004867
 **** Fit      -0.006225
 **** Fit      -0.007707
 **** Fit      -0.010011
 **** Fit      -0.011951
 **** Fit      -0.014145
 **** Fit      -0.000136
 **** Fit      -0.001414
 **** Fit      -0.002671
 **** Fit      -0.003940
 **** Fit      -0.005267
 **** Fit      -0.006697
 **** Fit      -0.008270
 **** Fit      -0.010794
 **** Fit      -0.012851
 **** Fit      -0.015182
 **** Fit      -0.017895
 **** Fit      -0.000487
 **** Fit      -0.001845
 **** Fit      -0.003161
 **** Fit      -0.004472
 **** Fit      -0.016412
 **** Fit      -0.019298
 **** Fit      -0.022776
 **** Fit       0.000673
 **** Fit      -0.000899
 **** Fit      -0.002374
 **** Fit      -0.021241
 **** Fit      -0.025065
 **** Fit      -0.029920
 **** Fit      -0.036423
 **** Fit       0.002721
 **** Fit       0.000728
 **** Fit      -0.001168
 **** Fit      -0.027521
 **** Fit      -0.032636
 **** Fit       0.003004
 **** Fit       0.000464
 **** Fit      -0.030319
 **** Fit      -0.035478
 **** Fit       0.003026
 **** Fit      -0.040016
 **** Fit      -0.045899
 **** Fit      -0.046612
 **** Fit      -0.006113
 **** Fit      -0.007657
 **** Fit      -0.010051
 **** Fit      -0.012025
 **** Fit      -0.004104
 **** Fit      -0.005415
 **** Fit      -0.006809
 **** Fit      -0.008335
 **** Fit      -0.010933
 **** Fit      -0.012956
 **** Fit      -0.015346
 **** Fit      -0.018232
 **** Fit      -0.002025
 **** Fit      -0.003413
 **** Fit      -0.004783
 **** Fit      -0.006167
 **** Fit      -0.007613
 **** Fit      -0.009178
 **** Fit      -0.012202
 **** Fit      -0.014218
 **** Fit      -0.016601
 **** Fit      -0.019481
 **** Fit      -0.023042
 **** Fit      -0.001354
 **** Fit      -0.002971
 **** Fit      -0.004503
 **** Fit      -0.005968
 **** Fit      -0.007407
 **** Fit      -0.008878
 **** Fit      -0.010451
 **** Fit      -0.014049
 **** Fit      -0.016066
 **** Fit      -0.018461
 **** Fit      -0.021362
 **** Fit      -0.024938
 **** Fit      -0.000439
 **** Fit      -0.002521
 **** Fit      -0.004432
 **** Fit      -0.006158
 **** Fit      -0.007737
 **** Fit      -0.009234
 **** Fit      -0.010726
 **** Fit      -0.012301
 **** Fit      -0.016725
 **** Fit      -0.018799
 **** Fit      -0.021310
 **** Fit      -0.024398
 **** Fit      -0.028232
 **** Fit      -0.033024
 **** Fit      -0.001140
 **** Fit      -0.003989
 **** Fit      -0.006445
 **** Fit      -0.008514
 **** Fit      -0.010281
 **** Fit      -0.011861
 **** Fit      -0.013379
 **** Fit      -0.014959
 **** Fit      -0.020586
 **** Fit      -0.022678
 **** Fit      -0.025317
 **** Fit      -0.028661
 **** Fit      -0.032861
 **** Fit      -0.038040
 **** Fit      -0.012469
 **** Fit      -0.014407
 **** Fit      -0.015979
 **** Fit      -0.017406
 **** Fit      -0.018883
 **** Fit      -0.026174
 **** Fit      -0.028082
 **** Fit      -0.030697
 **** Fit      -0.034169
 **** Fit      -0.038589
 **** Fit      -0.043871
 **** Fit      -0.011861
 **** Fit      -0.011204
 **** Fit      -0.013450
 **** Fit      -0.014438
 **** Fit      -0.012799
 **** Fit      -0.010512
 **** Fit      -0.009878
 **** Fit      -0.010811
 **** Fit      -0.012974
 **** Fit      -0.015370
 **** Fit      -0.017298
 **** Fit      -0.017844
 **** Fit      -0.016583
 **** Fit      -0.014058
 **** Fit      -0.011351
 **** Fit      -0.009307
 **** Fit      -0.008294
 **** Fit      -0.008313
 **** Fit      -0.009206
 **** Fit      -0.010682
 **** Fit      -0.012698
 **** Fit      -0.015093
 **** Fit      -0.017722
 **** Fit      -0.020210
 **** Fit      -0.021967
 **** Fit      -0.022409
 **** Fit      -0.021289
 **** Fit      -0.018847
 **** Fit      -0.015729
 **** Fit      -0.012630
 **** Fit      -0.007837
 **** Fit      -0.009064
 **** Fit      -0.010823
 **** Fit      -0.012822
 **** Fit      -0.015217
 **** Fit      -0.018025
 **** Fit      -0.021147
 **** Fit      -0.024283
 **** Fit      -0.026915
 **** Fit      -0.028435
 **** Fit      -0.028408
 **** Fit      -0.026754
 **** Fit      -0.023742
 **** Fit      -0.019953
 **** Fit      -0.007768
 **** Fit      -0.009155
 **** Fit      -0.011241
 **** Fit      -0.013302
 **** Fit      -0.015766
 **** Fit      -0.018729
 **** Fit      -0.022233
 **** Fit      -0.026186
 **** Fit      -0.030278
 **** Fit      -0.033927
 **** Fit      -0.036394
 **** Fit      -0.037098
 **** Fit      -0.035873
 **** Fit      -0.032895
 **** Fit      -0.028566
 **** Fit      -0.023571
 **** Fit      -0.009483
 **** Fit      -0.011951
 **** Fit      -0.014060
 **** Fit      -0.016561
 **** Fit      -0.019592
 **** Fit      -0.023279
 **** Fit      -0.027698
 **** Fit      -0.032786
 **** Fit      -0.034722
 **** Fit      -0.012962
 **** Fit      -0.015265
 **** Fit      -0.017993
 **** Fit      -0.021336
 **** Fit      -0.025504
 **** Fit      -0.030709
 **** Fit      -0.016785
 **** Fit      -0.019727
 **** Fit      -0.023341
 **** Fit      -0.027917
 **** Fit      -0.033798
 **** Fit      -0.025992
 **** Fit      -0.031149
 **** Fit      -0.036116
 **** Fit      -0.005284
 **** Fit      -0.003494
 **** Fit      -0.003601
 **** Fit      -0.005247
 **** Fit      -0.002947
 **** Fit      -0.001744
 **** Fit      -0.001576
 **** Fit      -0.002219
 **** Fit      -0.008388
 **** Fit      -0.005154
 **** Fit      -0.002467
 **** Fit      -0.000809
 **** Fit      -0.000044
 **** Fit       0.000095
 **** Fit      -0.000263
 **** Fit      -0.001040
 **** Fit      -0.002137
 **** Fit       0.000874
 **** Fit       0.001469
 **** Fit       0.001638
 **** Fit       0.001466
 **** Fit       0.000959
 **** Fit       0.000143
 **** Fit      -0.000916
 **** Fit       0.003030
 **** Fit       0.003018
 **** Fit       0.002763
 **** Fit       0.002216
 **** Fit       0.001384
 **** Fit       0.000320
 **** Fit      -0.000895
 **** Fit       0.004316
 **** Fit       0.004267
 **** Fit       0.003986
 **** Fit       0.003418
 **** Fit       0.002566
 **** Fit       0.001478
 **** Fit       0.000231
 **** Fit       0.005372
 **** Fit       0.005502
 **** Fit       0.005383
 **** Fit       0.004935
 **** Fit       0.004141
 **** Fit       0.003037
 **** Fit       0.001700
 **** Fit       0.006146
 **** Fit       0.006599
 **** Fit       0.006731
 **** Fit       0.006471
 **** Fit       0.005792
 **** Fit       0.004715
 **** Fit       0.003308
 **** Fit       0.001682
 **** Fit       0.007295
 **** Fit       0.007933
 **** Fit       0.008087
 **** Fit       0.007718
 **** Fit       0.006817
 **** Fit       0.005427
 **** Fit       0.003646
 **** Fit       0.007892
 **** Fit       0.009074
 **** Fit       0.009607
 **** Fit       0.009428
 **** Fit       0.008497
 **** Fit       0.006839
 **** Fit       0.004581
 **** Fit       0.009378
 **** Fit       0.010829
 **** Fit       0.011339
 **** Fit       0.010769
 **** Fit       0.009032
 **** Fit       0.006224
 **** Fit       0.017498
 **** Fit       0.015947
 **** Fit       0.022247
 **** Fit       0.020227
 **** Fit       0.027336
 **** Fit       0.026413
 **** Fit       0.031485
 **** Fit       0.030705
 **** Fit       0.030187
 **** Fit       0.032167
 **** Fit       0.032227
 **** Fit       0.002160
 **** Fit       0.000428
 **** Fit      -0.001402
 **** Fit       0.013421
 **** Fit       0.010533
 **** Fit       0.007569
 **** Fit       0.004252
 **** Fit       0.030437
 **** Fit       0.032440
 **** Fit       0.016286
 **** Fit       0.012268
 **** Fit       0.007652
 **** Fit       0.029020
 **** Fit       0.031881
 **** Fit       0.036686
 **** Fit       0.015484
 **** Fit       0.009819
 **** Fit       0.027359
 **** Fit       0.030692
 **** Fit       0.035735
 **** Fit       0.008624
 **** Fit       0.026992
 **** Fit       0.031473
 **** Fit       0.021844
 **** Fit       0.025977
 **** Fit       0.020353
 **** Fit       0.025112
 **** Fit       0.012508
 **** Fit       0.017629
 **** Fit       0.022842
 **** Fit       0.006962
 **** Fit       0.012750
 **** Fit       0.018527
 **** Fit       0.008292
 **** Fit       0.013487
 **** Fit       0.002135
 **** Fit       0.009512
 **** Fit       0.004820
 **** Fit       0.009601
 **** Fit       0.002036
 **** Fit      -0.001805
 **** Fit       0.003350
 **** Fit      -0.002685
 **** Fit       0.004486
 **** Fit      -0.004151
 **** Fit      -0.002836
 **** Fit       0.005851
 **** Fit       0.005341
 **** Fit       0.024720
 **** Fit       0.023136
 **** Fit       0.021212
 **** Fit       0.018815
 **** Fit       0.015937
 **** Fit       0.026350
 **** Fit       0.030985
 **** Fit       0.029126
 **** Fit       0.027305
 **** Fit       0.025246
 **** Fit       0.022750
 **** Fit       0.019676
 **** Fit       0.033359
 **** Fit       0.035645
 **** Fit       0.033496
 **** Fit       0.031516
 **** Fit       0.029376
 **** Fit       0.026808
 **** Fit       0.023596
 **** Fit       0.019598
 **** Fit       0.038442
 **** Fit       0.038541
 **** Fit       0.036225
 **** Fit       0.034053
 **** Fit       0.031694
 **** Fit       0.028861
 **** Fit       0.025319
 **** Fit       0.020904
 **** Fit       0.015472
 **** Fit       0.034813
 **** Fit       0.041437
 **** Fit       0.045248
 **** Fit       0.041397
 **** Fit       0.039848
 **** Fit       0.037541
 **** Fit       0.035249
 **** Fit       0.032698
 **** Fit       0.029629
 **** Fit       0.025837
 **** Fit       0.021172
 **** Fit       0.015515
 **** Fit       0.031523
 **** Fit       0.037086
 **** Fit       0.042727
 **** Fit       0.047723
 **** Fit       0.050895
 **** Fit       0.048620
 **** Fit       0.045445
 **** Fit       0.042433
 **** Fit       0.039857
 **** Fit       0.037525
 **** Fit       0.035005
 **** Fit       0.032056
 **** Fit       0.028452
 **** Fit       0.024031
 **** Fit       0.018724
 **** Fit       0.012562
 **** Fit       0.025465
 **** Fit       0.030592
 **** Fit       0.035679
 **** Fit       0.040467
 **** Fit       0.044260
 **** Fit       0.046206
 **** Fit       0.046034
 **** Fit       0.044387
 **** Fit       0.042163
 **** Fit       0.038845
 **** Fit       0.036544
 **** Fit       0.033812
 **** Fit       0.030480
 **** Fit       0.026412
 **** Fit       0.021594
 **** Fit       0.016216
 **** Fit       0.024747
 **** Fit       0.029545
 **** Fit       0.034156
 **** Fit       0.038228
 **** Fit       0.041163
 **** Fit       0.042453
 **** Fit       0.042147
 **** Fit       0.040776
 **** Fit       0.037031
 **** Fit       0.034664
 **** Fit       0.031546
 **** Fit       0.027647
 **** Fit       0.023088
 **** Fit       0.018326
 **** Fit       0.014259
 **** Fit       0.012003
 **** Fit       0.012171
 **** Fit       0.014456
 **** Fit       0.018104
 **** Fit       0.022454
 **** Fit       0.027044
 **** Fit       0.031504
 **** Fit       0.035370
 **** Fit       0.038035
 **** Fit       0.039077
 **** Fit       0.038601
 **** Fit       0.034571
 **** Fit       0.031860
 **** Fit       0.027943
 **** Fit       0.023440
 **** Fit       0.019645
 **** Fit       0.018144
 **** Fit       0.019543
 **** Fit       0.023076
 **** Fit       0.027544
 **** Fit       0.031819
 **** Fit       0.034793
 **** Fit       0.035696
 **** Fit       0.031559
 **** Fit       0.028071
 **** Fit       0.024154
 **** Fit       0.024050
 **** Fit       0.027874
 **** Fit       0.031530
 **** Fit       0.028047
 -----------------------------------------------------------------
 Leave Link  602 at Sat Sep 14 23:29:25 2019, MaxMem=  1342177280 cpu:             110.4 elap:               2.3

 Test job not archived.
 1\1\GINC-C482-131\SP\RB3LYP\SVP\C54H83Ca1N15O23\PENGZHI\14-Sep-2019\0\
 \#b3lyp/svp scf=(tight,noincore) Test #IOP(5/87=12) Density=Current Po
 p=(MK,readradii) iop(6/33=2) iop(6/42=6)\\CaMKII_loop3_102.0\\0,1\C,0,
 35.31,38.25,97.869\C,0,35.92,36.86,97.709\O,0,36.95,36.72,97.059\H,0,3
 4.341,38.166,98.361\H,0,35.972,38.87,98.473\H,0,35.18,38.706,96.887\N,
 0,35.3,35.91,98.409\C,0,35.59,34.49,98.299\C,0,34.92,33.82,97.119\O,0,
 33.74,34.03,96.839\C,0,35.39,33.9,99.699\C,0,35.62,32.41,99.849\O,0,35
 .09,31.83,100.829\O,0,36.23,31.73,98.989\H,0,34.42,36.16,98.849\H,0,36
 .67,34.44,98.119\H,0,34.37,34.11,100.019\H,0,36.09,34.25,100.449\N,0,3
 5.69,33.1,96.299\C,0,35.43,32.64,94.949\C,0,34.95,31.19,94.869\O,0,34.
 08,30.81,94.099\C,0,36.74,32.9,94.199\C,0,36.56,33.1,92.699\C,0,37.85,
 33.41,91.939\C,0,37.57,33.81,90.499\N,0,37.,32.74,89.669\H,0,36.63,32.
 84,96.569\H,0,34.67,33.21,94.429\H,0,37.41,32.05,94.349\H,0,37.19,33.8
 1,94.589\H,0,35.87,33.93,92.559\H,0,36.01,32.29,92.219\H,0,38.48,32.52
 ,91.949\H,0,38.4,34.2,92.459\H,0,38.48,34.16,89.999\H,0,36.94,34.71,90
 .499\H,0,37.59,31.92,89.739\H,0,36.06,32.4,89.779\H,0,36.98,33.18,88.7
 59\N,0,35.39,30.38,95.839\C,0,35.06,28.97,95.889\C,0,34.2,28.69,97.109
 \O,0,33.66,27.59,97.219\C,0,36.28,28.05,95.849\C,0,37.17,28.14,97.079\
 O,0,37.,29.1,97.859\O,0,38.08,27.29,97.159\H,0,36.14,30.69,96.449\H,0,
 34.47,28.64,95.029\H,0,36.85,28.33,94.959\H,0,35.9,27.04,95.769\N,0,34
 .1,29.68,97.999\C,0,33.36,29.52,99.239\C,0,33.95,28.61,100.309\O,0,33.
 24,28.09,101.169\H,0,34.62,30.53,97.839\H,0,32.42,29.08,98.919\H,0,33.
 24,30.5,99.709\N,0,35.26,28.36,100.289\C,0,35.95,27.52,101.259\C,0,36.
 16,28.12,102.639\O,0,36.69,27.4,103.479\C,0,37.26,26.93,100.759\C,0,38
 .47,27.86,100.759\N,0,39.66,27.32,100.459\O,0,38.43,29.06,100.969\H,0,
 35.86,28.78,99.599\H,0,35.24,26.71,101.429\H,0,37.15,26.51,99.759\H,0,
 37.49,26.08,101.389\H,0,39.79,26.32,100.389\H,0,40.46,27.79,100.849\N,
 0,35.66,29.33,102.899\C,0,35.62,29.96,104.199\C,0,36.72,31.,104.419\O,
 0,36.66,31.66,105.449\H,0,35.26,29.81,102.099\H,0,35.91,29.23,104.959\
 H,0,34.65,30.41,104.399\N,0,37.65,31.2,103.489\C,0,38.63,32.26,103.519
 \C,0,38.95,32.88,102.159\O,0,38.76,32.3,101.089\C,0,39.88,31.71,104.19
 9\C,0,40.04,30.25,104.529\C,0,40.11,29.84,105.869\C,0,40.1,29.33,103.4
 79\C,0,40.19,28.48,106.169\C,0,40.31,27.98,103.809\C,0,40.2,27.52,105.
 139\O,0,40.44,26.2,105.409\H,0,37.54,30.6,102.679\H,0,38.3,33.04,104.1
 99\H,0,39.93,32.21,105.169\H,0,40.77,32.08,103.679\H,0,40.02,30.47,106
 .749\H,0,40.15,29.64,102.449\H,0,40.2,28.15,107.199\H,0,40.4,27.25,103
 .029\H,0,40.59,25.98,106.329\N,0,39.45,34.12,102.239\C,0,39.86,34.91,1
 01.099\C,0,41.37,34.7,101.009\O,0,42.07,34.8,102.009\C,0,39.6,36.4,101
 .289\C,0,38.19,36.72,101.779\C,0,39.82,37.17,99.999\C,0,37.97,38.14,10
 2.289\H,0,39.6,34.47,103.179\H,0,39.46,34.5,100.169\H,0,40.37,36.78,10
 1.969\H,0,37.82,36.08,102.569\H,0,37.54,36.61,100.909\H,0,39.17,36.82,
 99.189\H,0,39.77,38.25,100.159\H,0,40.82,37.05,99.599\H,0,38.41,38.12,
 103.279\H,0,38.38,38.93,101.649\H,0,36.93,38.46,102.389\N,0,41.91,34.5
 6,99.799\C,0,43.33,34.61,99.489\C,0,43.62,35.61,98.379\O,0,42.72,36.07
 ,97.679\C,0,43.93,33.26,99.109\O,0,43.2,32.64,98.069\H,0,41.26,34.58,9
 9.029\H,0,43.86,35.01,100.349\H,0,43.93,32.62,99.989\H,0,44.96,33.2,98
 .739\H,0,43.45,31.72,97.949\N,0,44.83,36.09,98.049\C,0,45.18,37.21,97.
 209\C,0,44.65,37.07,95.789\O,0,44.16,38.04,95.209\C,0,46.68,37.49,97.2
 09\H,0,45.52,35.77,98.709\H,0,44.73,38.14,97.539\H,0,46.9,38.4,96.649\
 H,0,47.05,37.51,98.239\H,0,47.23,36.66,96.779\N,0,44.71,35.91,95.129\C
 ,0,44.04,35.78,93.849\C,0,42.56,36.09,93.719\O,0,42.17,36.64,92.679\C,
 0,44.2,34.35,93.349\H,0,45.17,35.12,95.549\H,0,44.62,36.42,93.179\H,0,
 43.98,34.37,92.279\H,0,45.24,34.04,93.419\H,0,43.66,33.53,93.829\N,0,4
 1.8,35.8,94.769\C,0,40.39,36.11,94.919\C,0,40.12,37.57,95.239\O,0,39.3
 1,38.25,94.609\C,0,39.76,35.24,96.009\C,0,40.19,33.78,95.959\C,0,39.41
 ,32.96,96.979\O,0,38.42,32.26,96.689\O,0,39.8,32.91,98.169\H,0,42.22,3
 5.37,95.579\H,0,39.94,35.92,93.939\H,0,38.67,35.34,95.939\H,0,40.17,35
 .57,96.959\H,0,41.23,33.89,96.259\H,0,39.96,33.36,94.979\N,0,40.96,38.
 22,96.039\C,0,41.1,39.65,96.279\H,0,41.971,40.024,95.742\H,0,40.207,40
 .167,95.927\H,0,41.228,39.829,97.347\H,0,41.67,37.66,96.489\Ca,0,38.55
 ,30.83,98.99\O,0,39.98,29.19,97.5\H,0,39.52,28.4,97.24\H,0,40.77,29.2,
 96.95\\Version=ES64L-G16RevA.03\State=1-A\HF=-5333.5949952\RMSD=2.357e
 -09\Dipole=9.4715671,2.0908025,-10.280153\Quadrupole=-39.5776706,-92.3
 386999,131.9163704,-59.2288435,48.5858628,38.320373\PG=C01 [X(C54H83Ca
 1N15O23)]\\@


 WHEN YOU REACH FOR THE STARS, YOU MAY NOT QUITE GET ONE,
 BUT YOU WON'T COME UP WITH A HANDFUL OF MUD, EITHER.

                                         -- LEO BURNETT (AD AGENCY HEAD)
 Job cpu time:       0 days  7 hours 41 minutes  6.2 seconds.
 Elapsed time:       0 days  0 hours  9 minutes 43.0 seconds.
 File lengths (MBytes):  RWF=   1517 Int=      0 D2E=      0 Chk=    171 Scr=      1
 Normal termination of Gaussian 16 at Sat Sep 14 23:29:26 2019.
