 Entering Gaussian System, Link 0=g16
 Initial command:
 /home1/apps/gaussian/16rA.03/g16/l1.exe "/scratch/01990/pengzhi/4329076/Gau-268711.inp" -scrdir="/scratch/01990/pengzhi/4329076/"
 Entering Link 1 = /home1/apps/gaussian/16rA.03/g16/l1.exe PID=    268712.
  
 Copyright (c) 1988,1990,1992,1993,1995,1998,2003,2009,2016,
            Gaussian, Inc.  All Rights Reserved.
  
 This is part of the Gaussian(R) 16 program.  It is based on
 the Gaussian(R) 09 system (copyright 2009, Gaussian, Inc.),
 the Gaussian(R) 03 system (copyright 2003, Gaussian, Inc.),
 the Gaussian(R) 98 system (copyright 1998, Gaussian, Inc.),
 the Gaussian(R) 94 system (copyright 1995, Gaussian, Inc.),
 the Gaussian 92(TM) system (copyright 1992, Gaussian, Inc.),
 the Gaussian 90(TM) system (copyright 1990, Gaussian, Inc.),
 the Gaussian 88(TM) system (copyright 1988, Gaussian, Inc.),
 the Gaussian 86(TM) system (copyright 1986, Carnegie Mellon
 University), and the Gaussian 82(TM) system (copyright 1983,
 Carnegie Mellon University). Gaussian is a federally registered
 trademark of Gaussian, Inc.
  
 This software contains proprietary and confidential information,
 including trade secrets, belonging to Gaussian, Inc.
  
 This software is provided under written license and may be
 used, copied, transmitted, or stored only in accord with that
 written license.
  
 The following legend is applicable only to US Government
 contracts under FAR:
  
                    RESTRICTED RIGHTS LEGEND
  
 Use, reproduction and disclosure by the US Government is
 subject to restrictions as set forth in subparagraphs (a)
 and (c) of the Commercial Computer Software - Restricted
 Rights clause in FAR 52.227-19.
  
 Gaussian, Inc.
 340 Quinnipiac St., Bldg. 40, Wallingford CT 06492
  
  
 ---------------------------------------------------------------
 Warning -- This program may not be used in any manner that
 competes with the business of Gaussian, Inc. or will provide
 assistance to any competitor of Gaussian, Inc.  The licensee
 of this program is prohibited from giving any competitor of
 Gaussian, Inc. access to this program.  By using this program,
 the user acknowledges that Gaussian, Inc. is engaged in the
 business of creating and licensing software in the field of
 computational chemistry and represents and warrants to the
 licensee that it is not a competitor of Gaussian, Inc. and that
 it will not use this program in any manner prohibited above.
 ---------------------------------------------------------------
  

 Cite this work as:
 Gaussian 16, Revision A.03,
 M. J. Frisch, G. W. Trucks, H. B. Schlegel, G. E. Scuseria, 
 M. A. Robb, J. R. Cheeseman, G. Scalmani, V. Barone, 
 G. A. Petersson, H. Nakatsuji, X. Li, M. Caricato, A. V. Marenich, 
 J. Bloino, B. G. Janesko, R. Gomperts, B. Mennucci, H. P. Hratchian, 
 J. V. Ortiz, A. F. Izmaylov, J. L. Sonnenberg, D. Williams-Young, 
 F. Ding, F. Lipparini, F. Egidi, J. Goings, B. Peng, A. Petrone, 
 T. Henderson, D. Ranasinghe, V. G. Zakrzewski, J. Gao, N. Rega, 
 G. Zheng, W. Liang, M. Hada, M. Ehara, K. Toyota, R. Fukuda, 
 J. Hasegawa, M. Ishida, T. Nakajima, Y. Honda, O. Kitao, H. Nakai, 
 T. Vreven, K. Throssell, J. A. Montgomery, Jr., J. E. Peralta, 
 F. Ogliaro, M. J. Bearpark, J. J. Heyd, E. N. Brothers, K. N. Kudin, 
 V. N. Staroverov, T. A. Keith, R. Kobayashi, J. Normand, 
 K. Raghavachari, A. P. Rendell, J. C. Burant, S. S. Iyengar, 
 J. Tomasi, M. Cossi, J. M. Millam, M. Klene, C. Adamo, R. Cammi, 
 J. W. Ochterski, R. L. Martin, K. Morokuma, O. Farkas, 
 J. B. Foresman, and D. J. Fox, Gaussian, Inc., Wallingford CT, 2016.
 
 ******************************************
 Gaussian 16:  ES64L-G16RevA.03 25-Dec-2016
                15-Sep-2019 
 ******************************************
 %chk=CaMKII_loop3_90.0.chk
 %nprocshared=48
 Will use up to   48 processors via shared memory.
 %mem=10GB
 %nosave
 ----------------------------------------------------------------------
 #b3lyp/svp scf=(tight,noincore) Test #IOP(5/87=12) Density=Current Pop
 =(MK,readradii) iop(6/33=2) iop(6/42=6)
 ----------------------------------------------------------------------
 1/30=1,38=1,172=1/1;
 2/12=2,17=6,18=5,40=1/2;
 3/5=18,7=101,11=2,25=1,30=1,74=-5/1,2,3;
 4//1;
 5/5=4,32=2,38=5,87=12/2;
 6/7=2,8=2,9=2,10=2,15=8,20=101,22=-1,28=1,33=2,42=6/1,2;
 99/5=1,9=1/99;
 -----------------
 CaMKII_loop3_90.0
 -----------------
 Symbolic Z-matrix:
 Charge =  0 Multiplicity = 1
 C                     81.553    65.87     36.01 
 C                     81.063    65.57     37.42 
 O                     81.483    64.69     38.16 
 H                     82.58     65.521    35.901 
 H                     80.917    65.358    35.287 
 H                     81.514    66.945    35.832 
 N                     80.013    66.29     37.82 
 C                     79.613    66.41     39.2 
 C                     78.503    65.38     39.41 
 O                     77.503    65.5      38.71 
 C                     79.133    67.82     39.54 
 C                     78.563    68.17     40.9 
 O                     78.523    67.3      41.81 
 O                     78.023    69.29     41.06 
 H                     79.673    67.06     37.26 
 H                     80.413    66.26     39.92 
 H                     78.353    68.12     38.83 
 H                     79.983    68.49     39.41 
 N                     78.633    64.4      40.31 
 C                     77.703    63.35     40.65 
 C                     76.553    63.64     41.6 
 O                     75.783    62.72     41.82 
 C                     78.473    62.06     40.9 
 C                     77.923    60.68     40.55 
 C                     78.593    59.44     41.11 
 C                     78.513    59.3      42.63 
 N                     79.453    58.3      43.17 
 H                     79.443    64.44     40.92 
 H                     77.113    63.12     39.76 
 H                     78.683    62.13     41.97 
 H                     79.393    62.09     40.32 
 H                     77.933    60.62     39.46 
 H                     76.843    60.65     40.73 
 H                     79.593    59.34     40.68 
 H                     78.043    58.6      40.68 
 H                     77.503    59.       42.91 
 H                     78.723    60.23     43.16 
 H                     80.363    58.72     43.32 
 H                     79.043    57.94     44.02 
 H                     79.553    57.51     42.56 
 N                     76.343    64.86     42.12 
 C                     75.103    65.14     42.81 
 C                     74.533    66.52     42.47 
 O                     73.473    66.81     43.03 
 C                     75.333    64.93     44.3 
 C                     76.493    65.72     44.9 
 O                     77.233    66.41     44.17 
 O                     76.753    65.52     46.11 
 H                     76.903    65.66     41.89 
 H                     74.353    64.43     42.46 
 H                     75.533    63.86     44.4 
 H                     74.473    65.15     44.94 
 N                     75.073    67.34     41.57 
 C                     74.643    68.7      41.31 
 C                     74.893    69.74     42.39 
 O                     74.193    70.75     42.39 
 H                     75.963    67.04     41.19 
 H                     73.583    68.75     41.05 
 H                     75.233    69.11     40.49 
 N                     75.803    69.54     43.35 
 C                     76.173    70.44     44.42 
 C                     77.253    71.46     44.11 
 O                     77.453    72.46     44.8 
 C                     76.663    69.58     45.59 
 C                     78.183    69.56     45.7 
 N                     78.713    70.26     46.7 
 O                     78.973    68.92     45. 
 H                     76.243    68.63     43.31 
 H                     75.253    70.97     44.68 
 H                     76.313    68.55     45.51 
 H                     76.273    69.95     46.54 
 H                     78.153    70.9      47.24 
 H                     79.723    70.25     46.77 
 N                     77.913    71.35     42.95 
 C                     78.793    72.3      42.29 
 C                     80.243    72.24     42.73 
 O                     80.923    73.27     42.78 
 H                     77.773    70.55     42.36 
 H                     78.323    73.28     42.35 
 H                     78.763    72.03     41.23 
 N                     80.783    71.1      43.18 
 C                     82.193    70.82     43.24 
 C                     82.353    69.32     43.03 
 O                     81.503    68.48     43.32 
 C                     82.823    71.42     44.5 
 C                     82.093    71.3      45.81 
 C                     81.473    72.43     46.37 
 C                     82.063    70.1      46.53 
 C                     80.983    72.42     47.68 
 C                     81.673    70.06     47.87 
 C                     81.093    71.23     48.42 
 O                     80.683    71.13     49.71 
 H                     80.143    70.32     43.11 
 H                     82.593    71.24     42.32 
 H                     82.913    72.46     44.17 
 H                     83.863    71.16     44.68 
 H                     81.483    73.38     45.86 
 H                     82.473    69.19     46.1 
 H                     80.483    73.21     48.22 
 H                     81.733    69.1      48.36 
 H                     80.803    70.22     49.99 
 N                     83.593    69.       42.66 
 C                     84.103    67.7      42.26 
 C                     85.073    67.15     43.29 
 O                     86.063    67.76     43.69 
 C                     84.743    67.81     40.88 
 C                     83.733    68.28     39.84 
 C                     85.463    66.52     40.48 
 C                     84.533    68.74     38.62 
 H                     84.243    69.77     42.6 
 H                     83.173    67.12     42.2 
 H                     85.433    68.65     40.97 
 H                     83.133    69.15     40.12 
 H                     83.113    67.43     39.58 
 H                     85.903    66.56     39.49 
 H                     86.243    66.31     41.21 
 H                     84.813    65.64     40.46 
 H                     83.733    69.1      37.97 
 H                     85.203    69.53     38.97 
 H                     85.093    67.99     38.07 
 N                     84.843    65.96     43.84 
 C                     85.823    65.16     44.56 
 C                     86.633    64.24     43.67 
 O                     86.093    63.89     42.63 
 C                     84.973    64.37     45.55 
 O                     84.073    63.44     44.99 
 H                     84.033    65.41     43.6 
 H                     86.543    65.8      45.08 
 H                     84.413    64.98     46.26 
 H                     85.723    63.83     46.13 
 H                     83.333    63.93     44.61 
 N                     87.673    63.63     44.24 
 C                     88.483    62.65     43.54 
 C                     87.763    61.4      43.04 
 O                     88.273    60.83     42.09 
 C                     89.713    62.33     44.38 
 H                     87.983    63.9      45.16 
 H                     88.843    63.07     42.6 
 H                     90.483    61.85     43.78 
 H                     90.283    63.25     44.56 
 H                     89.543    61.68     45.23 
 N                     86.623    61.05     43.64 
 C                     85.873    59.87     43.25 
 C                     84.963    60.15     42.07 
 O                     84.473    59.23     41.41 
 C                     85.033    59.47     44.46 
 H                     86.343    61.53     44.48 
 H                     86.583    59.09     42.95 
 H                     84.233    60.2      44.56 
 H                     84.563    58.53     44.18 
 H                     85.693    59.32     45.32 
 N                     84.763    61.43     41.75 
 C                     83.903    61.95     40.71 
 C                     84.753    62.25     39.49 
 O                     84.363    61.88     38.38 
 C                     83.173    63.23     41.12 
 C                     81.903    63.11     41.98 
 C                     81.633    64.41     42.7 
 O                     82.193    64.62     43.8 
 O                     80.883    65.31     42.26 
 H                     85.173    62.07     42.41 
 H                     83.113    61.26     40.42 
 H                     82.943    63.79     40.22 
 H                     83.823    63.9      41.68 
 H                     82.123    62.31     42.69 
 H                     81.053    62.83     41.36 
 N                     85.893    62.91     39.73 
 C                     86.903    63.12     38.71 
 H                     87.828    62.627    39.009 
 H                     86.558    62.702    37.764 
 H                     87.083    64.188    38.591 
 H                     86.113    63.11     40.69 
 Ca                    79.77     66.62     44.09 
 O                     79.22     66.18     46.57 
 H                     78.27     66.11     46.44 
 H                     79.33     66.1      47.52 
 
 Stoichiometry    C54H83CaN15O23
 Framework group  C1[X(C54H83CaN15O23)]
 Deg. of freedom   522
 Full point group                 C1      NOp   1
 Largest Abelian subgroup         C1      NOp   1
 Largest concise Abelian subgroup C1      NOp   1
                         Standard orientation:                         
 ---------------------------------------------------------------------
 Center     Atomic      Atomic             Coordinates (Angstroms)
 Number     Number       Type             X           Y           Z
 ---------------------------------------------------------------------
      1          6           0        1.759965    2.455721    6.005068
      2          6           0        1.368919    2.415134    4.534138
      3          8           0        2.136946    2.359917    3.582568
      4          1           0        2.741142    1.997987    6.132275
      5          1           0        1.796146    3.491790    6.343624
      6          1           0        1.024039    1.906298    6.592757
      7          7           0        0.063664    2.549760    4.291061
      8          6           0       -0.548123    2.205921    3.031580
      9          6           0       -0.655767    3.511189    2.243044
     10          8           0       -1.314700    4.409690    2.755785
     11          6           0       -1.917674    1.554281    3.215413
     12          6           0       -2.803681    1.197645    2.038636
     13          8           0       -2.396130    1.387368    0.861986
     14          8           0       -3.983205    0.833699    2.257422
     15          1           0       -0.604790    2.544249    5.049506
     16          1           0       -0.012559    1.456026    2.455622
     17          1           0       -2.544327    2.196046    3.846240
     18          1           0       -1.758988    0.613988    3.743588
     19          7           0       -0.051267    3.653389    1.059128
     20          6           0       -0.042125    4.794373    0.175345
     21          6           0       -1.220312    5.038482   -0.752763
     22          8           0       -1.166790    6.038108   -1.449602
     23          6           0        1.342259    4.938410   -0.442906
     24          6           0        1.969690    6.289217   -0.776150
     25          6           0        3.193646    6.349168   -1.669704
     26          6           0        2.960486    5.884612   -3.107141
     27          7           0        4.212295    5.621055   -3.841110
     28          1           0        0.380217    2.825910    0.660505
     29          1           0       -0.137869    5.695201    0.785625
     30          1           0        1.249016    4.325495   -1.342651
     31          1           0        2.071940    4.513834    0.243390
     32          1           0        2.214124    6.751718    0.182049
     33          1           0        1.199615    6.983600   -1.129020
     34          1           0        4.042074    5.887830   -1.157613
     35          1           0        3.463465    7.406677   -1.712964
     36          1           0        2.407576    6.653318   -3.647401
     37          1           0        2.371934    4.968609   -3.173814
     38          1           0        4.534967    4.678416   -3.655868
     39          1           0        4.019495    5.783808   -4.819139
     40          1           0        4.936471    6.269907   -3.594613
     41          7           0       -2.301763    4.242705   -0.762897
     42          6           0       -3.489488    4.658515   -1.475998
     43          6           0       -4.779245    4.357576   -0.707322
     44          8           0       -5.824079    4.694397   -1.269614
     45          6           0       -3.451350    4.033359   -2.863379
     46          6           0       -3.288972    2.515961   -2.892280
     47          8           0       -3.113372    1.878316   -1.834370
     48          8           0       -3.186289    1.975318   -4.018717
     49          1           0       -2.418279    3.464719   -0.140272
     50          1           0       -3.464053    5.744453   -1.571869
     51          1           0       -2.591786    4.499290   -3.352212
     52          1           0       -4.321916    4.242026   -3.492802
     53          7           0       -4.803057    3.847741    0.522922
     54          6           0       -5.995121    3.430094    1.234719
     55          6           0       -6.730303    2.201529    0.724193
     56          8           0       -7.917616    2.078206    1.016048
     57          1           0       -3.903085    3.563106    0.891072
     58          1           0       -6.727113    4.237375    1.313361
     59          1           0       -5.715769    3.100668    2.235739
     60          7           0       -6.126227    1.310156   -0.069688
     61          6           0       -6.678902    0.086754   -0.607869
     62          6           0       -6.567445   -1.151966    0.261643
     63          8           0       -7.240024   -2.166790    0.077607
     64          6           0       -5.952851   -0.199913   -1.926683
     65          6           0       -4.891537   -1.284167   -1.782092
     66          7           0       -5.181491   -2.470131   -2.311540
     67          8           0       -3.769996   -1.167653   -1.279827
     68          1           0       -5.183176    1.569220   -0.328226
     69          1           0       -7.736798    0.301398   -0.780158
     70          1           0       -5.474665    0.694353   -2.328461
     71          1           0       -6.652488   -0.530250   -2.696674
     72          1           0       -6.112747   -2.682311   -2.631762
     73          1           0       -4.477985   -3.191340   -2.211353
     74          7           0       -5.819554   -1.081647    1.370251
     75          6           0       -5.737352   -2.000595    2.493317
     76          6           0       -4.756998   -3.143477    2.313242
     77          8           0       -4.998065   -4.254336    2.796646
     78          1           0       -5.260611   -0.268531    1.554982
     79          1           0       -6.753288   -2.288978    2.757152
     80          1           0       -5.381735   -1.395894    3.333123
     81          7           0       -3.673428   -3.009981    1.537513
     82          6           0       -2.501248   -3.841656    1.603919
     83          6           0       -1.317782   -2.965917    1.213803
     84          8           0       -1.388138   -1.986883    0.473032
     85          6           0       -2.698865   -5.140021    0.816711
     86          6           0       -3.364448   -5.083026   -0.531306
     87          6           0       -4.678990   -5.556606   -0.681641
     88          6           0       -2.688361   -4.626027   -1.668565
     89          6           0       -5.251826   -5.732030   -1.945519
     90          6           0       -3.175708   -4.864564   -2.954992
     91          6           0       -4.487920   -5.385948   -3.073559
     92          8           0       -4.938983   -5.554637   -4.342529
     93          1           0       -3.572899   -2.069380    1.179653
     94          1           0       -2.344211   -4.005779    2.667499
     95          1           0       -3.292754   -5.697278    1.548395
     96          1           0       -1.821858   -5.775223    0.721962
     97          1           0       -5.234674   -5.932727    0.162425
     98          1           0       -1.696220   -4.191154   -1.581153
     99          1           0       -6.244285   -6.076063   -2.195252
    100          1           0       -2.560385   -4.522945   -3.773511
    101          1           0       -4.278196   -5.201188   -4.941975
    102          7           0       -0.160066   -3.484854    1.622825
    103          6           0        1.165566   -2.896360    1.542353
    104          6           0        2.040294   -3.646395    0.554123
    105          8           0        2.243279   -4.858200    0.604368
    106          6           0        1.787433   -2.857184    2.934419
    107          6           0        0.941528   -2.027312    3.892728
    108          6           0        3.253635   -2.420131    2.892751
    109          6           0        1.405850   -2.373250    5.308614
    110          1           0       -0.223299   -4.374681    2.095275
    111          1           0        0.922884   -1.879323    1.208226
    112          1           0        1.677082   -3.876482    3.306783
    113          1           0       -0.129490   -2.246904    3.892681
    114          1           0        1.138502   -0.982888    3.680879
    115          1           0        3.713131   -2.355353    3.872531
    116          1           0        3.814690   -3.124030    2.280262
    117          1           0        3.407037   -1.432278    2.447876
    118          1           0        0.713026   -1.777609    5.906366
    119          1           0        1.269129   -3.451953    5.423538
    120          1           0        2.414683   -2.090871    5.593427
    121          7           0        2.599635   -2.989341   -0.459246
    122          6           0        3.709374   -3.472559   -1.267813
    123          6           0        5.072027   -3.125794   -0.704316
    124          8           0        5.121043   -2.127717    0.000765
    125          6           0        3.478651   -2.801894   -2.618249
    126          8           0        3.588091   -1.396156   -2.638814
    127          1           0        2.452928   -2.001908   -0.599434
    128          1           0        3.680515   -4.563159   -1.358132
    129          1           0        2.537481   -3.063592   -3.103546
    130          1           0        4.272959   -3.226718   -3.233961
    131          1           0        2.799273   -1.027660   -2.221589
    132          7           0        6.119990   -3.705319   -1.291278
    133          6           0        7.489799   -3.397962   -0.922962
    134          6           0        7.935285   -1.948070   -1.096900
    135          8           0        8.856963   -1.580424   -0.387784
    136          6           0        8.422828   -4.390980   -1.604336
    137          1           0        5.986170   -4.448260   -1.958758
    138          1           0        7.622346   -3.526435    0.151992
    139          1           0        9.402114   -4.396695   -1.130768
    140          1           0        8.156913   -5.411120   -1.300523
    141          1           0        8.598332   -4.219832   -2.659707
    142          7           0        7.267971   -1.186448   -1.966799
    143          6           0        7.624382    0.198348   -2.216421
    144          6           0        7.004769    1.129013   -1.192290
    145          8           0        7.413206    2.284568   -1.050963
    146          6           0        7.092437    0.539838   -3.605708
    147          1           0        6.589584   -1.615453   -2.575195
    148          1           0        8.714237    0.295535   -2.143833
    149          1           0        6.009807    0.614581   -3.533425
    150          1           0        7.460338    1.542524   -3.811062
    151          1           0        7.504511   -0.168764   -4.330814
    152          7           0        6.040113    0.624111   -0.420726
    153          6           0        5.265091    1.320009    0.582601
    154          6           0        5.874746    1.035774    1.942172
    155          8           0        6.055459    1.969847    2.726996
    156          6           0        3.796957    0.891926    0.609579
    157          6           0        2.833143    1.501745   -0.422934
    158          6           0        1.618472    0.619849   -0.590662
    159          8           0        1.669153   -0.331645   -1.402937
    160          8           0        0.550979    0.772286    0.044414
    161          1           0        5.768392   -0.307475   -0.688336
    162          1           0        5.237867    2.397754    0.434195
    163          1           0        3.411573    1.071829    1.607384
    164          1           0        3.691083   -0.184163    0.483792
    165          1           0        3.411019    1.548786   -1.348325
    166          1           0        2.540705    2.505388   -0.118826
    167          7           0        6.177396   -0.246401    2.181400
    168          6           0        6.925423   -0.666755    3.351169
    169          1           0        7.860784   -1.129354    3.036243
    170          1           0        7.141300    0.199860    3.976500
    171          1           0        6.337485   -1.387071    3.919200
    172          1           0        6.021406   -0.900778    1.434769
    173         20           0       -1.462200    0.026874   -1.257600
    174          8           0       -1.991412   -0.313231   -3.757752
    175          1           0       -2.586882    0.438444   -3.826315
    176          1           0       -2.029954   -0.718890   -4.626634
 ---------------------------------------------------------------------
 Rotational constants (GHZ):           0.0242938           0.0150261           0.0123693
 Standard basis: SVP (5D, 7F)
 There are  1809 symmetry adapted cartesian basis functions of A   symmetry.
 There are  1717 symmetry adapted basis functions of A   symmetry.
  1717 basis functions,  2922 primitive gaussians,  1809 cartesian basis functions
   358 alpha electrons      358 beta electrons
       nuclear repulsion energy     21755.8130631541 Hartrees.
 NAtoms=  176 NActive=  176 NUniq=  176 SFac= 1.00D+00 NAtFMM=   60 NAOKFM=T Big=T
 Integral buffers will be    131072 words long.
 Raffenetti 2 integral format.
 Two-electron integral symmetry is turned on.
 One-electron integrals computed using PRISM.
 NBasis=  1717 RedAO= T EigKep=  3.20D-04  NBF=  1717
 NBsUse=  1717 1.00D-06 EigRej= -1.00D+00 NBFU=  1717
 ExpMin= 1.98D-02 ExpMax= 3.51D+04 ExpMxC= 5.28D+03 IAcc=3 IRadAn=         5 AccDes= 0.00D+00
 Harris functional with IExCor=  402 and IRadAn=       5 diagonalized for initial guess.
 HarFok:  IExCor=  402 AccDes= 0.00D+00 IRadAn=         5 IDoV= 1 UseB2=F ITyADJ=14
 ICtDFT=  3500011 ScaDFX=  1.000000  1.000000  1.000000  1.000000
 FoFCou: FMM=F IPFlag=           0 FMFlag=      100000 FMFlg1=        2001
         NFxFlg=           0 DoJE=T BraDBF=F KetDBF=T FulRan=T
         wScrn=  0.000000 ICntrl=       500 IOpCl=  0 I1Cent=   200000004 NGrid=           0
         NMat0=    1 NMatS0=      1 NMatT0=    0 NMatD0=    1 NMtDS0=    0 NMtDT0=    0
 Petite list used in FoFCou.
 Requested convergence on RMS density matrix=1.00D-08 within 128 cycles.
 Requested convergence on MAX density matrix=1.00D-06.
 Requested convergence on             energy=1.00D-06.
 No special actions if energy rises.
 EnCoef did     2 forward-backward iterations
 EnCoef did     2 forward-backward iterations
 EnCoef did     2 forward-backward iterations
 Restarting incremental Fock formation.
 SCF Done:  E(RB3LYP) =  -5333.61197456     A.U. after   21 cycles
            NFock= 21  Conv=0.24D-08     -V/T= 2.0081
 SCF density gives NOpUse=  1 NOpAll=  1.
 Hyperfine terms turned off by default for NAtoms > 100.

 **********************************************************************

            Population analysis using the SCF density.

 **********************************************************************

 Orbital symmetries:
 BldTbl:  Degeneracy threshold= 1.00D-02
       Occupied  (A) (A) (A) (A) (A) (A) (A) (A) (A) (A) (A) (A)
                 (A) (A) (A) (A) (A) (A) (A) (A) (A) (A) (A) (A)
                 (A) (A) (A) (A) (A) (A) (A) (A) (A) (A) (A) (A)
                 (A) (A) (A) (A) (A) (A) (A) (A) (A) (A) (A) (A)
                 (A) (A) (A) (A) (A) (A) (A) (A) (A) (A) (A) (A)
                 (A) (A) (A) (A) (A) (A) (A) (A) (A) (A) (A) (A)
                 (A) (A) (A) (A) (A) (A) (A) (A) (A) (A) (A) (A)
                 (A) (A) (A) (A) (A) (A) (A) (A) (A) (A) (A) (A)
                 (A) (A) (A) (A) (A) (A) (A) (A) (A) (A) (A) (A)
                 (A) (A) (A) (A) (A) (A) (A) (A) (A) (A) (A) (A)
                 (A) (A) (A) (A) (A) (A) (A) (A) (A) (A) (A) (A)
                 (A) (A) (A) (A) (A) (A) (A) (A) (A) (A) (A) (A)
                 (A) (A) (A) (A) (A) (A) (A) (A) (A) (A) (A) (A)
                 (A) (A) (A) (A) (A) (A) (A) (A) (A) (A) (A) (A)
                 (A) (A) (A) (A) (A) (A) (A) (A) (A) (A) (A) (A)
                 (A) (A) (A) (A) (A) (A) (A) (A) (A) (A) (A) (A)
                 (A) (A) (A) (A) (A) (A) (A) (A) (A) (A) (A) (A)
                 (A) (A) (A) (A) (A) (A) (A) (A) (A) (A) (A) (A)
                 (A) (A) (A) (A) (A) (A) (A) (A) (A) (A) (A) (A)
                 (A) (A) (A) (A) (A) (A) (A) (A) (A) (A) (A) (A)
                 (A) (A) (A) (A) (A) (A) (A) (A) (A) (A) (A) (A)
                 (A) (A) (A) (A) (A) (A) (A) (A) (A) (A) (A) (A)
                 (A) (A) (A) (A) (A) (A) (A) (A) (A) (A) (A) (A)
                 (A) (A) (A) (A) (A) (A) (A) (A) (A) (A) (A) (A)
                 (A) (A) (A) (A) (A) (A) (A) (A) (A) (A) (A) (A)
                 (A) (A) (A) (A) (A) (A) (A) (A) (A) (A) (A) (A)
                 (A) (A) (A) (A) (A) (A) (A) (A) (A) (A) (A) (A)
                 (A) (A) (A) (A) (A) (A) (A) (A) (A) (A) (A) (A)
                 (A) (A) (A) (A) (A) (A) (A) (A) (A) (A) (A) (A)
                 (A) (A) (A) (A) (A) (A) (A) (A) (A) (A)
       Virtual   (A) (A) (A) (A) (A) (A) (A) (A) (A) (A) (A) (A)
                 (A) (A) (A) (A) (A) (A) (A) (A) (A) (A) (A) (A)
                 (A) (A) (A) (A) (A) (A) (A) (A) (A) (A) (A) (A)
                 (A) (A) (A) (A) (A) (A) (A) (A) (A) (A) (A) (A)
                 (A) (A) (A) (A) (A) (A) (A) (A) (A) (A) (A) (A)
                 (A) (A) (A) (A) (A) (A) (A) (A) (A) (A) (A) (A)
                 (A) (A) (A) (A) (A) (A) (A) (A) (A) (A) (A) (A)
                 (A) (A) (A) (A) (A) (A) (A) (A) (A) (A) (A) (A)
                 (A) (A) (A) (A) (A) (A) (A) (A) (A) (A) (A) (A)
                 (A) (A) (A) (A) (A) (A) (A) (A) (A) (A) (A) (A)
                 (A) (A) (A) (A) (A) (A) (A) (A) (A) (A) (A) (A)
                 (A) (A) (A) (A) (A) (A) (A) (A) (A) (A) (A) (A)
                 (A) (A) (A) (A) (A) (A) (A) (A) (A) (A) (A) (A)
                 (A) (A) (A) (A) (A) (A) (A) (A) (A) (A) (A) (A)
                 (A) (A) (A) (A) (A) (A) (A) (A) (A) (A) (A) (A)
                 (A) (A) (A) (A) (A) (A) (A) (A) (A) (A) (A) (A)
                 (A) (A) (A) (A) (A) (A) (A) (A) (A) (A) (A) (A)
                 (A) (A) (A) (A) (A) (A) (A) (A) (A) (A) (A) (A)
                 (A) (A) (A) (A) (A) (A) (A) (A) (A) (A) (A) (A)
                 (A) (A) (A) (A) (A) (A) (A) (A) (A) (A) (A) (A)
                 (A) (A) (A) (A) (A) (A) (A) (A) (A) (A) (A) (A)
                 (A) (A) (A) (A) (A) (A) (A) (A) (A) (A) (A) (A)
                 (A) (A) (A) (A) (A) (A) (A) (A) (A) (A) (A) (A)
                 (A) (A) (A) (A) (A) (A) (A) (A) (A) (A) (A) (A)
                 (A) (A) (A) (A) (A) (A) (A) (A) (A) (A) (A) (A)
                 (A) (A) (A) (A) (A) (A) (A) (A) (A) (A) (A) (A)
                 (A) (A) (A) (A) (A) (A) (A) (A) (A) (A) (A) (A)
                 (A) (A) (A) (A) (A) (A) (A) (A) (A) (A) (A) (A)
                 (A) (A) (A) (A) (A) (A) (A) (A) (A) (A) (A) (A)
                 (A) (A) (A) (A) (A) (A) (A) (A) (A) (A) (A) (A)
                 (A) (A) (A) (A) (A) (A) (A) (A) (A) (A) (A) (A)
                 (A) (A) (A) (A) (A) (A) (A) (A) (A) (A) (A) (A)
                 (A) (A) (A) (A) (A) (A) (A) (A) (A) (A) (A) (A)
                 (A) (A) (A) (A) (A) (A) (A) (A) (A) (A) (A) (A)
                 (A) (A) (A) (A) (A) (A) (A) (A) (A) (A) (A) (A)
                 (A) (A) (A) (A) (A) (A) (A) (A) (A) (A) (A) (A)
                 (A) (A) (A) (A) (A) (A) (A) (A) (A) (A) (A) (A)
                 (A) (A) (A) (A) (A) (A) (A) (A) (A) (A) (A) (A)
                 (A) (A) (A) (A) (A) (A) (A) (A) (A) (A) (A) (A)
                 (A) (A) (A) (A) (A) (A) (A) (A) (A) (A) (A) (A)
                 (A) (A) (A) (A) (A) (A) (A) (A) (A) (A) (A) (A)
                 (A) (A) (A) (A) (A) (A) (A) (A) (A) (A) (A) (A)
                 (A) (A) (A) (A) (A) (A) (A) (A) (A) (A) (A) (A)
                 (A) (A) (A) (A) (A) (A) (A) (A) (A) (A) (A) (A)
                 (A) (A) (A) (A) (A) (A) (A) (A) (A) (A) (A) (A)
                 (A) (A) (A) (A) (A) (A) (A) (A) (A) (A) (A) (A)
                 (A) (A) (A) (A) (A) (A) (A) (A) (A) (A) (A) (A)
                 (A) (A) (A) (A) (A) (A) (A) (A) (A) (A) (A) (A)
                 (A) (A) (A) (A) (A) (A) (A) (A) (A) (A) (A) (A)
                 (A) (A) (A) (A) (A) (A) (A) (A) (A) (A) (A) (A)
                 (A) (A) (A) (A) (A) (A) (A) (A) (A) (A) (A) (A)
                 (A) (A) (A) (A) (A) (A) (A) (A) (A) (A) (A) (A)
                 (A) (A) (A) (A) (A) (A) (A) (A) (A) (A) (A) (A)
                 (A) (A) (A) (A) (A) (A) (A) (A) (A) (A) (A) (A)
                 (A) (A) (A) (A) (A) (A) (A) (A) (A) (A) (A) (A)
                 (A) (A) (A) (A) (A) (A) (A) (A) (A) (A) (A) (A)
                 (A) (A) (A) (A) (A) (A) (A) (A) (A) (A) (A) (A)
                 (A) (A) (A) (A) (A) (A) (A) (A) (A) (A) (A) (A)
                 (A) (A) (A) (A) (A) (A) (A) (A) (A) (A) (A) (A)
                 (A) (A) (A) (A) (A) (A) (A) (A) (A) (A) (A) (A)
                 (A) (A) (A) (A) (A) (A) (A) (A) (A) (A) (A) (A)
                 (A) (A) (A) (A) (A) (A) (A) (A) (A) (A) (A) (A)
                 (A) (A) (A) (A) (A) (A) (A) (A) (A) (A) (A) (A)
                 (A) (A) (A) (A) (A) (A) (A) (A) (A) (A) (A) (A)
                 (A) (A) (A) (A) (A) (A) (A) (A) (A) (A) (A) (A)
                 (A) (A) (A) (A) (A) (A) (A) (A) (A) (A) (A) (A)
                 (A) (A) (A) (A) (A) (A) (A) (A) (A) (A) (A) (A)
                 (A) (A) (A) (A) (A) (A) (A) (A) (A) (A) (A) (A)
                 (A) (A) (A) (A) (A) (A) (A) (A) (A) (A) (A) (A)
                 (A) (A) (A) (A) (A) (A) (A) (A) (A) (A) (A) (A)
                 (A) (A) (A) (A) (A) (A) (A) (A) (A) (A) (A) (A)
                 (A) (A) (A) (A) (A) (A) (A) (A) (A) (A) (A) (A)
                 (A) (A) (A) (A) (A) (A) (A) (A) (A) (A) (A) (A)
                 (A) (A) (A) (A) (A) (A) (A) (A) (A) (A) (A) (A)
                 (A) (A) (A) (A) (A) (A) (A) (A) (A) (A) (A) (A)
                 (A) (A) (A) (A) (A) (A) (A) (A) (A) (A) (A) (A)
                 (A) (A) (A) (A) (A) (A) (A) (A) (A) (A) (A) (A)
                 (A) (A) (A) (A) (A) (A) (A) (A) (A) (A) (A) (A)
                 (A) (A) (A) (A) (A) (A) (A) (A) (A) (A) (A) (A)
                 (A) (A) (A) (A) (A) (A) (A) (A) (A) (A) (A) (A)
                 (A) (A) (A) (A) (A) (A) (A) (A) (A) (A) (A) (A)
                 (A) (A) (A) (A) (A) (A) (A) (A) (A) (A) (A) (A)
                 (A) (A) (A) (A) (A) (A) (A) (A) (A) (A) (A) (A)
                 (A) (A) (A) (A) (A) (A) (A) (A) (A) (A) (A) (A)
                 (A) (A) (A) (A) (A) (A) (A) (A) (A) (A) (A) (A)
                 (A) (A) (A) (A) (A) (A) (A) (A) (A) (A) (A) (A)
                 (A) (A) (A) (A) (A) (A) (A) (A) (A) (A) (A) (A)
                 (A) (A) (A) (A) (A) (A) (A) (A) (A) (A) (A) (A)
                 (A) (A) (A) (A) (A) (A) (A) (A) (A) (A) (A) (A)
                 (A) (A) (A) (A) (A) (A) (A) (A) (A) (A) (A) (A)
                 (A) (A) (A) (A) (A) (A) (A) (A) (A) (A) (A) (A)
                 (A) (A) (A) (A) (A) (A) (A) (A) (A) (A) (A) (A)
                 (A) (A) (A) (A) (A) (A) (A) (A) (A) (A) (A) (A)
                 (A) (A) (A) (A) (A) (A) (A) (A) (A) (A) (A) (A)
                 (A) (A) (A) (A) (A) (A) (A) (A) (A) (A) (A) (A)
                 (A) (A) (A) (A) (A) (A) (A) (A) (A) (A) (A) (A)
                 (A) (A) (A) (A) (A) (A) (A) (A) (A) (A) (A) (A)
                 (A) (A) (A) (A) (A) (A) (A) (A) (A) (A) (A) (A)
                 (A) (A) (A) (A) (A) (A) (A) (A) (A) (A) (A) (A)
                 (A) (A) (A) (A) (A) (A) (A) (A) (A) (A) (A) (A)
                 (A) (A) (A) (A) (A) (A) (A) (A) (A) (A) (A) (A)
                 (A) (A) (A) (A) (A) (A) (A) (A) (A) (A) (A) (A)
                 (A) (A) (A) (A) (A) (A) (A) (A) (A) (A) (A) (A)
                 (A) (A) (A) (A) (A) (A) (A) (A) (A) (A) (A) (A)
                 (A) (A) (A) (A) (A) (A) (A) (A) (A) (A) (A) (A)
                 (A) (A) (A) (A) (A) (A) (A) (A) (A) (A) (A) (A)
                 (A) (A) (A) (A) (A) (A) (A) (A) (A) (A) (A) (A)
                 (A) (A) (A) (A) (A) (A) (A) (A) (A) (A) (A) (A)
                 (A) (A) (A) (A) (A) (A) (A) (A) (A) (A) (A) (A)
                 (A) (A) (A) (A) (A) (A) (A) (A) (A) (A) (A) (A)
                 (A) (A) (A) (A) (A) (A) (A) (A) (A) (A) (A) (A)
                 (A) (A) (A) (A) (A) (A) (A) (A) (A) (A) (A) (A)
                 (A) (A) (A) (A) (A) (A) (A) (A) (A) (A) (A) (A)
                 (A) (A) (A)
 The electronic state is 1-A.
 Alpha  occ. eigenvalues -- -145.38600 -19.16694 -19.14518 -19.13312 -19.12687
 Alpha  occ. eigenvalues --  -19.12684 -19.11833 -19.11130 -19.11044 -19.10145
 Alpha  occ. eigenvalues --  -19.09690 -19.09448 -19.08757 -19.08097 -19.07329
 Alpha  occ. eigenvalues --  -19.07126 -19.06705 -19.06026 -19.05518 -19.05463
 Alpha  occ. eigenvalues --  -19.05074 -19.04889 -19.04479 -19.04231 -15.44382
 Alpha  occ. eigenvalues --  -14.58775 -14.40341 -14.38066 -14.37462 -14.35602
 Alpha  occ. eigenvalues --  -14.35273 -14.33675 -14.33619 -14.33520 -14.33363
 Alpha  occ. eigenvalues --  -14.33314 -14.32817 -14.32649 -14.30898 -14.30100
 Alpha  occ. eigenvalues --  -12.58002 -12.57972 -12.57914 -10.35002 -10.32323
 Alpha  occ. eigenvalues --  -10.31038 -10.30483 -10.30229 -10.28994 -10.28521
 Alpha  occ. eigenvalues --  -10.28051 -10.27660 -10.27355 -10.27088 -10.26453
 Alpha  occ. eigenvalues --  -10.26124 -10.25912 -10.25656 -10.25651 -10.25553
 Alpha  occ. eigenvalues --  -10.25279 -10.25125 -10.24840 -10.24777 -10.24587
 Alpha  occ. eigenvalues --  -10.24390 -10.24132 -10.24063 -10.23737 -10.23386
 Alpha  occ. eigenvalues --  -10.22904 -10.22756 -10.22298 -10.22074 -10.21765
 Alpha  occ. eigenvalues --  -10.21084 -10.20731 -10.20704 -10.20439 -10.20223
 Alpha  occ. eigenvalues --  -10.20044 -10.19794 -10.19761 -10.19653 -10.19492
 Alpha  occ. eigenvalues --  -10.19391 -10.19293 -10.19282 -10.19131 -10.19025
 Alpha  occ. eigenvalues --  -10.18572 -10.18442 -10.18199 -10.17982 -10.17834
 Alpha  occ. eigenvalues --  -10.16692 -10.15770  -1.81181  -1.14081  -1.08908
 Alpha  occ. eigenvalues --   -1.08580  -1.08506  -1.07876  -1.06326  -1.05909
 Alpha  occ. eigenvalues --   -1.05678  -1.05188  -1.03603  -1.02644  -1.02541
 Alpha  occ. eigenvalues --   -1.02022  -1.01602  -1.01581  -1.00775  -1.00199
 Alpha  occ. eigenvalues --   -0.99978  -0.99928  -0.99080  -0.98893  -0.98779
 Alpha  occ. eigenvalues --   -0.98532  -0.97544  -0.97278  -0.95467  -0.95381
 Alpha  occ. eigenvalues --   -0.94790  -0.92352  -0.92293  -0.91293  -0.90707
 Alpha  occ. eigenvalues --   -0.90385  -0.90370  -0.89924  -0.89643  -0.89004
 Alpha  occ. eigenvalues --   -0.88667  -0.88474  -0.88385  -0.87959  -0.86657
 Alpha  occ. eigenvalues --   -0.85251  -0.82861  -0.82099  -0.81371  -0.80492
 Alpha  occ. eigenvalues --   -0.79263  -0.78628  -0.77667  -0.77381  -0.76303
 Alpha  occ. eigenvalues --   -0.76015  -0.75381  -0.74999  -0.74738  -0.74029
 Alpha  occ. eigenvalues --   -0.73931  -0.73239  -0.72609  -0.71561  -0.70872
 Alpha  occ. eigenvalues --   -0.70239  -0.69829  -0.69492  -0.68842  -0.68614
 Alpha  occ. eigenvalues --   -0.67391  -0.66551  -0.65993  -0.65152  -0.64903
 Alpha  occ. eigenvalues --   -0.64278  -0.63685  -0.63163  -0.62626  -0.62555
 Alpha  occ. eigenvalues --   -0.62235  -0.62118  -0.61847  -0.61330  -0.60296
 Alpha  occ. eigenvalues --   -0.59468  -0.59277  -0.59127  -0.58277  -0.57814
 Alpha  occ. eigenvalues --   -0.57594  -0.57232  -0.56879  -0.56738  -0.56238
 Alpha  occ. eigenvalues --   -0.56051  -0.55666  -0.55514  -0.55436  -0.55214
 Alpha  occ. eigenvalues --   -0.55022  -0.54646  -0.54314  -0.54223  -0.53715
 Alpha  occ. eigenvalues --   -0.53206  -0.53063  -0.52985  -0.52282  -0.51843
 Alpha  occ. eigenvalues --   -0.51210  -0.51121  -0.51001  -0.50820  -0.50041
 Alpha  occ. eigenvalues --   -0.49837  -0.49680  -0.49618  -0.49413  -0.49324
 Alpha  occ. eigenvalues --   -0.48952  -0.48730  -0.48520  -0.48467  -0.48228
 Alpha  occ. eigenvalues --   -0.47989  -0.47932  -0.47714  -0.47312  -0.47215
 Alpha  occ. eigenvalues --   -0.47135  -0.46652  -0.46549  -0.46298  -0.46157
 Alpha  occ. eigenvalues --   -0.45932  -0.45527  -0.45418  -0.45176  -0.44986
 Alpha  occ. eigenvalues --   -0.44922  -0.44770  -0.44694  -0.44271  -0.44019
 Alpha  occ. eigenvalues --   -0.43946  -0.43868  -0.43641  -0.43545  -0.43508
 Alpha  occ. eigenvalues --   -0.43415  -0.43267  -0.43177  -0.43128  -0.42928
 Alpha  occ. eigenvalues --   -0.42671  -0.42582  -0.42357  -0.42328  -0.42150
 Alpha  occ. eigenvalues --   -0.42068  -0.41864  -0.41686  -0.41588  -0.41476
 Alpha  occ. eigenvalues --   -0.41291  -0.41071  -0.41030  -0.40793  -0.40596
 Alpha  occ. eigenvalues --   -0.40556  -0.40218  -0.40142  -0.40107  -0.39937
 Alpha  occ. eigenvalues --   -0.39913  -0.39670  -0.39598  -0.39464  -0.39178
 Alpha  occ. eigenvalues --   -0.39153  -0.39048  -0.38884  -0.38683  -0.38486
 Alpha  occ. eigenvalues --   -0.38385  -0.38319  -0.38199  -0.38126  -0.37815
 Alpha  occ. eigenvalues --   -0.37608  -0.37595  -0.37247  -0.37070  -0.36812
 Alpha  occ. eigenvalues --   -0.36680  -0.36565  -0.36489  -0.36441  -0.36319
 Alpha  occ. eigenvalues --   -0.35964  -0.35826  -0.35657  -0.35345  -0.35254
 Alpha  occ. eigenvalues --   -0.34962  -0.34732  -0.34670  -0.34477  -0.34266
 Alpha  occ. eigenvalues --   -0.34158  -0.34018  -0.33619  -0.33432  -0.33376
 Alpha  occ. eigenvalues --   -0.33352  -0.33077  -0.32881  -0.32811  -0.32628
 Alpha  occ. eigenvalues --   -0.32195  -0.31919  -0.31831  -0.31055  -0.30635
 Alpha  occ. eigenvalues --   -0.29959  -0.29692  -0.29322  -0.29090  -0.28624
 Alpha  occ. eigenvalues --   -0.28368  -0.27487  -0.27301  -0.27126  -0.26992
 Alpha  occ. eigenvalues --   -0.26569  -0.26251  -0.26183  -0.25811  -0.25773
 Alpha  occ. eigenvalues --   -0.25399  -0.25258  -0.25190  -0.24251  -0.24088
 Alpha  occ. eigenvalues --   -0.24062  -0.23858  -0.23827  -0.23712  -0.23514
 Alpha  occ. eigenvalues --   -0.23362  -0.22824  -0.22633  -0.22596  -0.22444
 Alpha  occ. eigenvalues --   -0.22415  -0.21924  -0.21247  -0.21112  -0.20717
 Alpha  occ. eigenvalues --   -0.20235  -0.19991  -0.19730
 Alpha virt. eigenvalues --   -0.10760  -0.05086  -0.04386  -0.03231  -0.02111
 Alpha virt. eigenvalues --   -0.01665  -0.01204  -0.00854  -0.00528  -0.00002
 Alpha virt. eigenvalues --    0.00384   0.00589   0.00796   0.01037   0.01596
 Alpha virt. eigenvalues --    0.01788   0.02173   0.02934   0.03107   0.03233
 Alpha virt. eigenvalues --    0.03718   0.04029   0.04162   0.04286   0.04795
 Alpha virt. eigenvalues --    0.04868   0.05090   0.05211   0.05608   0.05695
 Alpha virt. eigenvalues --    0.05791   0.06023   0.06271   0.06472   0.06593
 Alpha virt. eigenvalues --    0.06937   0.07090   0.07236   0.07444   0.07549
 Alpha virt. eigenvalues --    0.07641   0.07795   0.07918   0.08383   0.08505
 Alpha virt. eigenvalues --    0.08838   0.09047   0.09576   0.09653   0.09877
 Alpha virt. eigenvalues --    0.10090   0.10155   0.10362   0.10492   0.10675
 Alpha virt. eigenvalues --    0.10867   0.11029   0.11208   0.11370   0.11473
 Alpha virt. eigenvalues --    0.11656   0.11958   0.12137   0.12277   0.12397
 Alpha virt. eigenvalues --    0.12529   0.12554   0.12811   0.12885   0.13079
 Alpha virt. eigenvalues --    0.13305   0.13420   0.13563   0.13893   0.14053
 Alpha virt. eigenvalues --    0.14176   0.14207   0.14269   0.14534   0.14738
 Alpha virt. eigenvalues --    0.14841   0.14943   0.15039   0.15338   0.15448
 Alpha virt. eigenvalues --    0.15698   0.15783   0.15909   0.16053   0.16215
 Alpha virt. eigenvalues --    0.16282   0.16549   0.16738   0.16930   0.17001
 Alpha virt. eigenvalues --    0.17248   0.17460   0.17566   0.17873   0.17932
 Alpha virt. eigenvalues --    0.18019   0.18352   0.18570   0.18731   0.19063
 Alpha virt. eigenvalues --    0.19106   0.19320   0.19721   0.19900   0.20256
 Alpha virt. eigenvalues --    0.20344   0.20513   0.20820   0.20872   0.21346
 Alpha virt. eigenvalues --    0.21523   0.21754   0.21929   0.22138   0.22238
 Alpha virt. eigenvalues --    0.22567   0.22749   0.22980   0.23163   0.23280
 Alpha virt. eigenvalues --    0.23491   0.23555   0.23753   0.24128   0.24313
 Alpha virt. eigenvalues --    0.24384   0.24748   0.25036   0.25155   0.25363
 Alpha virt. eigenvalues --    0.25512   0.25838   0.25867   0.26045   0.26421
 Alpha virt. eigenvalues --    0.26535   0.26708   0.26815   0.27068   0.27350
 Alpha virt. eigenvalues --    0.27612   0.28094   0.28130   0.28230   0.28776
 Alpha virt. eigenvalues --    0.28948   0.29111   0.29346   0.29584   0.29741
 Alpha virt. eigenvalues --    0.29840   0.29949   0.30188   0.30480   0.30678
 Alpha virt. eigenvalues --    0.30872   0.31009   0.31096   0.31482   0.32041
 Alpha virt. eigenvalues --    0.32178   0.32507   0.32792   0.32914   0.33092
 Alpha virt. eigenvalues --    0.33096   0.33609   0.33794   0.34087   0.34410
 Alpha virt. eigenvalues --    0.34778   0.35100   0.35382   0.36104   0.36176
 Alpha virt. eigenvalues --    0.36662   0.37060   0.37339   0.37678   0.38015
 Alpha virt. eigenvalues --    0.38113   0.38295   0.38877   0.38982   0.39097
 Alpha virt. eigenvalues --    0.39269   0.39721   0.39851   0.39995   0.40178
 Alpha virt. eigenvalues --    0.40732   0.40929   0.41057   0.41265   0.41805
 Alpha virt. eigenvalues --    0.42211   0.42277   0.42425   0.42451   0.42817
 Alpha virt. eigenvalues --    0.43023   0.43440   0.43699   0.43774   0.43958
 Alpha virt. eigenvalues --    0.44100   0.44182   0.44372   0.44427   0.44675
 Alpha virt. eigenvalues --    0.45112   0.45175   0.45376   0.45557   0.45840
 Alpha virt. eigenvalues --    0.46251   0.46387   0.46499   0.46658   0.46766
 Alpha virt. eigenvalues --    0.46791   0.46992   0.47243   0.47355   0.47556
 Alpha virt. eigenvalues --    0.47747   0.47896   0.48189   0.48396   0.48599
 Alpha virt. eigenvalues --    0.48751   0.48917   0.49022   0.49296   0.49379
 Alpha virt. eigenvalues --    0.49600   0.49811   0.50133   0.50347   0.50549
 Alpha virt. eigenvalues --    0.50773   0.50923   0.51055   0.51318   0.51421
 Alpha virt. eigenvalues --    0.51649   0.51931   0.52100   0.52381   0.52478
 Alpha virt. eigenvalues --    0.52691   0.53065   0.53221   0.53460   0.53746
 Alpha virt. eigenvalues --    0.53930   0.54012   0.54263   0.54352   0.54741
 Alpha virt. eigenvalues --    0.54830   0.54890   0.55166   0.55348   0.55472
 Alpha virt. eigenvalues --    0.55698   0.55828   0.56129   0.56284   0.56424
 Alpha virt. eigenvalues --    0.56604   0.56752   0.57083   0.57107   0.57388
 Alpha virt. eigenvalues --    0.57473   0.57695   0.57929   0.58075   0.58190
 Alpha virt. eigenvalues --    0.58303   0.58558   0.58732   0.58904   0.59027
 Alpha virt. eigenvalues --    0.59288   0.59368   0.59593   0.59649   0.59983
 Alpha virt. eigenvalues --    0.60026   0.60264   0.60328   0.60424   0.60656
 Alpha virt. eigenvalues --    0.60735   0.60853   0.61129   0.61275   0.61439
 Alpha virt. eigenvalues --    0.61538   0.61749   0.61860   0.61981   0.62094
 Alpha virt. eigenvalues --    0.62136   0.62305   0.62483   0.62728   0.62873
 Alpha virt. eigenvalues --    0.62963   0.63013   0.63134   0.63195   0.63425
 Alpha virt. eigenvalues --    0.63545   0.63582   0.63670   0.63724   0.63863
 Alpha virt. eigenvalues --    0.63977   0.64096   0.64244   0.64485   0.64550
 Alpha virt. eigenvalues --    0.64560   0.64798   0.64833   0.64926   0.65061
 Alpha virt. eigenvalues --    0.65210   0.65369   0.65501   0.65531   0.65610
 Alpha virt. eigenvalues --    0.65755   0.65895   0.65916   0.66018   0.66155
 Alpha virt. eigenvalues --    0.66237   0.66320   0.66430   0.66525   0.66652
 Alpha virt. eigenvalues --    0.66748   0.66862   0.66912   0.66990   0.67097
 Alpha virt. eigenvalues --    0.67195   0.67309   0.67378   0.67486   0.67647
 Alpha virt. eigenvalues --    0.67753   0.67846   0.68006   0.68100   0.68136
 Alpha virt. eigenvalues --    0.68221   0.68419   0.68475   0.68734   0.68850
 Alpha virt. eigenvalues --    0.68891   0.68974   0.69285   0.69368   0.69418
 Alpha virt. eigenvalues --    0.69564   0.69604   0.69743   0.69787   0.69914
 Alpha virt. eigenvalues --    0.70056   0.70251   0.70485   0.70569   0.70717
 Alpha virt. eigenvalues --    0.70968   0.71055   0.71131   0.71296   0.71421
 Alpha virt. eigenvalues --    0.71485   0.71622   0.71907   0.72056   0.72159
 Alpha virt. eigenvalues --    0.72356   0.72669   0.72682   0.72905   0.72935
 Alpha virt. eigenvalues --    0.73189   0.73294   0.73591   0.73807   0.74068
 Alpha virt. eigenvalues --    0.74254   0.74353   0.74517   0.74903   0.75071
 Alpha virt. eigenvalues --    0.75154   0.75191   0.75422   0.75863   0.75998
 Alpha virt. eigenvalues --    0.76240   0.76669   0.76778   0.76974   0.77397
 Alpha virt. eigenvalues --    0.77503   0.77735   0.78091   0.78428   0.78789
 Alpha virt. eigenvalues --    0.78967   0.79160   0.79423   0.79725   0.79927
 Alpha virt. eigenvalues --    0.79967   0.80391   0.80707   0.80822   0.81139
 Alpha virt. eigenvalues --    0.81307   0.81467   0.81806   0.82157   0.82282
 Alpha virt. eigenvalues --    0.82651   0.82766   0.83174   0.83452   0.83630
 Alpha virt. eigenvalues --    0.84003   0.84427   0.84561   0.85118   0.85372
 Alpha virt. eigenvalues --    0.85611   0.85975   0.86027   0.86382   0.86627
 Alpha virt. eigenvalues --    0.86738   0.86930   0.87418   0.87630   0.87943
 Alpha virt. eigenvalues --    0.88092   0.88333   0.88479   0.88972   0.89109
 Alpha virt. eigenvalues --    0.89559   0.89764   0.90125   0.90822   0.91156
 Alpha virt. eigenvalues --    0.91286   0.91782   0.92083   0.92297   0.92417
 Alpha virt. eigenvalues --    0.92790   0.92905   0.93170   0.93938   0.94006
 Alpha virt. eigenvalues --    0.94145   0.94485   0.94796   0.95054   0.95227
 Alpha virt. eigenvalues --    0.95579   0.95805   0.96160   0.96647   0.96711
 Alpha virt. eigenvalues --    0.97143   0.97324   0.97603   0.98011   0.98257
 Alpha virt. eigenvalues --    0.98724   0.98785   0.99401   0.99860   1.00026
 Alpha virt. eigenvalues --    1.00201   1.00317   1.00651   1.00814   1.00970
 Alpha virt. eigenvalues --    1.01115   1.01179   1.01811   1.01943   1.02513
 Alpha virt. eigenvalues --    1.02759   1.02973   1.03286   1.03807   1.03948
 Alpha virt. eigenvalues --    1.04108   1.04546   1.04860   1.05474   1.05537
 Alpha virt. eigenvalues --    1.06004   1.06216   1.06571   1.06753   1.06856
 Alpha virt. eigenvalues --    1.07289   1.07351   1.07829   1.08186   1.08537
 Alpha virt. eigenvalues --    1.08788   1.08952   1.09349   1.09835   1.09937
 Alpha virt. eigenvalues --    1.10260   1.10571   1.10817   1.11084   1.11189
 Alpha virt. eigenvalues --    1.11623   1.11997   1.12234   1.12322   1.12405
 Alpha virt. eigenvalues --    1.12596   1.13166   1.13441   1.13623   1.13744
 Alpha virt. eigenvalues --    1.13910   1.14083   1.14461   1.14529   1.14730
 Alpha virt. eigenvalues --    1.15069   1.15446   1.15725   1.16006   1.16263
 Alpha virt. eigenvalues --    1.16436   1.16763   1.17186   1.17602   1.17779
 Alpha virt. eigenvalues --    1.17926   1.18157   1.18329   1.18792   1.19090
 Alpha virt. eigenvalues --    1.19320   1.19701   1.20072   1.20130   1.20355
 Alpha virt. eigenvalues --    1.20759   1.21053   1.21165   1.21364   1.21524
 Alpha virt. eigenvalues --    1.21752   1.22315   1.22843   1.23020   1.23308
 Alpha virt. eigenvalues --    1.23577   1.24144   1.24382   1.24578   1.24958
 Alpha virt. eigenvalues --    1.25092   1.25256   1.25458   1.25510   1.25650
 Alpha virt. eigenvalues --    1.25975   1.26431   1.26974   1.27321   1.27361
 Alpha virt. eigenvalues --    1.27735   1.27868   1.28114   1.28483   1.28670
 Alpha virt. eigenvalues --    1.28970   1.29148   1.29414   1.29591   1.29616
 Alpha virt. eigenvalues --    1.29968   1.30374   1.30482   1.30785   1.30985
 Alpha virt. eigenvalues --    1.31286   1.31486   1.31654   1.32013   1.32419
 Alpha virt. eigenvalues --    1.32741   1.32881   1.33470   1.33684   1.34012
 Alpha virt. eigenvalues --    1.34145   1.34520   1.34767   1.35154   1.35276
 Alpha virt. eigenvalues --    1.35549   1.35676   1.36199   1.36443   1.36800
 Alpha virt. eigenvalues --    1.36999   1.37162   1.37486   1.37606   1.37921
 Alpha virt. eigenvalues --    1.38086   1.38110   1.38564   1.38612   1.38795
 Alpha virt. eigenvalues --    1.38858   1.39162   1.39355   1.39661   1.39989
 Alpha virt. eigenvalues --    1.40378   1.40965   1.41217   1.41684   1.42136
 Alpha virt. eigenvalues --    1.42521   1.42742   1.43098   1.43243   1.43493
 Alpha virt. eigenvalues --    1.43865   1.43900   1.44292   1.44559   1.44699
 Alpha virt. eigenvalues --    1.44915   1.45268   1.45754   1.46082   1.46279
 Alpha virt. eigenvalues --    1.46924   1.47204   1.47438   1.47590   1.48074
 Alpha virt. eigenvalues --    1.48629   1.48673   1.49139   1.49364   1.49639
 Alpha virt. eigenvalues --    1.50053   1.50437   1.50757   1.50989   1.51176
 Alpha virt. eigenvalues --    1.51490   1.51889   1.52082   1.52400   1.52465
 Alpha virt. eigenvalues --    1.52667   1.52824   1.53147   1.53403   1.53458
 Alpha virt. eigenvalues --    1.53847   1.54243   1.54311   1.54540   1.54922
 Alpha virt. eigenvalues --    1.55688   1.56146   1.56743   1.57381   1.57392
 Alpha virt. eigenvalues --    1.57856   1.58022   1.58125   1.58928   1.59309
 Alpha virt. eigenvalues --    1.59465   1.59811   1.60135   1.60420   1.60621
 Alpha virt. eigenvalues --    1.60920   1.61206   1.61585   1.61732   1.62134
 Alpha virt. eigenvalues --    1.62352   1.62729   1.63157   1.63315   1.63522
 Alpha virt. eigenvalues --    1.64147   1.64378   1.64518   1.64662   1.64817
 Alpha virt. eigenvalues --    1.65123   1.65250   1.65527   1.65950   1.66357
 Alpha virt. eigenvalues --    1.66787   1.67004   1.67307   1.67526   1.67774
 Alpha virt. eigenvalues --    1.68147   1.68324   1.68893   1.69064   1.69507
 Alpha virt. eigenvalues --    1.69879   1.70207   1.70430   1.70685   1.71197
 Alpha virt. eigenvalues --    1.71476   1.71599   1.71750   1.71971   1.72093
 Alpha virt. eigenvalues --    1.72235   1.72320   1.72397   1.72507   1.72819
 Alpha virt. eigenvalues --    1.72968   1.73319   1.73367   1.73382   1.73806
 Alpha virt. eigenvalues --    1.73876   1.74008   1.74053   1.74321   1.74428
 Alpha virt. eigenvalues --    1.74630   1.74920   1.75081   1.75228   1.75358
 Alpha virt. eigenvalues --    1.75708   1.75816   1.75983   1.76329   1.76411
 Alpha virt. eigenvalues --    1.76451   1.76816   1.76984   1.77070   1.77272
 Alpha virt. eigenvalues --    1.77336   1.77504   1.77640   1.77764   1.77932
 Alpha virt. eigenvalues --    1.78137   1.78268   1.78338   1.78765   1.78881
 Alpha virt. eigenvalues --    1.78977   1.79187   1.79302   1.79393   1.79635
 Alpha virt. eigenvalues --    1.79769   1.79863   1.80126   1.80364   1.80761
 Alpha virt. eigenvalues --    1.80805   1.80994   1.81334   1.81512   1.81814
 Alpha virt. eigenvalues --    1.81965   1.82133   1.82402   1.82594   1.82686
 Alpha virt. eigenvalues --    1.82808   1.83017   1.83139   1.83470   1.83491
 Alpha virt. eigenvalues --    1.83804   1.84121   1.84407   1.84620   1.84892
 Alpha virt. eigenvalues --    1.85028   1.85252   1.85454   1.85624   1.85763
 Alpha virt. eigenvalues --    1.86163   1.86318   1.86596   1.86656   1.86749
 Alpha virt. eigenvalues --    1.86950   1.87052   1.87182   1.87634   1.87973
 Alpha virt. eigenvalues --    1.88040   1.88193   1.88424   1.88524   1.88658
 Alpha virt. eigenvalues --    1.88823   1.88879   1.89059   1.89117   1.89464
 Alpha virt. eigenvalues --    1.89719   1.89940   1.90193   1.90276   1.90310
 Alpha virt. eigenvalues --    1.90574   1.90771   1.90899   1.91140   1.91328
 Alpha virt. eigenvalues --    1.91547   1.91959   1.92094   1.92166   1.92465
 Alpha virt. eigenvalues --    1.92515   1.92700   1.92929   1.93157   1.93463
 Alpha virt. eigenvalues --    1.93612   1.93895   1.94108   1.94263   1.94572
 Alpha virt. eigenvalues --    1.94632   1.94743   1.94898   1.94992   1.95490
 Alpha virt. eigenvalues --    1.95521   1.95841   1.95885   1.96061   1.96272
 Alpha virt. eigenvalues --    1.96417   1.96756   1.96937   1.97337   1.97482
 Alpha virt. eigenvalues --    1.97794   1.97872   1.98042   1.98272   1.98654
 Alpha virt. eigenvalues --    1.98736   1.99006   1.99173   1.99374   2.00167
 Alpha virt. eigenvalues --    2.00359   2.00394   2.00660   2.00864   2.00971
 Alpha virt. eigenvalues --    2.01129   2.01468   2.01685   2.01949   2.02335
 Alpha virt. eigenvalues --    2.02768   2.03226   2.03279   2.03540   2.03842
 Alpha virt. eigenvalues --    2.04397   2.04463   2.04795   2.04907   2.05186
 Alpha virt. eigenvalues --    2.05323   2.05757   2.06350   2.06448   2.06534
 Alpha virt. eigenvalues --    2.06761   2.07096   2.07321   2.07471   2.08061
 Alpha virt. eigenvalues --    2.08489   2.08784   2.09079   2.09316   2.09544
 Alpha virt. eigenvalues --    2.09831   2.09926   2.10088   2.10411   2.10822
 Alpha virt. eigenvalues --    2.11492   2.11589   2.11831   2.12054   2.12266
 Alpha virt. eigenvalues --    2.12768   2.12999   2.13339   2.13464   2.13795
 Alpha virt. eigenvalues --    2.13967   2.14099   2.14440   2.14572   2.15085
 Alpha virt. eigenvalues --    2.15564   2.15588   2.15763   2.15962   2.16303
 Alpha virt. eigenvalues --    2.16511   2.17045   2.17320   2.17649   2.17862
 Alpha virt. eigenvalues --    2.18142   2.18260   2.18902   2.19191   2.19446
 Alpha virt. eigenvalues --    2.19604   2.20074   2.20111   2.20535   2.20658
 Alpha virt. eigenvalues --    2.20941   2.21103   2.21607   2.21741   2.21775
 Alpha virt. eigenvalues --    2.22368   2.22639   2.22951   2.22983   2.23275
 Alpha virt. eigenvalues --    2.23607   2.23820   2.23984   2.24257   2.24777
 Alpha virt. eigenvalues --    2.25236   2.25841   2.26019   2.26382   2.27139
 Alpha virt. eigenvalues --    2.27241   2.27522   2.27766   2.27962   2.28342
 Alpha virt. eigenvalues --    2.28573   2.28845   2.29206   2.29444   2.30236
 Alpha virt. eigenvalues --    2.30292   2.30583   2.31018   2.31393   2.31776
 Alpha virt. eigenvalues --    2.31986   2.32464   2.32714   2.32959   2.33263
 Alpha virt. eigenvalues --    2.33748   2.33885   2.34645   2.35363   2.35381
 Alpha virt. eigenvalues --    2.35653   2.35947   2.36095   2.36737   2.36769
 Alpha virt. eigenvalues --    2.36868   2.37418   2.37820   2.38212   2.38822
 Alpha virt. eigenvalues --    2.38948   2.39138   2.39472   2.39974   2.40295
 Alpha virt. eigenvalues --    2.40354   2.40531   2.40946   2.41111   2.41389
 Alpha virt. eigenvalues --    2.41701   2.42001   2.42153   2.42214   2.42408
 Alpha virt. eigenvalues --    2.42456   2.43453   2.43627   2.44319   2.44514
 Alpha virt. eigenvalues --    2.44657   2.45029   2.45247   2.45618   2.45723
 Alpha virt. eigenvalues --    2.46384   2.46871   2.47159   2.47447   2.47805
 Alpha virt. eigenvalues --    2.48052   2.48133   2.48341   2.48881   2.49284
 Alpha virt. eigenvalues --    2.49463   2.50081   2.50308   2.50560   2.51272
 Alpha virt. eigenvalues --    2.51641   2.51733   2.52261   2.52695   2.52989
 Alpha virt. eigenvalues --    2.53341   2.53455   2.53863   2.54317   2.54728
 Alpha virt. eigenvalues --    2.54878   2.55387   2.55759   2.56121   2.57103
 Alpha virt. eigenvalues --    2.57258   2.57481   2.57838   2.58308   2.58385
 Alpha virt. eigenvalues --    2.58732   2.58810   2.58988   2.59663   2.59844
 Alpha virt. eigenvalues --    2.60297   2.60410   2.60636   2.60997   2.61349
 Alpha virt. eigenvalues --    2.61835   2.62032   2.62068   2.62193   2.62793
 Alpha virt. eigenvalues --    2.62914   2.63126   2.63403   2.63487   2.63561
 Alpha virt. eigenvalues --    2.64075   2.64369   2.64569   2.65006   2.65250
 Alpha virt. eigenvalues --    2.65459   2.66062   2.66539   2.67121   2.67365
 Alpha virt. eigenvalues --    2.67840   2.67870   2.68511   2.68564   2.68850
 Alpha virt. eigenvalues --    2.69028   2.69268   2.69349   2.69892   2.70144
 Alpha virt. eigenvalues --    2.70724   2.71233   2.71316   2.71413   2.71601
 Alpha virt. eigenvalues --    2.71686   2.72145   2.72243   2.72334   2.72577
 Alpha virt. eigenvalues --    2.73111   2.73587   2.73703   2.73836   2.74194
 Alpha virt. eigenvalues --    2.74310   2.74436   2.74582   2.74920   2.75164
 Alpha virt. eigenvalues --    2.75500   2.75576   2.76611   2.76666   2.77054
 Alpha virt. eigenvalues --    2.77197   2.77585   2.77623   2.77833   2.78021
 Alpha virt. eigenvalues --    2.78338   2.78478   2.79079   2.79168   2.79836
 Alpha virt. eigenvalues --    2.80043   2.80718   2.80971   2.81268   2.81418
 Alpha virt. eigenvalues --    2.81842   2.82209   2.82242   2.82875   2.82933
 Alpha virt. eigenvalues --    2.83157   2.83236   2.83589   2.83938   2.84191
 Alpha virt. eigenvalues --    2.84714   2.84767   2.84911   2.85060   2.85305
 Alpha virt. eigenvalues --    2.85704   2.86224   2.86653   2.87018   2.87355
 Alpha virt. eigenvalues --    2.87590   2.87886   2.88429   2.89075   2.89190
 Alpha virt. eigenvalues --    2.89252   2.89717   2.90034   2.90269   2.90546
 Alpha virt. eigenvalues --    2.90930   2.91454   2.91800   2.91853   2.91996
 Alpha virt. eigenvalues --    2.92080   2.92178   2.92528   2.92757   2.93315
 Alpha virt. eigenvalues --    2.93916   2.94042   2.94210   2.94736   2.94938
 Alpha virt. eigenvalues --    2.95057   2.95278   2.95712   2.95889   2.96173
 Alpha virt. eigenvalues --    2.96274   2.96868   2.97588   2.97689   2.98025
 Alpha virt. eigenvalues --    2.98150   2.98372   2.99297   2.99485   2.99912
 Alpha virt. eigenvalues --    2.99962   3.00438   3.00820   3.01024   3.01192
 Alpha virt. eigenvalues --    3.01696   3.01894   3.02516   3.02620   3.02745
 Alpha virt. eigenvalues --    3.03539   3.03576   3.03891   3.04055   3.04553
 Alpha virt. eigenvalues --    3.05281   3.05348   3.05635   3.06161   3.06289
 Alpha virt. eigenvalues --    3.06699   3.06766   3.07418   3.08310   3.08785
 Alpha virt. eigenvalues --    3.09317   3.09635   3.09958   3.10453   3.10577
 Alpha virt. eigenvalues --    3.10694   3.11420   3.13025   3.13722   3.13908
 Alpha virt. eigenvalues --    3.14290   3.14882   3.15428   3.16038   3.16314
 Alpha virt. eigenvalues --    3.16816   3.16969   3.17173   3.17312   3.17492
 Alpha virt. eigenvalues --    3.18091   3.18177   3.18281   3.19024   3.19141
 Alpha virt. eigenvalues --    3.19341   3.19579   3.19689   3.19874   3.20245
 Alpha virt. eigenvalues --    3.20294   3.20827   3.21128   3.21273   3.21471
 Alpha virt. eigenvalues --    3.22551   3.22834   3.23508   3.23766   3.24233
 Alpha virt. eigenvalues --    3.24781   3.25381   3.27198   3.27415   3.27915
 Alpha virt. eigenvalues --    3.28512   3.28958   3.29369   3.30331   3.30574
 Alpha virt. eigenvalues --    3.30814   3.30854   3.33146   3.33271   3.34475
 Alpha virt. eigenvalues --    3.35091   3.35507   3.36730   3.36835   3.37668
 Alpha virt. eigenvalues --    3.39924   3.41193   3.47115   3.48488   3.50665
 Alpha virt. eigenvalues --    3.50907   3.53401   3.54031   3.56092   3.56812
 Alpha virt. eigenvalues --    3.58828   3.59006   3.59502   3.59720   3.60029
 Alpha virt. eigenvalues --    3.60728   3.61837   3.62172   3.62814   3.63756
 Alpha virt. eigenvalues --    3.64806   3.65588   3.66507   3.67076   3.67539
 Alpha virt. eigenvalues --    3.67896   3.68250   3.68479   3.69087   3.69190
 Alpha virt. eigenvalues --    3.69996   3.70093   3.70696   3.71301   3.71823
 Alpha virt. eigenvalues --    3.71928   3.72462   3.72864   3.73053   3.75778
 Alpha virt. eigenvalues --    3.76003   3.80908   3.86800   3.95338
          Condensed to atoms (all electrons):
 Mulliken charges:
               1
     1  C    0.046482
     2  C    0.030150
     3  O   -0.276255
     4  H    0.035221
     5  H    0.046956
     6  H    0.011534
     7  N   -0.100896
     8  C    0.102565
     9  C    0.064713
    10  O   -0.296078
    11  C    0.037049
    12  C    0.135683
    13  O   -0.448845
    14  O   -0.382208
    15  H    0.109178
    16  H    0.004876
    17  H    0.017377
    18  H    0.003106
    19  N   -0.133670
    20  C    0.151370
    21  C    0.052020
    22  O   -0.304412
    23  C   -0.025718
    24  C    0.022742
    25  C   -0.017035
    26  C    0.011084
    27  N    0.080659
    28  H    0.138697
    29  H    0.021929
    30  H   -0.013366
    31  H    0.065563
    32  H    0.017948
    33  H    0.023154
    34  H    0.037692
    35  H    0.025596
    36  H    0.079342
    37  H    0.077166
    38  H    0.210830
    39  H    0.192725
    40  H    0.186212
    41  N   -0.148018
    42  C    0.139533
    43  C    0.029523
    44  O   -0.292986
    45  C    0.089151
    46  C    0.129423
    47  O   -0.456663
    48  O   -0.406402
    49  H    0.155832
    50  H    0.024815
    51  H    0.000711
    52  H    0.028805
    53  N   -0.131494
    54  C    0.237902
    55  C    0.011734
    56  O   -0.295383
    57  H    0.122819
    58  H    0.032172
    59  H    0.034354
    60  N   -0.151982
    61  C    0.128190
    62  C    0.047759
    63  O   -0.284777
    64  C    0.128266
    65  C    0.031367
    66  N   -0.032084
    67  O   -0.368785
    68  H    0.143425
    69  H    0.033633
    70  H    0.043857
    71  H   -0.006727
    72  H    0.127027
    73  H    0.143067
    74  N   -0.170809
    75  C    0.238687
    76  C    0.023504
    77  O   -0.301019
    78  H    0.139844
    79  H    0.024253
    80  H    0.024137
    81  N   -0.135002
    82  C    0.102689
    83  C    0.089705
    84  O   -0.347145
    85  C    0.170057
    86  C    0.000702
    87  C    0.016754
    88  C   -0.044244
    89  C    0.001012
    90  C   -0.056667
    91  C    0.096855
    92  O   -0.181096
    93  H    0.147514
    94  H    0.002413
    95  H    0.016321
    96  H    0.000821
    97  H    0.005051
    98  H   -0.023837
    99  H   -0.012753
   100  H   -0.041821
   101  H    0.169184
   102  N   -0.126629
   103  C    0.171578
   104  C    0.077850
   105  O   -0.291379
   106  C   -0.132369
   107  C    0.001593
   108  C    0.079768
   109  C    0.025676
   110  H    0.127111
   111  H    0.012959
   112  H   -0.019450
   113  H    0.003500
   114  H    0.019367
   115  H    0.003615
   116  H    0.018130
   117  H    0.011218
   118  H    0.005693
   119  H    0.004952
   120  H    0.019298
   121  N   -0.127140
   122  C    0.072339
   123  C    0.123621
   124  O   -0.284871
   125  C    0.260721
   126  O   -0.358465
   127  H    0.119111
   128  H    0.013203
   129  H    0.013494
   130  H   -0.050361
   131  H    0.169435
   132  N   -0.124799
   133  C    0.071571
   134  C    0.055242
   135  O   -0.251247
   136  C    0.037516
   137  H    0.131787
   138  H    0.028141
   139  H    0.031588
   140  H    0.026232
   141  H    0.022628
   142  N   -0.158670
   143  C    0.091315
   144  C    0.027278
   145  O   -0.296847
   146  C    0.043981
   147  H    0.128547
   148  H    0.036172
   149  H    0.016714
   150  H    0.007217
   151  H    0.029417
   152  N   -0.129075
   153  C    0.153046
   154  C    0.063229
   155  O   -0.264952
   156  C   -0.073263
   157  C    0.156097
   158  C    0.124589
   159  O   -0.414923
   160  O   -0.409101
   161  H    0.135935
   162  H   -0.019983
   163  H    0.062614
   164  H    0.013134
   165  H   -0.034810
   166  H   -0.028623
   167  N   -0.177405
   168  C    0.125311
   169  H    0.023901
   170  H    0.042363
   171  H    0.010690
   172  H    0.120849
   173  Ca   1.348420
   174  O   -0.357662
   175  H    0.152711
   176  H    0.175246
 Sum of Mulliken charges =  -0.00000
 Mulliken charges with hydrogens summed into heavy atoms:
               1
     1  C    0.140192
     2  C    0.030150
     3  O   -0.276255
     7  N    0.008282
     8  C    0.107441
     9  C    0.064713
    10  O   -0.296078
    11  C    0.057533
    12  C    0.135683
    13  O   -0.448845
    14  O   -0.382208
    19  N    0.005027
    20  C    0.173300
    21  C    0.052020
    22  O   -0.304412
    23  C    0.026479
    24  C    0.063844
    25  C    0.046253
    26  C    0.167592
    27  N    0.670425
    41  N    0.007815
    42  C    0.164349
    43  C    0.029523
    44  O   -0.292986
    45  C    0.118667
    46  C    0.129423
    47  O   -0.456663
    48  O   -0.406402
    53  N   -0.008675
    54  C    0.304428
    55  C    0.011734
    56  O   -0.295383
    60  N   -0.008557
    61  C    0.161823
    62  C    0.047759
    63  O   -0.284777
    64  C    0.165396
    65  C    0.031367
    66  N    0.238010
    67  O   -0.368785
    74  N   -0.030965
    75  C    0.287078
    76  C    0.023504
    77  O   -0.301019
    81  N    0.012512
    82  C    0.105102
    83  C    0.089705
    84  O   -0.347145
    85  C    0.187199
    86  C    0.000702
    87  C    0.021805
    88  C   -0.068081
    89  C   -0.011741
    90  C   -0.098488
    91  C    0.096855
    92  O   -0.011912
   102  N    0.000482
   103  C    0.184537
   104  C    0.077850
   105  O   -0.291379
   106  C   -0.151820
   107  C    0.024460
   108  C    0.112731
   109  C    0.055619
   121  N   -0.008028
   122  C    0.085542
   123  C    0.123621
   124  O   -0.284871
   125  C    0.223855
   126  O   -0.189030
   132  N    0.006989
   133  C    0.099712
   134  C    0.055242
   135  O   -0.251247
   136  C    0.117964
   142  N   -0.030123
   143  C    0.127487
   144  C    0.027278
   145  O   -0.296847
   146  C    0.097329
   152  N    0.006860
   153  C    0.133063
   154  C    0.063229
   155  O   -0.264952
   156  C    0.002485
   157  C    0.092664
   158  C    0.124589
   159  O   -0.414923
   160  O   -0.409101
   167  N   -0.056556
   168  C    0.202266
   173  Ca   1.348420
   174  O   -0.029705
 DipInt: DoE/N= T F RetVal/Mat= T F Init=T NMatP=  1 IDeriv=0 Min/MaxMlt=  0  4
 Entering OneElI...
 OneElI was handed  1333951383 working-precision words.
 Multipole integrals L=0 to 4 MinM= 0 MaxM= 0.
 Requested accuracy = 0.1000D-12
 ShPair: Thresh= 1.00D-13 NBox=     0 BxSize= 0.00D+00 RnKept= 2.55D+01
         NSMCal=               327645 NSMKep=              162209
 PrmmSu-InSpLW:  IPartL=    0 NPrtUS=    1 NPrtUL=    1 DoSpLW=F IThBeg=    0 IThEnd=    0 NThAct=    1.
 PrsmSu:  NPrtUS=   1 ThrOK=F IAlg=1 NPAlg=1 LenDen=           0 ISkipM=0 DoSpLW=F IThBeg=    0 IThEnd=    0.
 Prism:   IPart=     0 DynPar=F LinDyn=F Incr=         512.
 PRISM was handed  1323828749 working-precision words and162209 shell-pairs
 IPart=  0 NShTot=      162209 NBatch=         372 AvBLen=       436.0
 PrsmSu-ThDecC:  IPartSL=    0    0 NPrtUSL=    1    1 IThBeg=    0 IThEnd=    0 CPU=   -1 GPU=   -1 NThAct=    1.
 PrSmSu:  NxtVal=            513.
 Electronic moments (au):
       -716.00000000         11.26771298          1.31760176         -7.48454817
     -51495.07170123     -27309.53336188     -13806.87666260         46.05131401
        -59.80939380        -40.23848431     -99115.41104525     -20703.30151130
     -20948.37162228      28471.13150924      49658.50982615      39076.62180355
      -8826.76187887      -3651.89575389      30625.10709504       7930.04778950
   -7364673.08006698   -2219838.12894586    -729802.47990267     451385.55140050
     373816.77587241    -320352.67454900      82642.41578714    -135843.37366643
     -54780.63204558   -1550262.46474087    -744257.28587365    -503321.04246714
    -114216.40880233     -10921.62236741    -140419.16246882
 Electronic spatial extent (au):  <R**2>=          92611.4817
 DipInt: DoE/N= F T RetVal/Mat= T F Init=T NMatP=  1 IDeriv=0 Min/MaxMlt=  0  4
 Nuclear    moments (au):
        716.00000000          0.00000000         -0.00000000         -0.00000000
      50984.56745743      26944.90385795      13453.33457255          0.00000000
         -0.00000000         -0.00000000     100256.44072404      21521.34498191
      20618.29355054     -27157.22035313     -49919.76054404     -39949.05202090
       9306.28668938       3969.18036333     -31428.52894881      -8575.52472788
    7156029.49636339    2130904.20309914     688106.03578543    -453142.44343916
    -378316.90965389     328677.88707922     -89124.15652117     132960.35871562
      53042.16084079    1507486.19314902     710053.65768421     484448.80614522
     112264.99628522       3957.68402626     143871.30269815
 Total      moments (au):
         -0.00000000         11.26771298          1.31760176         -7.48454817
       -510.50424380       -364.62950394       -353.54209006         46.05131401
        -59.80939380        -40.23848431       1141.02967879        818.04347061
       -330.07807174       1313.91115611       -261.25071790       -872.43021735
        479.52481051        317.28460944       -803.42185378       -645.47693838
    -208643.58370358     -88933.92584672     -41696.44411724      -1756.89203865
      -4500.13378148       8325.21253022      -6481.74073403      -2883.01495081
      -1738.47120479     -42776.27159185     -34203.62818945     -18872.23632192
      -1951.41251711      -6963.93834115       3452.14022933
 Traceless Quadrup. (au):
       -100.94563120         44.92910866         56.01652254         46.05131401
        -59.80939380        -40.23848431
 Charge=             -0.0000 electrons
 Dipole moment (field-independent basis, Debye):
    X=             28.6397    Y=              3.3490    Z=            -19.0238  Tot=             34.5449
 Quadrupole moment (field-independent basis, Debye-Ang):
   XX=           -686.6457   YY=           -490.4392   ZZ=           -475.5262
   XY=             61.9406   XZ=            -80.4457   YZ=            -54.1221
 Traceless Quadrupole moment (field-independent basis, Debye-Ang):
   XX=           -135.7753   YY=             60.4312   ZZ=             75.3441
   XY=             61.9406   XZ=            -80.4457   YZ=            -54.1221
 Octapole moment (field-independent basis, Debye-Ang**2):
  XXX=            812.1410  YYY=            582.2518  ZZZ=           -234.9369  XYY=            935.1913
  XXY=           -185.9482  XXZ=           -620.9622  XZZ=            341.3073  YZZ=            225.8310
  YYZ=           -571.8447  XYZ=           -459.4256
 Hexadecapole moment (field-independent basis, Debye-Ang**3):
 XXXX=         -78585.1784 YYYY=         -33496.7810 ZZZZ=         -15704.8803 XXXY=           -661.7298
 XXXZ=          -1694.9662 YYYX=           3135.6742 YYYZ=          -2441.3344 ZZZX=          -1085.8817
 ZZZY=           -654.7916 XXYY=         -16111.5951 XXZZ=         -12882.7265 YYZZ=          -7108.1892
 XXYZ=           -734.9955 YYXZ=          -2622.9531 ZZXY=           1300.2415
 N-N= 2.175581306315D+04 E-N=-5.598976369735D+04  KE= 5.290590907859D+03
 Leave Link  601 at Sun Sep 15 01:10:52 2019, MaxMem=  1342177280 cpu:              42.7 elap:               1.1
 FitSet:  NAtFit=   176 NAtPot=   176 NAtFrz=     0 MDM=   180 TotChg=   0.00000
 Merz-Kollman atomic radii used.
 Read replacement radii for each type of atom:
 Rad(20) =   1.700000000000D+00
 Atom Element Radius
    1     6    1.50
    2     6    1.50
    3     8    1.40
    4     1    1.20
    5     1    1.20
    6     1    1.20
    7     7    1.50
    8     6    1.50
    9     6    1.50
   10     8    1.40
   11     6    1.50
   12     6    1.50
   13     8    1.40
   14     8    1.40
   15     1    1.20
   16     1    1.20
   17     1    1.20
   18     1    1.20
   19     7    1.50
   20     6    1.50
   21     6    1.50
   22     8    1.40
   23     6    1.50
   24     6    1.50
   25     6    1.50
   26     6    1.50
   27     7    1.50
   28     1    1.20
   29     1    1.20
   30     1    1.20
   31     1    1.20
   32     1    1.20
   33     1    1.20
   34     1    1.20
   35     1    1.20
   36     1    1.20
   37     1    1.20
   38     1    1.20
   39     1    1.20
   40     1    1.20
   41     7    1.50
   42     6    1.50
   43     6    1.50
   44     8    1.40
   45     6    1.50
   46     6    1.50
   47     8    1.40
   48     8    1.40
   49     1    1.20
   50     1    1.20
   51     1    1.20
   52     1    1.20
   53     7    1.50
   54     6    1.50
   55     6    1.50
   56     8    1.40
   57     1    1.20
   58     1    1.20
   59     1    1.20
   60     7    1.50
   61     6    1.50
   62     6    1.50
   63     8    1.40
   64     6    1.50
   65     6    1.50
   66     7    1.50
   67     8    1.40
   68     1    1.20
   69     1    1.20
   70     1    1.20
   71     1    1.20
   72     1    1.20
   73     1    1.20
   74     7    1.50
   75     6    1.50
   76     6    1.50
   77     8    1.40
   78     1    1.20
   79     1    1.20
   80     1    1.20
   81     7    1.50
   82     6    1.50
   83     6    1.50
   84     8    1.40
   85     6    1.50
   86     6    1.50
   87     6    1.50
   88     6    1.50
   89     6    1.50
   90     6    1.50
   91     6    1.50
   92     8    1.40
   93     1    1.20
   94     1    1.20
   95     1    1.20
   96     1    1.20
   97     1    1.20
   98     1    1.20
   99     1    1.20
  100     1    1.20
  101     1    1.20
  102     7    1.50
  103     6    1.50
  104     6    1.50
  105     8    1.40
  106     6    1.50
  107     6    1.50
  108     6    1.50
  109     6    1.50
  110     1    1.20
  111     1    1.20
  112     1    1.20
  113     1    1.20
  114     1    1.20
  115     1    1.20
  116     1    1.20
  117     1    1.20
  118     1    1.20
  119     1    1.20
  120     1    1.20
  121     7    1.50
  122     6    1.50
  123     6    1.50
  124     8    1.40
  125     6    1.50
  126     8    1.40
  127     1    1.20
  128     1    1.20
  129     1    1.20
  130     1    1.20
  131     1    1.20
  132     7    1.50
  133     6    1.50
  134     6    1.50
  135     8    1.40
  136     6    1.50
  137     1    1.20
  138     1    1.20
  139     1    1.20
  140     1    1.20
  141     1    1.20
  142     7    1.50
  143     6    1.50
  144     6    1.50
  145     8    1.40
  146     6    1.50
  147     1    1.20
  148     1    1.20
  149     1    1.20
  150     1    1.20
  151     1    1.20
  152     7    1.50
  153     6    1.50
  154     6    1.50
  155     8    1.40
  156     6    1.50
  157     6    1.50
  158     6    1.50
  159     8    1.40
  160     8    1.40
  161     1    1.20
  162     1    1.20
  163     1    1.20
  164     1    1.20
  165     1    1.20
  166     1    1.20
  167     7    1.50
[...]
 **** Fit      -0.025517
 **** Fit      -0.022216
 **** Fit      -0.019256
 **** Fit      -0.016904
 **** Fit      -0.038952
 **** Fit      -0.034985
 **** Fit      -0.030318
 **** Fit      -0.025282
 **** Fit       0.049220
 **** Fit       0.048266
 **** Fit       0.045919
 **** Fit       0.041129
 **** Fit       0.042525
 **** Fit       0.038362
 **** Fit       0.035093
 **** Fit       0.037064
 **** Fit       0.034906
 **** Fit       0.031581
 **** Fit       0.032445
 **** Fit       0.031945
 **** Fit       0.030100
 **** Fit       0.028005
 **** Fit       0.023634
 **** Fit       0.025876
 **** Fit       0.025588
 **** Fit       0.023760
 **** Fit       0.021346
 **** Fit       0.017632
 **** Fit       0.019875
 **** Fit       0.019265
 **** Fit       0.017027
 **** Fit       0.013986
 **** Fit       0.012486
 **** Fit       0.014852
 **** Fit       0.013739
 **** Fit       0.011478
 **** Fit       0.010165
 **** Fit       0.010508
 **** Fit       0.011007
 **** Fit       0.009880
 **** Fit      -0.025163
 **** Fit      -0.013213
 **** Fit      -0.009589
 **** Fit      -0.008024
 **** Fit      -0.017660
 **** Fit      -0.009726
 **** Fit      -0.003140
 **** Fit       0.001811
 **** Fit       0.004965
 **** Fit      -0.022565
 **** Fit      -0.012269
 **** Fit      -0.003005
 **** Fit       0.004974
 **** Fit       0.011421
 **** Fit       0.016081
 **** Fit      -0.007676
 **** Fit       0.003521
 **** Fit       0.013180
 **** Fit       0.013349
 **** Fit       0.058509
 **** Fit       0.071657
 **** Fit       0.057853
 **** Fit       0.045117
 **** Fit       0.033663
 **** Fit       0.073182
 **** Fit       0.073298
 **** Fit       0.063732
 **** Fit       0.050338
 **** Fit       0.037447
 **** Fit       0.026699
 **** Fit       0.058633
 **** Fit       0.054637
 **** Fit       0.041341
 **** Fit       0.031930
 **** Fit       0.044974
 **** Fit      -0.028511
 **** Fit      -0.002815
 **** Fit      -0.002629
 **** Fit      -0.004077
 **** Fit      -0.004477
 **** Fit      -0.002978
 **** Fit      -0.001458
 **** Fit      -0.001472
 **** Fit      -0.002478
 **** Fit      -0.005267
 **** Fit      -0.003067
 **** Fit      -0.000363
 **** Fit      -0.001282
 **** Fit      -0.002415
 **** Fit      -0.008088
 **** Fit      -0.005741
 **** Fit       0.000559
 **** Fit      -0.000279
 **** Fit      -0.001276
 **** Fit      -0.002474
 **** Fit      -0.010885
 **** Fit      -0.007898
 **** Fit      -0.004596
 **** Fit       0.001455
 **** Fit       0.000642
 **** Fit      -0.000277
 **** Fit      -0.001321
 **** Fit      -0.002672
 **** Fit      -0.003877
 **** Fit      -0.012397
 **** Fit      -0.008589
 **** Fit       0.002090
 **** Fit       0.001323
 **** Fit       0.000480
 **** Fit      -0.000470
 **** Fit      -0.001528
 **** Fit      -0.003005
 **** Fit      -0.004298
 **** Fit      -0.019460
 **** Fit      -0.014697
 **** Fit      -0.009907
 **** Fit       0.002893
 **** Fit       0.002139
 **** Fit       0.001327
 **** Fit       0.000414
 **** Fit      -0.000622
 **** Fit      -0.001771
 **** Fit      -0.003460
 **** Fit      -0.004854
 **** Fit      -0.023494
 **** Fit      -0.017455
 **** Fit      -0.011665
 **** Fit       0.003639
 **** Fit       0.002911
 **** Fit       0.002133
 **** Fit       0.001260
 **** Fit       0.000260
 **** Fit      -0.000874
 **** Fit      -0.002125
 **** Fit      -0.004033
 **** Fit      -0.005569
 **** Fit      -0.007176
 **** Fit      -0.024760
 **** Fit      -0.017540
 **** Fit       0.004510
 **** Fit       0.003804
 **** Fit       0.003048
 **** Fit       0.002204
 **** Fit      -0.006411
 **** Fit      -0.008142
 **** Fit       0.005421
 **** Fit       0.004752
 **** Fit       0.004007
 **** Fit      -0.009329
 **** Fit      -0.011333
 **** Fit       0.006560
 **** Fit       0.005956
 **** Fit      -0.013057
 **** Fit      -0.015606
 **** Fit       0.007975
 **** Fit       0.007619
 **** Fit       0.006958
 **** Fit      -0.014999
 **** Fit      -0.017589
 **** Fit      -0.021021
 **** Fit       0.009139
 **** Fit       0.009342
 **** Fit       0.009041
 **** Fit      -0.017273
 **** Fit      -0.019686
 **** Fit      -0.022973
 **** Fit      -0.027672
 **** Fit       0.009625
 **** Fit       0.010716
 **** Fit       0.011206
 **** Fit       0.010934
 **** Fit      -0.020251
 **** Fit      -0.022430
 **** Fit      -0.025640
 **** Fit       0.011795
 **** Fit      -0.023711
 **** Fit      -0.025431
 **** Fit      -0.027211
 **** Fit      -0.002762
 **** Fit       0.002153
 **** Fit       0.001062
 **** Fit      -0.000140
 **** Fit      -0.001422
 **** Fit      -0.003580
 **** Fit      -0.005005
 **** Fit      -0.006485
 **** Fit       0.003850
 **** Fit       0.002859
 **** Fit       0.001718
 **** Fit       0.000471
 **** Fit      -0.000842
 **** Fit      -0.002195
 **** Fit      -0.004674
 **** Fit      -0.006172
 **** Fit      -0.007738
 **** Fit       0.005068
 **** Fit       0.003987
 **** Fit       0.002700
 **** Fit       0.001276
 **** Fit      -0.000212
 **** Fit      -0.001712
 **** Fit      -0.003198
 **** Fit      -0.006227
 **** Fit      -0.007724
 **** Fit      -0.009269
 **** Fit      -0.010954
 **** Fit       0.006535
 **** Fit       0.005330
 **** Fit       0.003825
 **** Fit       0.002125
 **** Fit       0.000345
 **** Fit      -0.001421
 **** Fit      -0.003111
 **** Fit      -0.004707
 **** Fit      -0.008487
 **** Fit      -0.009937
 **** Fit      -0.011393
 **** Fit      -0.012974
 **** Fit       0.008633
 **** Fit       0.007359
 **** Fit       0.005583
 **** Fit       0.003455
 **** Fit       0.001162
 **** Fit      -0.001123
 **** Fit      -0.003272
 **** Fit      -0.005214
 **** Fit      -0.006939
 **** Fit      -0.011812
 **** Fit      -0.013163
 **** Fit      -0.014450
 **** Fit      -0.015848
 **** Fit      -0.017537
 **** Fit       0.010780
 **** Fit       0.009050
 **** Fit       0.006475
 **** Fit       0.003366
 **** Fit       0.000077
 **** Fit      -0.003087
 **** Fit      -0.005913
 **** Fit      -0.008296
 **** Fit      -0.010235
 **** Fit      -0.016739
 **** Fit      -0.017788
 **** Fit      -0.018664
 **** Fit      -0.019629
 **** Fit      -0.020918
 **** Fit      -0.001314
 **** Fit      -0.006002
 **** Fit      -0.009974
 **** Fit      -0.013047
 **** Fit      -0.015243
 **** Fit      -0.024387
 **** Fit      -0.006410
 **** Fit      -0.005902
 **** Fit      -0.008011
 **** Fit      -0.008809
 **** Fit      -0.007095
 **** Fit      -0.004953
 **** Fit      -0.004525
 **** Fit      -0.005578
 **** Fit      -0.007624
 **** Fit      -0.009843
 **** Fit      -0.011587
 **** Fit      -0.011949
 **** Fit      -0.010527
 **** Fit      -0.007962
 **** Fit      -0.003982
 **** Fit      -0.005451
 **** Fit      -0.007345
 **** Fit      -0.009558
 **** Fit      -0.011985
 **** Fit      -0.014293
 **** Fit      -0.015895
 **** Fit      -0.016157
 **** Fit      -0.014804
 **** Fit      -0.012192
 **** Fit      -0.009054
 **** Fit      -0.003869
 **** Fit      -0.005535
 **** Fit      -0.007391
 **** Fit      -0.009575
 **** Fit      -0.012132
 **** Fit      -0.015001
 **** Fit      -0.017933
 **** Fit      -0.020436
 **** Fit      -0.021852
 **** Fit      -0.021614
 **** Fit      -0.019605
 **** Fit      -0.016288
 **** Fit      -0.003927
 **** Fit      -0.005844
 **** Fit      -0.007726
 **** Fit      -0.009932
 **** Fit      -0.012577
 **** Fit      -0.015726
 **** Fit      -0.019336
 **** Fit      -0.023167
 **** Fit      -0.026711
 **** Fit      -0.029202
 **** Fit      -0.029850
 **** Fit      -0.028245
 **** Fit      -0.024653
 **** Fit      -0.019890
 **** Fit      -0.006389
 **** Fit      -0.008281
 **** Fit      -0.010473
 **** Fit      -0.013114
 **** Fit      -0.016340
 **** Fit      -0.020247
 **** Fit      -0.024826
 **** Fit      -0.029872
 **** Fit      -0.009204
 **** Fit      -0.011533
 **** Fit      -0.014367
 **** Fit      -0.017913
 **** Fit      -0.022370
 **** Fit      -0.027894
 **** Fit      -0.010375
 **** Fit      -0.012808
 **** Fit      -0.015779
 **** Fit      -0.019552
 **** Fit      -0.024421
 **** Fit      -0.014466
 **** Fit      -0.017650
 **** Fit      -0.021764
 **** Fit      -0.027210
 **** Fit      -0.020325
 **** Fit      -0.025192
 **** Fit       0.000068
 **** Fit      -0.000102
 **** Fit      -0.001279
 **** Fit       0.000438
 **** Fit       0.001516
 **** Fit       0.001133
 **** Fit      -0.001158
 **** Fit       0.001050
 **** Fit       0.002505
 **** Fit       0.002922
 **** Fit       0.002658
 **** Fit       0.001994
 **** Fit       0.001050
 **** Fit      -0.003304
 **** Fit      -0.000606
 **** Fit       0.001974
 **** Fit       0.003691
 **** Fit       0.004319
 **** Fit       0.004249
 **** Fit       0.003881
 **** Fit       0.003362
 **** Fit       0.002706
 **** Fit       0.001923
 **** Fit      -0.005080
 **** Fit      -0.001707
 **** Fit       0.001758
 **** Fit       0.005634
 **** Fit       0.005082
 **** Fit       0.004567
 **** Fit       0.004034
 **** Fit       0.003427
 **** Fit       0.002733
 **** Fit      -0.005951
 **** Fit      -0.001584
 **** Fit       0.006444
 **** Fit       0.005719
 **** Fit       0.005200
 **** Fit       0.004715
 **** Fit       0.004172
 **** Fit       0.003543
 **** Fit       0.006099
 **** Fit       0.005691
 **** Fit       0.005314
 **** Fit       0.004861
 **** Fit       0.004305
 **** Fit       0.006196
 **** Fit       0.005993
 **** Fit       0.005699
 **** Fit       0.005256
 **** Fit       0.006409
 **** Fit       0.006497
 **** Fit       0.006457
 **** Fit       0.006209
 **** Fit       0.005743
 **** Fit       0.006685
 **** Fit       0.007068
 **** Fit       0.007177
 **** Fit       0.006973
 **** Fit       0.007700
 **** Fit       0.008124
 **** Fit       0.008113
 **** Fit       0.009067
 **** Fit       0.023242
 **** Fit       0.036343
 **** Fit       0.030445
 **** Fit       0.025129
 **** Fit       0.034649
 **** Fit       0.033229
 **** Fit       0.028135
 **** Fit       0.025124
 **** Fit       0.024270
 **** Fit       0.022194
 **** Fit       0.028636
 **** Fit       0.028244
 **** Fit       0.024004
 **** Fit       0.018495
 **** Fit       0.021508
 **** Fit       0.021710
 **** Fit       0.018279
 **** Fit       0.024328
 **** Fit       0.023576
 **** Fit       0.022213
 **** Fit       0.019814
 **** Fit       0.014321
 **** Fit       0.017305
 **** Fit       0.018713
 **** Fit       0.017421
 **** Fit       0.012725
 **** Fit       0.024803
 **** Fit       0.023504
 **** Fit       0.021830
 **** Fit       0.019459
 **** Fit       0.016336
 **** Fit       0.012972
 **** Fit       0.011489
 **** Fit       0.012031
 **** Fit       0.013401
 **** Fit       0.014541
 **** Fit       0.014305
 **** Fit       0.011712
 **** Fit       0.005984
 **** Fit       0.026485
 **** Fit       0.024739
 **** Fit       0.022761
 **** Fit       0.020338
 **** Fit       0.017476
 **** Fit       0.014579
 **** Fit       0.012371
 **** Fit       0.013290
 **** Fit       0.012950
 **** Fit       0.013024
 **** Fit       0.012734
 **** Fit       0.011195
 **** Fit       0.007574
 **** Fit       0.001107
 **** Fit      -0.006877
 **** Fit       0.022025
 **** Fit       0.019285
 **** Fit       0.016626
 **** Fit       0.014509
 **** Fit       0.015175
 **** Fit       0.013994
 **** Fit       0.012942
 **** Fit       0.011330
 **** Fit       0.008366
 **** Fit       0.003266
 **** Fit      -0.006420
 **** Fit       0.019279
 **** Fit       0.016913
 **** Fit       0.017125
 **** Fit       0.015059
 **** Fit       0.012892
 **** Fit       0.009957
 **** Fit       0.005500
 **** Fit      -0.001219
 **** Fit       0.012923
 **** Fit       0.008803
 **** Fit       0.003134
 **** Fit      -0.004613
 **** Fit       0.000679
 **** Fit       0.028203
 **** Fit       0.026414
 **** Fit       0.003228
 **** Fit       0.007614
 **** Fit       0.012741
 **** Fit       0.018715
 **** Fit       0.029805
 **** Fit       0.028024
 **** Fit       0.026144
 **** Fit       0.023967
 **** Fit       0.021444
 **** Fit       0.018944
 **** Fit      -0.003676
 **** Fit       0.002405
 **** Fit       0.007511
 **** Fit       0.012464
 **** Fit       0.017793
 **** Fit       0.023411
 **** Fit       0.028517
 **** Fit       0.032566
 **** Fit       0.031041
 **** Fit       0.029423
 **** Fit       0.027704
 **** Fit       0.025776
 **** Fit       0.023595
 **** Fit       0.021264
 **** Fit       0.021076
 **** Fit       0.018823
 **** Fit       0.016210
 **** Fit      -0.006851
 **** Fit       0.000116
 **** Fit       0.005910
 **** Fit       0.011034
 **** Fit       0.015976
 **** Fit       0.020966
 **** Fit       0.025751
 **** Fit       0.029642
 **** Fit       0.032020
 **** Fit       0.032827
 **** Fit       0.032478
 **** Fit       0.031491
 **** Fit       0.030211
 **** Fit       0.028750
 **** Fit       0.027094
 **** Fit       0.025228
 **** Fit       0.023199
 **** Fit       0.022481
 **** Fit       0.020073
 **** Fit       0.017120
 **** Fit       0.013255
 **** Fit       0.008136
 **** Fit       0.001644
 **** Fit      -0.002337
 **** Fit       0.003828
 **** Fit       0.009348
 **** Fit       0.014408
 **** Fit       0.019229
 **** Fit       0.023763
 **** Fit       0.027582
 **** Fit       0.030149
 **** Fit       0.031300
 **** Fit       0.031319
 **** Fit       0.030631
 **** Fit       0.029530
 **** Fit       0.028136
 **** Fit       0.026480
 **** Fit       0.024590
 **** Fit       0.023178
 **** Fit       0.020613
 **** Fit       0.017372
 **** Fit       0.013213
 **** Fit       0.008093
 **** Fit       0.002442
 **** Fit      -0.002636
 **** Fit      -0.005592
 **** Fit      -0.005382
 **** Fit      -0.002311
 **** Fit       0.002365
 **** Fit       0.007487
 **** Fit       0.012480
 **** Fit       0.017197
 **** Fit       0.021567
 **** Fit       0.025324
 **** Fit       0.028053
 **** Fit       0.029523
 **** Fit       0.029873
 **** Fit       0.029425
 **** Fit       0.028437
 **** Fit       0.027040
 **** Fit       0.025288
 **** Fit       0.023230
 **** Fit       0.020408
 **** Fit       0.016802
 **** Fit       0.012462
 **** Fit       0.007971
 **** Fit       0.004548
 **** Fit       0.003487
 **** Fit       0.005140
 **** Fit       0.008708
 **** Fit       0.013095
 **** Fit       0.017570
 **** Fit       0.021695
 **** Fit       0.025041
 **** Fit       0.027209
 **** Fit       0.028103
 **** Fit       0.027937
 **** Fit       0.026981
 **** Fit       0.025397
 **** Fit       0.022706
 **** Fit       0.019432
 **** Fit       0.015443
 **** Fit       0.011874
 **** Fit       0.010507
 **** Fit       0.012150
 **** Fit       0.015838
 **** Fit       0.020060
 **** Fit       0.023606
 **** Fit       0.025658
 **** Fit       0.026016
 **** Fit       0.024944
 **** Fit       0.021666
 **** Fit       0.017988
 **** Fit       0.015923
 **** Fit       0.018201
 **** Fit       0.022002
 **** Fit       0.023459
 **** Fit       0.020153
 -----------------------------------------------------------------
 Leave Link  602 at Sun Sep 15 01:10:55 2019, MaxMem=  1342177280 cpu:             139.5 elap:               2.9

 Test job not archived.
 1\1\GINC-C506-083\SP\RB3LYP\SVP\C54H83Ca1N15O23\PENGZHI\15-Sep-2019\0\
 \#b3lyp/svp scf=(tight,noincore) Test #IOP(5/87=12) Density=Current Po
 p=(MK,readradii) iop(6/33=2) iop(6/42=6)\\CaMKII_loop3_90.0\\0,1\C,0,8
 1.553,65.87,36.01\C,0,81.063,65.57,37.42\O,0,81.483,64.69,38.16\H,0,82
 .58,65.521,35.901\H,0,80.917,65.358,35.287\H,0,81.514,66.945,35.832\N,
 0,80.013,66.29,37.82\C,0,79.613,66.41,39.2\C,0,78.503,65.38,39.41\O,0,
 77.503,65.5,38.71\C,0,79.133,67.82,39.54\C,0,78.563,68.17,40.9\O,0,78.
 523,67.3,41.81\O,0,78.023,69.29,41.06\H,0,79.673,67.06,37.26\H,0,80.41
 3,66.26,39.92\H,0,78.353,68.12,38.83\H,0,79.983,68.49,39.41\N,0,78.633
 ,64.4,40.31\C,0,77.703,63.35,40.65\C,0,76.553,63.64,41.6\O,0,75.783,62
 .72,41.82\C,0,78.473,62.06,40.9\C,0,77.923,60.68,40.55\C,0,78.593,59.4
 4,41.11\C,0,78.513,59.3,42.63\N,0,79.453,58.3,43.17\H,0,79.443,64.44,4
 0.92\H,0,77.113,63.12,39.76\H,0,78.683,62.13,41.97\H,0,79.393,62.09,40
 .32\H,0,77.933,60.62,39.46\H,0,76.843,60.65,40.73\H,0,79.593,59.34,40.
 68\H,0,78.043,58.6,40.68\H,0,77.503,59.,42.91\H,0,78.723,60.23,43.16\H
 ,0,80.363,58.72,43.32\H,0,79.043,57.94,44.02\H,0,79.553,57.51,42.56\N,
 0,76.343,64.86,42.12\C,0,75.103,65.14,42.81\C,0,74.533,66.52,42.47\O,0
 ,73.473,66.81,43.03\C,0,75.333,64.93,44.3\C,0,76.493,65.72,44.9\O,0,77
 .233,66.41,44.17\O,0,76.753,65.52,46.11\H,0,76.903,65.66,41.89\H,0,74.
 353,64.43,42.46\H,0,75.533,63.86,44.4\H,0,74.473,65.15,44.94\N,0,75.07
 3,67.34,41.57\C,0,74.643,68.7,41.31\C,0,74.893,69.74,42.39\O,0,74.193,
 70.75,42.39\H,0,75.963,67.04,41.19\H,0,73.583,68.75,41.05\H,0,75.233,6
 9.11,40.49\N,0,75.803,69.54,43.35\C,0,76.173,70.44,44.42\C,0,77.253,71
 .46,44.11\O,0,77.453,72.46,44.8\C,0,76.663,69.58,45.59\C,0,78.183,69.5
 6,45.7\N,0,78.713,70.26,46.7\O,0,78.973,68.92,45.\H,0,76.243,68.63,43.
 31\H,0,75.253,70.97,44.68\H,0,76.313,68.55,45.51\H,0,76.273,69.95,46.5
 4\H,0,78.153,70.9,47.24\H,0,79.723,70.25,46.77\N,0,77.913,71.35,42.95\
 C,0,78.793,72.3,42.29\C,0,80.243,72.24,42.73\O,0,80.923,73.27,42.78\H,
 0,77.773,70.55,42.36\H,0,78.323,73.28,42.35\H,0,78.763,72.03,41.23\N,0
 ,80.783,71.1,43.18\C,0,82.193,70.82,43.24\C,0,82.353,69.32,43.03\O,0,8
 1.503,68.48,43.32\C,0,82.823,71.42,44.5\C,0,82.093,71.3,45.81\C,0,81.4
 73,72.43,46.37\C,0,82.063,70.1,46.53\C,0,80.983,72.42,47.68\C,0,81.673
 ,70.06,47.87\C,0,81.093,71.23,48.42\O,0,80.683,71.13,49.71\H,0,80.143,
 70.32,43.11\H,0,82.593,71.24,42.32\H,0,82.913,72.46,44.17\H,0,83.863,7
 1.16,44.68\H,0,81.483,73.38,45.86\H,0,82.473,69.19,46.1\H,0,80.483,73.
 21,48.22\H,0,81.733,69.1,48.36\H,0,80.803,70.22,49.99\N,0,83.593,69.,4
 2.66\C,0,84.103,67.7,42.26\C,0,85.073,67.15,43.29\O,0,86.063,67.76,43.
 69\C,0,84.743,67.81,40.88\C,0,83.733,68.28,39.84\C,0,85.463,66.52,40.4
 8\C,0,84.533,68.74,38.62\H,0,84.243,69.77,42.6\H,0,83.173,67.12,42.2\H
 ,0,85.433,68.65,40.97\H,0,83.133,69.15,40.12\H,0,83.113,67.43,39.58\H,
 0,85.903,66.56,39.49\H,0,86.243,66.31,41.21\H,0,84.813,65.64,40.46\H,0
 ,83.733,69.1,37.97\H,0,85.203,69.53,38.97\H,0,85.093,67.99,38.07\N,0,8
 4.843,65.96,43.84\C,0,85.823,65.16,44.56\C,0,86.633,64.24,43.67\O,0,86
 .093,63.89,42.63\C,0,84.973,64.37,45.55\O,0,84.073,63.44,44.99\H,0,84.
 033,65.41,43.6\H,0,86.543,65.8,45.08\H,0,84.413,64.98,46.26\H,0,85.723
 ,63.83,46.13\H,0,83.333,63.93,44.61\N,0,87.673,63.63,44.24\C,0,88.483,
 62.65,43.54\C,0,87.763,61.4,43.04\O,0,88.273,60.83,42.09\C,0,89.713,62
 .33,44.38\H,0,87.983,63.9,45.16\H,0,88.843,63.07,42.6\H,0,90.483,61.85
 ,43.78\H,0,90.283,63.25,44.56\H,0,89.543,61.68,45.23\N,0,86.623,61.05,
 43.64\C,0,85.873,59.87,43.25\C,0,84.963,60.15,42.07\O,0,84.473,59.23,4
 1.41\C,0,85.033,59.47,44.46\H,0,86.343,61.53,44.48\H,0,86.583,59.09,42
 .95\H,0,84.233,60.2,44.56\H,0,84.563,58.53,44.18\H,0,85.693,59.32,45.3
 2\N,0,84.763,61.43,41.75\C,0,83.903,61.95,40.71\C,0,84.753,62.25,39.49
 \O,0,84.363,61.88,38.38\C,0,83.173,63.23,41.12\C,0,81.903,63.11,41.98\
 C,0,81.633,64.41,42.7\O,0,82.193,64.62,43.8\O,0,80.883,65.31,42.26\H,0
 ,85.173,62.07,42.41\H,0,83.113,61.26,40.42\H,0,82.943,63.79,40.22\H,0,
 83.823,63.9,41.68\H,0,82.123,62.31,42.69\H,0,81.053,62.83,41.36\N,0,85
 .893,62.91,39.73\C,0,86.903,63.12,38.71\H,0,87.828,62.627,39.009\H,0,8
 6.558,62.702,37.764\H,0,87.083,64.188,38.591\H,0,86.113,63.11,40.69\Ca
 ,0,79.77,66.62,44.09\O,0,79.22,66.18,46.57\H,0,78.27,66.11,46.44\H,0,7
 9.33,66.1,47.52\\Version=ES64L-G16RevA.03\State=1-A\HF=-5333.6119746\R
 MSD=2.379e-09\Dipole=5.7605366,-11.5770508,4.1837786\Quadrupole=-76.15
 73189,68.5330873,7.6242316,78.9320237,26.8025939,-52.5756813\PG=C01 [X
 (C54H83Ca1N15O23)]\\@


 OLD AGE AND TREACHERY WILL ALWAYS PREVAIL OVER YOUTH AND SKILL.
 Job cpu time:       0 days 10 hours 37 minutes 17.5 seconds.
 Elapsed time:       0 days  0 hours 13 minutes 25.3 seconds.
 File lengths (MBytes):  RWF=   1517 Int=      0 D2E=      0 Chk=    171 Scr=      1
 Normal termination of Gaussian 16 at Sun Sep 15 01:10:56 2019.
