 Entering Gaussian System, Link 0=g16
 Initial command:
 /home1/apps/gaussian/16rA.03/g16/l1.exe "/scratch/01990/pengzhi/4329070/Gau-174942.inp" -scrdir="/scratch/01990/pengzhi/4329070/"
 Entering Link 1 = /home1/apps/gaussian/16rA.03/g16/l1.exe PID=    174943.
  
 Copyright (c) 1988,1990,1992,1993,1995,1998,2003,2009,2016,
            Gaussian, Inc.  All Rights Reserved.
  
 This is part of the Gaussian(R) 16 program.  It is based on
 the Gaussian(R) 09 system (copyright 2009, Gaussian, Inc.),
 the Gaussian(R) 03 system (copyright 2003, Gaussian, Inc.),
 the Gaussian(R) 98 system (copyright 1998, Gaussian, Inc.),
 the Gaussian(R) 94 system (copyright 1995, Gaussian, Inc.),
 the Gaussian 92(TM) system (copyright 1992, Gaussian, Inc.),
 the Gaussian 90(TM) system (copyright 1990, Gaussian, Inc.),
 the Gaussian 88(TM) system (copyright 1988, Gaussian, Inc.),
 the Gaussian 86(TM) system (copyright 1986, Carnegie Mellon
 University), and the Gaussian 82(TM) system (copyright 1983,
 Carnegie Mellon University). Gaussian is a federally registered
 trademark of Gaussian, Inc.
  
 This software contains proprietary and confidential information,
 including trade secrets, belonging to Gaussian, Inc.
  
 This software is provided under written license and may be
 used, copied, transmitted, or stored only in accord with that
 written license.
  
 The following legend is applicable only to US Government
 contracts under FAR:
  
                    RESTRICTED RIGHTS LEGEND
  
 Use, reproduction and disclosure by the US Government is
 subject to restrictions as set forth in subparagraphs (a)
 and (c) of the Commercial Computer Software - Restricted
 Rights clause in FAR 52.227-19.
  
 Gaussian, Inc.
 340 Quinnipiac St., Bldg. 40, Wallingford CT 06492
  
  
 ---------------------------------------------------------------
 Warning -- This program may not be used in any manner that
 competes with the business of Gaussian, Inc. or will provide
 assistance to any competitor of Gaussian, Inc.  The licensee
 of this program is prohibited from giving any competitor of
 Gaussian, Inc. access to this program.  By using this program,
 the user acknowledges that Gaussian, Inc. is engaged in the
 business of creating and licensing software in the field of
 computational chemistry and represents and warrants to the
 licensee that it is not a competitor of Gaussian, Inc. and that
 it will not use this program in any manner prohibited above.
 ---------------------------------------------------------------
  

 Cite this work as:
 Gaussian 16, Revision A.03,
 M. J. Frisch, G. W. Trucks, H. B. Schlegel, G. E. Scuseria, 
 M. A. Robb, J. R. Cheeseman, G. Scalmani, V. Barone, 
 G. A. Petersson, H. Nakatsuji, X. Li, M. Caricato, A. V. Marenich, 
 J. Bloino, B. G. Janesko, R. Gomperts, B. Mennucci, H. P. Hratchian, 
 J. V. Ortiz, A. F. Izmaylov, J. L. Sonnenberg, D. Williams-Young, 
 F. Ding, F. Lipparini, F. Egidi, J. Goings, B. Peng, A. Petrone, 
 T. Henderson, D. Ranasinghe, V. G. Zakrzewski, J. Gao, N. Rega, 
 G. Zheng, W. Liang, M. Hada, M. Ehara, K. Toyota, R. Fukuda, 
 J. Hasegawa, M. Ishida, T. Nakajima, Y. Honda, O. Kitao, H. Nakai, 
 T. Vreven, K. Throssell, J. A. Montgomery, Jr., J. E. Peralta, 
 F. Ogliaro, M. J. Bearpark, J. J. Heyd, E. N. Brothers, K. N. Kudin, 
 V. N. Staroverov, T. A. Keith, R. Kobayashi, J. Normand, 
 K. Raghavachari, A. P. Rendell, J. C. Burant, S. S. Iyengar, 
 J. Tomasi, M. Cossi, J. M. Millam, M. Klene, C. Adamo, R. Cammi, 
 J. W. Ochterski, R. L. Martin, K. Morokuma, O. Farkas, 
 J. B. Foresman, and D. J. Fox, Gaussian, Inc., Wallingford CT, 2016.
 
 ******************************************
 Gaussian 16:  ES64L-G16RevA.03 25-Dec-2016
                15-Sep-2019 
 ******************************************
 %chk=CaMKII_loop3_84.0.chk
 %nprocshared=48
 Will use up to   48 processors via shared memory.
 %mem=10GB
 %nosave
 ----------------------------------------------------------------------
 #b3lyp/svp scf=(tight,noincore) Test #IOP(5/87=12) Density=Current Pop
 =(MK,readradii) iop(6/33=2) iop(6/42=6)
 ----------------------------------------------------------------------
 1/30=1,38=1,172=1/1;
 2/12=2,17=6,18=5,40=1/2;
 3/5=18,7=101,11=2,25=1,30=1,74=-5/1,2,3;
 4//1;
 5/5=4,32=2,38=5,87=12/2;
 6/7=2,8=2,9=2,10=2,15=8,20=101,22=-1,28=1,33=2,42=6/1,2;
 99/5=1,9=1/99;
 -----------------
 CaMKII_loop3_84.0
 -----------------
 Symbolic Z-matrix:
 Charge =  0 Multiplicity = 1
 C                     83.6      46.39     32.23 
 C                     82.94     45.78     33.46 
 O                     83.32     44.72     33.94 
 H                     84.608    45.99     32.123 
 H                     83.016    46.143    31.343 
 H                     83.649    47.473    32.343 
 N                     81.89     46.46     33.93 
 C                     81.08     46.24     35.12 
 C                     79.87     45.38     34.78 
 O                     78.76     45.74     35.15 
 C                     80.8      47.53     35.88 
 C                     80.12     47.28     37.22 
 O                     80.49     46.25     37.83 
 O                     79.21     48.03     37.63 
 H                     81.67     47.36     33.52 
 H                     81.76     45.65     35.75 
 H                     80.05     48.02     35.26 
 H                     81.77     48.01     36.07 
 N                     80.09     44.26     34.09 
 C                     79.06     43.27     33.86 
 C                     78.24     42.89     35.09 
 O                     77.04     42.66     34.95 
 C                     79.62     42.01     33.2 
 C                     80.49     42.27     31.98 
 C                     80.94     41.03     31.21 
 C                     81.47     41.26     29.8 
 N                     82.68     42.08     29.94 
 H                     81.06     44.       34.03 
 H                     78.37     43.66     33.11 
 H                     78.77     41.42     32.85 
 H                     80.18     41.39     33.9 
 H                     81.45     42.71     32.23 
 H                     80.       42.93     31.26 
 H                     80.06     40.4      31.06 
 H                     81.62     40.38     31.78 
 H                     80.74     41.66     29.1 
 H                     81.79     40.29     29.42 
 H                     82.63     43.06     30.19 
 H                     83.26     41.77     30.72 
 H                     83.24     41.96     29.11 
 N                     78.76     43.       36.32 
 C                     78.04     42.76     37.55 
 C                     77.05     43.81     38.03 
 O                     76.17     43.52     38.83 
 C                     78.97     42.17     38.61 
 C                     80.23     43.03     38.71 
 O                     80.3      43.65     39.8 
 O                     81.12     43.18     37.85 
 H                     79.73     43.24     36.43 
 H                     77.37     41.91     37.38 
 H                     79.46     41.25     38.31 
 H                     78.48     42.05     39.58 
 N                     77.12     45.03     37.5 
 C                     76.22     46.13     37.8 
 C                     76.45     46.83     39.13 
 O                     75.5      47.47     39.58 
 H                     77.74     45.22     36.72 
 H                     75.21     45.74     37.84 
 H                     76.39     46.88     37.03 
 N                     77.61     46.69     39.78 
 C                     77.75     47.13     41.15 
 C                     78.27     48.55     41.3 
 O                     78.36     49.12     42.38 
 C                     78.5      46.11     42.01 
 C                     80.01     46.25     41.99 
 N                     80.64     46.13     43.17 
 O                     80.69     46.54     41.01 
 H                     78.33     46.13     39.35 
 H                     76.75     47.14     41.58 
 H                     78.26     45.09     41.69 
 H                     78.12     46.14     43.03 
 H                     80.09     45.97     44. 
 H                     81.64     46.22     43.13 
 N                     78.71     49.13     40.17 
 C                     79.03     50.54     40.19 
 C                     80.43     50.86     40.7 
 O                     80.79     52.03     40.75 
 H                     78.72     48.67     39.28 
 H                     78.35     51.14     40.8 
 H                     78.92     50.87     39.16 
 N                     81.18     49.8      40.99 
 C                     82.63     49.76     40.95 
 C                     83.24     48.94     39.82 
 O                     82.79     47.84     39.5 
 C                     83.16     49.13     42.23 
 C                     82.65     49.86     43.45 
 C                     82.74     51.25     43.55 
 C                     82.23     49.06     44.52 
 C                     82.29     51.84     44.74 
 C                     81.84     49.66     45.72 
 C                     81.89     51.06     45.84 
 O                     81.6      51.72     47.01 
 H                     80.67     48.93     41. 
 H                     82.91     50.81     40.92 
 H                     84.24     49.26     42.22 
 H                     82.94     48.07     42.26 
 H                     83.31     51.86     42.86 
 H                     82.16     47.98     44.46 
 H                     82.55     52.88     44.87 
 H                     81.42     49.08     46.53 
 H                     81.34     51.02     47.61 
 N                     84.31     49.44     39.19 
 C                     85.21     48.68     38.34 
 C                     86.51     48.42     39.09 
 O                     87.08     49.29     39.74 
 C                     85.46     49.35     37. 
 C                     84.17     49.66     36.25 
 C                     86.36     48.4      36.2 
 C                     84.39     50.65     35.11 
 H                     84.6      50.35     39.51 
 H                     84.7      47.74     38.13 
 H                     85.92     50.31     37.23 
 H                     83.43     50.01     36.98 
 H                     83.75     48.74     35.86 
 H                     86.5      48.88     35.24 
 H                     87.35     48.46     36.64 
 H                     85.88     47.42     36.25 
 H                     84.76     51.64     35.4 
 H                     85.2      50.21     34.53 
 H                     83.52     50.7      34.46 
 N                     86.98     47.18     38.92 
 C                     88.27     46.78     39.43 
 C                     89.11     46.2      38.31 
 O                     88.66     46.1      37.17 
 C                     88.07     45.78     40.56 
 O                     87.17     44.77     40.14 
 H                     86.45     46.54     38.35 
 H                     88.79     47.67     39.78 
 H                     87.63     46.21     41.46 
 H                     89.04     45.35     40.83 
 H                     87.17     44.1      40.82 
 N                     90.37     45.79     38.54 
 C                     91.36     45.4      37.55 
 C                     91.07     44.08     36.86 
 O                     91.17     44.06     35.63 
 C                     92.69     45.46     38.3 
 H                     90.79     46.       39.43 
 H                     91.36     46.15     36.76 
 H                     92.71     46.34     38.94 
 H                     92.93     44.54     38.83 
 H                     93.49     45.76     37.63 
 N                     90.63     43.05     37.59 
 C                     90.35     41.77     36.97 
 C                     89.37     41.88     35.81 
 O                     89.65     41.45     34.7 
 C                     89.8      40.76     37.98 
 H                     90.52     43.23     38.58 
 H                     91.28     41.35     36.58 
 H                     90.52     40.76     38.8 
 H                     88.87     41.11     38.42 
 H                     89.56     39.79     37.55 
 N                     88.26     42.6      36.02 
 C                     87.13     42.76     35.14 
 C                     87.22     43.8      34.03 
 O                     86.52     43.71     33.03 
 C                     85.87     42.98     35.98 
 C                     86.03     44.13     36.97 
 C                     84.75     44.41     37.75 
 O                     84.34     43.63     38.64 
 O                     84.06     45.4      37.43 
 H                     88.2      43.1      36.9 
 H                     87.16     41.79     34.64 
 H                     85.66     42.02     36.45 
 H                     85.03     43.07     35.29 
 H                     86.46     45.03     36.52 
 H                     86.85     43.86     37.63 
 N                     88.08     44.81     34.18 
 C                     88.69     45.55     33.1 
 H                     89.697    45.171    32.924 
 H                     88.094    45.431    32.195 
 H                     88.741    46.606    33.366 
 H                     88.44     45.04     35.1 
 Ca                    82.26     45.24     39.26 
 O                     82.79     43.47     41.35 
 H                     83.16     43.65     42.21 
 H                     82.47     42.57     41.41 
 
 Stoichiometry    C54H83CaN15O23
 Framework group  C1[X(C54H83CaN15O23)]
 Deg. of freedom   522
 Full point group                 C1      NOp   1
 Largest Abelian subgroup         C1      NOp   1
 Largest concise Abelian subgroup C1      NOp   1
                         Standard orientation:                         
 ---------------------------------------------------------------------
 Center     Atomic      Atomic             Coordinates (Angstroms)
 Number     Number       Type             X           Y           Z
 ---------------------------------------------------------------------
      1          6           0        3.160750    3.021879    3.732426
      2          6           0        2.256131    2.947057    2.509043
      3          8           0        2.707563    2.880087    1.373207
      4          1           0        4.144239    2.625346    3.481382
      5          1           0        3.258896    4.060339    4.049919
      6          1           0        2.727614    2.433785    4.541498
      7          7           0        0.947854    3.017553    2.772180
      8          6           0       -0.200567    2.888392    1.886151
      9          6           0       -0.630408    4.259072    1.380410
     10          8           0       -1.811690    4.574057    1.443303
     11          6           0       -1.296894    2.012403    2.478444
     12          6           0       -2.410482    1.719915    1.481011
     13          8           0       -2.044678    1.564511    0.292761
     14          8           0       -3.606967    1.707225    1.837328
     15          1           0        0.644855    3.010472    3.738949
     16          1           0        0.225896    2.325211    1.044511
     17          1           0       -1.744232    2.658869    3.232746
     18          1           0       -0.830209    1.059260    2.763264
     19          7           0        0.319076    5.053226    0.883721
     20          6           0        0.021169    6.298599    0.209779
     21          6           0       -1.094382    6.222606   -0.829197
     22          8           0       -1.859102    7.178969   -0.943533
     23          6           0        1.270522    6.919925   -0.414618
     24          6           0        2.465231    7.011629    0.521951
     25          6           0        3.678508    7.762982   -0.022500
     26          6           0        4.720018    8.203940    0.998633
     27          7           0        5.267402    6.976365    1.589843
     28          1           0        1.195868    4.588682    0.717784
     29          1           0       -0.275339    7.033022    0.960382
     30          1           0        1.020026    7.946012   -0.693002
     31          1           0        1.580222    6.402960   -1.322821
     32          1           0        2.908786    6.045274    0.739017
     33          1           0        2.204405    7.478498    1.474895
     34          1           0        3.317882    8.701013   -0.451275
     35          1           0        4.158541    7.264279   -0.877288
     36          1           0        4.363323    8.928105    1.727505
     37          1           0        5.530749    8.672990    0.441491
     38          1           0        4.727252    6.411932    2.234091
     39          1           0        5.433349    6.257432    0.885218
     40          1           0        6.168880    7.192357    1.986812
     41          7           0       -1.364977    5.071837   -1.459998
     42          6           0       -2.456923    4.869209   -2.384929
     43          6           0       -3.865237    4.729090   -1.828135
     44          8           0       -4.841403    4.920046   -2.541672
     45          6           0       -2.057865    3.877475   -3.477547
     46          6           0       -1.466779    2.625077   -2.829999
     47          8           0       -2.206814    1.620059   -2.970309
     48          8           0       -0.398828    2.528129   -2.194168
     49          1           0       -0.765837    4.276482   -1.322007
     50          1           0       -2.561700    5.784540   -2.977796
     51          1           0       -1.176212    4.165572   -4.039853
     52          1           0       -2.885501    3.636952   -4.150279
     53          7           0       -4.005607    4.468459   -0.529456
     54          6           0       -5.271631    4.361118    0.174576
     55          6           0       -6.041716    3.067942   -0.040981
     56          8           0       -7.247504    3.105115    0.202522
     57          1           0       -3.201737    4.475738    0.089123
     58          1           0       -5.921074    5.155459   -0.173341
     59          1           0       -5.032987    4.397841    1.235707
     60          7           0       -5.427502    1.984047   -0.526381
     61          6           0       -6.188179    0.839962   -0.976423
     62          6           0       -6.406088   -0.223020    0.087478
     63          8           0       -7.106537   -1.212096   -0.087166
     64          6           0       -5.661433    0.281218   -2.300373
     65          6           0       -4.541844   -0.732386   -2.161709
     66          7           0       -4.614437   -1.818800   -2.947926
     67          8           0       -3.627628   -0.683121   -1.343980
     68          1           0       -4.439565    2.045174   -0.719109
     69          1           0       -7.181947    1.204334   -1.230703
     70          1           0       -5.293538    1.092408   -2.938358
     71          1           0       -6.487148   -0.128095   -2.880336
     72          1           0       -5.401418   -1.915488   -3.571073
     73          1           0       -3.858269   -2.472101   -2.842532
     74          7           0       -5.710578   -0.056962    1.225718
     75          6           0       -6.012194   -0.906521    2.356282
     76          6           0       -5.317023   -2.262395    2.327252
     77          8           0       -5.511640   -3.048516    3.246566
     78          1           0       -5.072253    0.700053    1.378260
     79          1           0       -7.076643   -1.123755    2.475685
     80          1           0       -5.695994   -0.339957    3.228591
     81          7           0       -4.483505   -2.446509    1.306688
     82          6           0       -3.331235   -3.328526    1.311126
     83          6           0       -1.970832   -2.642498    1.319565
     84          8           0       -1.734132   -1.661433    0.615020
     85          6           0       -3.337451   -4.184797    0.052968
     86          6           0       -4.632550   -4.950537   -0.080297
     87          6           0       -5.144561   -5.694455    0.984894
     88          6           0       -5.198061   -4.993058   -1.360801
     89          6           0       -6.324717   -6.416857    0.756709
     90          6           0       -6.340943   -5.764482   -1.586247
     91          6           0       -6.897798   -6.499886   -0.525119
     92          8           0       -7.971219   -7.343263   -0.683500
     93          1           0       -4.549505   -1.736904    0.593102
     94          1           0       -3.500770   -3.959688    2.179856
     95          1           0       -2.550279   -4.925859    0.173746
     96          1           0       -3.117898   -3.587422   -0.823297
     97          1           0       -4.585418   -5.900122    1.889415
     98          1           0       -4.809346   -4.426079   -2.198855
     99          1           0       -6.587668   -7.130891    1.522941
    100          1           0       -6.857395   -5.743061   -2.535836
    101          1           0       -8.211294   -7.238640   -1.604922
    102          7           0       -1.015399   -3.155300    2.104410
    103          6           0        0.402229   -2.856414    1.999066
    104          6           0        1.118876   -4.038329    1.359071
    105          8           0        0.893534   -5.199202    1.684486
    106          6           0        1.024504   -2.478139    3.331988
    107          6           0        0.296486   -1.325047    4.012480
    108          6           0        2.489030   -2.125255    3.043656
    109          6           0        0.671320   -1.196422    5.485930
    110          1           0       -1.302836   -3.949011    2.653958
    111          1           0        0.475442   -1.977724    1.358485
    112          1           0        0.894931   -3.346425    3.976497
    113          1           0       -0.780182   -1.466876    3.858633
    114          1           0        0.523433   -0.400114    3.494894
    115          1           0        2.904727   -1.829306    3.998229
    116          1           0        3.003454   -3.059068    2.842011
    117          1           0        2.467630   -1.410442    2.217892
    118          1           0        0.430316   -2.058305    6.118524
    119          1           0        1.759505   -1.152712    5.479339
    120          1           0        0.314745   -0.257130    5.901241
    121          7           0        2.040696   -3.675181    0.461423
    122          6           0        2.925784   -4.637697   -0.150446
    123          6           0        4.366640   -4.212379    0.048144
    124          8           0        4.641295   -3.167072    0.634657
    125          6           0        2.575279   -4.768334   -1.625905
    126          8           0        2.482277   -3.478023   -2.202922
    127          1           0        2.168198   -2.693125    0.275120
    128          1           0        2.807741   -5.587927    0.367366
    129          1           0        1.612165   -5.243829   -1.812496
    130          1           0        3.348140   -5.363065   -2.123579
    131          1           0        2.390055   -3.602787   -3.144850
    132          7           0        5.375642   -4.976059   -0.407169
    133          6           0        6.793049   -4.813063   -0.130239
    134          6           0        7.426096   -3.603790   -0.793193
    135          8           0        8.139787   -2.888938   -0.084016
    136          6           0        7.410743   -6.157755   -0.511367
    137          1           0        5.163788   -5.895167   -0.757822
    138          1           0        6.911014   -4.655376    0.941124
    139          1           0        6.763181   -6.965997   -0.176989
    140          1           0        7.675399   -6.229544   -1.564791
    141          1           0        8.255006   -6.383512    0.132957
    142          7           0        7.106797   -3.317559   -2.059495
    143          6           0        7.696488   -2.176421   -2.731261
    144          6           0        7.493152   -0.874758   -1.968092
    145          8           0        8.440460   -0.165786   -1.659276
    146          6           0        7.141655   -2.004204   -4.147313
    147          1           0        6.447122   -3.947671   -2.498114
    148          1           0        8.772277   -2.337132   -2.832501
    149          1           0        7.276711   -2.976627   -4.623709
    150          1           0        6.066994   -1.843360   -4.132089
    151          1           0        7.546736   -1.146625   -4.680106
    152          7           0        6.256388   -0.621246   -1.520046
    153          6           0        5.775275    0.578455   -0.882748
    154          6           0        6.015590    0.748794    0.612254
    155          8           0        6.022321    1.861491    1.122117
    156          6           0        4.291513    0.757871   -1.211170
    157          6           0        3.469773   -0.479887   -0.863467
    158          6           0        1.978411   -0.277100   -1.108247
    159          8           0        1.505029   -0.222344   -2.266483
    160          8           0        1.233138   -0.081069   -0.126035
    161          1           0        5.569418   -1.358062   -1.634830
    162          1           0        6.424067    1.307594   -1.371855
    163          1           0        4.255595    1.028651   -2.265678
    164          1           0        3.963240    1.685100   -0.739702
    165          1           0        3.687756   -0.876595    0.132779
    166          1           0        3.866644   -1.294790   -1.462907
    167          7           0        6.215877   -0.347048    1.347928
    168          6           0        6.955695   -0.392544    2.587564
    169          1           0        7.965693   -0.754689    2.394120
    170          1           0        7.004984    0.607379    3.018987
    171          1           0        6.456149   -1.065534    3.284724
    172          1           0        5.934849   -1.255630    0.995221
    173         20           0       -1.027822   -0.006088   -1.349531
    174          8           0       -1.013478   -0.857502   -4.005992
    175          1           0       -1.237049   -1.712475   -4.363675
    176          1           0       -0.947300   -0.286926   -4.771540
 ---------------------------------------------------------------------
 Rotational constants (GHZ):           0.0210392           0.0157617           0.0109489
 Standard basis: SVP (5D, 7F)
 There are  1809 symmetry adapted cartesian basis functions of A   symmetry.
 There are  1717 symmetry adapted basis functions of A   symmetry.
  1717 basis functions,  2922 primitive gaussians,  1809 cartesian basis functions
   358 alpha electrons      358 beta electrons
       nuclear repulsion energy     21417.4558634774 Hartrees.
 NAtoms=  176 NActive=  176 NUniq=  176 SFac= 1.00D+00 NAtFMM=   60 NAOKFM=T Big=T
 Integral buffers will be    131072 words long.
 Raffenetti 2 integral format.
 Two-electron integral symmetry is turned on.
 One-electron integrals computed using PRISM.
 NBasis=  1717 RedAO= T EigKep=  2.94D-04  NBF=  1717
 NBsUse=  1717 1.00D-06 EigRej= -1.00D+00 NBFU=  1717
 ExpMin= 1.98D-02 ExpMax= 3.51D+04 ExpMxC= 5.28D+03 IAcc=3 IRadAn=         5 AccDes= 0.00D+00
 Harris functional with IExCor=  402 and IRadAn=       5 diagonalized for initial guess.
 HarFok:  IExCor=  402 AccDes= 0.00D+00 IRadAn=         5 IDoV= 1 UseB2=F ITyADJ=14
 ICtDFT=  3500011 ScaDFX=  1.000000  1.000000  1.000000  1.000000
 FoFCou: FMM=F IPFlag=           0 FMFlag=      100000 FMFlg1=        2001
         NFxFlg=           0 DoJE=T BraDBF=F KetDBF=T FulRan=T
         wScrn=  0.000000 ICntrl=       500 IOpCl=  0 I1Cent=   200000004 NGrid=           0
         NMat0=    1 NMatS0=      1 NMatT0=    0 NMatD0=    1 NMtDS0=    0 NMtDT0=    0
 Petite list used in FoFCou.
 Requested convergence on RMS density matrix=1.00D-08 within 128 cycles.
 Requested convergence on MAX density matrix=1.00D-06.
 Requested convergence on             energy=1.00D-06.
 No special actions if energy rises.
 EnCoef did     3 forward-backward iterations
 EnCoef did     2 forward-backward iterations
 EnCoef did     5 forward-backward iterations
 SCF Done:  E(RB3LYP) =  -5333.58717852     A.U. after   19 cycles
            NFock= 19  Conv=0.40D-08     -V/T= 2.0081
 SCF density gives NOpUse=  1 NOpAll=  1.
 Hyperfine terms turned off by default for NAtoms > 100.

 **********************************************************************

            Population analysis using the SCF density.

 **********************************************************************

 Orbital symmetries:
 BldTbl:  Degeneracy threshold= 1.00D-02
       Occupied  (A) (A) (A) (A) (A) (A) (A) (A) (A) (A) (A) (A)
                 (A) (A) (A) (A) (A) (A) (A) (A) (A) (A) (A) (A)
                 (A) (A) (A) (A) (A) (A) (A) (A) (A) (A) (A) (A)
                 (A) (A) (A) (A) (A) (A) (A) (A) (A) (A) (A) (A)
                 (A) (A) (A) (A) (A) (A) (A) (A) (A) (A) (A) (A)
                 (A) (A) (A) (A) (A) (A) (A) (A) (A) (A) (A) (A)
                 (A) (A) (A) (A) (A) (A) (A) (A) (A) (A) (A) (A)
                 (A) (A) (A) (A) (A) (A) (A) (A) (A) (A) (A) (A)
                 (A) (A) (A) (A) (A) (A) (A) (A) (A) (A) (A) (A)
                 (A) (A) (A) (A) (A) (A) (A) (A) (A) (A) (A) (A)
                 (A) (A) (A) (A) (A) (A) (A) (A) (A) (A) (A) (A)
                 (A) (A) (A) (A) (A) (A) (A) (A) (A) (A) (A) (A)
                 (A) (A) (A) (A) (A) (A) (A) (A) (A) (A) (A) (A)
                 (A) (A) (A) (A) (A) (A) (A) (A) (A) (A) (A) (A)
                 (A) (A) (A) (A) (A) (A) (A) (A) (A) (A) (A) (A)
                 (A) (A) (A) (A) (A) (A) (A) (A) (A) (A) (A) (A)
                 (A) (A) (A) (A) (A) (A) (A) (A) (A) (A) (A) (A)
                 (A) (A) (A) (A) (A) (A) (A) (A) (A) (A) (A) (A)
                 (A) (A) (A) (A) (A) (A) (A) (A) (A) (A) (A) (A)
                 (A) (A) (A) (A) (A) (A) (A) (A) (A) (A) (A) (A)
                 (A) (A) (A) (A) (A) (A) (A) (A) (A) (A) (A) (A)
                 (A) (A) (A) (A) (A) (A) (A) (A) (A) (A) (A) (A)
                 (A) (A) (A) (A) (A) (A) (A) (A) (A) (A) (A) (A)
                 (A) (A) (A) (A) (A) (A) (A) (A) (A) (A) (A) (A)
                 (A) (A) (A) (A) (A) (A) (A) (A) (A) (A) (A) (A)
                 (A) (A) (A) (A) (A) (A) (A) (A) (A) (A) (A) (A)
                 (A) (A) (A) (A) (A) (A) (A) (A) (A) (A) (A) (A)
                 (A) (A) (A) (A) (A) (A) (A) (A) (A) (A) (A) (A)
                 (A) (A) (A) (A) (A) (A) (A) (A) (A) (A) (A) (A)
                 (A) (A) (A) (A) (A) (A) (A) (A) (A) (A)
       Virtual   (A) (A) (A) (A) (A) (A) (A) (A) (A) (A) (A) (A)
                 (A) (A) (A) (A) (A) (A) (A) (A) (A) (A) (A) (A)
                 (A) (A) (A) (A) (A) (A) (A) (A) (A) (A) (A) (A)
                 (A) (A) (A) (A) (A) (A) (A) (A) (A) (A) (A) (A)
                 (A) (A) (A) (A) (A) (A) (A) (A) (A) (A) (A) (A)
                 (A) (A) (A) (A) (A) (A) (A) (A) (A) (A) (A) (A)
                 (A) (A) (A) (A) (A) (A) (A) (A) (A) (A) (A) (A)
                 (A) (A) (A) (A) (A) (A) (A) (A) (A) (A) (A) (A)
                 (A) (A) (A) (A) (A) (A) (A) (A) (A) (A) (A) (A)
                 (A) (A) (A) (A) (A) (A) (A) (A) (A) (A) (A) (A)
                 (A) (A) (A) (A) (A) (A) (A) (A) (A) (A) (A) (A)
                 (A) (A) (A) (A) (A) (A) (A) (A) (A) (A) (A) (A)
                 (A) (A) (A) (A) (A) (A) (A) (A) (A) (A) (A) (A)
                 (A) (A) (A) (A) (A) (A) (A) (A) (A) (A) (A) (A)
                 (A) (A) (A) (A) (A) (A) (A) (A) (A) (A) (A) (A)
                 (A) (A) (A) (A) (A) (A) (A) (A) (A) (A) (A) (A)
                 (A) (A) (A) (A) (A) (A) (A) (A) (A) (A) (A) (A)
                 (A) (A) (A) (A) (A) (A) (A) (A) (A) (A) (A) (A)
                 (A) (A) (A) (A) (A) (A) (A) (A) (A) (A) (A) (A)
                 (A) (A) (A) (A) (A) (A) (A) (A) (A) (A) (A) (A)
                 (A) (A) (A) (A) (A) (A) (A) (A) (A) (A) (A) (A)
                 (A) (A) (A) (A) (A) (A) (A) (A) (A) (A) (A) (A)
                 (A) (A) (A) (A) (A) (A) (A) (A) (A) (A) (A) (A)
                 (A) (A) (A) (A) (A) (A) (A) (A) (A) (A) (A) (A)
                 (A) (A) (A) (A) (A) (A) (A) (A) (A) (A) (A) (A)
                 (A) (A) (A) (A) (A) (A) (A) (A) (A) (A) (A) (A)
                 (A) (A) (A) (A) (A) (A) (A) (A) (A) (A) (A) (A)
                 (A) (A) (A) (A) (A) (A) (A) (A) (A) (A) (A) (A)
                 (A) (A) (A) (A) (A) (A) (A) (A) (A) (A) (A) (A)
                 (A) (A) (A) (A) (A) (A) (A) (A) (A) (A) (A) (A)
                 (A) (A) (A) (A) (A) (A) (A) (A) (A) (A) (A) (A)
                 (A) (A) (A) (A) (A) (A) (A) (A) (A) (A) (A) (A)
                 (A) (A) (A) (A) (A) (A) (A) (A) (A) (A) (A) (A)
                 (A) (A) (A) (A) (A) (A) (A) (A) (A) (A) (A) (A)
                 (A) (A) (A) (A) (A) (A) (A) (A) (A) (A) (A) (A)
                 (A) (A) (A) (A) (A) (A) (A) (A) (A) (A) (A) (A)
                 (A) (A) (A) (A) (A) (A) (A) (A) (A) (A) (A) (A)
                 (A) (A) (A) (A) (A) (A) (A) (A) (A) (A) (A) (A)
                 (A) (A) (A) (A) (A) (A) (A) (A) (A) (A) (A) (A)
                 (A) (A) (A) (A) (A) (A) (A) (A) (A) (A) (A) (A)
                 (A) (A) (A) (A) (A) (A) (A) (A) (A) (A) (A) (A)
                 (A) (A) (A) (A) (A) (A) (A) (A) (A) (A) (A) (A)
                 (A) (A) (A) (A) (A) (A) (A) (A) (A) (A) (A) (A)
                 (A) (A) (A) (A) (A) (A) (A) (A) (A) (A) (A) (A)
                 (A) (A) (A) (A) (A) (A) (A) (A) (A) (A) (A) (A)
                 (A) (A) (A) (A) (A) (A) (A) (A) (A) (A) (A) (A)
                 (A) (A) (A) (A) (A) (A) (A) (A) (A) (A) (A) (A)
                 (A) (A) (A) (A) (A) (A) (A) (A) (A) (A) (A) (A)
                 (A) (A) (A) (A) (A) (A) (A) (A) (A) (A) (A) (A)
                 (A) (A) (A) (A) (A) (A) (A) (A) (A) (A) (A) (A)
                 (A) (A) (A) (A) (A) (A) (A) (A) (A) (A) (A) (A)
                 (A) (A) (A) (A) (A) (A) (A) (A) (A) (A) (A) (A)
                 (A) (A) (A) (A) (A) (A) (A) (A) (A) (A) (A) (A)
                 (A) (A) (A) (A) (A) (A) (A) (A) (A) (A) (A) (A)
                 (A) (A) (A) (A) (A) (A) (A) (A) (A) (A) (A) (A)
                 (A) (A) (A) (A) (A) (A) (A) (A) (A) (A) (A) (A)
                 (A) (A) (A) (A) (A) (A) (A) (A) (A) (A) (A) (A)
                 (A) (A) (A) (A) (A) (A) (A) (A) (A) (A) (A) (A)
                 (A) (A) (A) (A) (A) (A) (A) (A) (A) (A) (A) (A)
                 (A) (A) (A) (A) (A) (A) (A) (A) (A) (A) (A) (A)
                 (A) (A) (A) (A) (A) (A) (A) (A) (A) (A) (A) (A)
                 (A) (A) (A) (A) (A) (A) (A) (A) (A) (A) (A) (A)
                 (A) (A) (A) (A) (A) (A) (A) (A) (A) (A) (A) (A)
                 (A) (A) (A) (A) (A) (A) (A) (A) (A) (A) (A) (A)
                 (A) (A) (A) (A) (A) (A) (A) (A) (A) (A) (A) (A)
                 (A) (A) (A) (A) (A) (A) (A) (A) (A) (A) (A) (A)
                 (A) (A) (A) (A) (A) (A) (A) (A) (A) (A) (A) (A)
                 (A) (A) (A) (A) (A) (A) (A) (A) (A) (A) (A) (A)
                 (A) (A) (A) (A) (A) (A) (A) (A) (A) (A) (A) (A)
                 (A) (A) (A) (A) (A) (A) (A) (A) (A) (A) (A) (A)
                 (A) (A) (A) (A) (A) (A) (A) (A) (A) (A) (A) (A)
                 (A) (A) (A) (A) (A) (A) (A) (A) (A) (A) (A) (A)
                 (A) (A) (A) (A) (A) (A) (A) (A) (A) (A) (A) (A)
                 (A) (A) (A) (A) (A) (A) (A) (A) (A) (A) (A) (A)
                 (A) (A) (A) (A) (A) (A) (A) (A) (A) (A) (A) (A)
                 (A) (A) (A) (A) (A) (A) (A) (A) (A) (A) (A) (A)
                 (A) (A) (A) (A) (A) (A) (A) (A) (A) (A) (A) (A)
                 (A) (A) (A) (A) (A) (A) (A) (A) (A) (A) (A) (A)
                 (A) (A) (A) (A) (A) (A) (A) (A) (A) (A) (A) (A)
                 (A) (A) (A) (A) (A) (A) (A) (A) (A) (A) (A) (A)
                 (A) (A) (A) (A) (A) (A) (A) (A) (A) (A) (A) (A)
                 (A) (A) (A) (A) (A) (A) (A) (A) (A) (A) (A) (A)
                 (A) (A) (A) (A) (A) (A) (A) (A) (A) (A) (A) (A)
                 (A) (A) (A) (A) (A) (A) (A) (A) (A) (A) (A) (A)
                 (A) (A) (A) (A) (A) (A) (A) (A) (A) (A) (A) (A)
                 (A) (A) (A) (A) (A) (A) (A) (A) (A) (A) (A) (A)
                 (A) (A) (A) (A) (A) (A) (A) (A) (A) (A) (A) (A)
                 (A) (A) (A) (A) (A) (A) (A) (A) (A) (A) (A) (A)
                 (A) (A) (A) (A) (A) (A) (A) (A) (A) (A) (A) (A)
                 (A) (A) (A) (A) (A) (A) (A) (A) (A) (A) (A) (A)
                 (A) (A) (A) (A) (A) (A) (A) (A) (A) (A) (A) (A)
                 (A) (A) (A) (A) (A) (A) (A) (A) (A) (A) (A) (A)
                 (A) (A) (A) (A) (A) (A) (A) (A) (A) (A) (A) (A)
                 (A) (A) (A) (A) (A) (A) (A) (A) (A) (A) (A) (A)
                 (A) (A) (A) (A) (A) (A) (A) (A) (A) (A) (A) (A)
                 (A) (A) (A) (A) (A) (A) (A) (A) (A) (A) (A) (A)
                 (A) (A) (A) (A) (A) (A) (A) (A) (A) (A) (A) (A)
                 (A) (A) (A) (A) (A) (A) (A) (A) (A) (A) (A) (A)
                 (A) (A) (A) (A) (A) (A) (A) (A) (A) (A) (A) (A)
                 (A) (A) (A) (A) (A) (A) (A) (A) (A) (A) (A) (A)
                 (A) (A) (A) (A) (A) (A) (A) (A) (A) (A) (A) (A)
                 (A) (A) (A) (A) (A) (A) (A) (A) (A) (A) (A) (A)
                 (A) (A) (A) (A) (A) (A) (A) (A) (A) (A) (A) (A)
                 (A) (A) (A) (A) (A) (A) (A) (A) (A) (A) (A) (A)
                 (A) (A) (A) (A) (A) (A) (A) (A) (A) (A) (A) (A)
                 (A) (A) (A) (A) (A) (A) (A) (A) (A) (A) (A) (A)
                 (A) (A) (A) (A) (A) (A) (A) (A) (A) (A) (A) (A)
                 (A) (A) (A) (A) (A) (A) (A) (A) (A) (A) (A) (A)
                 (A) (A) (A) (A) (A) (A) (A) (A) (A) (A) (A) (A)
                 (A) (A) (A) (A) (A) (A) (A) (A) (A) (A) (A) (A)
                 (A) (A) (A) (A) (A) (A) (A) (A) (A) (A) (A) (A)
                 (A) (A) (A) (A) (A) (A) (A) (A) (A) (A) (A) (A)
                 (A) (A) (A) (A) (A) (A) (A) (A) (A) (A) (A) (A)
                 (A) (A) (A)
 The electronic state is 1-A.
 Alpha  occ. eigenvalues -- -145.32378 -19.15789 -19.14800 -19.14290 -19.13065
 Alpha  occ. eigenvalues --  -19.11106 -19.10431 -19.10222 -19.09857 -19.09689
 Alpha  occ. eigenvalues --  -19.09120 -19.08346 -19.07557 -19.06424 -19.05239
 Alpha  occ. eigenvalues --  -19.04890 -19.04424 -19.03617 -19.03350 -19.03123
 Alpha  occ. eigenvalues --  -19.03106 -19.02002 -19.01736 -19.01501 -15.38128
 Alpha  occ. eigenvalues --  -14.58284 -14.38956 -14.38190 -14.36004 -14.35432
 Alpha  occ. eigenvalues --  -14.35353 -14.35175 -14.35165 -14.33969 -14.32467
 Alpha  occ. eigenvalues --  -14.31315 -14.30948 -14.29241 -14.28847 -14.28843
 Alpha  occ. eigenvalues --  -12.51751 -12.51698 -12.51684 -10.35904 -10.31640
 Alpha  occ. eigenvalues --  -10.29938 -10.28776 -10.28565 -10.28503 -10.28412
 Alpha  occ. eigenvalues --  -10.27897 -10.27324 -10.27256 -10.26675 -10.26015
 Alpha  occ. eigenvalues --  -10.25957 -10.25921 -10.25633 -10.25442 -10.24506
 Alpha  occ. eigenvalues --  -10.23909 -10.23695 -10.23281 -10.23273 -10.23114
 Alpha  occ. eigenvalues --  -10.22697 -10.22528 -10.22363 -10.21960 -10.21915
 Alpha  occ. eigenvalues --  -10.21855 -10.21803 -10.21502 -10.21258 -10.20836
 Alpha  occ. eigenvalues --  -10.20570 -10.20394 -10.20261 -10.19215 -10.18849
 Alpha  occ. eigenvalues --  -10.18226 -10.18110 -10.17927 -10.17913 -10.17658
 Alpha  occ. eigenvalues --  -10.17518 -10.17460 -10.17349 -10.17134 -10.16860
 Alpha  occ. eigenvalues --  -10.16796 -10.16765 -10.16591 -10.16533 -10.15810
 Alpha  occ. eigenvalues --  -10.15223 -10.14354  -1.75064  -1.13736  -1.06457
 Alpha  occ. eigenvalues --   -1.04336  -1.04044  -1.03579  -1.03438  -1.03095
 Alpha  occ. eigenvalues --   -1.03013  -1.02899  -1.02721  -1.02322  -1.02247
 Alpha  occ. eigenvalues --   -1.02170  -1.01493  -1.00458  -1.00366  -0.99528
 Alpha  occ. eigenvalues --   -0.98716  -0.98553  -0.97677  -0.97490  -0.96955
 Alpha  occ. eigenvalues --   -0.96229  -0.95998  -0.95811  -0.94298  -0.93211
 Alpha  occ. eigenvalues --   -0.92939  -0.92087  -0.91801  -0.91283  -0.89716
 Alpha  occ. eigenvalues --   -0.89622  -0.89173  -0.88834  -0.88397  -0.88152
 Alpha  occ. eigenvalues --   -0.87250  -0.86863  -0.86586  -0.85649  -0.85005
 Alpha  occ. eigenvalues --   -0.83338  -0.83244  -0.82152  -0.81160  -0.79316
 Alpha  occ. eigenvalues --   -0.78173  -0.77832  -0.77448  -0.76683  -0.76593
 Alpha  occ. eigenvalues --   -0.75212  -0.73843  -0.73726  -0.72975  -0.72437
 Alpha  occ. eigenvalues --   -0.72060  -0.71514  -0.71116  -0.70955  -0.69605
 Alpha  occ. eigenvalues --   -0.69347  -0.68959  -0.68533  -0.68103  -0.67373
 Alpha  occ. eigenvalues --   -0.67143  -0.65757  -0.65732  -0.64291  -0.63945
 Alpha  occ. eigenvalues --   -0.63454  -0.63195  -0.62311  -0.62140  -0.61462
 Alpha  occ. eigenvalues --   -0.61345  -0.60581  -0.60317  -0.59787  -0.59580
 Alpha  occ. eigenvalues --   -0.58759  -0.58511  -0.58474  -0.57648  -0.57353
 Alpha  occ. eigenvalues --   -0.57130  -0.56515  -0.56449  -0.55977  -0.55507
 Alpha  occ. eigenvalues --   -0.55303  -0.55058  -0.54852  -0.54510  -0.54249
 Alpha  occ. eigenvalues --   -0.53834  -0.53807  -0.53562  -0.53410  -0.53071
 Alpha  occ. eigenvalues --   -0.52943  -0.52695  -0.52502  -0.51620  -0.51422
 Alpha  occ. eigenvalues --   -0.50589  -0.50541  -0.50142  -0.49940  -0.49718
 Alpha  occ. eigenvalues --   -0.49671  -0.49243  -0.48826  -0.48241  -0.48049
 Alpha  occ. eigenvalues --   -0.47912  -0.47755  -0.47485  -0.47388  -0.47133
 Alpha  occ. eigenvalues --   -0.47036  -0.46413  -0.46262  -0.46090  -0.45883
 Alpha  occ. eigenvalues --   -0.45585  -0.45406  -0.45366  -0.45043  -0.44922
 Alpha  occ. eigenvalues --   -0.44716  -0.44343  -0.43914  -0.43842  -0.43784
 Alpha  occ. eigenvalues --   -0.43653  -0.43576  -0.43397  -0.43080  -0.42921
 Alpha  occ. eigenvalues --   -0.42755  -0.42558  -0.42475  -0.42413  -0.42169
 Alpha  occ. eigenvalues --   -0.41979  -0.41924  -0.41823  -0.41702  -0.41566
 Alpha  occ. eigenvalues --   -0.41278  -0.41119  -0.41080  -0.40891  -0.40862
 Alpha  occ. eigenvalues --   -0.40720  -0.40645  -0.40587  -0.40449  -0.40342
 Alpha  occ. eigenvalues --   -0.40261  -0.40136  -0.39941  -0.39780  -0.39702
 Alpha  occ. eigenvalues --   -0.39406  -0.39262  -0.39141  -0.38968  -0.38871
 Alpha  occ. eigenvalues --   -0.38784  -0.38652  -0.38491  -0.38467  -0.38175
 Alpha  occ. eigenvalues --   -0.38074  -0.37930  -0.37832  -0.37545  -0.37492
 Alpha  occ. eigenvalues --   -0.37416  -0.37233  -0.37067  -0.37010  -0.36962
 Alpha  occ. eigenvalues --   -0.36886  -0.36757  -0.36704  -0.36397  -0.36317
 Alpha  occ. eigenvalues --   -0.36212  -0.36031  -0.35846  -0.35435  -0.35306
 Alpha  occ. eigenvalues --   -0.35112  -0.34917  -0.34627  -0.34008  -0.33960
 Alpha  occ. eigenvalues --   -0.33730  -0.33428  -0.33135  -0.33041  -0.32901
 Alpha  occ. eigenvalues --   -0.32675  -0.32593  -0.32243  -0.31908  -0.31534
 Alpha  occ. eigenvalues --   -0.31405  -0.31298  -0.31210  -0.31165  -0.30937
 Alpha  occ. eigenvalues --   -0.30818  -0.30509  -0.30470  -0.30105  -0.29806
 Alpha  occ. eigenvalues --   -0.28786  -0.28500  -0.27858  -0.27639  -0.27522
 Alpha  occ. eigenvalues --   -0.27000  -0.26971  -0.26612  -0.26566  -0.26132
 Alpha  occ. eigenvalues --   -0.25633  -0.25412  -0.25147  -0.24210  -0.24021
 Alpha  occ. eigenvalues --   -0.23848  -0.23477  -0.23350  -0.23074  -0.22916
 Alpha  occ. eigenvalues --   -0.22786  -0.22497  -0.22296  -0.21878  -0.21415
 Alpha  occ. eigenvalues --   -0.21311  -0.20464  -0.20309  -0.20214  -0.20016
 Alpha  occ. eigenvalues --   -0.19540  -0.19456  -0.19400  -0.19337  -0.18752
 Alpha  occ. eigenvalues --   -0.18193  -0.17967  -0.17359
 Alpha virt. eigenvalues --   -0.09962  -0.05136  -0.04012  -0.01767  -0.01728
 Alpha virt. eigenvalues --   -0.00900  -0.00408  -0.00203   0.00321   0.01011
 Alpha virt. eigenvalues --    0.01134   0.01464   0.01903   0.02249   0.02295
 Alpha virt. eigenvalues --    0.02422   0.02575   0.02619   0.03059   0.03444
 Alpha virt. eigenvalues --    0.03692   0.03841   0.04263   0.04433   0.05350
 Alpha virt. eigenvalues --    0.05449   0.05784   0.05978   0.06065   0.06348
 Alpha virt. eigenvalues --    0.06469   0.06541   0.06639   0.06990   0.07181
 Alpha virt. eigenvalues --    0.07288   0.07611   0.07862   0.07929   0.08035
 Alpha virt. eigenvalues --    0.08279   0.08460   0.08710   0.09075   0.09184
 Alpha virt. eigenvalues --    0.09300   0.09587   0.09631   0.09841   0.10097
 Alpha virt. eigenvalues --    0.10209   0.10324   0.10683   0.10762   0.11032
 Alpha virt. eigenvalues --    0.11176   0.11496   0.11566   0.11811   0.12053
 Alpha virt. eigenvalues --    0.12333   0.12463   0.12601   0.12769   0.12788
 Alpha virt. eigenvalues --    0.13256   0.13270   0.13370   0.13639   0.13722
 Alpha virt. eigenvalues --    0.14016   0.14052   0.14263   0.14493   0.14585
 Alpha virt. eigenvalues --    0.14844   0.14919   0.15141   0.15321   0.15485
 Alpha virt. eigenvalues --    0.15504   0.15720   0.15868   0.16140   0.16239
 Alpha virt. eigenvalues --    0.16474   0.16565   0.16606   0.16743   0.16975
 Alpha virt. eigenvalues --    0.17303   0.17404   0.17485   0.17750   0.17992
 Alpha virt. eigenvalues --    0.18368   0.18412   0.18732   0.18792   0.19069
 Alpha virt. eigenvalues --    0.19184   0.19407   0.19561   0.19682   0.19932
 Alpha virt. eigenvalues --    0.20173   0.20313   0.20467   0.20580   0.20826
 Alpha virt. eigenvalues --    0.20910   0.21366   0.21521   0.21690   0.21975
 Alpha virt. eigenvalues --    0.22141   0.22270   0.22519   0.22698   0.23244
 Alpha virt. eigenvalues --    0.23358   0.23501   0.23580   0.23880   0.24096
 Alpha virt. eigenvalues --    0.24549   0.24647   0.24794   0.24918   0.25064
 Alpha virt. eigenvalues --    0.25394   0.25641   0.25735   0.25915   0.26204
 Alpha virt. eigenvalues --    0.26276   0.26455   0.26884   0.27081   0.27192
 Alpha virt. eigenvalues --    0.27378   0.27590   0.27808   0.28078   0.28461
 Alpha virt. eigenvalues --    0.28881   0.29058   0.29217   0.29615   0.29773
 Alpha virt. eigenvalues --    0.29956   0.30024   0.30126   0.30417   0.30475
 Alpha virt. eigenvalues --    0.30589   0.30965   0.31080   0.31599   0.31690
 Alpha virt. eigenvalues --    0.31801   0.31955   0.32253   0.32370   0.32585
 Alpha virt. eigenvalues --    0.32891   0.32997   0.33300   0.33771   0.34314
 Alpha virt. eigenvalues --    0.34469   0.34641   0.35236   0.35556   0.35715
 Alpha virt. eigenvalues --    0.35879   0.36454   0.36848   0.37211   0.37379
 Alpha virt. eigenvalues --    0.37548   0.37858   0.37924   0.38122   0.38328
 Alpha virt. eigenvalues --    0.38512   0.38538   0.38960   0.39485   0.39531
 Alpha virt. eigenvalues --    0.39685   0.39945   0.40262   0.40492   0.40689
 Alpha virt. eigenvalues --    0.41112   0.41221   0.41670   0.41935   0.42311
 Alpha virt. eigenvalues --    0.42607   0.42761   0.43074   0.43107   0.43389
 Alpha virt. eigenvalues --    0.43772   0.43972   0.44038   0.44394   0.44656
 Alpha virt. eigenvalues --    0.44978   0.45211   0.45330   0.45554   0.45920
 Alpha virt. eigenvalues --    0.46036   0.46080   0.46494   0.46580   0.46724
 Alpha virt. eigenvalues --    0.46790   0.47145   0.47301   0.47419   0.47728
 Alpha virt. eigenvalues --    0.47901   0.48055   0.48149   0.48374   0.48598
 Alpha virt. eigenvalues --    0.48749   0.48934   0.48987   0.49487   0.49694
 Alpha virt. eigenvalues --    0.49769   0.49910   0.50100   0.50225   0.50437
 Alpha virt. eigenvalues --    0.50575   0.50748   0.50909   0.51187   0.51242
 Alpha virt. eigenvalues --    0.51437   0.51689   0.52241   0.52444   0.52531
 Alpha virt. eigenvalues --    0.52586   0.52954   0.53069   0.53359   0.53475
 Alpha virt. eigenvalues --    0.53691   0.53819   0.54158   0.54345   0.54479
 Alpha virt. eigenvalues --    0.54568   0.54799   0.54850   0.55094   0.55359
 Alpha virt. eigenvalues --    0.55526   0.55623   0.55712   0.55871   0.56225
 Alpha virt. eigenvalues --    0.56243   0.56378   0.56480   0.56955   0.57149
 Alpha virt. eigenvalues --    0.57280   0.57370   0.57516   0.57590   0.58068
 Alpha virt. eigenvalues --    0.58106   0.58319   0.58494   0.58768   0.58859
 Alpha virt. eigenvalues --    0.59296   0.59399   0.59417   0.59580   0.59636
 Alpha virt. eigenvalues --    0.59785   0.59913   0.60012   0.60097   0.60515
 Alpha virt. eigenvalues --    0.60609   0.60861   0.61032   0.61140   0.61221
 Alpha virt. eigenvalues --    0.61381   0.61451   0.61657   0.61837   0.61990
 Alpha virt. eigenvalues --    0.62058   0.62206   0.62335   0.62477   0.62691
 Alpha virt. eigenvalues --    0.62762   0.62820   0.62947   0.63131   0.63282
 Alpha virt. eigenvalues --    0.63555   0.63640   0.63691   0.63823   0.63864
 Alpha virt. eigenvalues --    0.64051   0.64151   0.64237   0.64366   0.64412
 Alpha virt. eigenvalues --    0.64674   0.64717   0.64865   0.65039   0.65110
 Alpha virt. eigenvalues --    0.65293   0.65407   0.65526   0.65559   0.65789
 Alpha virt. eigenvalues --    0.65808   0.65903   0.66029   0.66056   0.66309
 Alpha virt. eigenvalues --    0.66368   0.66448   0.66621   0.66740   0.66810
 Alpha virt. eigenvalues --    0.66825   0.66949   0.67005   0.67182   0.67265
 Alpha virt. eigenvalues --    0.67274   0.67500   0.67583   0.67709   0.67956
 Alpha virt. eigenvalues --    0.68163   0.68234   0.68337   0.68429   0.68490
 Alpha virt. eigenvalues --    0.68677   0.68797   0.68902   0.69014   0.69109
 Alpha virt. eigenvalues --    0.69201   0.69307   0.69407   0.69470   0.69769
 Alpha virt. eigenvalues --    0.69867   0.69918   0.70019   0.70285   0.70423
 Alpha virt. eigenvalues --    0.70490   0.70615   0.70818   0.71130   0.71215
 Alpha virt. eigenvalues --    0.71427   0.71532   0.71648   0.71660   0.71949
 Alpha virt. eigenvalues --    0.72053   0.72104   0.72326   0.72442   0.72489
 Alpha virt. eigenvalues --    0.72762   0.72915   0.73045   0.73179   0.73243
 Alpha virt. eigenvalues --    0.73286   0.73651   0.73789   0.73980   0.74131
 Alpha virt. eigenvalues --    0.74258   0.74391   0.74464   0.74821   0.75068
 Alpha virt. eigenvalues --    0.75133   0.75281   0.75547   0.75711   0.75962
 Alpha virt. eigenvalues --    0.76042   0.76260   0.76639   0.76739   0.76775
 Alpha virt. eigenvalues --    0.76855   0.77169   0.77228   0.77474   0.77773
 Alpha virt. eigenvalues --    0.78161   0.78279   0.78515   0.79079   0.79101
 Alpha virt. eigenvalues --    0.79531   0.79609   0.79802   0.79874   0.80308
 Alpha virt. eigenvalues --    0.80830   0.81068   0.81106   0.81300   0.81682
 Alpha virt. eigenvalues --    0.82055   0.82287   0.82791   0.82914   0.83262
 Alpha virt. eigenvalues --    0.83415   0.83702   0.84018   0.84391   0.84515
 Alpha virt. eigenvalues --    0.85108   0.85559   0.85701   0.85926   0.86112
 Alpha virt. eigenvalues --    0.86326   0.86689   0.86939   0.87188   0.87334
 Alpha virt. eigenvalues --    0.87568   0.87651   0.88000   0.88181   0.88405
 Alpha virt. eigenvalues --    0.88851   0.89040   0.89125   0.89554   0.89891
 Alpha virt. eigenvalues --    0.89970   0.90360   0.90521   0.90796   0.91200
 Alpha virt. eigenvalues --    0.91577   0.91887   0.91972   0.92179   0.92770
 Alpha virt. eigenvalues --    0.93037   0.93592   0.93680   0.94024   0.94630
 Alpha virt. eigenvalues --    0.94756   0.95085   0.95351   0.95551   0.95832
 Alpha virt. eigenvalues --    0.95903   0.96142   0.96696   0.96921   0.96958
 Alpha virt. eigenvalues --    0.97313   0.97403   0.97832   0.97961   0.98159
 Alpha virt. eigenvalues --    0.98404   0.98618   0.98982   0.99224   0.99534
 Alpha virt. eigenvalues --    0.99642   0.99835   1.00442   1.00818   1.01280
 Alpha virt. eigenvalues --    1.01319   1.01828   1.02035   1.02490   1.02654
 Alpha virt. eigenvalues --    1.03152   1.03895   1.04288   1.04493   1.04813
 Alpha virt. eigenvalues --    1.04996   1.05171   1.05512   1.05991   1.06408
 Alpha virt. eigenvalues --    1.06582   1.06886   1.06954   1.07119   1.07446
 Alpha virt. eigenvalues --    1.07656   1.08184   1.08323   1.08410   1.08856
 Alpha virt. eigenvalues --    1.09228   1.09484   1.09744   1.09829   1.10216
 Alpha virt. eigenvalues --    1.10400   1.10849   1.11062   1.11291   1.11689
 Alpha virt. eigenvalues --    1.12006   1.12305   1.12475   1.12713   1.13271
 Alpha virt. eigenvalues --    1.13483   1.13533   1.13684   1.14051   1.14354
 Alpha virt. eigenvalues --    1.14469   1.14909   1.15190   1.15315   1.15632
 Alpha virt. eigenvalues --    1.15758   1.16583   1.16749   1.16953   1.17084
 Alpha virt. eigenvalues --    1.17379   1.17804   1.17844   1.18167   1.18457
 Alpha virt. eigenvalues --    1.18778   1.19022   1.19283   1.19504   1.19838
 Alpha virt. eigenvalues --    1.20120   1.20606   1.20713   1.21112   1.21196
 Alpha virt. eigenvalues --    1.21426   1.21653   1.21963   1.22090   1.22516
 Alpha virt. eigenvalues --    1.22723   1.22967   1.23407   1.23588   1.23985
 Alpha virt. eigenvalues --    1.24088   1.24177   1.24617   1.24792   1.24996
 Alpha virt. eigenvalues --    1.25452   1.25673   1.25952   1.26122   1.26226
 Alpha virt. eigenvalues --    1.26625   1.26899   1.27176   1.27239   1.27353
 Alpha virt. eigenvalues --    1.27465   1.27702   1.27990   1.28442   1.28503
 Alpha virt. eigenvalues --    1.29004   1.29292   1.29530   1.29705   1.30154
 Alpha virt. eigenvalues --    1.30448   1.30746   1.30959   1.31420   1.31584
 Alpha virt. eigenvalues --    1.31731   1.31910   1.32279   1.32600   1.32839
 Alpha virt. eigenvalues --    1.33024   1.33440   1.33532   1.33834   1.34181
 Alpha virt. eigenvalues --    1.34416   1.34717   1.34936   1.35096   1.35303
 Alpha virt. eigenvalues --    1.35464   1.35787   1.36278   1.36559   1.36756
 Alpha virt. eigenvalues --    1.36978   1.37312   1.37348   1.38053   1.38334
 Alpha virt. eigenvalues --    1.38697   1.39128   1.39480   1.39836   1.40170
 Alpha virt. eigenvalues --    1.40490   1.40795   1.40869   1.41064   1.41158
 Alpha virt. eigenvalues --    1.41915   1.42015   1.42370   1.42724   1.43020
 Alpha virt. eigenvalues --    1.43351   1.43515   1.43712   1.43962   1.44563
 Alpha virt. eigenvalues --    1.44972   1.45140   1.45373   1.45534   1.46156
 Alpha virt. eigenvalues --    1.46525   1.46763   1.47006   1.47219   1.47447
 Alpha virt. eigenvalues --    1.47606   1.47789   1.47980   1.48144   1.48442
 Alpha virt. eigenvalues --    1.48951   1.49104   1.49309   1.49685   1.49807
 Alpha virt. eigenvalues --    1.50062   1.50237   1.50626   1.50734   1.51141
 Alpha virt. eigenvalues --    1.51455   1.51631   1.51870   1.52262   1.52618
 Alpha virt. eigenvalues --    1.52829   1.53195   1.53381   1.53826   1.54124
 Alpha virt. eigenvalues --    1.54255   1.54372   1.54812   1.54850   1.54999
 Alpha virt. eigenvalues --    1.55466   1.56214   1.56524   1.56910   1.57023
 Alpha virt. eigenvalues --    1.57378   1.57837   1.58327   1.58642   1.59019
 Alpha virt. eigenvalues --    1.59291   1.59633   1.60109   1.60394   1.60726
 Alpha virt. eigenvalues --    1.60807   1.60977   1.61572   1.62151   1.62332
 Alpha virt. eigenvalues --    1.62543   1.62680   1.63015   1.63408   1.63695
 Alpha virt. eigenvalues --    1.63783   1.64163   1.64534   1.64843   1.65504
 Alpha virt. eigenvalues --    1.65689   1.65921   1.66272   1.66847   1.67252
 Alpha virt. eigenvalues --    1.67454   1.68139   1.68320   1.68375   1.68600
 Alpha virt. eigenvalues --    1.68822   1.68868   1.69119   1.69496   1.69616
 Alpha virt. eigenvalues --    1.69886   1.70208   1.70533   1.71036   1.71095
 Alpha virt. eigenvalues --    1.71403   1.71432   1.71638   1.71891   1.72188
 Alpha virt. eigenvalues --    1.72374   1.72630   1.72666   1.72694   1.72935
 Alpha virt. eigenvalues --    1.73108   1.73474   1.73875   1.73889   1.74371
 Alpha virt. eigenvalues --    1.74401   1.74844   1.74955   1.75174   1.75276
 Alpha virt. eigenvalues --    1.75695   1.75911   1.76171   1.76283   1.76440
 Alpha virt. eigenvalues --    1.76657   1.76740   1.76945   1.77235   1.77275
 Alpha virt. eigenvalues --    1.77454   1.77530   1.77578   1.77909   1.77959
 Alpha virt. eigenvalues --    1.78095   1.78341   1.78450   1.78569   1.78773
 Alpha virt. eigenvalues --    1.78869   1.79026   1.79102   1.79526   1.79703
 Alpha virt. eigenvalues --    1.79772   1.79969   1.80175   1.80385   1.80550
 Alpha virt. eigenvalues --    1.80619   1.81041   1.81260   1.81496   1.81532
 Alpha virt. eigenvalues --    1.81571   1.81818   1.81938   1.82084   1.82333
 Alpha virt. eigenvalues --    1.82723   1.82882   1.83206   1.83317   1.83667
 Alpha virt. eigenvalues --    1.83767   1.83849   1.84075   1.84382   1.84605
 Alpha virt. eigenvalues --    1.84713   1.84974   1.85048   1.85250   1.85356
 Alpha virt. eigenvalues --    1.85594   1.85678   1.85885   1.86121   1.86180
 Alpha virt. eigenvalues --    1.86363   1.86521   1.86656   1.86807   1.86913
 Alpha virt. eigenvalues --    1.87022   1.87344   1.87653   1.87718   1.88077
 Alpha virt. eigenvalues --    1.88083   1.88277   1.88370   1.88607   1.88659
 Alpha virt. eigenvalues --    1.88813   1.88997   1.89032   1.89196   1.89524
 Alpha virt. eigenvalues --    1.89665   1.89714   1.90076   1.90210   1.90555
 Alpha virt. eigenvalues --    1.90718   1.90827   1.91077   1.91145   1.91329
 Alpha virt. eigenvalues --    1.91671   1.92111   1.92545   1.92808   1.92855
 Alpha virt. eigenvalues --    1.93204   1.93301   1.93709   1.94067   1.94258
 Alpha virt. eigenvalues --    1.94476   1.94599   1.94792   1.95212   1.95736
 Alpha virt. eigenvalues --    1.95923   1.96097   1.96220   1.96422   1.96576
 Alpha virt. eigenvalues --    1.96733   1.96982   1.97027   1.97482   1.97729
 Alpha virt. eigenvalues --    1.97860   1.98130   1.98439   1.98605   1.98757
 Alpha virt. eigenvalues --    1.98878   1.99077   1.99375   1.99558   1.99705
 Alpha virt. eigenvalues --    1.99791   1.99967   2.00161   2.00552   2.00720
 Alpha virt. eigenvalues --    2.00984   2.01175   2.01310   2.01669   2.01937
 Alpha virt. eigenvalues --    2.02155   2.02486   2.02701   2.02729   2.03034
 Alpha virt. eigenvalues --    2.03179   2.03529   2.03594   2.04093   2.04459
 Alpha virt. eigenvalues --    2.04954   2.05088   2.05202   2.05375   2.05517
 Alpha virt. eigenvalues --    2.05895   2.06050   2.06279   2.06604   2.06726
 Alpha virt. eigenvalues --    2.07026   2.07211   2.07494   2.07653   2.07921
 Alpha virt. eigenvalues --    2.08097   2.08431   2.08741   2.08896   2.09157
 Alpha virt. eigenvalues --    2.09371   2.10176   2.10267   2.10572   2.10654
 Alpha virt. eigenvalues --    2.11173   2.11221   2.11439   2.11792   2.12271
 Alpha virt. eigenvalues --    2.12564   2.13127   2.13523   2.13914   2.13984
 Alpha virt. eigenvalues --    2.14196   2.14538   2.14700   2.15212   2.15834
 Alpha virt. eigenvalues --    2.16022   2.16221   2.16318   2.16403   2.16581
 Alpha virt. eigenvalues --    2.16765   2.17160   2.17445   2.18189   2.18538
 Alpha virt. eigenvalues --    2.18617   2.18774   2.18875   2.19127   2.19523
 Alpha virt. eigenvalues --    2.19870   2.20214   2.20488   2.21090   2.21525
 Alpha virt. eigenvalues --    2.21788   2.21852   2.22033   2.22327   2.22758
 Alpha virt. eigenvalues --    2.23104   2.23344   2.23774   2.23819   2.24380
 Alpha virt. eigenvalues --    2.25163   2.25514   2.25876   2.26135   2.26278
 Alpha virt. eigenvalues --    2.26591   2.27175   2.27397   2.27844   2.28720
 Alpha virt. eigenvalues --    2.28746   2.28849   2.28949   2.29171   2.29366
 Alpha virt. eigenvalues --    2.29882   2.30055   2.30275   2.30444   2.30984
 Alpha virt. eigenvalues --    2.31123   2.31957   2.32097   2.32515   2.32817
 Alpha virt. eigenvalues --    2.32854   2.33102   2.33297   2.33760   2.34524
 Alpha virt. eigenvalues --    2.34875   2.34907   2.35610   2.36047   2.36165
 Alpha virt. eigenvalues --    2.36493   2.36684   2.36878   2.37875   2.38331
 Alpha virt. eigenvalues --    2.38428   2.38556   2.38709   2.38837   2.39129
 Alpha virt. eigenvalues --    2.39238   2.39515   2.39866   2.40073   2.40224
 Alpha virt. eigenvalues --    2.40299   2.40368   2.41034   2.41407   2.42041
 Alpha virt. eigenvalues --    2.42310   2.42453   2.42784   2.42978   2.43374
 Alpha virt. eigenvalues --    2.43454   2.43735   2.43906   2.44074   2.44293
 Alpha virt. eigenvalues --    2.44525   2.45496   2.45937   2.46644   2.46752
 Alpha virt. eigenvalues --    2.47122   2.47195   2.47417   2.48295   2.48414
 Alpha virt. eigenvalues --    2.48475   2.49123   2.49198   2.49358   2.49869
 Alpha virt. eigenvalues --    2.50125   2.51164   2.51442   2.51733   2.52096
 Alpha virt. eigenvalues --    2.52178   2.52975   2.53096   2.53606   2.53871
 Alpha virt. eigenvalues --    2.54267   2.54840   2.54985   2.55479   2.56017
 Alpha virt. eigenvalues --    2.56098   2.56375   2.56498   2.56859   2.57159
 Alpha virt. eigenvalues --    2.57406   2.57779   2.57989   2.58492   2.59357
 Alpha virt. eigenvalues --    2.59571   2.59920   2.60478   2.60755   2.60893
 Alpha virt. eigenvalues --    2.60962   2.61175   2.61391   2.61569   2.62096
 Alpha virt. eigenvalues --    2.62440   2.62764   2.63370   2.63766   2.64296
 Alpha virt. eigenvalues --    2.64320   2.64330   2.64842   2.64935   2.65123
 Alpha virt. eigenvalues --    2.65212   2.65363   2.65430   2.65616   2.66113
 Alpha virt. eigenvalues --    2.66248   2.66564   2.66710   2.67208   2.67636
 Alpha virt. eigenvalues --    2.68141   2.68861   2.69285   2.69842   2.70036
 Alpha virt. eigenvalues --    2.70513   2.70827   2.70989   2.71446   2.71671
 Alpha virt. eigenvalues --    2.71703   2.72315   2.72623   2.72698   2.72928
 Alpha virt. eigenvalues --    2.73177   2.73466   2.73632   2.73792   2.73901
 Alpha virt. eigenvalues --    2.74355   2.74642   2.75036   2.75353   2.75368
 Alpha virt. eigenvalues --    2.75687   2.76280   2.76308   2.76580   2.76735
 Alpha virt. eigenvalues --    2.76838   2.77088   2.77214   2.77450   2.77534
 Alpha virt. eigenvalues --    2.77718   2.78084   2.78312   2.78534   2.78783
 Alpha virt. eigenvalues --    2.78964   2.79346   2.79606   2.79997   2.80476
 Alpha virt. eigenvalues --    2.80550   2.81013   2.81360   2.81622   2.81921
 Alpha virt. eigenvalues --    2.82089   2.82538   2.82649   2.82871   2.83316
 Alpha virt. eigenvalues --    2.83397   2.83600   2.83683   2.84184   2.84502
 Alpha virt. eigenvalues --    2.84983   2.85637   2.85680   2.86084   2.86598
 Alpha virt. eigenvalues --    2.86880   2.87036   2.87446   2.87738   2.88121
 Alpha virt. eigenvalues --    2.88274   2.88615   2.88728   2.89273   2.89749
 Alpha virt. eigenvalues --    2.90068   2.90353   2.90397   2.90542   2.90685
 Alpha virt. eigenvalues --    2.91509   2.91566   2.91679   2.91936   2.92076
 Alpha virt. eigenvalues --    2.92369   2.92655   2.93066   2.93182   2.93841
 Alpha virt. eigenvalues --    2.93903   2.94200   2.94625   2.94675   2.95038
 Alpha virt. eigenvalues --    2.95079   2.95412   2.95740   2.95984   2.96702
 Alpha virt. eigenvalues --    2.97294   2.97489   2.97854   2.97887   2.98421
 Alpha virt. eigenvalues --    2.98495   2.98651   2.99197   2.99573   2.99672
 Alpha virt. eigenvalues --    2.99970   3.00374   3.00695   3.00887   3.01226
 Alpha virt. eigenvalues --    3.01382   3.01881   3.02075   3.02493   3.02878
 Alpha virt. eigenvalues --    3.03196   3.03677   3.04111   3.04551   3.05036
 Alpha virt. eigenvalues --    3.05053   3.05484   3.05615   3.05854   3.06782
 Alpha virt. eigenvalues --    3.07127   3.07388   3.08970   3.09810   3.10347
 Alpha virt. eigenvalues --    3.11672   3.11828   3.12369   3.12447   3.12902
 Alpha virt. eigenvalues --    3.13263   3.13482   3.13665   3.14480   3.14904
 Alpha virt. eigenvalues --    3.15462   3.15818   3.16292   3.16441   3.17218
 Alpha virt. eigenvalues --    3.17353   3.17626   3.18080   3.18288   3.18796
 Alpha virt. eigenvalues --    3.19155   3.19559   3.19690   3.20025   3.20125
 Alpha virt. eigenvalues --    3.20200   3.20390   3.20674   3.21738   3.21881
 Alpha virt. eigenvalues --    3.21976   3.22313   3.22637   3.22882   3.23510
 Alpha virt. eigenvalues --    3.23914   3.24348   3.24631   3.24753   3.24885
 Alpha virt. eigenvalues --    3.25551   3.25997   3.27279   3.28086   3.28372
 Alpha virt. eigenvalues --    3.29144   3.30207   3.30560   3.31146   3.31564
 Alpha virt. eigenvalues --    3.31751   3.32174   3.32959   3.34303   3.35710
 Alpha virt. eigenvalues --    3.35856   3.36381   3.36860   3.37550   3.39241
 Alpha virt. eigenvalues --    3.42513   3.44027   3.50210   3.51966   3.52166
 Alpha virt. eigenvalues --    3.52661   3.52777   3.54201   3.56315   3.56558
 Alpha virt. eigenvalues --    3.56991   3.57312   3.58918   3.59067   3.59328
 Alpha virt. eigenvalues --    3.60127   3.61144   3.61940   3.63061   3.63854
 Alpha virt. eigenvalues --    3.64834   3.66025   3.68104   3.68579   3.68755
 Alpha virt. eigenvalues --    3.69558   3.69859   3.70087   3.70322   3.70851
 Alpha virt. eigenvalues --    3.71945   3.72086   3.72659   3.72885   3.73283
 Alpha virt. eigenvalues --    3.73865   3.74011   3.74851   3.75266   3.76972
 Alpha virt. eigenvalues --    3.77560   3.79918   3.83009   3.83875
          Condensed to atoms (all electrons):
 Mulliken charges:
               1
     1  C    0.029250
     2  C    0.032683
     3  O   -0.278555
     4  H    0.050812
     5  H   -0.007540
     6  H    0.026285
     7  N   -0.142965
     8  C    0.037933
     9  C    0.076048
    10  O   -0.266179
    11  C    0.119520
    12  C    0.150671
    13  O   -0.474042
    14  O   -0.374505
    15  H    0.106985
    16  H    0.062838
    17  H   -0.013331
    18  H    0.014537
    19  N   -0.134714
    20  C    0.169524
    21  C    0.056601
    22  O   -0.278494
    23  C    0.018765
    24  C    0.013031
    25  C   -0.074037
    26  C    0.065527
    27  N    0.062955
    28  H    0.137217
    29  H   -0.000643
    30  H    0.025422
    31  H    0.019818
    32  H   -0.017964
    33  H    0.003072
    34  H    0.037040
    35  H    0.043823
    36  H    0.087487
    37  H    0.066867
    38  H    0.200201
    39  H    0.200457
    40  H    0.188403
    41  N   -0.137829
    42  C    0.107036
    43  C    0.066733
    44  O   -0.285530
    45  C    0.144181
    46  C    0.079782
    47  O   -0.457500
    48  O   -0.399237
    49  H    0.123920
    50  H    0.013789
    51  H   -0.021110
    52  H    0.006224
    53  N   -0.178019
    54  C    0.253333
    55  C    0.024104
    56  O   -0.307371
    57  H    0.156219
    58  H    0.020501
    59  H    0.027109
    60  N   -0.140217
    61  C    0.158815
    62  C    0.041260
    63  O   -0.284649
    64  C    0.075145
    65  C    0.074294
    66  N   -0.038266
    67  O   -0.331600
    68  H    0.150743
    69  H    0.019953
    70  H    0.061750
    71  H   -0.004771
    72  H    0.125244
    73  H    0.120639
    74  N   -0.182941
    75  C    0.226255
    76  C    0.021370
    77  O   -0.295990
    78  H    0.147152
    79  H    0.026205
    80  H    0.026854
    81  N   -0.130230
    82  C    0.095927
    83  C    0.132400
    84  O   -0.338588
    85  C    0.149244
    86  C    0.025033
    87  C    0.009518
    88  C    0.013520
    89  C   -0.007732
    90  C   -0.041432
    91  C    0.149380
    92  O   -0.191920
    93  H    0.155937
    94  H   -0.006812
    95  H   -0.000897
    96  H   -0.045828
    97  H   -0.015407
    98  H   -0.087909
    99  H   -0.019953
   100  H   -0.053275
   101  H    0.163223
   102  N   -0.116416
   103  C    0.108306
   104  C    0.073823
   105  O   -0.283370
   106  C   -0.116918
   107  C    0.002736
   108  C    0.079507
   109  C    0.056773
   110  H    0.122145
   111  H    0.026430
   112  H   -0.026564
   113  H    0.010610
   114  H    0.013743
   115  H   -0.015215
   116  H    0.004684
   117  H    0.057010
   118  H    0.010525
   119  H   -0.021183
   120  H    0.004921
   121  N   -0.137456
   122  C    0.112379
   123  C    0.078150
   124  O   -0.265732
   125  C    0.231318
   126  O   -0.280250
   127  H    0.165060
   128  H    0.036176
   129  H    0.008325
   130  H   -0.033564
   131  H    0.168338
   132  N   -0.135390
   133  C    0.070238
   134  C    0.080608
   135  O   -0.250898
   136  C    0.040583
   137  H    0.110043
   138  H    0.019125
   139  H    0.012599
   140  H    0.026863
   141  H    0.033921
   142  N   -0.134595
   143  C    0.105762
   144  C    0.048890
   145  O   -0.251413
   146  C    0.046410
   147  H    0.106331
   148  H    0.013364
   149  H    0.005941
   150  H    0.006613
   151  H    0.040602
   152  N   -0.155824
   153  C    0.087076
   154  C    0.106938
   155  O   -0.305373
   156  C    0.070659
   157  C    0.035259
   158  C    0.124410
   159  O   -0.400684
   160  O   -0.433312
   161  H    0.115411
   162  H   -0.004762
   163  H   -0.005635
   164  H    0.020299
   165  H   -0.001568
   166  H   -0.037705
   167  N   -0.172313
   168  C    0.128031
   169  H    0.032672
   170  H    0.014227
   171  H    0.011484
   172  H    0.137536
   173  Ca   1.266816
   174  O   -0.258430
   175  H    0.146428
   176  H    0.179894
 Sum of Mulliken charges =  -0.00000
 Mulliken charges with hydrogens summed into heavy atoms:
               1
     1  C    0.098807
     2  C    0.032683
     3  O   -0.278555
     7  N   -0.035980
     8  C    0.100770
     9  C    0.076048
    10  O   -0.266179
    11  C    0.120726
    12  C    0.150671
    13  O   -0.474042
    14  O   -0.374505
    19  N    0.002502
    20  C    0.168881
    21  C    0.056601
    22  O   -0.278494
    23  C    0.064006
    24  C   -0.001861
    25  C    0.006827
    26  C    0.219880
    27  N    0.652015
    41  N   -0.013909
    42  C    0.120825
    43  C    0.066733
    44  O   -0.285530
    45  C    0.129295
    46  C    0.079782
    47  O   -0.457500
    48  O   -0.399237
    53  N   -0.021799
    54  C    0.300943
    55  C    0.024104
    56  O   -0.307371
    60  N    0.010526
    61  C    0.178768
    62  C    0.041260
    63  O   -0.284649
    64  C    0.132124
    65  C    0.074294
    66  N    0.207617
    67  O   -0.331600
    74  N   -0.035788
    75  C    0.279315
    76  C    0.021370
    77  O   -0.295990
    81  N    0.025707
    82  C    0.089115
    83  C    0.132400
    84  O   -0.338588
    85  C    0.102519
    86  C    0.025033
    87  C   -0.005889
    88  C   -0.074389
    89  C   -0.027685
    90  C   -0.094707
    91  C    0.149380
    92  O   -0.028697
   102  N    0.005729
   103  C    0.134736
   104  C    0.073823
   105  O   -0.283370
   106  C   -0.143482
   107  C    0.027089
   108  C    0.125987
   109  C    0.051036
   121  N    0.027604
   122  C    0.148555
   123  C    0.078150
   124  O   -0.265732
   125  C    0.206080
   126  O   -0.111911
   132  N   -0.025348
   133  C    0.089363
   134  C    0.080608
   135  O   -0.250898
   136  C    0.113966
   142  N   -0.028264
   143  C    0.119126
   144  C    0.048890
   145  O   -0.251413
   146  C    0.099565
   152  N   -0.040413
   153  C    0.082315
   154  C    0.106938
   155  O   -0.305373
   156  C    0.085323
   157  C   -0.004014
   158  C    0.124410
   159  O   -0.400684
   160  O   -0.433312
   167  N   -0.034777
   168  C    0.186414
   173  Ca   1.266816
   174  O    0.067892
 DipInt: DoE/N= T F RetVal/Mat= T F Init=T NMatP=  1 IDeriv=0 Min/MaxMlt=  0  4
 Entering OneElI...
 OneElI was handed  1333951383 working-precision words.
 Multipole integrals L=0 to 4 MinM= 0 MaxM= 0.
 Requested accuracy = 0.1000D-12
 ShPair: Thresh= 1.00D-13 NBox=     0 BxSize= 0.00D+00 RnKept= 2.55D+01
         NSMCal=               327645 NSMKep=              155321
 PrmmSu-InSpLW:  IPartL=    0 NPrtUS=    1 NPrtUL=    1 DoSpLW=F IThBeg=    0 IThEnd=    0 NThAct=    1.
 PrsmSu:  NPrtUS=   1 ThrOK=F IAlg=1 NPAlg=1 LenDen=           0 ISkipM=0 DoSpLW=F IThBeg=    0 IThEnd=    0.
 Prism:   IPart=     0 DynPar=F LinDyn=F Incr=         512.
 PRISM was handed  1324093391 working-precision words and155321 shell-pairs
 IPart=  0 NShTot=      155321 NBatch=         355 AvBLen=       437.5
 PrsmSu-ThDecC:  IPartSL=    0    0 NPrtUSL=    1    1 IThBeg=    0 IThEnd=    0 CPU=   -1 GPU=   -1 NThAct=    1.
 PrSmSu:  NxtVal=            513.
 Electronic moments (au):
       -716.00000000         13.48426579          1.89229885         -0.98354753
     -51987.41824603     -37040.40155650     -10288.02289000        108.42408599
         39.26377746         85.29760345     -66349.97424423     -64288.08175133
      -7260.71147788       9681.24914271     117817.86532501      33511.81819127
      -6057.57288379       2482.18104759       1114.08594074     -29956.41479960
   -7445543.89396338   -4452538.23731184    -427576.80628790      63395.41037078
     353712.64271216    -880824.05528890     -63691.91747429      -2444.85367223
      29167.13645305   -2725744.71108215    -584152.83761282    -307524.87680615
    -212144.93136419    -147906.40764329      28554.38045223
 Electronic spatial extent (au):  <R**2>=          99315.8427
 DipInt: DoE/N= F T RetVal/Mat= T F Init=T NMatP=  1 IDeriv=0 Min/MaxMlt=  0  4
 Nuclear    moments (au):
        716.00000000          0.00000000          0.00000000          0.00000000
      51514.83770387      36766.23019093       9914.24272842         -0.00000000
          0.00000000          0.00000000      67492.93380692      65787.27326727
       7000.86280586      -7075.75746998    -117476.80950242     -33787.03035081
       6257.85569083      -2548.26172593       -858.07349947      30078.19297009
    7239553.19720190    4349944.79037286     394517.52708768     -53778.64335845
    -347214.95452252     902135.01609213      74258.23718402       4017.64810094
     -26352.03680154    2689414.33332357     551237.55085812     282413.63932777
     220804.73231450     151738.08803852     -26817.11816093
 Total      moments (au):
          0.00000000         13.48426579          1.89229885         -0.98354753
       -472.58054216       -274.17136556       -373.78016158        108.42408599
         39.26377746         85.29760345       1142.95956269       1499.19151594
       -259.84867203       2605.49167273        341.05582259       -275.21215954
        200.28280705        -66.08067834        256.01244127        121.77817049
    -205990.69676148    -102593.44693898     -33059.27920022       9616.76701232
       6497.68818964      21310.96080323      10566.31970972       1572.79442870
       2815.09965151     -36330.37775858     -32915.28675470     -25111.23747838
       8659.80095031       3831.68039523       1737.26229129
 Traceless Quadrup. (au):
        -99.06985239         99.33932420         -0.26947181        108.42408599
         39.26377746         85.29760345
 Charge=              0.0000 electrons
 Dipole moment (field-independent basis, Debye):
    X=             34.2736    Y=              4.8097    Z=             -2.4999  Tot=             34.6996
 Quadrupole moment (field-independent basis, Debye-Ang):
   XX=           -635.6370   YY=           -368.7699   ZZ=           -502.7471
   XY=            145.8341   XZ=             52.8111   YZ=            114.7282
 Traceless Quadrupole moment (field-independent basis, Debye-Ang):
   XX=           -133.2523   YY=            133.6148   ZZ=             -0.3624
   XY=            145.8341   XZ=             52.8111   YZ=            114.7282
 Octapole moment (field-independent basis, Debye-Ang**2):
  XXX=            813.5146  YYY=           1067.0668  ZZZ=           -184.9503  XYY=           1854.4886
  XXY=            242.7504  XXZ=           -195.8854  XZZ=            142.5536  YZZ=            -47.0337
  YYZ=            182.2198  XYZ=             86.6770
 Hexadecapole moment (field-independent basis, Debye-Ang**3):
 XXXX=         -77585.9740 YYYY=         -38641.6116 ZZZZ=         -12451.7098 XXXY=           3622.1356
 XXXZ=           2447.3409 YYYX=           8026.7297 YYYZ=           3979.7827 ZZZX=            592.3898
 ZZZY=           1060.3015 XXYY=         -13683.7624 XXZZ=         -12397.4753 YYZZ=          -9458.0962
 XXYZ=           3261.6963 YYXZ=           1443.1946 ZZXY=            654.3363
 N-N= 2.141745586348D+04 E-N=-5.532206970142D+04  KE= 5.290563253185D+03
 Leave Link  601 at Sun Sep 15 01:05:27 2019, MaxMem=  1342177280 cpu:              45.0 elap:               1.2
 FitSet:  NAtFit=   176 NAtPot=   176 NAtFrz=     0 MDM=   180 TotChg=   0.00000
 Merz-Kollman atomic radii used.
 Read replacement radii for each type of atom:
 Rad(20) =   1.700000000000D+00
 Atom Element Radius
    1     6    1.50
    2     6    1.50
    3     8    1.40
    4     1    1.20
    5     1    1.20
    6     1    1.20
    7     7    1.50
    8     6    1.50
    9     6    1.50
   10     8    1.40
   11     6    1.50
   12     6    1.50
   13     8    1.40
   14     8    1.40
   15     1    1.20
   16     1    1.20
   17     1    1.20
   18     1    1.20
   19     7    1.50
   20     6    1.50
   21     6    1.50
   22     8    1.40
   23     6    1.50
   24     6    1.50
   25     6    1.50
   26     6    1.50
   27     7    1.50
   28     1    1.20
   29     1    1.20
   30     1    1.20
   31     1    1.20
   32     1    1.20
   33     1    1.20
   34     1    1.20
   35     1    1.20
   36     1    1.20
   37     1    1.20
   38     1    1.20
   39     1    1.20
   40     1    1.20
   41     7    1.50
   42     6    1.50
   43     6    1.50
   44     8    1.40
   45     6    1.50
   46     6    1.50
   47     8    1.40
   48     8    1.40
   49     1    1.20
   50     1    1.20
   51     1    1.20
   52     1    1.20
   53     7    1.50
   54     6    1.50
   55     6    1.50
   56     8    1.40
   57     1    1.20
   58     1    1.20
   59     1    1.20
   60     7    1.50
   61     6    1.50
   62     6    1.50
   63     8    1.40
   64     6    1.50
   65     6    1.50
   66     7    1.50
   67     8    1.40
   68     1    1.20
   69     1    1.20
   70     1    1.20
   71     1    1.20
   72     1    1.20
   73     1    1.20
   74     7    1.50
   75     6    1.50
   76     6    1.50
   77     8    1.40
   78     1    1.20
   79     1    1.20
   80     1    1.20
   81     7    1.50
   82     6    1.50
   83     6    1.50
   84     8    1.40
   85     6    1.50
   86     6    1.50
   87     6    1.50
   88     6    1.50
   89     6    1.50
   90     6    1.50
   91     6    1.50
   92     8    1.40
   93     1    1.20
   94     1    1.20
   95     1    1.20
   96     1    1.20
   97     1    1.20
   98     1    1.20
   99     1    1.20
  100     1    1.20
  101     1    1.20
  102     7    1.50
  103     6    1.50
  104     6    1.50
  105     8    1.40
  106     6    1.50
  107     6    1.50
  108     6    1.50
  109     6    1.50
  110     1    1.20
  111     1    1.20
  112     1    1.20
  113     1    1.20
  114     1    1.20
  115     1    1.20
  116     1    1.20
  117     1    1.20
  118     1    1.20
  119     1    1.20
  120     1    1.20
  121     7    1.50
  122     6    1.50
  123     6    1.50
  124     8    1.40
  125     6    1.50
  126     8    1.40
  127     1    1.20
  128     1    1.20
  129     1    1.20
  130     1    1.20
  131     1    1.20
  132     7    1.50
  133     6    1.50
  134     6    1.50
  135     8    1.40
  136     6    1.50
  137     1    1.20
  138     1    1.20
  139     1    1.20
  140     1    1.20
  141     1    1.20
  142     7    1.50
  143     6    1.50
  144     6    1.50
  145     8    1.40
  146     6    1.50
  147     1    1.20
  148     1    1.20
  149     1    1.20
  150     1    1.20
  151     1    1.20
  152     7    1.50
  153     6    1.50
  154     6    1.50
  155     8    1.40
  156     6    1.50
  157     6    1.50
  158     6    1.50
  159     8    1.40
  160     8    1.40
  161     1    1.20
  162     1    1.20
  163     1    1.20
  164     1    1.20
  165     1    1.20
  166     1    1.20
  167     7    1.50
  168     6    1.50
  169     1    1.20
  170     1    1.20
[...]
 **** Fit      -0.011055
 **** Fit      -0.016845
 **** Fit      -0.023350
 **** Fit      -0.029489
 **** Fit      -0.033753
 **** Fit      -0.029513
 **** Fit      -0.021056
 **** Fit      -0.011988
 **** Fit       0.000942
 **** Fit      -0.001951
 **** Fit      -0.003117
 **** Fit      -0.005421
 **** Fit      -0.009286
 **** Fit      -0.014614
 **** Fit      -0.020134
 **** Fit      -0.023476
 **** Fit      -0.022188
 **** Fit      -0.016235
 **** Fit      -0.009033
 **** Fit      -0.003995
 **** Fit      -0.001955
 **** Fit      -0.005255
 **** Fit      -0.007422
 **** Fit      -0.012260
 **** Fit      -0.015681
 **** Fit      -0.012592
 **** Fit      -0.007015
 **** Fit      -0.009747
 **** Fit       0.010823
 **** Fit       0.013812
 **** Fit       0.014230
 **** Fit       0.010699
 **** Fit       0.013471
 **** Fit       0.012555
 **** Fit       0.008049
 **** Fit       0.000619
 **** Fit       0.009789
 **** Fit       0.010110
 **** Fit       0.007343
 **** Fit       0.001553
 **** Fit      -0.006944
 **** Fit      -0.017960
 **** Fit      -0.031448
 **** Fit       0.004659
 **** Fit       0.000332
 **** Fit      -0.006703
 **** Fit      -0.016378
 **** Fit      -0.028615
 **** Fit      -0.043022
 **** Fit      -0.011890
 **** Fit      -0.022089
 **** Fit       0.005924
 **** Fit       0.005838
 **** Fit       0.006410
 **** Fit       0.006346
 **** Fit       0.005507
 **** Fit       0.005598
 **** Fit       0.006341
 **** Fit       0.007031
 **** Fit       0.007238
 **** Fit       0.006801
 **** Fit       0.006083
 **** Fit       0.005122
 **** Fit       0.005191
 **** Fit       0.005974
 **** Fit       0.006890
 **** Fit       0.007277
 **** Fit       0.006329
 **** Fit       0.005523
 **** Fit       0.004408
 **** Fit       0.004649
 **** Fit       0.004601
 **** Fit       0.005415
 **** Fit       0.006426
 **** Fit       0.006100
 **** Fit       0.005064
 **** Fit       0.003623
 **** Fit       0.003678
 **** Fit       0.004015
 **** Fit       0.003820
 **** Fit       0.004586
 **** Fit       0.005549
 **** Fit       0.004825
 **** Fit       0.003782
 **** Fit       0.002712
 **** Fit       0.002657
 **** Fit       0.002847
 **** Fit       0.003242
 **** Fit       0.002843
 **** Fit       0.003586
 **** Fit       0.004530
 **** Fit       0.005690
 **** Fit       0.003240
 **** Fit       0.002020
 **** Fit       0.001713
 **** Fit       0.001505
 **** Fit       0.001562
 **** Fit       0.001833
 **** Fit       0.002265
 **** Fit       0.001665
 **** Fit       0.002349
 **** Fit       0.003218
 **** Fit       0.004308
 **** Fit      -0.000564
 **** Fit       0.000549
 **** Fit       0.000179
 **** Fit       0.000117
 **** Fit       0.001666
 **** Fit       0.002665
 **** Fit      -0.000744
 **** Fit      -0.001387
 **** Fit       0.000655
 **** Fit       0.001721
 **** Fit      -0.000984
 **** Fit      -0.002317
 **** Fit      -0.003364
 **** Fit      -0.001707
 **** Fit      -0.000785
 **** Fit      -0.002021
 **** Fit      -0.003960
 **** Fit      -0.005763
 **** Fit      -0.003663
 **** Fit      -0.002847
 **** Fit      -0.007717
 **** Fit      -0.007208
 **** Fit      -0.006602
 **** Fit      -0.011544
 **** Fit      -0.011097
 **** Fit      -0.011412
 **** Fit      -0.016703
 **** Fit      -0.016409
 **** Fit      -0.022826
 **** Fit       0.000769
 **** Fit      -0.000295
 **** Fit      -0.000140
 **** Fit       0.000233
 **** Fit      -0.000578
 **** Fit       0.000082
 **** Fit       0.000810
 **** Fit      -0.001739
 **** Fit      -0.001981
 **** Fit      -0.001920
 **** Fit      -0.001622
 **** Fit      -0.001157
 **** Fit      -0.002272
 **** Fit      -0.001603
 **** Fit      -0.000905
 **** Fit      -0.000188
 **** Fit      -0.003809
 **** Fit      -0.004179
 **** Fit      -0.004191
 **** Fit      -0.003923
 **** Fit      -0.003468
 **** Fit      -0.002901
 **** Fit      -0.004431
 **** Fit      -0.003697
 **** Fit      -0.002975
 **** Fit      -0.002273
 **** Fit      -0.006409
 **** Fit      -0.007149
 **** Fit      -0.007343
 **** Fit      -0.007099
 **** Fit      -0.006573
 **** Fit      -0.005900
 **** Fit      -0.005171
 **** Fit      -0.007200
 **** Fit      -0.006386
 **** Fit      -0.005632
 **** Fit      -0.004941
 **** Fit      -0.004350
 **** Fit      -0.010198
 **** Fit      -0.011534
 **** Fit      -0.011984
 **** Fit      -0.011699
 **** Fit      -0.010962
 **** Fit      -0.010019
 **** Fit      -0.009032
 **** Fit      -0.008082
 **** Fit      -0.010755
 **** Fit      -0.009816
 **** Fit      -0.009001
 **** Fit      -0.008300
 **** Fit      -0.007750
 **** Fit      -0.017823
 **** Fit      -0.016227
 **** Fit      -0.014608
 **** Fit      -0.013132
 **** Fit      -0.011849
 **** Fit      -0.015313
 **** Fit      -0.014168
 **** Fit      -0.013247
 **** Fit      -0.012512
 **** Fit      -0.011998
 **** Fit      -0.020979
 **** Fit      -0.018622
 **** Fit      -0.016764
 **** Fit      -0.021141
 **** Fit      -0.019717
 **** Fit      -0.018666
 **** Fit      -0.017891
 **** Fit      -0.017410
 **** Fit      -0.025925
 **** Fit      -0.023125
 **** Fit      -0.028543
 **** Fit      -0.026806
 **** Fit      -0.025637
 **** Fit      -0.024816
 **** Fit      -0.024293
 **** Fit      -0.031218
 **** Fit      -0.037788
 **** Fit      -0.035649
 **** Fit       0.007690
 **** Fit       0.007695
 **** Fit       0.008837
 **** Fit       0.008731
 **** Fit       0.008752
 **** Fit       0.009948
 **** Fit       0.010415
 **** Fit       0.009811
 **** Fit       0.008389
 **** Fit       0.008186
 **** Fit       0.009629
 **** Fit       0.010922
 **** Fit       0.011702
 **** Fit       0.011689
 **** Fit       0.010830
 **** Fit       0.009324
 **** Fit       0.007543
 **** Fit       0.007341
 **** Fit       0.008860
 **** Fit       0.010444
 **** Fit       0.011841
 **** Fit       0.012764
 **** Fit       0.012977
 **** Fit       0.012404
 **** Fit       0.011159
 **** Fit       0.007361
 **** Fit       0.006180
 **** Fit       0.007733
 **** Fit       0.009450
 **** Fit       0.011146
 **** Fit       0.012585
 **** Fit       0.013502
 **** Fit       0.013685
 **** Fit       0.013112
 **** Fit       0.004621
 **** Fit       0.006119
 **** Fit       0.007826
 **** Fit       0.009605
 **** Fit       0.011282
 **** Fit       0.012632
 **** Fit       0.013405
 **** Fit       0.013413
 **** Fit       0.012706
 **** Fit       0.004197
 **** Fit       0.005907
 **** Fit       0.007708
 **** Fit       0.009433
 **** Fit       0.010862
 **** Fit       0.011717
 **** Fit       0.011727
 **** Fit       0.010806
 **** Fit       0.001695
 **** Fit       0.003285
 **** Fit       0.004939
 **** Fit       0.006486
 **** Fit       0.007706
 **** Fit       0.008309
 **** Fit       0.007960
 **** Fit       0.000030
 **** Fit       0.001399
 **** Fit       0.002523
 **** Fit       0.003133
 **** Fit       0.002874
 **** Fit      -0.003912
 **** Fit      -0.003049
 **** Fit      -0.002801
 **** Fit      -0.009061
 **** Fit       0.005440
 **** Fit       0.005385
 **** Fit       0.005684
 **** Fit       0.005612
 **** Fit       0.005315
 **** Fit       0.005170
 **** Fit       0.005177
 **** Fit       0.005154
 **** Fit       0.005666
 **** Fit       0.005278
 **** Fit       0.004996
 **** Fit       0.004870
 **** Fit       0.004849
 **** Fit       0.004852
 **** Fit       0.004830
 **** Fit       0.004887
 **** Fit       0.005544
 **** Fit       0.005050
 **** Fit       0.004663
 **** Fit       0.004461
 **** Fit       0.004384
 **** Fit       0.004373
 **** Fit       0.004434
 **** Fit       0.004505
 **** Fit       0.004493
 **** Fit       0.004396
 **** Fit       0.004325
 **** Fit       0.004422
 **** Fit       0.004305
 **** Fit       0.003848
 **** Fit       0.003659
 **** Fit       0.003670
 **** Fit       0.003674
 **** Fit       0.003801
 **** Fit       0.003996
 **** Fit       0.004122
 **** Fit       0.004083
 **** Fit       0.003896
 **** Fit       0.003681
 **** Fit       0.003597
 **** Fit       0.002744
 **** Fit       0.002289
 **** Fit       0.002704
 **** Fit       0.003052
 **** Fit       0.003435
 **** Fit       0.003667
 **** Fit       0.003643
 **** Fit       0.003374
 **** Fit       0.002994
 **** Fit       0.002689
 **** Fit       0.000254
 **** Fit       0.001415
 **** Fit       0.002118
 **** Fit       0.002750
 **** Fit       0.003127
 **** Fit       0.003138
 **** Fit       0.002791
 **** Fit       0.002232
 **** Fit       0.001682
 **** Fit       0.000195
 **** Fit       0.001340
 **** Fit       0.002197
 **** Fit       0.002559
 **** Fit       0.002337
 **** Fit       0.001639
 **** Fit       0.000744
 **** Fit      -0.001076
 **** Fit       0.000514
 **** Fit       0.001532
 **** Fit       0.001717
 **** Fit       0.001055
 **** Fit      -0.000165
 **** Fit      -0.003398
 **** Fit      -0.001020
 **** Fit       0.000389
 **** Fit       0.000441
 **** Fit      -0.000788
 **** Fit       0.014164
 **** Fit       0.018743
 **** Fit       0.014110
 **** Fit       0.023626
 **** Fit       0.018480
 **** Fit       0.023170
 **** Fit      -0.021072
 **** Fit       0.014754
 **** Fit       0.005588
 **** Fit      -0.004209
 **** Fit      -0.013440
 **** Fit      -0.009638
 **** Fit      -0.013608
 **** Fit      -0.013025
 **** Fit      -0.006143
 **** Fit       0.018229
 **** Fit       0.010924
 **** Fit       0.003299
 **** Fit      -0.003821
 **** Fit      -0.000484
 **** Fit       0.005783
 **** Fit       0.012035
 **** Fit       0.015953
 **** Fit       0.009737
 **** Fit       0.004039
 **** Fit       0.015894
 **** Fit       0.020288
 **** Fit       0.015148
 **** Fit       0.010570
 **** Fit       0.020026
 **** Fit       0.032177
 **** Fit       0.032730
 **** Fit       0.029452
 **** Fit       0.025346
 **** Fit       0.036864
 **** Fit       0.033816
 **** Fit       0.031558
 **** Fit       0.029053
 **** Fit       0.038587
 **** Fit       0.035792
 **** Fit       0.034107
 **** Fit       0.032835
 **** Fit       0.031336
 **** Fit       0.039100
 **** Fit       0.036857
 **** Fit       0.035553
 **** Fit       0.034808
 **** Fit       0.034291
 **** Fit       0.033650
 **** Fit       0.039077
 **** Fit       0.037418
 **** Fit       0.036327
 **** Fit       0.035711
 **** Fit       0.035409
 **** Fit       0.035234
 **** Fit       0.034929
 **** Fit       0.033984
 **** Fit       0.037351
 **** Fit       0.036637
 **** Fit       0.036054
 **** Fit       0.035691
 **** Fit       0.035496
 **** Fit       0.035339
 **** Fit       0.034990
 **** Fit       0.033994
 **** Fit       0.031472
 **** Fit       0.034129
 **** Fit       0.035197
 **** Fit       0.035445
 **** Fit       0.035377
 **** Fit       0.035245
 **** Fit       0.035111
 **** Fit       0.034908
 **** Fit       0.034454
 **** Fit       0.033395
 **** Fit       0.031127
 **** Fit       0.026863
 **** Fit       0.026648
 **** Fit       0.030138
 **** Fit       0.032347
 **** Fit       0.033549
 **** Fit       0.034119
 **** Fit       0.034342
 **** Fit       0.034362
 **** Fit       0.034185
 **** Fit       0.033697
 **** Fit       0.032654
 **** Fit       0.030673
 **** Fit       0.027317
 **** Fit       0.022389
 **** Fit       0.019208
 **** Fit       0.023295
 **** Fit       0.026950
 **** Fit       0.029729
 **** Fit       0.031564
 **** Fit       0.032636
 **** Fit       0.033170
 **** Fit       0.033311
 **** Fit       0.033074
 **** Fit       0.032340
 **** Fit       0.030876
 **** Fit       0.028407
 **** Fit       0.024829
 **** Fit       0.021645
 **** Fit       0.024578
 **** Fit       0.027386
 **** Fit       0.029581
 **** Fit       0.031044
 **** Fit       0.031853
 **** Fit       0.032107
 **** Fit       0.031817
 **** Fit       0.030890
 **** Fit       0.029181
 **** Fit       0.026668
 **** Fit       0.023723
 **** Fit       0.023275
 **** Fit       0.024808
 **** Fit       0.026981
 **** Fit       0.028917
 **** Fit       0.030220
 **** Fit       0.030804
 **** Fit       0.030664
 **** Fit       0.029763
 **** Fit       0.028130
 **** Fit       0.026128
 **** Fit       0.026334
 **** Fit       0.027901
 **** Fit       0.029205
 **** Fit       0.029623
 **** Fit       0.029034
 **** Fit       0.027757
 **** Fit       0.027944
 **** Fit       0.027490
 **** Fit       0.028439
 **** Fit       0.028480
 **** Fit       0.028090
 **** Fit      -0.037213
 **** Fit      -0.036009
 **** Fit      -0.024135
 **** Fit      -0.025037
 **** Fit      -0.024996
 **** Fit      -0.024592
 **** Fit      -0.024126
 **** Fit      -0.009836
 **** Fit      -0.012456
 **** Fit      -0.013871
 **** Fit      -0.014503
 **** Fit      -0.014748
 **** Fit      -0.014876
 **** Fit      -0.015088
 **** Fit      -0.015684
 **** Fit      -0.019411
 **** Fit      -0.012898
 **** Fit      -0.005623
 **** Fit      -0.001289
 **** Fit      -0.003855
 **** Fit      -0.005506
 **** Fit      -0.006525
 **** Fit      -0.007202
 **** Fit      -0.007784
 **** Fit      -0.008491
 **** Fit      -0.009550
 **** Fit      -0.011097
 **** Fit      -0.012952
 **** Fit      -0.014500
 **** Fit      -0.014902
 **** Fit      -0.013516
 **** Fit      -0.010227
 **** Fit      -0.005414
 **** Fit       0.000383
 **** Fit       0.006788
 **** Fit       0.002369
 **** Fit       0.004924
 **** Fit       0.002365
 **** Fit       0.000583
 **** Fit      -0.000662
 **** Fit      -0.001633
 **** Fit      -0.002560
 **** Fit      -0.003614
 **** Fit      -0.004824
 **** Fit      -0.005951
 **** Fit      -0.006471
 **** Fit      -0.005791
 **** Fit      -0.003567
 **** Fit       0.000139
 **** Fit       0.004981
 **** Fit       0.010580
 **** Fit       0.016657
 **** Fit       0.017792
 **** Fit       0.012749
 **** Fit       0.008396
 **** Fit       0.009410
 **** Fit       0.006907
 **** Fit       0.005068
 **** Fit       0.003692
 **** Fit       0.002560
 **** Fit       0.001527
 **** Fit       0.000608
 **** Fit       0.000056
 **** Fit       0.000313
 **** Fit       0.001788
 **** Fit       0.004616
 **** Fit       0.008608
 **** Fit       0.013399
 **** Fit       0.018574
 **** Fit       0.023640
 **** Fit       0.025209
 **** Fit       0.020929
 **** Fit       0.016601
 **** Fit       0.012670
 **** Fit       0.012570
 **** Fit       0.010073
 **** Fit       0.008211
 **** Fit       0.006822
 **** Fit       0.005794
 **** Fit       0.005214
 **** Fit       0.005416
 **** Fit       0.006798
 **** Fit       0.009517
 **** Fit       0.013339
 **** Fit       0.017727
 **** Fit       0.021952
 **** Fit       0.025122
 **** Fit       0.026400
 **** Fit       0.025485
 **** Fit       0.022842
 **** Fit       0.019329
 **** Fit       0.015731
 **** Fit       0.014667
 **** Fit       0.012091
 **** Fit       0.010339
 **** Fit       0.009456
 **** Fit       0.009751
 **** Fit       0.011641
 **** Fit       0.015017
 **** Fit       0.018937
 **** Fit       0.021918
 **** Fit       0.022649
 **** Fit       0.020955
 **** Fit       0.017873
 **** Fit       0.015874
 **** Fit       0.013446
 **** Fit       0.013324
 **** Fit       0.016003
 **** Fit       0.019057
 **** Fit       0.018804
 **** Fit       0.016297
 -----------------------------------------------------------------
 Leave Link  602 at Sun Sep 15 01:05:30 2019, MaxMem=  1342177280 cpu:             132.6 elap:               2.8

 Test job not archived.
 1\1\GINC-C506-124\SP\RB3LYP\SVP\C54H83Ca1N15O23\PENGZHI\15-Sep-2019\0\
 \#b3lyp/svp scf=(tight,noincore) Test #IOP(5/87=12) Density=Current Po
 p=(MK,readradii) iop(6/33=2) iop(6/42=6)\\CaMKII_loop3_84.0\\0,1\C,0,8
 3.6,46.39,32.23\C,0,82.94,45.78,33.46\O,0,83.32,44.72,33.94\H,0,84.608
 ,45.99,32.123\H,0,83.016,46.143,31.343\H,0,83.649,47.473,32.343\N,0,81
 .89,46.46,33.93\C,0,81.08,46.24,35.12\C,0,79.87,45.38,34.78\O,0,78.76,
 45.74,35.15\C,0,80.8,47.53,35.88\C,0,80.12,47.28,37.22\O,0,80.49,46.25
 ,37.83\O,0,79.21,48.03,37.63\H,0,81.67,47.36,33.52\H,0,81.76,45.65,35.
 75\H,0,80.05,48.02,35.26\H,0,81.77,48.01,36.07\N,0,80.09,44.26,34.09\C
 ,0,79.06,43.27,33.86\C,0,78.24,42.89,35.09\O,0,77.04,42.66,34.95\C,0,7
 9.62,42.01,33.2\C,0,80.49,42.27,31.98\C,0,80.94,41.03,31.21\C,0,81.47,
 41.26,29.8\N,0,82.68,42.08,29.94\H,0,81.06,44.,34.03\H,0,78.37,43.66,3
 3.11\H,0,78.77,41.42,32.85\H,0,80.18,41.39,33.9\H,0,81.45,42.71,32.23\
 H,0,80.,42.93,31.26\H,0,80.06,40.4,31.06\H,0,81.62,40.38,31.78\H,0,80.
 74,41.66,29.1\H,0,81.79,40.29,29.42\H,0,82.63,43.06,30.19\H,0,83.26,41
 .77,30.72\H,0,83.24,41.96,29.11\N,0,78.76,43.,36.32\C,0,78.04,42.76,37
 .55\C,0,77.05,43.81,38.03\O,0,76.17,43.52,38.83\C,0,78.97,42.17,38.61\
 C,0,80.23,43.03,38.71\O,0,80.3,43.65,39.8\O,0,81.12,43.18,37.85\H,0,79
 .73,43.24,36.43\H,0,77.37,41.91,37.38\H,0,79.46,41.25,38.31\H,0,78.48,
 42.05,39.58\N,0,77.12,45.03,37.5\C,0,76.22,46.13,37.8\C,0,76.45,46.83,
 39.13\O,0,75.5,47.47,39.58\H,0,77.74,45.22,36.72\H,0,75.21,45.74,37.84
 \H,0,76.39,46.88,37.03\N,0,77.61,46.69,39.78\C,0,77.75,47.13,41.15\C,0
 ,78.27,48.55,41.3\O,0,78.36,49.12,42.38\C,0,78.5,46.11,42.01\C,0,80.01
 ,46.25,41.99\N,0,80.64,46.13,43.17\O,0,80.69,46.54,41.01\H,0,78.33,46.
 13,39.35\H,0,76.75,47.14,41.58\H,0,78.26,45.09,41.69\H,0,78.12,46.14,4
 3.03\H,0,80.09,45.97,44.\H,0,81.64,46.22,43.13\N,0,78.71,49.13,40.17\C
 ,0,79.03,50.54,40.19\C,0,80.43,50.86,40.7\O,0,80.79,52.03,40.75\H,0,78
 .72,48.67,39.28\H,0,78.35,51.14,40.8\H,0,78.92,50.87,39.16\N,0,81.18,4
 9.8,40.99\C,0,82.63,49.76,40.95\C,0,83.24,48.94,39.82\O,0,82.79,47.84,
 39.5\C,0,83.16,49.13,42.23\C,0,82.65,49.86,43.45\C,0,82.74,51.25,43.55
 \C,0,82.23,49.06,44.52\C,0,82.29,51.84,44.74\C,0,81.84,49.66,45.72\C,0
 ,81.89,51.06,45.84\O,0,81.6,51.72,47.01\H,0,80.67,48.93,41.\H,0,82.91,
 50.81,40.92\H,0,84.24,49.26,42.22\H,0,82.94,48.07,42.26\H,0,83.31,51.8
 6,42.86\H,0,82.16,47.98,44.46\H,0,82.55,52.88,44.87\H,0,81.42,49.08,46
 .53\H,0,81.34,51.02,47.61\N,0,84.31,49.44,39.19\C,0,85.21,48.68,38.34\
 C,0,86.51,48.42,39.09\O,0,87.08,49.29,39.74\C,0,85.46,49.35,37.\C,0,84
 .17,49.66,36.25\C,0,86.36,48.4,36.2\C,0,84.39,50.65,35.11\H,0,84.6,50.
 35,39.51\H,0,84.7,47.74,38.13\H,0,85.92,50.31,37.23\H,0,83.43,50.01,36
 .98\H,0,83.75,48.74,35.86\H,0,86.5,48.88,35.24\H,0,87.35,48.46,36.64\H
 ,0,85.88,47.42,36.25\H,0,84.76,51.64,35.4\H,0,85.2,50.21,34.53\H,0,83.
 52,50.7,34.46\N,0,86.98,47.18,38.92\C,0,88.27,46.78,39.43\C,0,89.11,46
 .2,38.31\O,0,88.66,46.1,37.17\C,0,88.07,45.78,40.56\O,0,87.17,44.77,40
 .14\H,0,86.45,46.54,38.35\H,0,88.79,47.67,39.78\H,0,87.63,46.21,41.46\
 H,0,89.04,45.35,40.83\H,0,87.17,44.1,40.82\N,0,90.37,45.79,38.54\C,0,9
 1.36,45.4,37.55\C,0,91.07,44.08,36.86\O,0,91.17,44.06,35.63\C,0,92.69,
 45.46,38.3\H,0,90.79,46.,39.43\H,0,91.36,46.15,36.76\H,0,92.71,46.34,3
 8.94\H,0,92.93,44.54,38.83\H,0,93.49,45.76,37.63\N,0,90.63,43.05,37.59
 \C,0,90.35,41.77,36.97\C,0,89.37,41.88,35.81\O,0,89.65,41.45,34.7\C,0,
 89.8,40.76,37.98\H,0,90.52,43.23,38.58\H,0,91.28,41.35,36.58\H,0,90.52
 ,40.76,38.8\H,0,88.87,41.11,38.42\H,0,89.56,39.79,37.55\N,0,88.26,42.6
 ,36.02\C,0,87.13,42.76,35.14\C,0,87.22,43.8,34.03\O,0,86.52,43.71,33.0
 3\C,0,85.87,42.98,35.98\C,0,86.03,44.13,36.97\C,0,84.75,44.41,37.75\O,
 0,84.34,43.63,38.64\O,0,84.06,45.4,37.43\H,0,88.2,43.1,36.9\H,0,87.16,
 41.79,34.64\H,0,85.66,42.02,36.45\H,0,85.03,43.07,35.29\H,0,86.46,45.0
 3,36.52\H,0,86.85,43.86,37.63\N,0,88.08,44.81,34.18\C,0,88.69,45.55,33
 .1\H,0,89.697,45.171,32.924\H,0,88.094,45.431,32.195\H,0,88.741,46.606
 ,33.366\H,0,88.44,45.04,35.1\Ca,0,82.26,45.24,39.26\O,0,82.79,43.47,41
 .35\H,0,83.16,43.65,42.21\H,0,82.47,42.57,41.41\\Version=ES64L-G16RevA
 .03\State=1-A\HF=-5333.5871785\RMSD=3.965e-09\Dipole=9.1672929,-6.7873
 543,-7.5010765\Quadrupole=-125.2807815,-43.5324449,168.8132264,26.4217
 836,75.3739911,31.4839123\PG=C01 [X(C54H83Ca1N15O23)]\\@


 IF YOU'RE NOT PART OF THE SOLUTION,
 THEN YOU'RE PART OF THE PRECIPITATE.
 Job cpu time:       0 days  8 hours 50 minutes 21.8 seconds.
 Elapsed time:       0 days  0 hours 11 minutes 10.5 seconds.
 File lengths (MBytes):  RWF=   1517 Int=      0 D2E=      0 Chk=    171 Scr=      1
 Normal termination of Gaussian 16 at Sun Sep 15 01:05:31 2019.
