 Entering Gaussian System, Link 0=g16
 Initial command:
 /home1/apps/gaussian/16rA.03/g16/l1.exe "/scratch/01990/pengzhi/4328826/Gau-146185.inp" -scrdir="/scratch/01990/pengzhi/4328826/"
 Entering Link 1 = /home1/apps/gaussian/16rA.03/g16/l1.exe PID=    146186.
  
 Copyright (c) 1988,1990,1992,1993,1995,1998,2003,2009,2016,
            Gaussian, Inc.  All Rights Reserved.
  
 This is part of the Gaussian(R) 16 program.  It is based on
 the Gaussian(R) 09 system (copyright 2009, Gaussian, Inc.),
 the Gaussian(R) 03 system (copyright 2003, Gaussian, Inc.),
 the Gaussian(R) 98 system (copyright 1998, Gaussian, Inc.),
 the Gaussian(R) 94 system (copyright 1995, Gaussian, Inc.),
 the Gaussian 92(TM) system (copyright 1992, Gaussian, Inc.),
 the Gaussian 90(TM) system (copyright 1990, Gaussian, Inc.),
 the Gaussian 88(TM) system (copyright 1988, Gaussian, Inc.),
 the Gaussian 86(TM) system (copyright 1986, Carnegie Mellon
 University), and the Gaussian 82(TM) system (copyright 1983,
 Carnegie Mellon University). Gaussian is a federally registered
 trademark of Gaussian, Inc.
  
 This software contains proprietary and confidential information,
 including trade secrets, belonging to Gaussian, Inc.
  
 This software is provided under written license and may be
 used, copied, transmitted, or stored only in accord with that
 written license.
  
 The following legend is applicable only to US Government
 contracts under FAR:
  
                    RESTRICTED RIGHTS LEGEND
  
 Use, reproduction and disclosure by the US Government is
 subject to restrictions as set forth in subparagraphs (a)
 and (c) of the Commercial Computer Software - Restricted
 Rights clause in FAR 52.227-19.
  
 Gaussian, Inc.
 340 Quinnipiac St., Bldg. 40, Wallingford CT 06492
  
  
 ---------------------------------------------------------------
 Warning -- This program may not be used in any manner that
 competes with the business of Gaussian, Inc. or will provide
 assistance to any competitor of Gaussian, Inc.  The licensee
 of this program is prohibited from giving any competitor of
 Gaussian, Inc. access to this program.  By using this program,
 the user acknowledges that Gaussian, Inc. is engaged in the
 business of creating and licensing software in the field of
 computational chemistry and represents and warrants to the
 licensee that it is not a competitor of Gaussian, Inc. and that
 it will not use this program in any manner prohibited above.
 ---------------------------------------------------------------
  

 Cite this work as:
 Gaussian 16, Revision A.03,
 M. J. Frisch, G. W. Trucks, H. B. Schlegel, G. E. Scuseria, 
 M. A. Robb, J. R. Cheeseman, G. Scalmani, V. Barone, 
 G. A. Petersson, H. Nakatsuji, X. Li, M. Caricato, A. V. Marenich, 
 J. Bloino, B. G. Janesko, R. Gomperts, B. Mennucci, H. P. Hratchian, 
 J. V. Ortiz, A. F. Izmaylov, J. L. Sonnenberg, D. Williams-Young, 
 F. Ding, F. Lipparini, F. Egidi, J. Goings, B. Peng, A. Petrone, 
 T. Henderson, D. Ranasinghe, V. G. Zakrzewski, J. Gao, N. Rega, 
 G. Zheng, W. Liang, M. Hada, M. Ehara, K. Toyota, R. Fukuda, 
 J. Hasegawa, M. Ishida, T. Nakajima, Y. Honda, O. Kitao, H. Nakai, 
 T. Vreven, K. Throssell, J. A. Montgomery, Jr., J. E. Peralta, 
 F. Ogliaro, M. J. Bearpark, J. J. Heyd, E. N. Brothers, K. N. Kudin, 
 V. N. Staroverov, T. A. Keith, R. Kobayashi, J. Normand, 
 K. Raghavachari, A. P. Rendell, J. C. Burant, S. S. Iyengar, 
 J. Tomasi, M. Cossi, J. M. Millam, M. Klene, C. Adamo, R. Cammi, 
 J. W. Ochterski, R. L. Martin, K. Morokuma, O. Farkas, 
 J. B. Foresman, and D. J. Fox, Gaussian, Inc., Wallingford CT, 2016.
 
 ******************************************
 Gaussian 16:  ES64L-G16RevA.03 25-Dec-2016
                14-Sep-2019 
 ******************************************
 %chk=holoCaM_loop3_87.0.chk
 %nprocshared=48
 Will use up to   48 processors via shared memory.
 %mem=10GB
 %nosave
 ----------------------------------------------------------------------
 #b3lyp/svp scf=(tight,noincore) Test #IOP(5/87=12) Density=Current Pop
 =(MK,readradii) iop(6/33=2) iop(6/42=6)
 ----------------------------------------------------------------------
 1/30=1,38=1,172=1/1;
 2/12=2,17=6,18=5,40=1/2;
 3/5=18,7=101,11=2,25=1,30=1,74=-5/1,2,3;
 4//1;
 5/5=4,32=2,38=5,87=12/2;
 6/7=2,8=2,9=2,10=2,15=8,20=101,22=-1,28=1,33=2,42=6/1,2;
 99/5=1,9=1/99;
 ------------------
 holoCaM_loop3_87.0
 ------------------
 Symbolic Z-matrix:
 Charge =  0 Multiplicity = 1
 C                     34.66     46.21     41.48 
 C                     34.73     45.74     42.93 
 O                     33.75     45.26     43.49 
 H                     34.403    47.269    41.454 
 H                     35.628    46.06     41.002 
 H                     33.899    45.639    40.949 
 N                     35.9      45.84     43.56 
 C                     36.24     45.46     44.91 
 C                     35.74     46.6      45.79 
 O                     36.15     47.76     45.73 
 C                     37.73     45.19     45.09 
 C                     38.04     44.58     46.46 
 O                     37.1      44.24     47.21 
 O                     39.21     44.39     46.84 
 H                     36.69     46.15     43.01 
 H                     35.69     44.56     45.21 
 H                     38.3      46.09     44.91 
 H                     38.03     44.44     44.36 
 N                     35.01     46.22     46.84 
 C                     34.5      47.15     47.83 
 C                     35.52     47.47     48.91 
 O                     35.74     48.67     49.1 
 C                     33.19     46.63     48.41 
 C                     32.64     47.61     49.45 
 C                     31.24     47.34     50. 
 C                     30.7      48.55     50.74 
 N                     29.5      48.13     51.47 
 H                     34.7      45.27     46.96 
 H                     34.24     48.06     47.3 
 H                     33.3      45.62     48.81 
 H                     32.43     46.66     47.64 
 H                     32.59     48.52     48.84 
 H                     33.33     47.63     50.29 
 H                     31.22     46.46     50.64 
 H                     30.53     47.24     49.17 
 H                     30.44     49.3      49.99 
 H                     31.46     48.95     51.41 
 H                     28.77     48.83     51.51 
 H                     29.09     47.31     51.04 
 H                     29.82     47.92     52.41 
 N                     36.11     46.53     49.66 
 C                     36.93     46.91     50.79 
 C                     38.38     47.07     50.35 
 O                     39.2      47.54     51.14 
 C                     36.73     45.93     51.95 
 C                     36.89     44.46     51.57 
 O                     37.66     44.12     50.65 
 O                     36.33     43.7      52.39 
 H                     36.08     45.56     49.39 
 H                     36.62     47.87     51.2 
 H                     35.7      45.98     52.32 
 H                     37.44     46.15     52.74 
 N                     38.76     46.84     49.09 
 C                     40.13     47.1      48.7 
 C                     41.25     46.34     49.4 
 O                     42.39     46.79     49.44 
 H                     38.1      46.36     48.5 
 H                     40.36     48.16     48.77 
 H                     40.22     46.9      47.63 
 N                     40.89     45.09     49.7 
 C                     41.9      44.13     50.09 
 C                     42.54     43.43     48.9 
 O                     43.14     42.38     49.09 
 C                     41.28     43.16     51.09 
 C                     40.32     42.15     50.47 
 N                     40.08     41.06     51.2 
 O                     39.96     42.25     49.3 
 H                     39.93     44.84     49.52 
 H                     42.76     44.59     50.58 
 H                     40.7      43.69     51.85 
 H                     42.1      42.63     51.58 
 H                     40.3      41.1      52.18 
 H                     39.52     40.26     50.92 
 N                     42.11     43.76     47.68 
 C                     42.69     43.1      46.53 
 C                     42.06     41.8      46.06 
 O                     42.71     40.97     45.42 
 H                     41.5      44.57     47.61 
 H                     43.74     42.88     46.68 
 H                     42.65     43.76     45.66 
 N                     40.81     41.41     46.33 
 C                     40.1      40.28     45.77 
 C                     38.63     40.69     45.7 
 O                     38.17     41.52     46.48 
 C                     40.33     38.95     46.48 
 C                     41.63     38.84     47.24 
 C                     41.6      39.3      48.56 
 C                     42.67     38.08     46.69 
 C                     42.65     38.91     49.4 
 C                     43.71     37.72     47.54 
 C                     43.71     38.15     48.88 
 O                     44.83     37.99     49.64 
 H                     40.26     42.07     46.86 
 H                     40.48     40.11     44.76 
 H                     40.23     38.17     45.73 
 H                     39.54     38.85     47.22 
 H                     40.69     39.77     48.9 
 H                     42.77     37.78     45.65 
 H                     42.79     39.2      50.43 
 H                     44.54     37.18     47.1 
 H                     45.47     37.44     49.18 
 N                     37.96     40.1      44.71 
 C                     36.53     40.22     44.47 
 C                     35.81     38.9      44.7 
 O                     36.28     37.85     44.27 
 C                     36.24     40.74     43.07 
 C                     36.9      42.07     42.73 
 C                     34.75     40.85     42.76 
 C                     37.27     42.21     41.26 
 H                     38.52     39.74     43.95 
 H                     36.17     41.01     45.14 
 H                     36.72     40.02     42.4 
 H                     37.85     42.16     43.25 
 H                     36.26     42.92     42.98 
 H                     34.21     41.5      43.45 
 H                     34.64     41.23     41.74 
 H                     34.22     39.91     42.88 
 H                     36.4      42.17     40.6 
 H                     37.76     43.19     41.21 
 H                     37.97     41.4      41.04 
 N                     34.75     39.03     45.5 
 C                     33.85     38.       45.99 
 C                     32.38     38.31     45.74 
 O                     32.02     39.29     45.08 
 C                     34.07     37.83     47.49 
 O                     33.5      38.91     48.19 
 H                     34.48     39.97     45.72 
 H                     34.09     37.04     45.54 
 H                     35.14     37.81     47.73 
 H                     33.59     36.91     47.83 
 H                     34.1      39.66     48.14 
 N                     31.53     37.29     45.85 
 C                     30.18     37.2      45.33 
 C                     29.35     38.42     45.71 
 O                     28.73     39.01     44.82 
 C                     29.61     35.88     45.83 
 H                     31.77     36.42     46.3 
 H                     30.25     37.05     44.25 
 H                     29.61     35.74     46.91 
 H                     28.55     35.73     45.62 
 H                     30.06     35.07     45.25 
 N                     29.37     38.77     46.99 
 C                     28.55     39.86     47.5 
 C                     28.99     41.23     47.01 
 O                     28.21     42.14     46.73 
 C                     28.72     39.87     49.01 
 H                     29.83     38.17     47.66 
 H                     27.51     39.72     47.22 
 H                     28.31     38.97     49.47 
 H                     29.79     39.96     49.21 
 H                     28.22     40.71     49.5 
 N                     30.29     41.38     46.74 
 C                     30.9      42.58     46.21 
 C                     30.6      42.76     44.73 
 O                     30.27     43.85     44.26 
 C                     32.38     42.66     46.58 
 C                     32.78     42.37     48.02 
 C                     34.29     42.36     48.24 
 O                     34.9      41.34     47.86 
 O                     34.9      43.28     48.83 
 H                     30.9      40.58     46.83 
 H                     30.48     43.47     46.67 
 H                     32.76     43.65     46.32 
 H                     32.95     41.92     46.02 
 H                     32.36     41.4      48.28 
 H                     32.32     43.16     48.61 
 N                     30.62     41.63     44.01 
 C                     30.21     41.49     42.63 
 H                     29.355    42.138    42.438 
 H                     31.034    41.773    41.975 
 H                     29.93     40.454    42.437 
 H                     30.9      40.84     44.58 
 Ca                    37.37     42.47     48.89 
 O                     36.6      41.3      51.34 
 H                     36.44     42.12     51.81 
 H                     35.93     40.7      51.65 
 
 Stoichiometry    C54H83CaN15O23
 Framework group  C1[X(C54H83CaN15O23)]
 Deg. of freedom   522
 Full point group                 C1      NOp   1
 Largest Abelian subgroup         C1      NOp   1
 Largest concise Abelian subgroup C1      NOp   1
                         Standard orientation:                         
 ---------------------------------------------------------------------
 Center     Atomic      Atomic             Coordinates (Angstroms)
 Number     Number       Type             X           Y           Z
 ---------------------------------------------------------------------
      1          6           0        2.350364    1.440557    6.432323
      2          6           0        2.002716    1.532451    4.949422
      3          8           0        2.876265    1.498690    4.089088
      4          1           0        2.478202    2.444294    6.837754
      5          1           0        1.544530    0.934687    6.964051
      6          1           0        3.276242    0.879389    6.554653
      7          7           0        0.715206    1.620260    4.617147
      8          6           0        0.119341    1.703035    3.305433
      9          6           0        0.262097    3.161933    2.886818
     10          8           0       -0.258165    4.111225    3.474586
     11          6           0       -1.328662    1.225332    3.283380
     12          6           0       -1.872769    1.112583    1.856377
     13          8           0       -1.098579    1.267765    0.887746
     14          8           0       -3.067740    0.845156    1.632933
     15          1           0        0.043045    1.541382    5.368597
     16          1           0        0.688120    1.106118    2.582467
     17          1           0       -1.944566    1.862333    3.901596
     18          1           0       -1.359619    0.215831    3.690011
     19          7           0        0.768777    3.348929    1.666937
     20          6           0        0.920735    4.659526    1.063329
     21          6           0       -0.352515    5.142547    0.388995
     22          8           0       -0.752070    6.258105    0.735962
     23          6           0        2.113007    4.662925    0.113921
     24          6           0        2.286028    6.045321   -0.521331
     25          6           0        3.542326    6.282785   -1.358425
     26          6           0        3.747804    7.761833   -1.629527
     27          7           0        4.787181    7.889120   -2.655584
     28          1           0        1.153544    2.592362    1.126047
     29          1           0        1.186072    5.343357    1.862436
     30          1           0        2.034545    3.870571   -0.633219
     31          1           0        3.021643    4.559568    0.692798
     32          1           0        2.367170    6.657669    0.384840
     33          1           0        1.422781    6.233838   -1.154867
     34          1           0        3.518230    5.722735   -2.291251
     35          1           0        4.432104    6.029295   -0.769325
     36          1           0        4.083221    8.219517   -0.696457
     37          1           0        2.811064    8.218972   -1.945824
     38          1           0        5.399181    8.685864   -2.532477
     39          1           0        5.380480    7.068574   -2.665606
     40          1           0        4.285392    7.979650   -3.533144
     41          7           0       -0.983861    4.446166   -0.565288
     42          6           0       -2.082772    5.042135   -1.293927
     43          6           0       -3.399721    4.735166   -0.591705
     44          8           0       -4.430552    5.287946   -0.978000
     45          6           0       -2.041706    4.618406   -2.765242
     46          6           0       -1.932766    3.111662   -2.986048
     47          8           0       -2.422326    2.310513   -2.165444
     48          8           0       -1.491571    2.834962   -4.122878
     49          1           0       -0.776622    3.472019   -0.716251
     50          1           0       -1.993028    6.126784   -1.329753
     51          1           0       -1.139054    5.006200   -3.250149
     52          1           0       -2.936523    4.966182   -3.270171
     53          7           0       -3.447071    3.987156    0.514251
     54          6           0       -4.710304    3.805412    1.198220
     55          6           0       -5.863201    3.147912    0.449540
     56          8           0       -7.026724    3.342818    0.784092
     57          1           0       -2.615878    3.466713    0.743067
     58          1           0       -5.074999    4.747726    1.598771
     59          1           0       -4.525303    3.212581    2.096734
     60          7           0       -5.436110    2.195045   -0.382167
     61          6           0       -6.387097    1.264047   -0.950205
     62          6           0       -6.645628    0.062794   -0.052513
     63          8           0       -7.143696   -0.941255   -0.544867
     64          6           0       -5.904656    0.874788   -2.343413
     65          6           0       -4.713671   -0.077897   -2.350217
     66          7           0       -4.521190   -0.751507   -3.485030
     67          8           0       -4.106829   -0.344821   -1.316295
     68          1           0       -4.437762    2.094261   -0.480376
     69          1           0       -7.385808    1.689498   -1.063634
     70          1           0       -5.584097    1.751626   -2.912005
     71          1           0       -6.746678    0.409139   -2.860685
     72          1           0       -4.965527   -0.399188   -4.314992
     73          1           0       -3.820235   -1.468711   -3.647140
     74          7           0       -5.987047    0.000413    1.107048
     75          6           0       -6.201697   -1.137789    1.974758
     76          6           0       -5.329485   -2.364875    1.771518
     77          8           0       -5.709661   -3.484111    2.123339
     78          1           0       -5.478518    0.832591    1.393367
     79          1           0       -7.223923   -1.492920    1.926434
     80          1           0       -6.040121   -0.850027    3.016480
     81          7           0       -4.138782   -2.369340    1.163483
     82          6           0       -3.188749   -3.459068    1.096172
     83          6           0       -1.802250   -2.817807    1.078649
     84          8           0       -1.637958   -1.685211    0.632404
     85          6           0       -3.416757   -4.452192   -0.038560
     86          6           0       -4.834862   -4.533392   -0.550503
     87          6           0       -5.166749   -3.624598   -1.559881
     88          6           0       -5.620764   -5.634149   -0.186646
     89          6           0       -6.328649   -3.880594   -2.297888
     90          6           0       -6.778905   -5.857221   -0.923292
     91          6           0       -7.140814   -4.974336   -1.957718
     92          8           0       -8.379179   -5.064871   -2.519728
     93          1           0       -3.809374   -1.464958    0.859208
     94          1           0       -3.301207   -4.060728    2.001024
     95          1           0       -3.053331   -5.416119    0.307368
     96          1           0       -2.813686   -4.112779   -0.876894
     97          1           0       -4.423085   -2.890434   -1.829263
     98          1           0       -5.440445   -6.308780    0.646395
     99          1           0       -6.737158   -3.266820   -3.085925
    100          1           0       -7.413807   -6.675668   -0.605259
    101          1           0       -8.824821   -5.861669   -2.219367
    102          7           0       -0.855560   -3.583120    1.621947
    103          6           0        0.566317   -3.275718    1.647867
    104          6           0        1.365535   -4.245728    0.791111
    105          8           0        1.136693   -5.451530    0.835517
    106          6           0        1.108803   -3.259738    3.069117
    107          6           0        0.391816   -2.309039    4.018959
    108          6           0        2.606024   -2.975113    3.144071
    109          6           0        0.358672   -2.796172    5.460834
    110          1           0       -1.177086   -4.301556    2.255406
    111          1           0        0.664337   -2.239910    1.301322
    112          1           0        0.886584   -4.256023    3.463750
    113          1           0       -0.656609   -2.226636    3.745074
    114          1           0        0.850359   -1.316942    4.028101
    115          1           0        2.889881   -2.023028    2.693339
    116          1           0        2.903345   -2.982732    4.196897
    117          1           0        3.201991   -3.678504    2.570517
    118          1           0        1.356354   -2.900639    5.894213
    119          1           0       -0.219675   -2.022715    5.980718
    120          1           0       -0.169520   -3.752943    5.450721
    121          7           0        2.187931   -3.621270   -0.054003
    122          6           0        3.066068   -4.196294   -1.058604
    123          6           0        4.506219   -3.711991   -0.954120
    124          8           0        4.889885   -2.992310   -0.026510
    125          6           0        2.526237   -3.843631   -2.441178
    126          8           0        2.785455   -2.491334   -2.733408
    127          1           0        2.285487   -2.632614    0.079948
    128          1           0        3.053176   -5.281610   -0.998419
    129          1           0        1.439986   -3.988062   -2.486993
    130          1           0        3.020549   -4.458045   -3.196527
    131          1           0        2.128343   -1.948809   -2.287459
    132          7           0        5.422980   -4.427578   -1.604108
    133          6           0        6.857575   -4.429812   -1.396905
    134          6           0        7.425284   -3.015836   -1.388089
    135          8           0        8.159789   -2.682753   -0.453125
    136          6           0        7.449392   -5.330678   -2.471844
    137          1           0        5.190726   -5.100468   -2.318445
    138          1           0        7.058239   -4.976899   -0.472659
    139          1           0        7.215735   -5.060999   -3.500764
    140          1           0        8.539309   -5.331623   -2.519584
    141          1           0        7.246006   -6.369620   -2.199382
    142          7           0        7.067517   -2.231662   -2.397234
    143          6           0        7.610941   -0.889989   -2.555996
    144          6           0        7.136348    0.086016   -1.491677
    145          8           0        7.845752    0.965924   -1.004432
    146          6           0        7.095595   -0.360156   -3.883699
    147          1           0        6.539670   -2.622595   -3.164729
    148          1           0        8.696584   -0.911580   -2.533341
    149          1           0        7.492125   -0.926343   -4.727438
    150          1           0        6.005498   -0.419382   -3.849356
    151          1           0        7.364537    0.682983   -4.071398
    152          7           0        5.925997   -0.137509   -0.971592
    153          6           0        5.316830    0.635334    0.088894
    154          6           0        5.928066    0.315136    1.444129
    155          8           0        6.225606    1.198519    2.249738
    156          6           0        3.792694    0.547317    0.034456
    157          6           0        3.107307    0.732873   -1.312212
    158          6           0        1.599714    0.501990   -1.262650
    159          8           0        1.220545   -0.686254   -1.227904
    160          8           0        0.764315    1.432061   -1.323280
    161          1           0        5.411639   -0.953255   -1.271913
    162          1           0        5.509529    1.696826   -0.038388
    163          1           0        3.368031    1.274741    0.729161
    164          1           0        3.460473   -0.444753    0.336992
    165          1           0        3.568202    0.031630   -2.005561
    166          1           0        3.320414    1.759329   -1.603371
    167          7           0        6.210430   -0.979688    1.642625
    168          6           0        6.942847   -1.531720    2.761074
    169          1           0        7.735506   -0.842394    3.051443
    170          1           0        6.265422   -1.680515    3.601934
    171          1           0        7.381463   -2.487410    2.472601
    172          1           0        5.902201   -1.543847    0.858968
    173         20           0       -1.537582    0.223426   -1.290518
    174          8           0       -1.222598    0.215367   -4.094982
    175          1           0       -1.274878    1.164851   -4.216010
    176          1           0       -0.576066   -0.081366   -4.726604
 ---------------------------------------------------------------------
 Rotational constants (GHZ):           0.0228656           0.0151590           0.0120401
 Standard basis: SVP (5D, 7F)
 There are  1809 symmetry adapted cartesian basis functions of A   symmetry.
 There are  1717 symmetry adapted basis functions of A   symmetry.
  1717 basis functions,  2922 primitive gaussians,  1809 cartesian basis functions
   358 alpha electrons      358 beta electrons
       nuclear repulsion energy     21656.9762769358 Hartrees.
 NAtoms=  176 NActive=  176 NUniq=  176 SFac= 1.00D+00 NAtFMM=   60 NAOKFM=T Big=T
 Integral buffers will be    131072 words long.
 Raffenetti 2 integral format.
 Two-electron integral symmetry is turned on.
 One-electron integrals computed using PRISM.
 NBasis=  1717 RedAO= T EigKep=  2.83D-04  NBF=  1717
 NBsUse=  1717 1.00D-06 EigRej= -1.00D+00 NBFU=  1717
 ExpMin= 1.98D-02 ExpMax= 3.51D+04 ExpMxC= 5.28D+03 IAcc=3 IRadAn=         5 AccDes= 0.00D+00
 Harris functional with IExCor=  402 and IRadAn=       5 diagonalized for initial guess.
 HarFok:  IExCor=  402 AccDes= 0.00D+00 IRadAn=         5 IDoV= 1 UseB2=F ITyADJ=14
 ICtDFT=  3500011 ScaDFX=  1.000000  1.000000  1.000000  1.000000
 FoFCou: FMM=F IPFlag=           0 FMFlag=      100000 FMFlg1=        2001
         NFxFlg=           0 DoJE=T BraDBF=F KetDBF=T FulRan=T
         wScrn=  0.000000 ICntrl=       500 IOpCl=  0 I1Cent=   200000004 NGrid=           0
         NMat0=    1 NMatS0=      1 NMatT0=    0 NMatD0=    1 NMtDS0=    0 NMtDT0=    0
 Petite list used in FoFCou.
 Requested convergence on RMS density matrix=1.00D-08 within 128 cycles.
 Requested convergence on MAX density matrix=1.00D-06.
 Requested convergence on             energy=1.00D-06.
 No special actions if energy rises.
 EnCoef did     4 forward-backward iterations
 EnCoef did     2 forward-backward iterations
 EnCoef did     9 forward-backward iterations
 EnCoef did     2 forward-backward iterations
 SCF Done:  E(RB3LYP) =  -5333.60503078     A.U. after   20 cycles
            NFock= 20  Conv=0.45D-08     -V/T= 2.0081
 SCF density gives NOpUse=  1 NOpAll=  1.
 Hyperfine terms turned off by default for NAtoms > 100.

 **********************************************************************

            Population analysis using the SCF density.

 **********************************************************************

 Orbital symmetries:
 BldTbl:  Degeneracy threshold= 1.00D-02
       Occupied  (A) (A) (A) (A) (A) (A) (A) (A) (A) (A) (A) (A)
                 (A) (A) (A) (A) (A) (A) (A) (A) (A) (A) (A) (A)
                 (A) (A) (A) (A) (A) (A) (A) (A) (A) (A) (A) (A)
                 (A) (A) (A) (A) (A) (A) (A) (A) (A) (A) (A) (A)
                 (A) (A) (A) (A) (A) (A) (A) (A) (A) (A) (A) (A)
                 (A) (A) (A) (A) (A) (A) (A) (A) (A) (A) (A) (A)
                 (A) (A) (A) (A) (A) (A) (A) (A) (A) (A) (A) (A)
                 (A) (A) (A) (A) (A) (A) (A) (A) (A) (A) (A) (A)
                 (A) (A) (A) (A) (A) (A) (A) (A) (A) (A) (A) (A)
                 (A) (A) (A) (A) (A) (A) (A) (A) (A) (A) (A) (A)
                 (A) (A) (A) (A) (A) (A) (A) (A) (A) (A) (A) (A)
                 (A) (A) (A) (A) (A) (A) (A) (A) (A) (A) (A) (A)
                 (A) (A) (A) (A) (A) (A) (A) (A) (A) (A) (A) (A)
                 (A) (A) (A) (A) (A) (A) (A) (A) (A) (A) (A) (A)
                 (A) (A) (A) (A) (A) (A) (A) (A) (A) (A) (A) (A)
                 (A) (A) (A) (A) (A) (A) (A) (A) (A) (A) (A) (A)
                 (A) (A) (A) (A) (A) (A) (A) (A) (A) (A) (A) (A)
                 (A) (A) (A) (A) (A) (A) (A) (A) (A) (A) (A) (A)
                 (A) (A) (A) (A) (A) (A) (A) (A) (A) (A) (A) (A)
                 (A) (A) (A) (A) (A) (A) (A) (A) (A) (A) (A) (A)
                 (A) (A) (A) (A) (A) (A) (A) (A) (A) (A) (A) (A)
                 (A) (A) (A) (A) (A) (A) (A) (A) (A) (A) (A) (A)
                 (A) (A) (A) (A) (A) (A) (A) (A) (A) (A) (A) (A)
                 (A) (A) (A) (A) (A) (A) (A) (A) (A) (A) (A) (A)
                 (A) (A) (A) (A) (A) (A) (A) (A) (A) (A) (A) (A)
                 (A) (A) (A) (A) (A) (A) (A) (A) (A) (A) (A) (A)
                 (A) (A) (A) (A) (A) (A) (A) (A) (A) (A) (A) (A)
                 (A) (A) (A) (A) (A) (A) (A) (A) (A) (A) (A) (A)
                 (A) (A) (A) (A) (A) (A) (A) (A) (A) (A) (A) (A)
                 (A) (A) (A) (A) (A) (A) (A) (A) (A) (A)
       Virtual   (A) (A) (A) (A) (A) (A) (A) (A) (A) (A) (A) (A)
                 (A) (A) (A) (A) (A) (A) (A) (A) (A) (A) (A) (A)
                 (A) (A) (A) (A) (A) (A) (A) (A) (A) (A) (A) (A)
                 (A) (A) (A) (A) (A) (A) (A) (A) (A) (A) (A) (A)
                 (A) (A) (A) (A) (A) (A) (A) (A) (A) (A) (A) (A)
                 (A) (A) (A) (A) (A) (A) (A) (A) (A) (A) (A) (A)
                 (A) (A) (A) (A) (A) (A) (A) (A) (A) (A) (A) (A)
                 (A) (A) (A) (A) (A) (A) (A) (A) (A) (A) (A) (A)
                 (A) (A) (A) (A) (A) (A) (A) (A) (A) (A) (A) (A)
                 (A) (A) (A) (A) (A) (A) (A) (A) (A) (A) (A) (A)
                 (A) (A) (A) (A) (A) (A) (A) (A) (A) (A) (A) (A)
                 (A) (A) (A) (A) (A) (A) (A) (A) (A) (A) (A) (A)
                 (A) (A) (A) (A) (A) (A) (A) (A) (A) (A) (A) (A)
                 (A) (A) (A) (A) (A) (A) (A) (A) (A) (A) (A) (A)
                 (A) (A) (A) (A) (A) (A) (A) (A) (A) (A) (A) (A)
                 (A) (A) (A) (A) (A) (A) (A) (A) (A) (A) (A) (A)
                 (A) (A) (A) (A) (A) (A) (A) (A) (A) (A) (A) (A)
                 (A) (A) (A) (A) (A) (A) (A) (A) (A) (A) (A) (A)
                 (A) (A) (A) (A) (A) (A) (A) (A) (A) (A) (A) (A)
                 (A) (A) (A) (A) (A) (A) (A) (A) (A) (A) (A) (A)
                 (A) (A) (A) (A) (A) (A) (A) (A) (A) (A) (A) (A)
                 (A) (A) (A) (A) (A) (A) (A) (A) (A) (A) (A) (A)
                 (A) (A) (A) (A) (A) (A) (A) (A) (A) (A) (A) (A)
                 (A) (A) (A) (A) (A) (A) (A) (A) (A) (A) (A) (A)
                 (A) (A) (A) (A) (A) (A) (A) (A) (A) (A) (A) (A)
                 (A) (A) (A) (A) (A) (A) (A) (A) (A) (A) (A) (A)
                 (A) (A) (A) (A) (A) (A) (A) (A) (A) (A) (A) (A)
                 (A) (A) (A) (A) (A) (A) (A) (A) (A) (A) (A) (A)
                 (A) (A) (A) (A) (A) (A) (A) (A) (A) (A) (A) (A)
                 (A) (A) (A) (A) (A) (A) (A) (A) (A) (A) (A) (A)
                 (A) (A) (A) (A) (A) (A) (A) (A) (A) (A) (A) (A)
                 (A) (A) (A) (A) (A) (A) (A) (A) (A) (A) (A) (A)
                 (A) (A) (A) (A) (A) (A) (A) (A) (A) (A) (A) (A)
                 (A) (A) (A) (A) (A) (A) (A) (A) (A) (A) (A) (A)
                 (A) (A) (A) (A) (A) (A) (A) (A) (A) (A) (A) (A)
                 (A) (A) (A) (A) (A) (A) (A) (A) (A) (A) (A) (A)
                 (A) (A) (A) (A) (A) (A) (A) (A) (A) (A) (A) (A)
                 (A) (A) (A) (A) (A) (A) (A) (A) (A) (A) (A) (A)
                 (A) (A) (A) (A) (A) (A) (A) (A) (A) (A) (A) (A)
                 (A) (A) (A) (A) (A) (A) (A) (A) (A) (A) (A) (A)
                 (A) (A) (A) (A) (A) (A) (A) (A) (A) (A) (A) (A)
                 (A) (A) (A) (A) (A) (A) (A) (A) (A) (A) (A) (A)
                 (A) (A) (A) (A) (A) (A) (A) (A) (A) (A) (A) (A)
                 (A) (A) (A) (A) (A) (A) (A) (A) (A) (A) (A) (A)
                 (A) (A) (A) (A) (A) (A) (A) (A) (A) (A) (A) (A)
                 (A) (A) (A) (A) (A) (A) (A) (A) (A) (A) (A) (A)
                 (A) (A) (A) (A) (A) (A) (A) (A) (A) (A) (A) (A)
                 (A) (A) (A) (A) (A) (A) (A) (A) (A) (A) (A) (A)
                 (A) (A) (A) (A) (A) (A) (A) (A) (A) (A) (A) (A)
                 (A) (A) (A) (A) (A) (A) (A) (A) (A) (A) (A) (A)
                 (A) (A) (A) (A) (A) (A) (A) (A) (A) (A) (A) (A)
                 (A) (A) (A) (A) (A) (A) (A) (A) (A) (A) (A) (A)
                 (A) (A) (A) (A) (A) (A) (A) (A) (A) (A) (A) (A)
                 (A) (A) (A) (A) (A) (A) (A) (A) (A) (A) (A) (A)
                 (A) (A) (A) (A) (A) (A) (A) (A) (A) (A) (A) (A)
                 (A) (A) (A) (A) (A) (A) (A) (A) (A) (A) (A) (A)
                 (A) (A) (A) (A) (A) (A) (A) (A) (A) (A) (A) (A)
                 (A) (A) (A) (A) (A) (A) (A) (A) (A) (A) (A) (A)
                 (A) (A) (A) (A) (A) (A) (A) (A) (A) (A) (A) (A)
                 (A) (A) (A) (A) (A) (A) (A) (A) (A) (A) (A) (A)
                 (A) (A) (A) (A) (A) (A) (A) (A) (A) (A) (A) (A)
                 (A) (A) (A) (A) (A) (A) (A) (A) (A) (A) (A) (A)
                 (A) (A) (A) (A) (A) (A) (A) (A) (A) (A) (A) (A)
                 (A) (A) (A) (A) (A) (A) (A) (A) (A) (A) (A) (A)
                 (A) (A) (A) (A) (A) (A) (A) (A) (A) (A) (A) (A)
                 (A) (A) (A) (A) (A) (A) (A) (A) (A) (A) (A) (A)
                 (A) (A) (A) (A) (A) (A) (A) (A) (A) (A) (A) (A)
                 (A) (A) (A) (A) (A) (A) (A) (A) (A) (A) (A) (A)
                 (A) (A) (A) (A) (A) (A) (A) (A) (A) (A) (A) (A)
                 (A) (A) (A) (A) (A) (A) (A) (A) (A) (A) (A) (A)
                 (A) (A) (A) (A) (A) (A) (A) (A) (A) (A) (A) (A)
                 (A) (A) (A) (A) (A) (A) (A) (A) (A) (A) (A) (A)
                 (A) (A) (A) (A) (A) (A) (A) (A) (A) (A) (A) (A)
                 (A) (A) (A) (A) (A) (A) (A) (A) (A) (A) (A) (A)
                 (A) (A) (A) (A) (A) (A) (A) (A) (A) (A) (A) (A)
                 (A) (A) (A) (A) (A) (A) (A) (A) (A) (A) (A) (A)
                 (A) (A) (A) (A) (A) (A) (A) (A) (A) (A) (A) (A)
                 (A) (A) (A) (A) (A) (A) (A) (A) (A) (A) (A) (A)
                 (A) (A) (A) (A) (A) (A) (A) (A) (A) (A) (A) (A)
                 (A) (A) (A) (A) (A) (A) (A) (A) (A) (A) (A) (A)
                 (A) (A) (A) (A) (A) (A) (A) (A) (A) (A) (A) (A)
                 (A) (A) (A) (A) (A) (A) (A) (A) (A) (A) (A) (A)
                 (A) (A) (A) (A) (A) (A) (A) (A) (A) (A) (A) (A)
                 (A) (A) (A) (A) (A) (A) (A) (A) (A) (A) (A) (A)
                 (A) (A) (A) (A) (A) (A) (A) (A) (A) (A) (A) (A)
                 (A) (A) (A) (A) (A) (A) (A) (A) (A) (A) (A) (A)
                 (A) (A) (A) (A) (A) (A) (A) (A) (A) (A) (A) (A)
                 (A) (A) (A) (A) (A) (A) (A) (A) (A) (A) (A) (A)
                 (A) (A) (A) (A) (A) (A) (A) (A) (A) (A) (A) (A)
                 (A) (A) (A) (A) (A) (A) (A) (A) (A) (A) (A) (A)
                 (A) (A) (A) (A) (A) (A) (A) (A) (A) (A) (A) (A)
                 (A) (A) (A) (A) (A) (A) (A) (A) (A) (A) (A) (A)
                 (A) (A) (A) (A) (A) (A) (A) (A) (A) (A) (A) (A)
                 (A) (A) (A) (A) (A) (A) (A) (A) (A) (A) (A) (A)
                 (A) (A) (A) (A) (A) (A) (A) (A) (A) (A) (A) (A)
                 (A) (A) (A) (A) (A) (A) (A) (A) (A) (A) (A) (A)
                 (A) (A) (A) (A) (A) (A) (A) (A) (A) (A) (A) (A)
                 (A) (A) (A) (A) (A) (A) (A) (A) (A) (A) (A) (A)
                 (A) (A) (A) (A) (A) (A) (A) (A) (A) (A) (A) (A)
                 (A) (A) (A) (A) (A) (A) (A) (A) (A) (A) (A) (A)
                 (A) (A) (A) (A) (A) (A) (A) (A) (A) (A) (A) (A)
                 (A) (A) (A) (A) (A) (A) (A) (A) (A) (A) (A) (A)
                 (A) (A) (A) (A) (A) (A) (A) (A) (A) (A) (A) (A)
                 (A) (A) (A) (A) (A) (A) (A) (A) (A) (A) (A) (A)
                 (A) (A) (A) (A) (A) (A) (A) (A) (A) (A) (A) (A)
                 (A) (A) (A) (A) (A) (A) (A) (A) (A) (A) (A) (A)
                 (A) (A) (A) (A) (A) (A) (A) (A) (A) (A) (A) (A)
                 (A) (A) (A) (A) (A) (A) (A) (A) (A) (A) (A) (A)
                 (A) (A) (A) (A) (A) (A) (A) (A) (A) (A) (A) (A)
                 (A) (A) (A) (A) (A) (A) (A) (A) (A) (A) (A) (A)
                 (A) (A) (A) (A) (A) (A) (A) (A) (A) (A) (A) (A)
                 (A) (A) (A) (A) (A) (A) (A) (A) (A) (A) (A) (A)
                 (A) (A) (A) (A) (A) (A) (A) (A) (A) (A) (A) (A)
                 (A) (A) (A)
 The electronic state is 1-A.
 Alpha  occ. eigenvalues -- -145.36179 -19.13624 -19.13029 -19.12744 -19.12012
 Alpha  occ. eigenvalues --  -19.11983 -19.11362 -19.10799 -19.09836 -19.08442
 Alpha  occ. eigenvalues --  -19.08139 -19.07521 -19.07500 -19.07033 -19.06560
 Alpha  occ. eigenvalues --  -19.06415 -19.05976 -19.05697 -19.05565 -19.05160
 Alpha  occ. eigenvalues --  -19.04952 -19.04851 -19.04791 -19.03817 -15.41952
 Alpha  occ. eigenvalues --  -14.59320 -14.38611 -14.37843 -14.36664 -14.36622
 Alpha  occ. eigenvalues --  -14.35976 -14.34286 -14.33212 -14.33160 -14.32491
 Alpha  occ. eigenvalues --  -14.31813 -14.31610 -14.31506 -14.30938 -14.30612
 Alpha  occ. eigenvalues --  -12.55553 -12.55530 -12.55512 -10.35069 -10.31695
 Alpha  occ. eigenvalues --  -10.30311 -10.29772 -10.29702 -10.28426 -10.27721
 Alpha  occ. eigenvalues --  -10.27424 -10.26711 -10.25887 -10.25842 -10.25812
 Alpha  occ. eigenvalues --  -10.25376 -10.25007 -10.25006 -10.24897 -10.24587
 Alpha  occ. eigenvalues --  -10.24417 -10.24280 -10.24221 -10.24106 -10.23968
 Alpha  occ. eigenvalues --  -10.23745 -10.23195 -10.22646 -10.22243 -10.22118
 Alpha  occ. eigenvalues --  -10.21835 -10.21723 -10.21055 -10.21047 -10.20957
 Alpha  occ. eigenvalues --  -10.20679 -10.20406 -10.20402 -10.19951 -10.19094
 Alpha  occ. eigenvalues --  -10.18822 -10.18569 -10.18459 -10.17912 -10.17504
 Alpha  occ. eigenvalues --  -10.17488 -10.17457 -10.17348 -10.17221 -10.16887
 Alpha  occ. eigenvalues --  -10.16856 -10.16573 -10.16453 -10.16302 -10.16166
 Alpha  occ. eigenvalues --  -10.16101 -10.15946  -1.78937  -1.14649  -1.06614
 Alpha  occ. eigenvalues --   -1.06597  -1.06345  -1.06310  -1.04457  -1.04408
 Alpha  occ. eigenvalues --   -1.03649  -1.02614  -1.02424  -1.02383  -1.01480
 Alpha  occ. eigenvalues --   -1.01392  -1.01132  -1.00633  -1.00048  -0.99808
 Alpha  occ. eigenvalues --   -0.99596  -0.99108  -0.98847  -0.98492  -0.97975
 Alpha  occ. eigenvalues --   -0.97802  -0.97534  -0.95676  -0.94324  -0.93595
 Alpha  occ. eigenvalues --   -0.92935  -0.92164  -0.91740  -0.91686  -0.90945
 Alpha  occ. eigenvalues --   -0.90130  -0.89836  -0.89714  -0.89563  -0.89079
 Alpha  occ. eigenvalues --   -0.88768  -0.88068  -0.87592  -0.86934  -0.86881
 Alpha  occ. eigenvalues --   -0.82328  -0.82071  -0.81518  -0.81394  -0.79445
 Alpha  occ. eigenvalues --   -0.77828  -0.77378  -0.76974  -0.76816  -0.76581
 Alpha  occ. eigenvalues --   -0.75665  -0.74842  -0.74063  -0.73986  -0.72667
 Alpha  occ. eigenvalues --   -0.71971  -0.71648  -0.71611  -0.70756  -0.70686
 Alpha  occ. eigenvalues --   -0.69556  -0.69062  -0.68594  -0.67769  -0.67241
 Alpha  occ. eigenvalues --   -0.66418  -0.65828  -0.65630  -0.64252  -0.64038
 Alpha  occ. eigenvalues --   -0.63564  -0.63371  -0.62667  -0.61991  -0.61454
 Alpha  occ. eigenvalues --   -0.60875  -0.60199  -0.60123  -0.59915  -0.59555
 Alpha  occ. eigenvalues --   -0.59138  -0.58769  -0.58336  -0.57603  -0.57215
 Alpha  occ. eigenvalues --   -0.57134  -0.56768  -0.56622  -0.56454  -0.55625
 Alpha  occ. eigenvalues --   -0.55460  -0.55267  -0.54556  -0.54190  -0.54067
 Alpha  occ. eigenvalues --   -0.53594  -0.53457  -0.53053  -0.52656  -0.52517
 Alpha  occ. eigenvalues --   -0.52418  -0.52078  -0.51894  -0.51322  -0.51185
 Alpha  occ. eigenvalues --   -0.50819  -0.50545  -0.50107  -0.49950  -0.49694
 Alpha  occ. eigenvalues --   -0.49350  -0.48839  -0.48681  -0.48527  -0.48296
 Alpha  occ. eigenvalues --   -0.48190  -0.48098  -0.47916  -0.47626  -0.47594
 Alpha  occ. eigenvalues --   -0.47429  -0.47283  -0.47125  -0.46809  -0.46421
 Alpha  occ. eigenvalues --   -0.46335  -0.45568  -0.45449  -0.45083  -0.44807
 Alpha  occ. eigenvalues --   -0.44592  -0.44527  -0.44183  -0.44102  -0.44088
 Alpha  occ. eigenvalues --   -0.43966  -0.43855  -0.43661  -0.43460  -0.43302
 Alpha  occ. eigenvalues --   -0.43112  -0.43014  -0.42880  -0.42704  -0.42427
 Alpha  occ. eigenvalues --   -0.42418  -0.42255  -0.41885  -0.41826  -0.41601
 Alpha  occ. eigenvalues --   -0.41536  -0.41344  -0.41257  -0.41133  -0.41054
 Alpha  occ. eigenvalues --   -0.40964  -0.40869  -0.40617  -0.40463  -0.40394
 Alpha  occ. eigenvalues --   -0.40324  -0.40233  -0.40139  -0.39975  -0.39746
 Alpha  occ. eigenvalues --   -0.39560  -0.39344  -0.39293  -0.39108  -0.38988
 Alpha  occ. eigenvalues --   -0.38874  -0.38658  -0.38494  -0.38306  -0.38274
 Alpha  occ. eigenvalues --   -0.38101  -0.37978  -0.37905  -0.37854  -0.37771
 Alpha  occ. eigenvalues --   -0.37695  -0.37428  -0.37385  -0.37287  -0.37193
 Alpha  occ. eigenvalues --   -0.37167  -0.37066  -0.36723  -0.36404  -0.36268
 Alpha  occ. eigenvalues --   -0.35989  -0.35856  -0.35798  -0.35724  -0.35381
 Alpha  occ. eigenvalues --   -0.35179  -0.35079  -0.34835  -0.34484  -0.34435
 Alpha  occ. eigenvalues --   -0.34251  -0.34185  -0.33906  -0.33713  -0.33406
 Alpha  occ. eigenvalues --   -0.33154  -0.33090  -0.32895  -0.32779  -0.32595
 Alpha  occ. eigenvalues --   -0.32489  -0.31893  -0.31834  -0.31695  -0.31330
 Alpha  occ. eigenvalues --   -0.31296  -0.30157  -0.30106  -0.29960  -0.29449
 Alpha  occ. eigenvalues --   -0.29184  -0.28852  -0.28556  -0.28283  -0.27870
 Alpha  occ. eigenvalues --   -0.27479  -0.26326  -0.26222  -0.25853  -0.25722
 Alpha  occ. eigenvalues --   -0.25680  -0.25346  -0.25156  -0.25127  -0.24961
 Alpha  occ. eigenvalues --   -0.24674  -0.24400  -0.24077  -0.23838  -0.23730
 Alpha  occ. eigenvalues --   -0.23537  -0.23532  -0.23353  -0.23100  -0.22485
 Alpha  occ. eigenvalues --   -0.22367  -0.22021  -0.21719  -0.21602  -0.21303
 Alpha  occ. eigenvalues --   -0.21252  -0.20764  -0.20533  -0.20452  -0.20446
 Alpha  occ. eigenvalues --   -0.20332  -0.19418  -0.18831
 Alpha virt. eigenvalues --   -0.11158  -0.05828  -0.04995  -0.02264  -0.01583
 Alpha virt. eigenvalues --   -0.00506   0.00132   0.00339   0.00640   0.01007
 Alpha virt. eigenvalues --    0.01399   0.01805   0.02035   0.02249   0.02515
 Alpha virt. eigenvalues --    0.02703   0.03501   0.03759   0.03974   0.04313
 Alpha virt. eigenvalues --    0.04554   0.04613   0.04660   0.04888   0.05023
 Alpha virt. eigenvalues --    0.05445   0.05495   0.05645   0.05945   0.06185
 Alpha virt. eigenvalues --    0.06251   0.06401   0.06566   0.06727   0.06971
 Alpha virt. eigenvalues --    0.07128   0.07147   0.07431   0.07649   0.07892
 Alpha virt. eigenvalues --    0.08038   0.08164   0.08468   0.08745   0.08893
 Alpha virt. eigenvalues --    0.09149   0.09393   0.09521   0.09796   0.09934
 Alpha virt. eigenvalues --    0.10269   0.10608   0.10759   0.10812   0.11065
 Alpha virt. eigenvalues --    0.11238   0.11477   0.11855   0.12021   0.12037
 Alpha virt. eigenvalues --    0.12214   0.12296   0.12464   0.12608   0.12782
 Alpha virt. eigenvalues --    0.12973   0.13323   0.13568   0.13772   0.13851
 Alpha virt. eigenvalues --    0.13910   0.14122   0.14371   0.14527   0.14730
 Alpha virt. eigenvalues --    0.14785   0.14874   0.15086   0.15242   0.15432
 Alpha virt. eigenvalues --    0.15564   0.15704   0.16031   0.16177   0.16359
 Alpha virt. eigenvalues --    0.16389   0.16721   0.16754   0.16904   0.17171
 Alpha virt. eigenvalues --    0.17376   0.17668   0.17733   0.17799   0.17963
 Alpha virt. eigenvalues --    0.18080   0.18239   0.18485   0.18580   0.18891
 Alpha virt. eigenvalues --    0.19099   0.19235   0.19669   0.19700   0.19989
 Alpha virt. eigenvalues --    0.20298   0.20686   0.20697   0.20836   0.20947
 Alpha virt. eigenvalues --    0.21236   0.21384   0.21555   0.21733   0.21907
 Alpha virt. eigenvalues --    0.22109   0.22166   0.22462   0.22784   0.22847
 Alpha virt. eigenvalues --    0.23161   0.23612   0.23648   0.23722   0.23981
 Alpha virt. eigenvalues --    0.24319   0.24453   0.24732   0.24872   0.25045
 Alpha virt. eigenvalues --    0.25169   0.25457   0.25611   0.25840   0.26069
 Alpha virt. eigenvalues --    0.26313   0.26394   0.26633   0.26818   0.27005
 Alpha virt. eigenvalues --    0.27104   0.27150   0.27495   0.27774   0.27961
 Alpha virt. eigenvalues --    0.28076   0.28396   0.28518   0.28721   0.28967
 Alpha virt. eigenvalues --    0.29033   0.29469   0.29805   0.29928   0.30113
 Alpha virt. eigenvalues --    0.30687   0.30872   0.30995   0.31243   0.31577
 Alpha virt. eigenvalues --    0.31673   0.32264   0.32391   0.32778   0.32853
 Alpha virt. eigenvalues --    0.33003   0.33212   0.33313   0.33857   0.34121
 Alpha virt. eigenvalues --    0.34470   0.34683   0.35007   0.35203   0.35353
 Alpha virt. eigenvalues --    0.35861   0.36064   0.36263   0.36861   0.37144
 Alpha virt. eigenvalues --    0.37337   0.37536   0.37766   0.37812   0.38396
 Alpha virt. eigenvalues --    0.38604   0.38876   0.39150   0.39277   0.39340
 Alpha virt. eigenvalues --    0.39833   0.40052   0.40303   0.40316   0.40675
 Alpha virt. eigenvalues --    0.41059   0.41352   0.41525   0.41786   0.42061
 Alpha virt. eigenvalues --    0.42429   0.42571   0.43191   0.43328   0.43409
 Alpha virt. eigenvalues --    0.43695   0.43834   0.44304   0.44464   0.44517
 Alpha virt. eigenvalues --    0.44870   0.44964   0.45462   0.45576   0.45621
 Alpha virt. eigenvalues --    0.45740   0.45963   0.46034   0.46545   0.46612
 Alpha virt. eigenvalues --    0.46696   0.46899   0.47116   0.47332   0.47628
 Alpha virt. eigenvalues --    0.47829   0.47888   0.48129   0.48342   0.48398
 Alpha virt. eigenvalues --    0.48622   0.48690   0.48907   0.49175   0.49373
 Alpha virt. eigenvalues --    0.49595   0.49748   0.50122   0.50372   0.50615
 Alpha virt. eigenvalues --    0.50854   0.51066   0.51248   0.51455   0.51637
 Alpha virt. eigenvalues --    0.51892   0.51932   0.52176   0.52387   0.52567
 Alpha virt. eigenvalues --    0.52792   0.52915   0.53137   0.53278   0.53360
 Alpha virt. eigenvalues --    0.53684   0.53909   0.54010   0.54100   0.54192
 Alpha virt. eigenvalues --    0.54316   0.54426   0.54723   0.55009   0.55105
 Alpha virt. eigenvalues --    0.55254   0.55515   0.55768   0.55996   0.56123
 Alpha virt. eigenvalues --    0.56377   0.56519   0.56707   0.56928   0.57099
 Alpha virt. eigenvalues --    0.57250   0.57432   0.57596   0.57754   0.57902
 Alpha virt. eigenvalues --    0.58082   0.58242   0.58402   0.58487   0.58560
 Alpha virt. eigenvalues --    0.58794   0.58951   0.59119   0.59431   0.59508
 Alpha virt. eigenvalues --    0.59698   0.59775   0.59875   0.60022   0.60068
 Alpha virt. eigenvalues --    0.60466   0.60564   0.60751   0.60978   0.61041
 Alpha virt. eigenvalues --    0.61113   0.61265   0.61593   0.61755   0.61795
 Alpha virt. eigenvalues --    0.62080   0.62144   0.62306   0.62389   0.62676
 Alpha virt. eigenvalues --    0.62814   0.62893   0.63078   0.63108   0.63182
 Alpha virt. eigenvalues --    0.63279   0.63485   0.63608   0.63787   0.63956
 Alpha virt. eigenvalues --    0.64015   0.64098   0.64240   0.64327   0.64572
 Alpha virt. eigenvalues --    0.64830   0.64895   0.65002   0.65102   0.65359
 Alpha virt. eigenvalues --    0.65483   0.65575   0.65654   0.65763   0.65856
 Alpha virt. eigenvalues --    0.65917   0.66053   0.66170   0.66251   0.66420
 Alpha virt. eigenvalues --    0.66484   0.66592   0.66679   0.66733   0.66948
 Alpha virt. eigenvalues --    0.67096   0.67158   0.67243   0.67513   0.67633
 Alpha virt. eigenvalues --    0.67727   0.67841   0.67919   0.67998   0.68130
 Alpha virt. eigenvalues --    0.68238   0.68270   0.68398   0.68462   0.68505
 Alpha virt. eigenvalues --    0.68635   0.68781   0.68874   0.69112   0.69139
 Alpha virt. eigenvalues --    0.69256   0.69330   0.69407   0.69517   0.69550
 Alpha virt. eigenvalues --    0.69687   0.69880   0.69938   0.69966   0.70094
 Alpha virt. eigenvalues --    0.70238   0.70310   0.70529   0.70595   0.70734
 Alpha virt. eigenvalues --    0.70953   0.71005   0.71211   0.71273   0.71424
 Alpha virt. eigenvalues --    0.71530   0.71667   0.71819   0.71856   0.71979
 Alpha virt. eigenvalues --    0.72178   0.72286   0.72508   0.72698   0.72960
 Alpha virt. eigenvalues --    0.73162   0.73292   0.73370   0.73453   0.73627
 Alpha virt. eigenvalues --    0.74002   0.74105   0.74285   0.74528   0.74716
 Alpha virt. eigenvalues --    0.74930   0.75057   0.75191   0.75367   0.75610
 Alpha virt. eigenvalues --    0.75649   0.75859   0.76068   0.76116   0.76210
 Alpha virt. eigenvalues --    0.76676   0.76741   0.76991   0.77203   0.77445
 Alpha virt. eigenvalues --    0.77657   0.77929   0.78011   0.78428   0.78488
 Alpha virt. eigenvalues --    0.78804   0.78961   0.79249   0.79615   0.79684
 Alpha virt. eigenvalues --    0.80095   0.80180   0.80478   0.80795   0.81181
 Alpha virt. eigenvalues --    0.81340   0.81620   0.81781   0.82259   0.82490
 Alpha virt. eigenvalues --    0.82658   0.83119   0.83521   0.83570   0.83729
 Alpha virt. eigenvalues --    0.84223   0.84416   0.84787   0.84912   0.85184
 Alpha virt. eigenvalues --    0.85427   0.85642   0.85801   0.85986   0.86650
 Alpha virt. eigenvalues --    0.86814   0.87299   0.87469   0.87954   0.88421
 Alpha virt. eigenvalues --    0.88688   0.88783   0.89212   0.89569   0.89780
 Alpha virt. eigenvalues --    0.90201   0.90372   0.90614   0.90947   0.91203
 Alpha virt. eigenvalues --    0.91751   0.91879   0.91962   0.92634   0.92644
 Alpha virt. eigenvalues --    0.92896   0.93230   0.93394   0.93754   0.93886
 Alpha virt. eigenvalues --    0.94138   0.94775   0.95109   0.95186   0.95527
 Alpha virt. eigenvalues --    0.95657   0.95963   0.96481   0.96755   0.96839
 Alpha virt. eigenvalues --    0.97253   0.97662   0.98212   0.98245   0.98525
 Alpha virt. eigenvalues --    0.98580   0.99038   0.99239   0.99694   0.99769
 Alpha virt. eigenvalues --    1.00208   1.00531   1.00600   1.01331   1.01610
 Alpha virt. eigenvalues --    1.01671   1.01942   1.02245   1.02417   1.02504
 Alpha virt. eigenvalues --    1.02979   1.03180   1.03500   1.03992   1.04226
 Alpha virt. eigenvalues --    1.04360   1.04519   1.05003   1.05347   1.05446
 Alpha virt. eigenvalues --    1.05861   1.06141   1.06284   1.06536   1.07071
 Alpha virt. eigenvalues --    1.07152   1.07432   1.07948   1.08019   1.08747
 Alpha virt. eigenvalues --    1.08863   1.09352   1.09413   1.09842   1.10088
 Alpha virt. eigenvalues --    1.10621   1.11060   1.11462   1.11614   1.11845
 Alpha virt. eigenvalues --    1.12044   1.12220   1.12560   1.12625   1.13173
 Alpha virt. eigenvalues --    1.13647   1.13919   1.14170   1.14548   1.14697
 Alpha virt. eigenvalues --    1.14779   1.15295   1.15719   1.15843   1.16065
 Alpha virt. eigenvalues --    1.16197   1.16546   1.16978   1.17519   1.17641
 Alpha virt. eigenvalues --    1.17844   1.18224   1.18315   1.18791   1.18941
 Alpha virt. eigenvalues --    1.19156   1.19501   1.19678   1.19734   1.20128
 Alpha virt. eigenvalues --    1.20390   1.20473   1.21173   1.21287   1.21769
 Alpha virt. eigenvalues --    1.22153   1.22258   1.22660   1.22791   1.23019
 Alpha virt. eigenvalues --    1.23179   1.23254   1.23618   1.23817   1.24396
 Alpha virt. eigenvalues --    1.24471   1.24547   1.24836   1.25056   1.25339
 Alpha virt. eigenvalues --    1.25447   1.25604   1.26089   1.26540   1.26697
 Alpha virt. eigenvalues --    1.26919   1.27195   1.27558   1.27684   1.27866
 Alpha virt. eigenvalues --    1.27982   1.28337   1.28546   1.28916   1.29178
 Alpha virt. eigenvalues --    1.29514   1.29580   1.29859   1.29992   1.30302
 Alpha virt. eigenvalues --    1.30503   1.30695   1.30777   1.31092   1.31425
 Alpha virt. eigenvalues --    1.31604   1.32044   1.32403   1.32553   1.32845
 Alpha virt. eigenvalues --    1.33018   1.33566   1.33813   1.34225   1.34553
 Alpha virt. eigenvalues --    1.34960   1.35269   1.35892   1.36283   1.36398
 Alpha virt. eigenvalues --    1.36612   1.36694   1.37305   1.37584   1.37608
 Alpha virt. eigenvalues --    1.37811   1.37932   1.38362   1.38577   1.38750
 Alpha virt. eigenvalues --    1.38850   1.38937   1.39334   1.39422   1.39758
 Alpha virt. eigenvalues --    1.39826   1.40078   1.40129   1.40794   1.41071
 Alpha virt. eigenvalues --    1.41216   1.41467   1.41665   1.42239   1.42304
 Alpha virt. eigenvalues --    1.42604   1.43095   1.43222   1.43658   1.44004
 Alpha virt. eigenvalues --    1.44274   1.44435   1.44753   1.45008   1.45207
 Alpha virt. eigenvalues --    1.45256   1.45489   1.46100   1.46331   1.46391
 Alpha virt. eigenvalues --    1.47323   1.47573   1.47752   1.48129   1.48564
 Alpha virt. eigenvalues --    1.48806   1.49372   1.49649   1.49899   1.50211
 Alpha virt. eigenvalues --    1.50460   1.50901   1.51122   1.51359   1.51412
 Alpha virt. eigenvalues --    1.51633   1.52053   1.52243   1.52449   1.52622
 Alpha virt. eigenvalues --    1.52679   1.52872   1.53108   1.53325   1.53812
 Alpha virt. eigenvalues --    1.54074   1.54408   1.54590   1.54855   1.54959
 Alpha virt. eigenvalues --    1.55232   1.55603   1.56048   1.56662   1.57006
 Alpha virt. eigenvalues --    1.57379   1.57755   1.58318   1.58575   1.58959
 Alpha virt. eigenvalues --    1.59175   1.59903   1.59988   1.60654   1.60710
 Alpha virt. eigenvalues --    1.61209   1.61383   1.61709   1.61900   1.62342
 Alpha virt. eigenvalues --    1.62852   1.63241   1.63711   1.63891   1.64093
 Alpha virt. eigenvalues --    1.64450   1.64612   1.64982   1.65080   1.65626
 Alpha virt. eigenvalues --    1.65919   1.66234   1.66673   1.66759   1.66927
 Alpha virt. eigenvalues --    1.67078   1.67360   1.67533   1.68007   1.68203
 Alpha virt. eigenvalues --    1.68340   1.68676   1.68958   1.69346   1.69544
 Alpha virt. eigenvalues --    1.69642   1.69783   1.70272   1.70414   1.70478
 Alpha virt. eigenvalues --    1.70968   1.71248   1.71620   1.71709   1.72252
 Alpha virt. eigenvalues --    1.72602   1.72720   1.72766   1.72954   1.73003
 Alpha virt. eigenvalues --    1.73437   1.73570   1.73767   1.73926   1.74198
 Alpha virt. eigenvalues --    1.74697   1.75132   1.75253   1.75584   1.75639
 Alpha virt. eigenvalues --    1.75746   1.76118   1.76148   1.76356   1.76509
 Alpha virt. eigenvalues --    1.76632   1.76860   1.77081   1.77168   1.77387
 Alpha virt. eigenvalues --    1.77499   1.77849   1.77963   1.78222   1.78404
 Alpha virt. eigenvalues --    1.78463   1.78534   1.78684   1.78713   1.78988
 Alpha virt. eigenvalues --    1.79246   1.79407   1.79567   1.79649   1.79920
 Alpha virt. eigenvalues --    1.80116   1.80634   1.80768   1.81049   1.81132
 Alpha virt. eigenvalues --    1.81219   1.81507   1.81697   1.81881   1.81970
 Alpha virt. eigenvalues --    1.82317   1.82582   1.82669   1.82719   1.82920
 Alpha virt. eigenvalues --    1.82984   1.83133   1.83294   1.83518   1.83618
 Alpha virt. eigenvalues --    1.83936   1.84152   1.84222   1.84425   1.84489
 Alpha virt. eigenvalues --    1.84572   1.84771   1.85145   1.85279   1.85425
 Alpha virt. eigenvalues --    1.85729   1.85766   1.85921   1.86051   1.86166
 Alpha virt. eigenvalues --    1.86287   1.86427   1.86669   1.86851   1.86979
 Alpha virt. eigenvalues --    1.87270   1.87341   1.87566   1.87862   1.87957
 Alpha virt. eigenvalues --    1.88064   1.88319   1.88488   1.88843   1.88973
 Alpha virt. eigenvalues --    1.89178   1.89431   1.89566   1.90006   1.90204
 Alpha virt. eigenvalues --    1.90389   1.90458   1.90498   1.90575   1.90849
 Alpha virt. eigenvalues --    1.91213   1.91279   1.91594   1.91758   1.91788
 Alpha virt. eigenvalues --    1.91979   1.92191   1.92332   1.92524   1.92951
 Alpha virt. eigenvalues --    1.93054   1.93300   1.93538   1.93711   1.93760
 Alpha virt. eigenvalues --    1.94124   1.94197   1.94461   1.94642   1.94856
 Alpha virt. eigenvalues --    1.94918   1.95360   1.95507   1.95726   1.95975
 Alpha virt. eigenvalues --    1.96279   1.96730   1.96864   1.96986   1.97158
 Alpha virt. eigenvalues --    1.97640   1.97957   1.98079   1.98239   1.98403
 Alpha virt. eigenvalues --    1.98463   1.98893   1.99261   1.99348   1.99584
 Alpha virt. eigenvalues --    1.99732   2.00009   2.00181   2.00650   2.00854
 Alpha virt. eigenvalues --    2.01057   2.01212   2.01352   2.01733   2.01910
 Alpha virt. eigenvalues --    2.02261   2.02454   2.02878   2.03038   2.03346
 Alpha virt. eigenvalues --    2.03493   2.03541   2.03753   2.04279   2.04657
 Alpha virt. eigenvalues --    2.04986   2.05514   2.05572   2.05743   2.05908
 Alpha virt. eigenvalues --    2.06051   2.06119   2.06247   2.06510   2.06645
 Alpha virt. eigenvalues --    2.07029   2.07453   2.07495   2.07867   2.08041
 Alpha virt. eigenvalues --    2.08251   2.08572   2.09321   2.09403   2.09552
 Alpha virt. eigenvalues --    2.09861   2.10025   2.10618   2.10966   2.11055
 Alpha virt. eigenvalues --    2.11564   2.11813   2.11966   2.12108   2.12297
 Alpha virt. eigenvalues --    2.12930   2.13033   2.13352   2.13503   2.13977
 Alpha virt. eigenvalues --    2.14443   2.15227   2.15688   2.15821   2.16126
 Alpha virt. eigenvalues --    2.16145   2.16422   2.16554   2.16853   2.17224
 Alpha virt. eigenvalues --    2.17526   2.17880   2.17992   2.18163   2.18402
 Alpha virt. eigenvalues --    2.18605   2.18665   2.18732   2.19240   2.19405
 Alpha virt. eigenvalues --    2.19713   2.19889   2.20191   2.20596   2.20866
 Alpha virt. eigenvalues --    2.21178   2.21380   2.21622   2.21908   2.22310
 Alpha virt. eigenvalues --    2.22377   2.22582   2.23448   2.23791   2.24295
 Alpha virt. eigenvalues --    2.24764   2.24912   2.25478   2.25702   2.25968
 Alpha virt. eigenvalues --    2.26399   2.26665   2.26960   2.27098   2.27447
 Alpha virt. eigenvalues --    2.28149   2.28944   2.29077   2.29298   2.29565
 Alpha virt. eigenvalues --    2.29721   2.30692   2.30888   2.31080   2.31276
 Alpha virt. eigenvalues --    2.31621   2.32084   2.32375   2.32673   2.32902
 Alpha virt. eigenvalues --    2.32910   2.33188   2.33428   2.33607   2.33835
 Alpha virt. eigenvalues --    2.34234   2.34582   2.35006   2.35093   2.35220
 Alpha virt. eigenvalues --    2.35584   2.35757   2.36254   2.36833   2.37040
 Alpha virt. eigenvalues --    2.37339   2.38104   2.38168   2.38592   2.38785
 Alpha virt. eigenvalues --    2.39114   2.39132   2.39287   2.39477   2.40028
 Alpha virt. eigenvalues --    2.40286   2.40359   2.40712   2.40979   2.41484
 Alpha virt. eigenvalues --    2.41861   2.42575   2.43229   2.43766   2.43961
 Alpha virt. eigenvalues --    2.44120   2.44231   2.44396   2.44541   2.45068
 Alpha virt. eigenvalues --    2.45353   2.45746   2.46132   2.46400   2.46741
 Alpha virt. eigenvalues --    2.47076   2.47440   2.47672   2.47825   2.48198
 Alpha virt. eigenvalues --    2.48609   2.49180   2.49520   2.49994   2.50102
 Alpha virt. eigenvalues --    2.50260   2.50775   2.51464   2.51599   2.51922
 Alpha virt. eigenvalues --    2.52519   2.52566   2.52746   2.53380   2.53496
 Alpha virt. eigenvalues --    2.53787   2.54695   2.55421   2.55819   2.56017
 Alpha virt. eigenvalues --    2.56183   2.57274   2.57614   2.57669   2.57946
 Alpha virt. eigenvalues --    2.58048   2.58357   2.58582   2.58749   2.59300
 Alpha virt. eigenvalues --    2.59751   2.59790   2.60432   2.60768   2.60925
 Alpha virt. eigenvalues --    2.61077   2.61187   2.61522   2.61605   2.62099
 Alpha virt. eigenvalues --    2.62292   2.62521   2.62750   2.62907   2.63438
 Alpha virt. eigenvalues --    2.63604   2.63783   2.64237   2.64467   2.64855
 Alpha virt. eigenvalues --    2.65187   2.65795   2.66056   2.66378   2.66663
 Alpha virt. eigenvalues --    2.66948   2.67243   2.67391   2.67575   2.67884
 Alpha virt. eigenvalues --    2.67985   2.68580   2.68831   2.68965   2.69399
 Alpha virt. eigenvalues --    2.69732   2.70548   2.70814   2.70852   2.70988
 Alpha virt. eigenvalues --    2.71139   2.71223   2.71597   2.71832   2.71862
 Alpha virt. eigenvalues --    2.72300   2.72595   2.72823   2.73069   2.73424
 Alpha virt. eigenvalues --    2.73632   2.74135   2.74204   2.74402   2.74429
 Alpha virt. eigenvalues --    2.74874   2.75010   2.75266   2.75724   2.76052
 Alpha virt. eigenvalues --    2.76261   2.76678   2.76733   2.76869   2.77307
 Alpha virt. eigenvalues --    2.77410   2.77944   2.78229   2.78498   2.79415
 Alpha virt. eigenvalues --    2.79549   2.79574   2.79744   2.79974   2.80074
 Alpha virt. eigenvalues --    2.80384   2.80740   2.81015   2.81124   2.81343
 Alpha virt. eigenvalues --    2.81563   2.81732   2.82096   2.82512   2.82684
 Alpha virt. eigenvalues --    2.83040   2.83426   2.83552   2.83816   2.84556
 Alpha virt. eigenvalues --    2.85056   2.85117   2.85241   2.85764   2.86100
 Alpha virt. eigenvalues --    2.86582   2.87128   2.87345   2.87492   2.87816
 Alpha virt. eigenvalues --    2.87984   2.88235   2.89059   2.89312   2.89567
 Alpha virt. eigenvalues --    2.89704   2.90091   2.90686   2.90845   2.91667
 Alpha virt. eigenvalues --    2.91918   2.92152   2.92331   2.92616   2.92822
 Alpha virt. eigenvalues --    2.92928   2.92980   2.93211   2.93903   2.94083
 Alpha virt. eigenvalues --    2.94154   2.94539   2.94827   2.94909   2.95134
 Alpha virt. eigenvalues --    2.95251   2.95945   2.96472   2.96598   2.96968
 Alpha virt. eigenvalues --    2.97322   2.98069   2.98513   2.98661   2.98679
 Alpha virt. eigenvalues --    2.98988   2.99083   2.99523   2.99738   3.00310
 Alpha virt. eigenvalues --    3.01137   3.01403   3.01456   3.01694   3.01761
 Alpha virt. eigenvalues --    3.02413   3.02526   3.02990   3.03088   3.03471
 Alpha virt. eigenvalues --    3.03880   3.03970   3.04320   3.04727   3.04869
 Alpha virt. eigenvalues --    3.05339   3.05473   3.05690   3.05870   3.06715
 Alpha virt. eigenvalues --    3.07180   3.07338   3.07598   3.07930   3.08530
 Alpha virt. eigenvalues --    3.08659   3.09220   3.09893   3.10546   3.11237
 Alpha virt. eigenvalues --    3.12302   3.12982   3.13844   3.14386   3.14623
 Alpha virt. eigenvalues --    3.14832   3.15114   3.15904   3.16044   3.16656
 Alpha virt. eigenvalues --    3.17363   3.17684   3.17882   3.18301   3.18729
 Alpha virt. eigenvalues --    3.19033   3.19273   3.19362   3.19703   3.19760
 Alpha virt. eigenvalues --    3.20191   3.20283   3.20515   3.21296   3.21579
 Alpha virt. eigenvalues --    3.21759   3.22038   3.22347   3.22525   3.23350
 Alpha virt. eigenvalues --    3.23408   3.23606   3.24150   3.25203   3.25420
 Alpha virt. eigenvalues --    3.26179   3.26806   3.27153   3.27687   3.27857
 Alpha virt. eigenvalues --    3.28388   3.28749   3.29546   3.29763   3.30991
 Alpha virt. eigenvalues --    3.31673   3.31794   3.32306   3.32870   3.35146
 Alpha virt. eigenvalues --    3.35793   3.36137   3.36316   3.37058   3.38767
 Alpha virt. eigenvalues --    3.38884   3.43112   3.44213   3.47109   3.51713
 Alpha virt. eigenvalues --    3.52647   3.54254   3.54568   3.55295   3.58126
 Alpha virt. eigenvalues --    3.59079   3.59180   3.59680   3.60084   3.60207
 Alpha virt. eigenvalues --    3.61812   3.61871   3.62327   3.62781   3.63395
 Alpha virt. eigenvalues --    3.66699   3.67348   3.67629   3.67735   3.68144
 Alpha virt. eigenvalues --    3.69224   3.69271   3.69804   3.70151   3.70212
 Alpha virt. eigenvalues --    3.70734   3.71310   3.71492   3.71601   3.72076
 Alpha virt. eigenvalues --    3.72120   3.72659   3.72870   3.74641   3.76401
 Alpha virt. eigenvalues --    3.78556   3.83363   3.83972   3.87648
          Condensed to atoms (all electrons):
 Mulliken charges:
               1
     1  C    0.056501
     2  C    0.012095
     3  O   -0.280603
     4  H    0.042637
     5  H   -0.002032
     6  H    0.034857
     7  N   -0.117263
     8  C    0.085901
     9  C    0.087256
    10  O   -0.286600
    11  C    0.086262
    12  C    0.132069
    13  O   -0.481493
    14  O   -0.374371
    15  H    0.109208
    16  H   -0.000279
    17  H    0.012042
    18  H    0.006115
    19  N   -0.115900
    20  C    0.173266
    21  C    0.052448
    22  O   -0.281994
    23  C   -0.002436
    24  C   -0.021149
    25  C   -0.043483
    26  C    0.011509
    27  N    0.084618
    28  H    0.140009
    29  H   -0.005876
    30  H    0.031275
    31  H    0.013104
    32  H    0.020873
    33  H    0.041703
    34  H    0.028045
    35  H    0.029221
    36  H    0.081049
    37  H    0.084617
    38  H    0.192236
    39  H    0.194129
    40  H    0.203607
    41  N   -0.184598
    42  C    0.155220
    43  C    0.060873
    44  O   -0.298801
    45  C    0.098121
    46  C    0.133337
    47  O   -0.485682
    48  O   -0.387713
    49  H    0.159106
    50  H    0.010389
    51  H   -0.017147
    52  H    0.033619
    53  N   -0.155092
    54  C    0.224973
    55  C    0.029684
    56  O   -0.277002
    57  H    0.142088
    58  H    0.011929
    59  H    0.018451
    60  N   -0.180766
    61  C    0.166059
    62  C    0.054602
    63  O   -0.285423
    64  C    0.054056
    65  C    0.091512
    66  N   -0.029453
    67  O   -0.355393
    68  H    0.149725
    69  H    0.028627
    70  H    0.050175
    71  H    0.034383
    72  H    0.128402
    73  H    0.129532
    74  N   -0.136678
    75  C    0.263289
    76  C    0.027343
    77  O   -0.317056
    78  H    0.149288
    79  H    0.024917
    80  H    0.018461
    81  N   -0.140536
    82  C    0.066698
    83  C    0.116492
    84  O   -0.328822
    85  C    0.190174
    86  C   -0.009262
    87  C    0.072572
    88  C    0.025252
    89  C    0.002342
    90  C   -0.074855
    91  C    0.161362
    92  O   -0.199630
    93  H    0.155763
    94  H   -0.008113
    95  H   -0.013104
    96  H   -0.037161
    97  H   -0.081524
    98  H   -0.031562
    99  H   -0.042319
   100  H   -0.051625
   101  H    0.168031
   102  N   -0.111909
   103  C    0.109317
   104  C    0.093237
   105  O   -0.273072
   106  C   -0.110689
   107  C   -0.020287
   108  C    0.067980
   109  C    0.022312
   110  H    0.134385
   111  H    0.026242
   112  H   -0.020521
   113  H   -0.000760
   114  H    0.024393
   115  H    0.025186
   116  H    0.009400
   117  H    0.010767
   118  H    0.015639
   119  H    0.008905
   120  H    0.004532
   121  N   -0.132727
   122  C    0.057573
   123  C    0.141539
   124  O   -0.286372
   125  C    0.256755
   126  O   -0.358645
   127  H    0.145582
   128  H    0.025476
   129  H    0.015798
   130  H   -0.018951
   131  H    0.172228
   132  N   -0.124610
   133  C    0.090441
   134  C    0.080283
   135  O   -0.248515
   136  C   -0.001504
   137  H    0.110182
   138  H    0.020849
   139  H    0.011699
   140  H    0.031454
   141  H    0.036822
   142  N   -0.135485
   143  C    0.117223
   144  C    0.053473
   145  O   -0.263174
   146  C    0.016913
   147  H    0.115784
   148  H    0.017738
   149  H    0.017335
   150  H    0.022142
   151  H    0.024038
   152  N   -0.161856
   153  C    0.145806
   154  C    0.069908
   155  O   -0.274098
   156  C   -0.027628
   157  C    0.112202
   158  C    0.164587
   159  O   -0.441231
   160  O   -0.408312
   161  H    0.133187
   162  H   -0.022842
   163  H    0.022412
   164  H   -0.006043
   165  H   -0.020234
   166  H   -0.038703
   167  N   -0.173556
   168  C    0.155420
   169  H    0.025455
   170  H    0.011978
   171  H    0.014269
   172  H    0.129020
   173  Ca   1.267229
   174  O   -0.324858
   175  H    0.149286
   176  H    0.161491
 Sum of Mulliken charges =  -0.00000
 Mulliken charges with hydrogens summed into heavy atoms:
               1
     1  C    0.131963
     2  C    0.012095
     3  O   -0.280603
     7  N   -0.008055
     8  C    0.085622
     9  C    0.087256
    10  O   -0.286600
    11  C    0.104420
    12  C    0.132069
    13  O   -0.481493
    14  O   -0.374371
    19  N    0.024109
    20  C    0.167390
    21  C    0.052448
    22  O   -0.281994
    23  C    0.041944
    24  C    0.041427
    25  C    0.013783
    26  C    0.177175
    27  N    0.674590
    41  N   -0.025492
    42  C    0.165609
    43  C    0.060873
    44  O   -0.298801
    45  C    0.114594
    46  C    0.133337
    47  O   -0.485682
    48  O   -0.387713
    53  N   -0.013004
    54  C    0.255353
    55  C    0.029684
    56  O   -0.277002
    60  N   -0.031041
    61  C    0.194687
    62  C    0.054602
    63  O   -0.285423
    64  C    0.138614
    65  C    0.091512
    66  N    0.228481
    67  O   -0.355393
    74  N    0.012610
    75  C    0.306667
    76  C    0.027343
    77  O   -0.317056
    81  N    0.015227
    82  C    0.058584
    83  C    0.116492
    84  O   -0.328822
    85  C    0.139910
    86  C   -0.009262
    87  C   -0.008952
    88  C   -0.006309
    89  C   -0.039977
    90  C   -0.126480
    91  C    0.161362
    92  O   -0.031599
   102  N    0.022476
   103  C    0.135560
   104  C    0.093237
   105  O   -0.273072
   106  C   -0.131210
   107  C    0.003346
   108  C    0.113334
   109  C    0.051388
   121  N    0.012855
   122  C    0.083050
   123  C    0.141539
   124  O   -0.286372
   125  C    0.253602
   126  O   -0.186417
   132  N   -0.014428
   133  C    0.111290
   134  C    0.080283
   135  O   -0.248515
   136  C    0.078471
   142  N   -0.019701
   143  C    0.134961
   144  C    0.053473
   145  O   -0.263174
   146  C    0.080429
   152  N   -0.028669
   153  C    0.122964
   154  C    0.069908
   155  O   -0.274098
   156  C   -0.011259
   157  C    0.053264
   158  C    0.164587
   159  O   -0.441231
   160  O   -0.408312
   167  N   -0.044536
   168  C    0.207121
   173  Ca   1.267229
   174  O   -0.014081
 DipInt: DoE/N= T F RetVal/Mat= T F Init=T NMatP=  1 IDeriv=0 Min/MaxMlt=  0  4
 Entering OneElI...
 OneElI was handed  1333951383 working-precision words.
 Multipole integrals L=0 to 4 MinM= 0 MaxM= 0.
 Requested accuracy = 0.1000D-12
 ShPair: Thresh= 1.00D-13 NBox=     0 BxSize= 0.00D+00 RnKept= 2.55D+01
         NSMCal=               327645 NSMKep=              159597
 PrmmSu-InSpLW:  IPartL=    0 NPrtUS=    1 NPrtUL=    1 DoSpLW=F IThBeg=    0 IThEnd=    0 NThAct=    1.
 PrsmSu:  NPrtUS=   1 ThrOK=F IAlg=1 NPAlg=1 LenDen=           0 ISkipM=0 DoSpLW=F IThBeg=    0 IThEnd=    0.
 Prism:   IPart=     0 DynPar=F LinDyn=F Incr=         512.
 PRISM was handed  1323924255 working-precision words and159597 shell-pairs
 IPart=  0 NShTot=      159597 NBatch=         364 AvBLen=       438.5
 PrsmSu-ThDecC:  IPartSL=    0    0 NPrtUSL=    1    1 IThBeg=    0 IThEnd=    0 CPU=   -1 GPU=   -1 NThAct=    1.
 PrSmSu:  NxtVal=            513.
 Electronic moments (au):
       -716.00000000          9.88602974          3.98272080         -7.43636695
     -50998.99196658     -29977.52928750     -13719.19683228        107.70755655
        -64.35768779        -53.22470661     -38331.36861201     -52399.29251795
     -30917.09026236        474.04806802      99448.49470419      62285.07894402
     -18224.27117085      -2555.01417691      26233.85671711        207.59716538
   -7353169.58729262   -2939632.71972356    -794961.72990387     -14183.58352911
     219701.00825422    -540981.09960227     158281.23250412    -125379.72501110
      -7812.38182040   -2038064.01679002    -719303.87311538    -406748.72424922
    -281108.66139681     118663.79185921     -21269.61370032
 Electronic spatial extent (au):  <R**2>=          94695.7181
 DipInt: DoE/N= F T RetVal/Mat= T F Init=T NMatP=  1 IDeriv=0 Min/MaxMlt=  0  4
 Nuclear    moments (au):
        716.00000000          0.00000000         -0.00000000          0.00000000
      50538.49023545      29706.36108429      13347.42852857          0.00000000
         -0.00000000          0.00000000      38981.58920331      54555.95140996
      30793.53717923       1838.24942492     -99192.21568895     -63275.27084981
      18499.84350057       2702.44687251     -27463.52510546       -689.37167723
    7158112.53274519    2875313.35860602     751140.52896531      23189.81430901
    -226886.46578826     571442.08598938    -172474.87632747     123938.27482088
       6699.26941662    2009099.15296096     686173.60966907     385952.02481725
     277940.07096604    -128623.83660301      22974.35018362
 Total      moments (au):
         -0.00000000          9.88602974          3.98272080         -7.43636695
       -460.50173112       -271.16820321       -371.76830370        107.70755655
        -64.35768779        -53.22470661        650.22059130       2156.65889201
       -123.55308313       2312.29749294        256.27901524       -990.19190579
        275.57232971        147.43269560      -1229.66838835       -481.77451185
    -195057.05454743     -64319.36111754     -43821.20093855       9006.23077990
      -7185.45753404      30460.98638711     -14193.64382335      -1441.45019022
      -1113.11240378     -28964.86382906     -33130.26344631     -20796.69943196
      -3168.59043077      -9960.04474381       1704.73648331
 Traceless Quadrup. (au):
        -92.68898511         96.64454280         -3.95555769        107.70755655
        -64.35768779        -53.22470661
 Charge=             -0.0000 electrons
 Dipole moment (field-independent basis, Debye):
    X=             25.1278    Y=             10.1231    Z=            -18.9014  Tot=             33.0325
 Quadrupole moment (field-independent basis, Debye-Ang):
   XX=           -619.3906   YY=           -364.7305   ZZ=           -500.0411
   XY=            144.8704   XZ=            -86.5633   YZ=            -71.5891
 Traceless Quadrupole moment (field-independent basis, Debye-Ang):
   XX=           -124.6699   YY=            129.9902   ZZ=             -5.3204
   XY=            144.8704   XZ=            -86.5633   YZ=            -71.5891
 Octapole moment (field-independent basis, Debye-Ang**2):
  XXX=            462.8020  YYY=           1535.0267  ZZZ=            -87.9403  XYY=           1645.8043
  XXY=            182.4095  XXZ=           -704.7805  XZZ=            196.1418  YZZ=            104.9369
  YYZ=           -875.2306  XYZ=           -342.9085
 Hexadecapole moment (field-independent basis, Debye-Ang**3):
 XXXX=         -73467.8400 YYYY=         -24225.7556 ZZZZ=         -16505.1656 XXXY=           3392.1784
 XXXZ=          -2706.3879 YYYX=          11473.0681 YYYZ=          -5346.0069 ZZZX=           -542.9193
 ZZZY=           -419.2515 XXYY=         -10909.5566 XXZZ=         -12478.4459 YYZZ=          -7833.0342
 XXYZ=          -1193.4431 YYXZ=          -3751.4305 ZZXY=            642.0855
 N-N= 2.165697627694D+04 E-N=-5.579845536724D+04  KE= 5.290521117780D+03
 Leave Link  601 at Sat Sep 14 23:27:07 2019, MaxMem=  1342177280 cpu:              49.3 elap:               1.3
 FitSet:  NAtFit=   176 NAtPot=   176 NAtFrz=     0 MDM=   180 TotChg=   0.00000
 Merz-Kollman atomic radii used.
 Read replacement radii for each type of atom:
 Rad(20) =   1.700000000000D+00
 Atom Element Radius
    1     6    1.50
    2     6    1.50
    3     8    1.40
    4     1    1.20
    5     1    1.20
    6     1    1.20
    7     7    1.50
    8     6    1.50
    9     6    1.50
   10     8    1.40
   11     6    1.50
   12     6    1.50
   13     8    1.40
   14     8    1.40
   15     1    1.20
   16     1    1.20
   17     1    1.20
   18     1    1.20
   19     7    1.50
   20     6    1.50
   21     6    1.50
   22     8    1.40
   23     6    1.50
   24     6    1.50
   25     6    1.50
   26     6    1.50
   27     7    1.50
   28     1    1.20
   29     1    1.20
   30     1    1.20
   31     1    1.20
   32     1    1.20
   33     1    1.20
   34     1    1.20
   35     1    1.20
   36     1    1.20
   37     1    1.20
   38     1    1.20
   39     1    1.20
   40     1    1.20
   41     7    1.50
   42     6    1.50
   43     6    1.50
   44     8    1.40
   45     6    1.50
   46     6    1.50
   47     8    1.40
   48     8    1.40
   49     1    1.20
   50     1    1.20
   51     1    1.20
   52     1    1.20
   53     7    1.50
   54     6    1.50
   55     6    1.50
   56     8    1.40
   57     1    1.20
   58     1    1.20
   59     1    1.20
   60     7    1.50
   61     6    1.50
   62     6    1.50
   63     8    1.40
   64     6    1.50
   65     6    1.50
   66     7    1.50
   67     8    1.40
   68     1    1.20
   69     1    1.20
   70     1    1.20
   71     1    1.20
   72     1    1.20
   73     1    1.20
   74     7    1.50
   75     6    1.50
   76     6    1.50
   77     8    1.40
   78     1    1.20
   79     1    1.20
   80     1    1.20
   81     7    1.50
   82     6    1.50
   83     6    1.50
   84     8    1.40
   85     6    1.50
   86     6    1.50
   87     6    1.50
   88     6    1.50
   89     6    1.50
   90     6    1.50
   91     6    1.50
   92     8    1.40
   93     1    1.20
   94     1    1.20
   95     1    1.20
   96     1    1.20
   97     1    1.20
   98     1    1.20
   99     1    1.20
  100     1    1.20
  101     1    1.20
  102     7    1.50
  103     6    1.50
  104     6    1.50
  105     8    1.40
  106     6    1.50
  107     6    1.50
  108     6    1.50
  109     6    1.50
  110     1    1.20
  111     1    1.20
  112     1    1.20
  113     1    1.20
  114     1    1.20
  115     1    1.20
  116     1    1.20
  117     1    1.20
  118     1    1.20
  119     1    1.20
  120     1    1.20
  121     7    1.50
  122     6    1.50
  123     6    1.50
  124     8    1.40
  125     6    1.50
  126     8    1.40
  127     1    1.20
  128     1    1.20
  129     1    1.20
  130     1    1.20
  131     1    1.20
  132     7    1.50
  133     6    1.50
  134     6    1.50
  135     8    1.40
  136     6    1.50
  137     1    1.20
  138     1    1.20
  139     1    1.20
  140     1    1.20
  141     1    1.20
  142     7    1.50
  143     6    1.50
  144     6    1.50
  145     8    1.40
  146     6    1.50
  147     1    1.20
  148     1    1.20
  149     1    1.20
  150     1    1.20
  151     1    1.20
  152     7    1.50
  153     6    1.50
  154     6    1.50
  155     8    1.40
  156     6    1.50
  157     6    1.50
  158     6    1.50
  159     8    1.40
  160     8    1.40
  161     1    1.20
  162     1    1.20
  163     1    1.20
  164     1    1.20
  165     1    1.20
  166     1    1.20
  167     7    1.50
[...]
 **** Fit       0.000196
 **** Fit       0.007132
 **** Fit       0.004147
 **** Fit       0.002387
 **** Fit       0.004944
 **** Fit      -0.010566
 **** Fit      -0.009484
 **** Fit      -0.003749
 **** Fit      -0.007966
 **** Fit      -0.001328
 **** Fit      -0.000818
 **** Fit      -0.000300
 **** Fit      -0.002328
 **** Fit       0.000610
 **** Fit      -0.001686
 **** Fit      -0.005333
 **** Fit      -0.010952
 **** Fit      -0.006660
 **** Fit      -0.010597
 **** Fit      -0.016814
 **** Fit      -0.010918
 **** Fit      -0.015652
 **** Fit      -0.014144
 **** Fit      -0.020176
 **** Fit      -0.015439
 **** Fit      -0.019337
 **** Fit      -0.013682
 **** Fit      -0.027359
 **** Fit      -0.017295
 **** Fit      -0.008877
 **** Fit      -0.002383
 **** Fit      -0.021511
 **** Fit      -0.010540
 **** Fit      -0.001226
 **** Fit       0.006216
 **** Fit       0.011484
 **** Fit      -0.016616
 **** Fit      -0.004590
 **** Fit       0.005533
 **** Fit       0.013648
 **** Fit       0.003122
 **** Fit       0.013581
 **** Fit       0.021554
 **** Fit       0.011168
 **** Fit       0.021044
 **** Fit       0.017072
 **** Fit       0.025425
 **** Fit       0.030240
 **** Fit       0.014671
 **** Fit       0.023445
 **** Fit       0.028327
 **** Fit       0.019959
 **** Fit       0.024680
 **** Fit       0.017229
 **** Fit       0.000334
 **** Fit       0.009324
 **** Fit       0.005905
 **** Fit       0.002788
 **** Fit       0.006099
 **** Fit       0.033125
 **** Fit       0.029416
 **** Fit       0.037023
 **** Fit       0.018002
 **** Fit       0.025262
 **** Fit       0.032833
 **** Fit       0.039623
 **** Fit       0.016276
 **** Fit       0.021447
 **** Fit       0.027662
 **** Fit       0.033952
 **** Fit       0.039191
 **** Fit       0.019017
 **** Fit       0.023752
 **** Fit       0.029022
 **** Fit       0.033667
 **** Fit       0.036332
 **** Fit       0.022149
 **** Fit       0.010369
 **** Fit       0.019921
 **** Fit       0.023938
 **** Fit       0.027716
 **** Fit       0.029899
 **** Fit       0.029110
 **** Fit       0.024517
 **** Fit       0.016322
 **** Fit       0.005727
 **** Fit      -0.005424
 **** Fit       0.019290
 **** Fit       0.022287
 **** Fit       0.023792
 **** Fit       0.022293
 **** Fit       0.017076
 **** Fit       0.008909
 **** Fit      -0.000036
 **** Fit       0.017226
 **** Fit       0.018088
 **** Fit       0.015201
 **** Fit       0.008676
 **** Fit       0.012880
 **** Fit      -0.017555
 **** Fit      -0.019943
 **** Fit      -0.022579
 **** Fit      -0.015792
 **** Fit      -0.017212
 **** Fit      -0.019342
 **** Fit      -0.022029
 **** Fit      -0.025076
 **** Fit      -0.027838
 **** Fit      -0.013586
 **** Fit      -0.014394
 **** Fit      -0.015589
 **** Fit      -0.016909
 **** Fit      -0.032116
 **** Fit      -0.034874
 **** Fit      -0.012266
 **** Fit      -0.012643
 **** Fit      -0.013281
 **** Fit      -0.014199
 **** Fit      -0.015398
 **** Fit      -0.016725
 **** Fit      -0.040410
 **** Fit      -0.043324
 **** Fit      -0.044246
 **** Fit      -0.011497
 **** Fit      -0.011644
 **** Fit      -0.011983
 **** Fit      -0.012544
 **** Fit      -0.013319
 **** Fit      -0.014279
 **** Fit      -0.015406
 **** Fit      -0.010979
 **** Fit      -0.011037
 **** Fit      -0.011307
 **** Fit      -0.011816
 **** Fit      -0.012542
 **** Fit      -0.013437
 **** Fit      -0.014447
 **** Fit      -0.015542
 **** Fit      -0.010736
 **** Fit      -0.010522
 **** Fit      -0.010495
 **** Fit      -0.010717
 **** Fit      -0.011210
 **** Fit      -0.011945
 **** Fit      -0.012859
 **** Fit      -0.013872
 **** Fit      -0.014921
 **** Fit      -0.015974
 **** Fit      -0.011065
 **** Fit      -0.010530
 **** Fit      -0.010137
 **** Fit      -0.013446
 **** Fit      -0.014596
 **** Fit      -0.015706
 **** Fit      -0.016748
 **** Fit      -0.012022
 **** Fit      -0.011150
 **** Fit      -0.010391
 **** Fit      -0.015777
 **** Fit      -0.016939
 **** Fit      -0.012795
 **** Fit      -0.011657
 **** Fit      -0.017447
 **** Fit      -0.018675
 **** Fit      -0.019724
 **** Fit      -0.012023
 **** Fit      -0.021017
 **** Fit      -0.022105
 **** Fit      -0.024312
 **** Fit      -0.025347
 **** Fit      -0.030451
 **** Fit      -0.028946
 **** Fit      -0.029738
 **** Fit      -0.035954
 **** Fit      -0.036540
 **** Fit      -0.035719
 **** Fit      -0.044075
 **** Fit      -0.023908
 **** Fit      -0.019823
 **** Fit      -0.022351
 **** Fit      -0.025696
 **** Fit      -0.029045
 **** Fit      -0.019085
 **** Fit      -0.021167
 **** Fit      -0.024019
 **** Fit      -0.027644
 **** Fit      -0.031716
 **** Fit      -0.035383
 **** Fit      -0.017630
 **** Fit      -0.018693
 **** Fit      -0.020523
 **** Fit      -0.023027
 **** Fit      -0.026355
 **** Fit      -0.030571
 **** Fit      -0.035521
 **** Fit      -0.040639
 **** Fit      -0.044793
 **** Fit      -0.016363
 **** Fit      -0.017362
 **** Fit      -0.018681
 **** Fit      -0.020347
 **** Fit      -0.022628
 **** Fit      -0.025712
 **** Fit      -0.029785
 **** Fit      -0.034986
 **** Fit      -0.041278
 **** Fit      -0.016492
 **** Fit      -0.017451
 **** Fit      -0.019092
 **** Fit      -0.020590
 **** Fit      -0.022634
 **** Fit      -0.025408
 **** Fit      -0.029123
 **** Fit      -0.034026
 **** Fit      -0.040368
 **** Fit      -0.017091
 **** Fit      -0.017976
 **** Fit      -0.019982
 **** Fit      -0.021417
 **** Fit      -0.023405
 **** Fit      -0.026140
 **** Fit      -0.029864
 **** Fit      -0.034898
 **** Fit      -0.041663
 **** Fit      -0.018102
 **** Fit      -0.018931
 **** Fit      -0.021429
 **** Fit      -0.022782
 **** Fit      -0.024687
 **** Fit      -0.027331
 **** Fit      -0.030957
 **** Fit      -0.035907
 **** Fit      -0.042685
 **** Fit      -0.019721
 **** Fit      -0.020463
 **** Fit      -0.023530
 **** Fit      -0.024827
 **** Fit      -0.026709
 **** Fit      -0.029363
 **** Fit      -0.033029
 **** Fit      -0.038064
 **** Fit      -0.045036
 **** Fit      -0.022035
 **** Fit      -0.022656
 **** Fit      -0.026416
 **** Fit      -0.027711
 **** Fit      -0.029717
 **** Fit      -0.032631
 **** Fit      -0.036723
 **** Fit      -0.042410
 **** Fit      -0.025220
 **** Fit      -0.025652
 **** Fit      -0.030243
 **** Fit      -0.031537
 **** Fit      -0.033758
 **** Fit      -0.037113
 **** Fit      -0.041886
 **** Fit      -0.048553
 **** Fit      -0.029683
 **** Fit      -0.035180
 **** Fit      -0.036394
 **** Fit      -0.038827
 **** Fit      -0.042645
 **** Fit      -0.048060
 **** Fit      -0.042474
 **** Fit      -0.045438
 **** Fit      -0.050269
 **** Fit      -0.016552
 **** Fit      -0.016738
 **** Fit      -0.018876
 **** Fit      -0.018831
 **** Fit      -0.016427
 **** Fit      -0.014659
 **** Fit      -0.014897
 **** Fit      -0.016934
 **** Fit      -0.019362
 **** Fit      -0.021688
 **** Fit      -0.022845
 **** Fit      -0.021991
 **** Fit      -0.019429
 **** Fit      -0.016433
 **** Fit      -0.014199
 **** Fit      -0.013149
 **** Fit      -0.013064
 **** Fit      -0.013700
 **** Fit      -0.014994
 **** Fit      -0.025046
 **** Fit      -0.027101
 **** Fit      -0.027686
 **** Fit      -0.026437
 **** Fit      -0.023629
 **** Fit      -0.020077
 **** Fit      -0.016670
 **** Fit      -0.014085
 **** Fit      -0.012598
 **** Fit      -0.011994
 **** Fit      -0.011928
 **** Fit      -0.012223
 **** Fit      -0.012847
 **** Fit      -0.013828
 **** Fit      -0.015223
 **** Fit      -0.032540
 **** Fit      -0.034150
 **** Fit      -0.033961
 **** Fit      -0.031864
 **** Fit      -0.028187
 **** Fit      -0.023694
 **** Fit      -0.019241
 **** Fit      -0.015501
 **** Fit      -0.012963
 **** Fit      -0.011699
 **** Fit      -0.011256
 **** Fit      -0.011186
 **** Fit      -0.011316
 **** Fit      -0.011626
 **** Fit      -0.012140
 **** Fit      -0.042580
 **** Fit      -0.043118
 **** Fit      -0.041608
 **** Fit      -0.037992
 **** Fit      -0.032628
 **** Fit      -0.026546
 **** Fit      -0.010839
 **** Fit      -0.010877
 **** Fit      -0.010982
 **** Fit      -0.011203
 **** Fit      -0.011578
 **** Fit      -0.053814
 **** Fit      -0.029932
 **** Fit      -0.010972
 **** Fit      -0.010916
 **** Fit      -0.010906
 **** Fit      -0.010998
 **** Fit      -0.011352
 **** Fit      -0.011103
 **** Fit      -0.011688
 **** Fit      -0.010282
 **** Fit      -0.010638
 **** Fit      -0.009597
 **** Fit      -0.009541
 **** Fit      -0.009917
 **** Fit      -0.010672
 **** Fit      -0.011724
 **** Fit      -0.012978
 **** Fit      -0.010253
 **** Fit      -0.009370
 **** Fit      -0.008903
 **** Fit      -0.008895
 **** Fit      -0.009329
 **** Fit      -0.010145
 **** Fit      -0.011258
 **** Fit      -0.012578
 **** Fit      -0.014020
 **** Fit      -0.010389
 **** Fit      -0.009173
 **** Fit      -0.008439
 **** Fit      -0.008256
 **** Fit      -0.008617
 **** Fit      -0.009455
 **** Fit      -0.010665
 **** Fit      -0.012131
 **** Fit      -0.013750
 **** Fit      -0.015436
 **** Fit      -0.017121
 **** Fit      -0.010864
 **** Fit      -0.009219
 **** Fit      -0.008137
 **** Fit      -0.007725
 **** Fit      -0.007995
 **** Fit      -0.008871
 **** Fit      -0.010223
 **** Fit      -0.011899
 **** Fit      -0.013759
 **** Fit      -0.015689
 **** Fit      -0.017611
 **** Fit      -0.019470
 **** Fit      -0.024709
 **** Fit      -0.012899
 **** Fit      -0.010347
 **** Fit      -0.008465
 **** Fit      -0.007437
 **** Fit      -0.007338
 **** Fit      -0.008115
 **** Fit      -0.009605
 **** Fit      -0.011589
 **** Fit      -0.013851
 **** Fit      -0.016211
 **** Fit      -0.018536
 **** Fit      -0.020748
 **** Fit      -0.022808
 **** Fit      -0.029654
 **** Fit      -0.011950
 **** Fit      -0.008923
 **** Fit      -0.007239
 **** Fit      -0.007002
 **** Fit      -0.008130
 **** Fit      -0.010329
 **** Fit      -0.013200
 **** Fit      -0.016370
 **** Fit      -0.019545
 **** Fit      -0.022527
 **** Fit      -0.025212
 **** Fit      -0.027576
 **** Fit      -0.015258
 **** Fit       0.019568
 **** Fit       0.022572
 **** Fit       0.020168
 **** Fit       0.027480
 **** Fit       0.024575
 **** Fit       0.021909
 **** Fit       0.018982
 **** Fit       0.023932
 **** Fit       0.020718
 **** Fit       0.017410
 **** Fit       0.023742
 **** Fit       0.020139
 **** Fit       0.017360
 **** Fit       0.014585
 **** Fit       0.019192
 **** Fit       0.016841
 **** Fit       0.015236
 **** Fit       0.013566
 **** Fit       0.011183
 **** Fit      -0.009602
 **** Fit       0.016945
 **** Fit       0.015487
 **** Fit       0.014767
 **** Fit       0.015813
 **** Fit       0.015003
 **** Fit       0.016131
 **** Fit       0.014736
 **** Fit       0.014674
 **** Fit      -0.014634
 **** Fit       0.014528
 **** Fit       0.013605
 **** Fit       0.013794
 **** Fit      -0.016332
 **** Fit      -0.008539
 **** Fit       0.011483
 **** Fit       0.011456
 **** Fit       0.011899
 **** Fit      -0.016258
 **** Fit      -0.010021
 **** Fit      -0.004371
 **** Fit       0.000328
 **** Fit       0.003776
 **** Fit       0.006057
 **** Fit       0.007578
 **** Fit       0.008852
 **** Fit       0.010377
 **** Fit      -0.017092
 **** Fit      -0.012414
 **** Fit      -0.007606
 **** Fit      -0.003183
 **** Fit       0.000506
 **** Fit       0.003404
 **** Fit       0.005797
 **** Fit       0.008139
 **** Fit      -0.008316
 **** Fit      -0.012106
 **** Fit      -0.012502
 **** Fit      -0.010243
 **** Fit      -0.006636
 **** Fit      -0.002712
 **** Fit       0.000945
 **** Fit       0.004257
 **** Fit      -0.003634
 **** Fit      -0.005595
 **** Fit      -0.004150
 **** Fit      -0.000841
 **** Fit       0.003058
 **** Fit       0.002111
 **** Fit      -0.007828
 **** Fit      -0.011207
 **** Fit       0.001655
 **** Fit       0.001111
 **** Fit      -0.001140
 **** Fit      -0.005140
 **** Fit       0.014144
 **** Fit       0.012514
 **** Fit       0.005874
 **** Fit       0.005450
 **** Fit       0.003699
 **** Fit       0.000490
 **** Fit      -0.004380
 **** Fit       0.014975
 **** Fit       0.014535
 **** Fit       0.013288
 **** Fit       0.010990
 **** Fit       0.005237
 **** Fit       0.009689
 **** Fit       0.009076
 **** Fit       0.007344
 **** Fit       0.004278
 **** Fit      -0.000428
 **** Fit      -0.007318
 **** Fit       0.014826
 **** Fit       0.015247
 **** Fit       0.015346
 **** Fit       0.014846
 **** Fit       0.013592
 **** Fit       0.011761
 **** Fit       0.009978
 **** Fit       0.008992
 **** Fit       0.009001
 **** Fit       0.009483
 **** Fit       0.012728
 **** Fit       0.011819
 **** Fit       0.009913
 **** Fit       0.006739
 **** Fit       0.001961
 **** Fit      -0.004882
 **** Fit       0.014229
 **** Fit       0.015147
 **** Fit       0.015802
 **** Fit       0.016024
 **** Fit       0.015692
 **** Fit       0.014870
 **** Fit       0.013883
 **** Fit       0.013175
 **** Fit       0.012946
 **** Fit       0.012957
 **** Fit       0.014829
 **** Fit       0.013657
 **** Fit       0.011589
 **** Fit       0.008363
 **** Fit       0.003713
 **** Fit      -0.002601
 **** Fit       0.013177
 **** Fit       0.014595
 **** Fit       0.015714
 **** Fit       0.016473
 **** Fit       0.016801
 **** Fit       0.016708
 **** Fit       0.016348
 **** Fit       0.015956
 **** Fit       0.015671
 **** Fit       0.015391
 **** Fit       0.016001
 **** Fit       0.014525
 **** Fit       0.012110
 **** Fit       0.008519
 **** Fit       0.003610
 **** Fit      -0.002515
 **** Fit       0.012437
 **** Fit       0.014285
 **** Fit       0.015732
 **** Fit       0.016764
 **** Fit       0.017356
 **** Fit       0.017552
 **** Fit       0.017474
 **** Fit       0.017237
 **** Fit       0.016812
 **** Fit       0.016334
 **** Fit       0.014616
 **** Fit       0.011926
 **** Fit       0.008145
 **** Fit       0.003400
 **** Fit      -0.001735
 **** Fit      -0.006179
 **** Fit       0.008917
 **** Fit       0.011617
 **** Fit       0.013803
 **** Fit       0.015512
 **** Fit       0.016746
 **** Fit       0.017499
 **** Fit       0.017814
 **** Fit       0.017751
 **** Fit       0.017303
 **** Fit       0.015940
 **** Fit       0.013945
 **** Fit       0.010899
 **** Fit       0.006966
 **** Fit       0.002804
 **** Fit      -0.000489
 **** Fit      -0.001976
 **** Fit       0.006583
 **** Fit       0.009697
 **** Fit       0.012385
 **** Fit       0.014532
 **** Fit       0.016086
 **** Fit       0.017019
 **** Fit       0.017330
 **** Fit       0.017007
 **** Fit       0.014925
 **** Fit       0.012495
 **** Fit       0.008984
 **** Fit       0.005506
 **** Fit       0.003624
 **** Fit       0.004054
 **** Fit       0.006296
 **** Fit       0.009343
 **** Fit       0.012274
 **** Fit       0.014527
 **** Fit       0.015818
 **** Fit       0.015995
 **** Fit       0.013379
 **** Fit       0.010418
 **** Fit       0.007990
 **** Fit       0.008998
 **** Fit       0.011969
 **** Fit       0.013956
 **** Fit       0.011380
 -----------------------------------------------------------------
 Leave Link  602 at Sat Sep 14 23:27:11 2019, MaxMem=  1342177280 cpu:             121.2 elap:               2.6

 Test job not archived.
 1\1\GINC-C506-093\SP\RB3LYP\SVP\C54H83Ca1N15O23\PENGZHI\14-Sep-2019\0\
 \#b3lyp/svp scf=(tight,noincore) Test #IOP(5/87=12) Density=Current Po
 p=(MK,readradii) iop(6/33=2) iop(6/42=6)\\holoCaM_loop3_87.0\\0,1\C,0,
 34.66,46.21,41.48\C,0,34.73,45.74,42.93\O,0,33.75,45.26,43.49\H,0,34.4
 03,47.269,41.454\H,0,35.628,46.06,41.002\H,0,33.899,45.639,40.949\N,0,
 35.9,45.84,43.56\C,0,36.24,45.46,44.91\C,0,35.74,46.6,45.79\O,0,36.15,
 47.76,45.73\C,0,37.73,45.19,45.09\C,0,38.04,44.58,46.46\O,0,37.1,44.24
 ,47.21\O,0,39.21,44.39,46.84\H,0,36.69,46.15,43.01\H,0,35.69,44.56,45.
 21\H,0,38.3,46.09,44.91\H,0,38.03,44.44,44.36\N,0,35.01,46.22,46.84\C,
 0,34.5,47.15,47.83\C,0,35.52,47.47,48.91\O,0,35.74,48.67,49.1\C,0,33.1
 9,46.63,48.41\C,0,32.64,47.61,49.45\C,0,31.24,47.34,50.\C,0,30.7,48.55
 ,50.74\N,0,29.5,48.13,51.47\H,0,34.7,45.27,46.96\H,0,34.24,48.06,47.3\
 H,0,33.3,45.62,48.81\H,0,32.43,46.66,47.64\H,0,32.59,48.52,48.84\H,0,3
 3.33,47.63,50.29\H,0,31.22,46.46,50.64\H,0,30.53,47.24,49.17\H,0,30.44
 ,49.3,49.99\H,0,31.46,48.95,51.41\H,0,28.77,48.83,51.51\H,0,29.09,47.3
 1,51.04\H,0,29.82,47.92,52.41\N,0,36.11,46.53,49.66\C,0,36.93,46.91,50
 .79\C,0,38.38,47.07,50.35\O,0,39.2,47.54,51.14\C,0,36.73,45.93,51.95\C
 ,0,36.89,44.46,51.57\O,0,37.66,44.12,50.65\O,0,36.33,43.7,52.39\H,0,36
 .08,45.56,49.39\H,0,36.62,47.87,51.2\H,0,35.7,45.98,52.32\H,0,37.44,46
 .15,52.74\N,0,38.76,46.84,49.09\C,0,40.13,47.1,48.7\C,0,41.25,46.34,49
 .4\O,0,42.39,46.79,49.44\H,0,38.1,46.36,48.5\H,0,40.36,48.16,48.77\H,0
 ,40.22,46.9,47.63\N,0,40.89,45.09,49.7\C,0,41.9,44.13,50.09\C,0,42.54,
 43.43,48.9\O,0,43.14,42.38,49.09\C,0,41.28,43.16,51.09\C,0,40.32,42.15
 ,50.47\N,0,40.08,41.06,51.2\O,0,39.96,42.25,49.3\H,0,39.93,44.84,49.52
 \H,0,42.76,44.59,50.58\H,0,40.7,43.69,51.85\H,0,42.1,42.63,51.58\H,0,4
 0.3,41.1,52.18\H,0,39.52,40.26,50.92\N,0,42.11,43.76,47.68\C,0,42.69,4
 3.1,46.53\C,0,42.06,41.8,46.06\O,0,42.71,40.97,45.42\H,0,41.5,44.57,47
 .61\H,0,43.74,42.88,46.68\H,0,42.65,43.76,45.66\N,0,40.81,41.41,46.33\
 C,0,40.1,40.28,45.77\C,0,38.63,40.69,45.7\O,0,38.17,41.52,46.48\C,0,40
 .33,38.95,46.48\C,0,41.63,38.84,47.24\C,0,41.6,39.3,48.56\C,0,42.67,38
 .08,46.69\C,0,42.65,38.91,49.4\C,0,43.71,37.72,47.54\C,0,43.71,38.15,4
 8.88\O,0,44.83,37.99,49.64\H,0,40.26,42.07,46.86\H,0,40.48,40.11,44.76
 \H,0,40.23,38.17,45.73\H,0,39.54,38.85,47.22\H,0,40.69,39.77,48.9\H,0,
 42.77,37.78,45.65\H,0,42.79,39.2,50.43\H,0,44.54,37.18,47.1\H,0,45.47,
 37.44,49.18\N,0,37.96,40.1,44.71\C,0,36.53,40.22,44.47\C,0,35.81,38.9,
 44.7\O,0,36.28,37.85,44.27\C,0,36.24,40.74,43.07\C,0,36.9,42.07,42.73\
 C,0,34.75,40.85,42.76\C,0,37.27,42.21,41.26\H,0,38.52,39.74,43.95\H,0,
 36.17,41.01,45.14\H,0,36.72,40.02,42.4\H,0,37.85,42.16,43.25\H,0,36.26
 ,42.92,42.98\H,0,34.21,41.5,43.45\H,0,34.64,41.23,41.74\H,0,34.22,39.9
 1,42.88\H,0,36.4,42.17,40.6\H,0,37.76,43.19,41.21\H,0,37.97,41.4,41.04
 \N,0,34.75,39.03,45.5\C,0,33.85,38.,45.99\C,0,32.38,38.31,45.74\O,0,32
 .02,39.29,45.08\C,0,34.07,37.83,47.49\O,0,33.5,38.91,48.19\H,0,34.48,3
 9.97,45.72\H,0,34.09,37.04,45.54\H,0,35.14,37.81,47.73\H,0,33.59,36.91
 ,47.83\H,0,34.1,39.66,48.14\N,0,31.53,37.29,45.85\C,0,30.18,37.2,45.33
 \C,0,29.35,38.42,45.71\O,0,28.73,39.01,44.82\C,0,29.61,35.88,45.83\H,0
 ,31.77,36.42,46.3\H,0,30.25,37.05,44.25\H,0,29.61,35.74,46.91\H,0,28.5
 5,35.73,45.62\H,0,30.06,35.07,45.25\N,0,29.37,38.77,46.99\C,0,28.55,39
 .86,47.5\C,0,28.99,41.23,47.01\O,0,28.21,42.14,46.73\C,0,28.72,39.87,4
 9.01\H,0,29.83,38.17,47.66\H,0,27.51,39.72,47.22\H,0,28.31,38.97,49.47
 \H,0,29.79,39.96,49.21\H,0,28.22,40.71,49.5\N,0,30.29,41.38,46.74\C,0,
 30.9,42.58,46.21\C,0,30.6,42.76,44.73\O,0,30.27,43.85,44.26\C,0,32.38,
 42.66,46.58\C,0,32.78,42.37,48.02\C,0,34.29,42.36,48.24\O,0,34.9,41.34
 ,47.86\O,0,34.9,43.28,48.83\H,0,30.9,40.58,46.83\H,0,30.48,43.47,46.67
 \H,0,32.76,43.65,46.32\H,0,32.95,41.92,46.02\H,0,32.36,41.4,48.28\H,0,
 32.32,43.16,48.61\N,0,30.62,41.63,44.01\C,0,30.21,41.49,42.63\H,0,29.3
 55,42.138,42.438\H,0,31.034,41.773,41.975\H,0,29.93,40.454,42.437\H,0,
 30.9,40.84,44.58\Ca,0,37.37,42.47,48.89\O,0,36.6,41.3,51.34\H,0,36.44,
 42.12,51.81\H,0,35.93,40.7,51.65\\Version=ES64L-G16RevA.03\State=1-A\H
 F=-5333.6050308\RMSD=4.491e-09\Dipole=-11.5821065,-0.545334,5.8696356\
 Quadrupole=-16.6644553,21.7997647,-5.1353094,-97.96378,-126.8128164,38
 .4861654\PG=C01 [X(C54H83Ca1N15O23)]\\@


 THE WORLD IS NOT A HAMBURGER - YOU CAN'T HAVE IT YOUR WAY.
 Job cpu time:       0 days  9 hours 43 minutes 16.8 seconds.
 Elapsed time:       0 days  0 hours 12 minutes 17.3 seconds.
 File lengths (MBytes):  RWF=   1517 Int=      0 D2E=      0 Chk=    171 Scr=      1
 Normal termination of Gaussian 16 at Sat Sep 14 23:27:12 2019.
