 Entering Gaussian System, Link 0=g16
 Initial command:
 /home1/apps/gaussian/16rA.03/g16/l1.exe "/scratch/01990/pengzhi/4328838/Gau-105588.inp" -scrdir="/scratch/01990/pengzhi/4328838/"
 Entering Link 1 = /home1/apps/gaussian/16rA.03/g16/l1.exe PID=    105589.
  
 Copyright (c) 1988,1990,1992,1993,1995,1998,2003,2009,2016,
            Gaussian, Inc.  All Rights Reserved.
  
 This is part of the Gaussian(R) 16 program.  It is based on
 the Gaussian(R) 09 system (copyright 2009, Gaussian, Inc.),
 the Gaussian(R) 03 system (copyright 2003, Gaussian, Inc.),
 the Gaussian(R) 98 system (copyright 1998, Gaussian, Inc.),
 the Gaussian(R) 94 system (copyright 1995, Gaussian, Inc.),
 the Gaussian 92(TM) system (copyright 1992, Gaussian, Inc.),
 the Gaussian 90(TM) system (copyright 1990, Gaussian, Inc.),
 the Gaussian 88(TM) system (copyright 1988, Gaussian, Inc.),
 the Gaussian 86(TM) system (copyright 1986, Carnegie Mellon
 University), and the Gaussian 82(TM) system (copyright 1983,
 Carnegie Mellon University). Gaussian is a federally registered
 trademark of Gaussian, Inc.
  
 This software contains proprietary and confidential information,
 including trade secrets, belonging to Gaussian, Inc.
  
 This software is provided under written license and may be
 used, copied, transmitted, or stored only in accord with that
 written license.
  
 The following legend is applicable only to US Government
 contracts under FAR:
  
                    RESTRICTED RIGHTS LEGEND
  
 Use, reproduction and disclosure by the US Government is
 subject to restrictions as set forth in subparagraphs (a)
 and (c) of the Commercial Computer Software - Restricted
 Rights clause in FAR 52.227-19.
  
 Gaussian, Inc.
 340 Quinnipiac St., Bldg. 40, Wallingford CT 06492
  
  
 ---------------------------------------------------------------
 Warning -- This program may not be used in any manner that
 competes with the business of Gaussian, Inc. or will provide
 assistance to any competitor of Gaussian, Inc.  The licensee
 of this program is prohibited from giving any competitor of
 Gaussian, Inc. access to this program.  By using this program,
 the user acknowledges that Gaussian, Inc. is engaged in the
 business of creating and licensing software in the field of
 computational chemistry and represents and warrants to the
 licensee that it is not a competitor of Gaussian, Inc. and that
 it will not use this program in any manner prohibited above.
 ---------------------------------------------------------------
  

 Cite this work as:
 Gaussian 16, Revision A.03,
 M. J. Frisch, G. W. Trucks, H. B. Schlegel, G. E. Scuseria, 
 M. A. Robb, J. R. Cheeseman, G. Scalmani, V. Barone, 
 G. A. Petersson, H. Nakatsuji, X. Li, M. Caricato, A. V. Marenich, 
 J. Bloino, B. G. Janesko, R. Gomperts, B. Mennucci, H. P. Hratchian, 
 J. V. Ortiz, A. F. Izmaylov, J. L. Sonnenberg, D. Williams-Young, 
 F. Ding, F. Lipparini, F. Egidi, J. Goings, B. Peng, A. Petrone, 
 T. Henderson, D. Ranasinghe, V. G. Zakrzewski, J. Gao, N. Rega, 
 G. Zheng, W. Liang, M. Hada, M. Ehara, K. Toyota, R. Fukuda, 
 J. Hasegawa, M. Ishida, T. Nakajima, Y. Honda, O. Kitao, H. Nakai, 
 T. Vreven, K. Throssell, J. A. Montgomery, Jr., J. E. Peralta, 
 F. Ogliaro, M. J. Bearpark, J. J. Heyd, E. N. Brothers, K. N. Kudin, 
 V. N. Staroverov, T. A. Keith, R. Kobayashi, J. Normand, 
 K. Raghavachari, A. P. Rendell, J. C. Burant, S. S. Iyengar, 
 J. Tomasi, M. Cossi, J. M. Millam, M. Klene, C. Adamo, R. Cammi, 
 J. W. Ochterski, R. L. Martin, K. Morokuma, O. Farkas, 
 J. B. Foresman, and D. J. Fox, Gaussian, Inc., Wallingford CT, 2016.
 
 ******************************************
 Gaussian 16:  ES64L-G16RevA.03 25-Dec-2016
                14-Sep-2019 
 ******************************************
 %chk=holoCaM_loop3_99.0.chk
 %nprocshared=48
 Will use up to   48 processors via shared memory.
 %mem=10GB
 %nosave
 ----------------------------------------------------------------------
 #b3lyp/svp scf=(tight,noincore) Test #IOP(5/87=12) Density=Current Pop
 =(MK,readradii) iop(6/33=2) iop(6/42=6)
 ----------------------------------------------------------------------
 1/30=1,38=1,172=1/1;
 2/12=2,17=6,18=5,40=1/2;
 3/5=18,7=101,11=2,25=1,30=1,74=-5/1,2,3;
 4//1;
 5/5=4,32=2,38=5,87=12/2;
 6/7=2,8=2,9=2,10=2,15=8,20=101,22=-1,28=1,33=2,42=6/1,2;
 99/5=1,9=1/99;
 ------------------
 holoCaM_loop3_99.0
 ------------------
 Symbolic Z-matrix:
 Charge =  0 Multiplicity = 1
 C                     84.87     27.17     21.58 
 C                     86.36     27.25     21.91 
 O                     86.91     26.26     22.37 
 H                     84.347    27.995    22.064 
 H                     84.732    27.236    20.501 
 H                     84.468    26.223    21.941 
 N                     87.02     28.39     21.73 
 C                     88.37     28.67     22.19 
 C                     88.51     28.54     23.7 
 O                     87.86     29.3      24.42 
 C                     88.79     30.02     21.62 
 C                     90.27     30.38     21.69 
 O                     90.6      31.47     21.18 
 O                     91.09     29.55     22.14 
 H                     86.46     29.21     21.57 
 H                     89.       27.93     21.71 
 H                     88.27     30.78     22.21 
 H                     88.49     30.2      20.59 
 N                     89.34     27.64     24.24 
 C                     89.37     27.28     25.64 
 C                     90.37     28.05     26.5 
 O                     90.02     28.26     27.66 
 C                     89.36     25.78     25.87 
 C                     88.21     25.       25.24 
 C                     86.84     25.52     25.69 
 C                     85.68     24.63     25.25 
 N                     84.4      25.3      25.49 
 H                     89.75     26.95     23.63 
 H                     88.46     27.72     26.06 
 H                     89.32     25.68     26.95 
 H                     90.35     25.44     25.56 
 H                     88.19     23.94     25.53 
 H                     88.25     25.05     24.16 
 H                     86.66     26.5      25.26 
 H                     86.71     25.59     26.77 
 H                     85.7      23.7      25.83 
 H                     85.81     24.47     24.18 
 H                     84.42     25.65     26.44 
 H                     84.23     25.98     24.77 
 H                     83.72     24.58     25.28 
 N                     91.45     28.49     25.86 
 C                     92.53     29.24     26.48 
 C                     92.42     30.7      26.1 
 O                     92.67     31.64     26.85 
 C                     93.91     28.63     26.23 
 C                     94.19     28.13     24.82 
 O                     93.56     28.62     23.87 
 O                     95.11     27.3      24.64 
 H                     91.49     28.21     24.89 
 H                     92.51     29.13     27.56 
 H                     94.01     27.8      26.93 
 H                     94.68     29.34     26.52 
 N                     92.08     30.93     24.82 
 C                     91.97     32.25     24.24 
 C                     93.24     32.69     23.53 
 O                     94.14     33.24     24.16 
 H                     92.21     30.2      24.14 
 H                     91.83     32.95     25.07 
 H                     91.17     32.42     23.52 
 N                     93.29     32.36     22.24 
 C                     94.37     32.51     21.28 
 C                     93.89     32.53     19.83 
 O                     94.69     32.67     18.91 
 C                     95.49     31.52     21.57 
 C                     95.13     30.06     21.32 
 N                     96.17     29.29     21.63 
 O                     94.08     29.72     20.79 
 H                     92.43     32.       21.85 
 H                     94.78     33.51     21.44 
 H                     95.77     31.57     22.62 
 H                     96.31     31.8      20.9 
 H                     97.09     29.63     21.86 
 H                     95.92     28.32     21.56 
 N                     92.58     32.51     19.59 
 C                     92.01     32.71     18.27 
 C                     91.9      31.51     17.34 
 O                     91.33     31.64     16.26 
 H                     91.89     32.38     20.31 
 H                     92.62     33.46     17.76 
 H                     91.05     33.21     18.36 
 N                     92.32     30.37     17.9 
 C                     92.17     29.11     17.19 
 C                     91.61     28.01     18.08 
 O                     91.73     27.96     19.31 
 C                     93.42     28.68     16.44 
 C                     94.74     29.21     16.95 
 C                     95.48     28.48     17.88 
 C                     95.2      30.46     16.51 
 C                     96.75     28.91     18.26 
 C                     96.47     30.9      16.88 
 C                     97.25     30.13     17.77 
 O                     98.47     30.6      18.15 
 H                     92.76     30.38     18.81 
 H                     91.38     29.24     16.45 
 H                     93.17     28.92     15.41 
 H                     93.55     27.6      16.51 
 H                     95.06     27.52     18.18 
 H                     94.6      30.97     15.77 
 H                     97.28     28.4      19.06 
 H                     96.88     31.85     16.56 
 H                     98.53     31.54     17.93 
 N                     91.03     26.99     17.46 
 C                     90.54     25.75     18.02 
 C                     91.34     24.57     17.49 
 O                     91.71     24.56     16.32 
 C                     89.06     25.47     17.79 
 C                     88.14     26.65     17.48 
 C                     88.47     24.69     18.97 
 C                     87.94     27.7      18.57 
 H                     90.83     27.16     16.48 
 H                     90.75     25.74     19.09 
 H                     88.99     24.86     16.89 
 H                     87.19     26.25     17.13 
 H                     88.48     27.24     16.63 
 H                     88.91     23.7      19.05 
 H                     88.66     25.26     19.89 
 H                     87.39     24.76     18.9 
 H                     88.93     28.06     18.86 
 H                     87.29     28.52     18.27 
 H                     87.48     27.22     19.43 
 N                     91.5      23.58     18.38 
 C                     92.23     22.36     18.12 
 C                     91.22     21.21     18.18 
 O                     90.24     21.22     18.92 
 C                     93.31     22.15     19.17 
 O                     92.84     21.94     20.48 
 H                     91.09     23.68     19.3 
 H                     92.66     22.29     17.12 
 H                     94.08     22.92     19.21 
 H                     93.83     21.26     18.81 
 H                     93.59     22.28     20.99 
 N                     91.68     20.03     17.75 
 C                     90.95     18.79     17.92 
 C                     90.77     18.41     19.38 
 O                     89.82     17.69     19.69 
 C                     91.63     17.69     17.11 
 H                     92.49     20.13     17.15 
 H                     89.92     18.9      17.6 
 H                     91.96     18.03     16.13 
 H                     92.51     17.38     17.68 
 H                     90.95     16.84     17.07 
 N                     91.68     18.89     20.22 
 C                     91.54     18.64     21.65 
 C                     90.45     19.49     22.27 
 O                     89.58     18.94     22.94 
 C                     92.9      18.78     22.32 
 H                     92.46     19.41     19.84 
 H                     91.1      17.66     21.82 
 H                     93.64     18.13     21.85 
 H                     93.18     19.83     22.36 
 H                     92.78     18.45     23.36 
 N                     90.53     20.8      22.02 
 C                     89.49     21.72     22.45 
 C                     88.11     21.35     21.95 
 O                     87.15     21.38     22.73 
 C                     89.86     23.14     22.04 
 C                     90.96     23.6      23. 
 C                     91.48     25.03     22.84 
 O                     92.7      25.26     22.97 
 O                     90.79     25.91     22.28 
 H                     91.25     21.12     21.39 
 H                     89.46     21.7      23.54 
 H                     88.99     23.79     22.16 
 H                     90.23     23.26     21.02 
 H                     91.7      22.8      22.99 
 H                     90.52     23.52     23.99 
 N                     87.99     20.92     20.69 
 C                     86.83     20.33     20.07 
 H                     86.033    21.071    20.014 
 H                     87.086    19.995    19.065 
 H                     86.494    19.479    20.663 
 H                     88.86     20.87     20.18 
 Ca                    92.72     27.65     21.68 
 O                     95.22     26.61     21.96 
 H                     95.21     26.59     22.92 
 H                     95.84     25.93     21.71 
 
 Stoichiometry    C54H83CaN15O23
 Framework group  C1[X(C54H83CaN15O23)]
 Deg. of freedom   522
 Full point group                 C1      NOp   1
 Largest Abelian subgroup         C1      NOp   1
 Largest concise Abelian subgroup C1      NOp   1
                         Standard orientation:                         
 ---------------------------------------------------------------------
 Center     Atomic      Atomic             Coordinates (Angstroms)
 Number     Number       Type             X           Y           Z
 ---------------------------------------------------------------------
      1          6           0        1.727081    3.739815    5.023393
      2          6           0        1.113871    3.255785    3.709966
      3          8           0        1.826792    3.199597    2.718610
      4          1           0        1.119837    4.548568    5.430311
      5          1           0        1.758653    2.915846    5.735937
      6          1           0        2.739168    4.101718    4.840525
      7          7           0       -0.177031    2.942461    3.655187
      8          6           0       -0.933323    2.671992    2.443838
      9          6           0       -0.923607    3.846716    1.476094
     10          8           0       -1.435121    4.909311    1.833509
     11          6           0       -2.319906    2.189075    2.853691
     12          6           0       -3.180632    1.536261    1.777641
     13          8           0       -4.294899    1.109281    2.142603
     14          8           0       -2.711988    1.356799    0.632230
     15          1           0       -0.739900    3.228838    4.437981
     16          1           0       -0.443404    1.824493    1.978407
     17          1           0       -2.871820    3.074987    3.180265
     18          1           0       -2.339902    1.508448    3.702011
     19          7           0       -0.396760    3.726550    0.251965
     20          6           0       -0.128695    4.829593   -0.643545
     21          6           0       -1.236448    5.154421   -1.643480
     22          8           0       -1.357577    6.343573   -1.932348
     23          6           0        1.267828    4.790300   -1.236150
     24          6           0        2.428233    4.734933   -0.247113
     25          6           0        2.405871    5.906701    0.740946
     26          6           0        3.664782    5.998654    1.600008
     27          7           0        3.479168    6.971096    2.679269
     28          1           0        0.129270    2.892060    0.044074
     29          1           0       -0.237014    5.724597   -0.022791
     30          1           0        1.330693    5.702165   -1.821427
     31          1           0        1.249917    3.961963   -1.947021
     32          1           0        3.414386    4.820923   -0.724825
     33          1           0        2.412120    3.815146    0.322302
     34          1           0        1.570753    5.794340    1.424797
     35          1           0        2.341479    6.892238    0.279676
     36          1           0        4.503286    6.327993    0.975391
     37          1           0        3.812912    5.007256    2.027311
     38          1           0        3.105528    7.813921    2.260416
     39          1           0        2.933042    6.562487    3.417162
     40          1           0        4.400557    7.033839    3.094006
     41          7           0       -2.001703    4.125792   -1.998316
     42          6           0       -3.108991    4.204363   -2.936953
     43          6           0       -4.419640    4.173678   -2.182395
     44          8           0       -5.417659    4.822572   -2.484878
     45          6           0       -3.014282    3.181095   -4.069627
     46          6           0       -2.586993    1.772417   -3.682910
     47          8           0       -2.783939    1.379463   -2.522609
     48          8           0       -2.127477    1.011976   -4.565110
     49          1           0       -1.713816    3.246100   -1.593145
     50          1           0       -3.043820    5.104257   -3.540976
     51          1           0       -2.302423    3.585499   -4.789776
     52          1           0       -3.961329    3.137207   -4.600923
     53          7           0       -4.461948    3.311807   -1.151721
     54          6           0       -5.633412    3.090993   -0.333301
     55          6           0       -6.462682    1.904906   -0.798179
     56          8           0       -7.319989    2.053673   -1.665527
     57          1           0       -3.797009    2.557614   -1.116390
     58          1           0       -6.272991    3.971590   -0.451571
     59          1           0       -5.480808    2.928776    0.733328
     60          7           0       -6.118315    0.743379   -0.243413
     61          6           0       -6.599163   -0.599912   -0.517007
     62          6           0       -6.388772   -1.565101    0.648088
     63          8           0       -6.763318   -2.730970    0.567680
     64          6           0       -6.079943   -1.094884   -1.860143
     65          6           0       -4.577682   -1.349152   -1.907674
     66          7           0       -4.236820   -1.750929   -3.129553
     67          8           0       -3.868043   -1.302773   -0.911049
     68          1           0       -5.462686    0.805479    0.523135
     69          1           0       -7.685198   -0.520063   -0.605616
     70          1           0       -6.268785   -0.350639   -2.630751
     71          1           0       -6.602787   -2.039023   -2.047055
     72          1           0       -4.888253   -1.981719   -3.862541
     73          1           0       -3.238911   -1.833543   -3.204730
     74          7           0       -5.898782   -1.089470    1.791672
     75          6           0       -5.830382   -1.870235    3.013568
     76          6           0       -4.631110   -2.784181    3.222008
     77          8           0       -4.507197   -3.374494    4.291763
     78          1           0       -5.564044   -0.147095    1.897881
     79          1           0       -6.725353   -2.496493    3.052651
     80          1           0       -5.963528   -1.216877    3.870945
     81          7           0       -3.736295   -2.712642    2.230147
     82          6           0       -2.475945   -3.430575    2.331593
     83          6           0       -1.287063   -2.566624    1.936815
     84          8           0       -1.333510   -1.603970    1.161612
     85          6           0       -2.483050   -4.777690    1.627937
     86          6           0       -3.464602   -4.950986    0.492189
     87          6           0       -3.081162   -4.669977   -0.819073
     88          6           0       -4.777153   -5.361351    0.768792
     89          6           0       -3.946220   -4.942316   -1.877235
     90          6           0       -5.651147   -5.640504   -0.280783
     91          6           0       -5.242738   -5.420195   -1.614224
     92          8           0       -6.127587   -5.660230   -2.620765
     93          1           0       -3.938287   -2.175394    1.398063
     94          1           0       -2.288633   -3.621116    3.388574
     95          1           0       -2.576756   -5.474779    2.456361
     96          1           0       -1.521913   -4.957515    1.146191
     97          1           0       -2.048055   -4.352010   -0.959025
     98          1           0       -5.012062   -5.590368    1.798389
     99          1           0       -3.689144   -4.626560   -2.884811
    100          1           0       -6.670554   -5.971657   -0.125389
    101          1           0       -7.018523   -5.727222   -2.250164
    102          7           0       -0.103409   -2.947640    2.400483
    103          6           0        1.205389   -2.419341    2.085444
    104          6           0        2.048915   -3.466820    1.375128
    105          8           0        1.976411   -4.643073    1.717288
    106          6           0        1.997939   -1.888213    3.273496
    107          6           0        1.231459   -1.483805    4.532012
    108          6           0        2.886171   -0.714459    2.846594
    109          6           0        0.274988   -0.298264    4.430735
    110          1           0       -0.151343   -3.639798    3.140699
    111          1           0        1.096472   -1.631451    1.339477
    112          1           0        2.630222   -2.704273    3.621726
    113          1           0        1.954527   -1.347710    5.334290
    114          1           0        0.595258   -2.280704    4.914635
    115          1           0        3.653568   -1.032626    2.146613
    116          1           0        2.248200    0.049738    2.381411
    117          1           0        3.203969   -0.201262    3.747611
    118          1           0       -0.422282   -0.511855    3.617105
    119          1           0       -0.250388   -0.082713    5.359400
    120          1           0        0.850184    0.586780    4.171030
    121          7           0        2.881378   -2.959371    0.454639
    122          6           0        3.775777   -3.750100   -0.360038
    123          6           0        5.204260   -3.357361    0.029053
    124          8           0        5.509398   -2.225402    0.394650
    125          6           0        3.548298   -3.462518   -1.836030
    126          8           0        3.855926   -2.151618   -2.245916
    127          1           0        2.894170   -1.958025    0.307523
    128          1           0        3.731203   -4.824260   -0.175667
    129          1           0        2.555502   -3.706839   -2.212944
    130          1           0        4.212239   -4.175882   -2.328365
    131          1           0        3.252768   -2.058989   -2.998126
    132          7           0        6.163386   -4.144288   -0.470670
    133          6           0        7.572856   -3.818850   -0.387699
    134          6           0        7.931094   -2.559528   -1.158526
    135          8           0        8.926036   -1.919891   -0.815082
    136          6           0        8.395437   -5.026466   -0.827612
    137          1           0        5.809468   -5.052966   -0.744798
    138          1           0        7.845997   -3.535221    0.622424
    139          1           0        8.001896   -5.966944   -0.446134
    140          1           0        8.351773   -5.053939   -1.919738
    141          1           0        9.431338   -4.841559   -0.546154
    142          7           0        7.127019   -2.250696   -2.169559
    143          6           0        7.350860   -1.016746   -2.914046
    144          6           0        6.914293    0.204642   -2.131346
    145          8           0        7.707201    1.131975   -1.991160
    146          6           0        6.713252   -1.138240   -4.291288
    147          1           0        6.381849   -2.892512   -2.406189
    148          1           0        8.415095   -0.800729   -2.974391
    149          1           0        7.079866   -2.020211   -4.819229
    150          1           0        5.631218   -1.083725   -4.197848
    151          1           0        7.021001   -0.254854   -4.865588
    152          7           0        5.671600    0.160687   -1.642695
    153          6           0        5.159841    1.207644   -0.773855
    154          6           0        6.012506    1.445846    0.453957
    155          8           0        6.290244    2.604176    0.788671
    156          6           0        3.718790    0.896145   -0.389484
    157          6           0        2.861533    1.203903   -1.619767
    158          6           0        1.347953    1.026024   -1.484365
    159          8           0        0.697860    0.538030   -2.431698
    160          8           0        0.791330    1.053519   -0.364760
    161          1           0        5.144916   -0.691591   -1.760710
    162          1           0        5.143968    2.135387   -1.346953
    163          1           0        3.412453    1.551717    0.429163
    164          1           0        3.518522   -0.133550   -0.087291
    165          1           0        3.349350    0.684455   -2.444333
    166          1           0        3.050295    2.251096   -1.838526
    167          7           0        6.509003    0.381958    1.093123
    168          6           0        7.494863    0.370282    2.144809
    169          1           0        7.085019    0.854561    3.030770
    170          1           0        7.759554   -0.659693    2.383297
    171          1           0        8.384336    0.907939    1.815406
    172          1           0        6.270480   -0.506066    0.675965
    173         20           0       -1.490454   -0.177015   -0.990659
    174          8           0       -1.410072   -1.405000   -3.418743
    175          1           0       -1.427605   -0.596812   -3.937033
    176          1           0       -0.982258   -2.044657   -3.981871
 ---------------------------------------------------------------------
 Rotational constants (GHZ):           0.0245710           0.0152737           0.0124954
 Standard basis: SVP (5D, 7F)
 There are  1809 symmetry adapted cartesian basis functions of A   symmetry.
 There are  1717 symmetry adapted basis functions of A   symmetry.
  1717 basis functions,  2922 primitive gaussians,  1809 cartesian basis functions
   358 alpha electrons      358 beta electrons
       nuclear repulsion energy     21943.1701741726 Hartrees.
 NAtoms=  176 NActive=  176 NUniq=  176 SFac= 1.00D+00 NAtFMM=   60 NAOKFM=T Big=T
 Integral buffers will be    131072 words long.
 Raffenetti 2 integral format.
 Two-electron integral symmetry is turned on.
 One-electron integrals computed using PRISM.
 NBasis=  1717 RedAO= T EigKep=  2.79D-04  NBF=  1717
 NBsUse=  1717 1.00D-06 EigRej= -1.00D+00 NBFU=  1717
 ExpMin= 1.98D-02 ExpMax= 3.51D+04 ExpMxC= 5.28D+03 IAcc=3 IRadAn=         5 AccDes= 0.00D+00
 Harris functional with IExCor=  402 and IRadAn=       5 diagonalized for initial guess.
 HarFok:  IExCor=  402 AccDes= 0.00D+00 IRadAn=         5 IDoV= 1 UseB2=F ITyADJ=14
 ICtDFT=  3500011 ScaDFX=  1.000000  1.000000  1.000000  1.000000
 FoFCou: FMM=F IPFlag=           0 FMFlag=      100000 FMFlg1=        2001
         NFxFlg=           0 DoJE=T BraDBF=F KetDBF=T FulRan=T
         wScrn=  0.000000 ICntrl=       500 IOpCl=  0 I1Cent=   200000004 NGrid=           0
         NMat0=    1 NMatS0=      1 NMatT0=    0 NMatD0=    1 NMtDS0=    0 NMtDT0=    0
 Petite list used in FoFCou.
 Requested convergence on RMS density matrix=1.00D-08 within 128 cycles.
 Requested convergence on MAX density matrix=1.00D-06.
 Requested convergence on             energy=1.00D-06.
 No special actions if energy rises.
 EnCoef did     5 forward-backward iterations
 SCF Done:  E(RB3LYP) =  -5333.63771780     A.U. after   18 cycles
            NFock= 18  Conv=0.29D-08     -V/T= 2.0081
 SCF density gives NOpUse=  1 NOpAll=  1.
 Hyperfine terms turned off by default for NAtoms > 100.

 **********************************************************************

            Population analysis using the SCF density.

 **********************************************************************

 Orbital symmetries:
 BldTbl:  Degeneracy threshold= 1.00D-02
       Occupied  (A) (A) (A) (A) (A) (A) (A) (A) (A) (A) (A) (A)
                 (A) (A) (A) (A) (A) (A) (A) (A) (A) (A) (A) (A)
                 (A) (A) (A) (A) (A) (A) (A) (A) (A) (A) (A) (A)
                 (A) (A) (A) (A) (A) (A) (A) (A) (A) (A) (A) (A)
                 (A) (A) (A) (A) (A) (A) (A) (A) (A) (A) (A) (A)
                 (A) (A) (A) (A) (A) (A) (A) (A) (A) (A) (A) (A)
                 (A) (A) (A) (A) (A) (A) (A) (A) (A) (A) (A) (A)
                 (A) (A) (A) (A) (A) (A) (A) (A) (A) (A) (A) (A)
                 (A) (A) (A) (A) (A) (A) (A) (A) (A) (A) (A) (A)
                 (A) (A) (A) (A) (A) (A) (A) (A) (A) (A) (A) (A)
                 (A) (A) (A) (A) (A) (A) (A) (A) (A) (A) (A) (A)
                 (A) (A) (A) (A) (A) (A) (A) (A) (A) (A) (A) (A)
                 (A) (A) (A) (A) (A) (A) (A) (A) (A) (A) (A) (A)
                 (A) (A) (A) (A) (A) (A) (A) (A) (A) (A) (A) (A)
                 (A) (A) (A) (A) (A) (A) (A) (A) (A) (A) (A) (A)
                 (A) (A) (A) (A) (A) (A) (A) (A) (A) (A) (A) (A)
                 (A) (A) (A) (A) (A) (A) (A) (A) (A) (A) (A) (A)
                 (A) (A) (A) (A) (A) (A) (A) (A) (A) (A) (A) (A)
                 (A) (A) (A) (A) (A) (A) (A) (A) (A) (A) (A) (A)
                 (A) (A) (A) (A) (A) (A) (A) (A) (A) (A) (A) (A)
                 (A) (A) (A) (A) (A) (A) (A) (A) (A) (A) (A) (A)
                 (A) (A) (A) (A) (A) (A) (A) (A) (A) (A) (A) (A)
                 (A) (A) (A) (A) (A) (A) (A) (A) (A) (A) (A) (A)
                 (A) (A) (A) (A) (A) (A) (A) (A) (A) (A) (A) (A)
                 (A) (A) (A) (A) (A) (A) (A) (A) (A) (A) (A) (A)
                 (A) (A) (A) (A) (A) (A) (A) (A) (A) (A) (A) (A)
                 (A) (A) (A) (A) (A) (A) (A) (A) (A) (A) (A) (A)
                 (A) (A) (A) (A) (A) (A) (A) (A) (A) (A) (A) (A)
                 (A) (A) (A) (A) (A) (A) (A) (A) (A) (A) (A) (A)
                 (A) (A) (A) (A) (A) (A) (A) (A) (A) (A)
       Virtual   (A) (A) (A) (A) (A) (A) (A) (A) (A) (A) (A) (A)
                 (A) (A) (A) (A) (A) (A) (A) (A) (A) (A) (A) (A)
                 (A) (A) (A) (A) (A) (A) (A) (A) (A) (A) (A) (A)
                 (A) (A) (A) (A) (A) (A) (A) (A) (A) (A) (A) (A)
                 (A) (A) (A) (A) (A) (A) (A) (A) (A) (A) (A) (A)
                 (A) (A) (A) (A) (A) (A) (A) (A) (A) (A) (A) (A)
                 (A) (A) (A) (A) (A) (A) (A) (A) (A) (A) (A) (A)
                 (A) (A) (A) (A) (A) (A) (A) (A) (A) (A) (A) (A)
                 (A) (A) (A) (A) (A) (A) (A) (A) (A) (A) (A) (A)
                 (A) (A) (A) (A) (A) (A) (A) (A) (A) (A) (A) (A)
                 (A) (A) (A) (A) (A) (A) (A) (A) (A) (A) (A) (A)
                 (A) (A) (A) (A) (A) (A) (A) (A) (A) (A) (A) (A)
                 (A) (A) (A) (A) (A) (A) (A) (A) (A) (A) (A) (A)
                 (A) (A) (A) (A) (A) (A) (A) (A) (A) (A) (A) (A)
                 (A) (A) (A) (A) (A) (A) (A) (A) (A) (A) (A) (A)
                 (A) (A) (A) (A) (A) (A) (A) (A) (A) (A) (A) (A)
                 (A) (A) (A) (A) (A) (A) (A) (A) (A) (A) (A) (A)
                 (A) (A) (A) (A) (A) (A) (A) (A) (A) (A) (A) (A)
                 (A) (A) (A) (A) (A) (A) (A) (A) (A) (A) (A) (A)
                 (A) (A) (A) (A) (A) (A) (A) (A) (A) (A) (A) (A)
                 (A) (A) (A) (A) (A) (A) (A) (A) (A) (A) (A) (A)
                 (A) (A) (A) (A) (A) (A) (A) (A) (A) (A) (A) (A)
                 (A) (A) (A) (A) (A) (A) (A) (A) (A) (A) (A) (A)
                 (A) (A) (A) (A) (A) (A) (A) (A) (A) (A) (A) (A)
                 (A) (A) (A) (A) (A) (A) (A) (A) (A) (A) (A) (A)
                 (A) (A) (A) (A) (A) (A) (A) (A) (A) (A) (A) (A)
                 (A) (A) (A) (A) (A) (A) (A) (A) (A) (A) (A) (A)
                 (A) (A) (A) (A) (A) (A) (A) (A) (A) (A) (A) (A)
                 (A) (A) (A) (A) (A) (A) (A) (A) (A) (A) (A) (A)
                 (A) (A) (A) (A) (A) (A) (A) (A) (A) (A) (A) (A)
                 (A) (A) (A) (A) (A) (A) (A) (A) (A) (A) (A) (A)
                 (A) (A) (A) (A) (A) (A) (A) (A) (A) (A) (A) (A)
                 (A) (A) (A) (A) (A) (A) (A) (A) (A) (A) (A) (A)
                 (A) (A) (A) (A) (A) (A) (A) (A) (A) (A) (A) (A)
                 (A) (A) (A) (A) (A) (A) (A) (A) (A) (A) (A) (A)
                 (A) (A) (A) (A) (A) (A) (A) (A) (A) (A) (A) (A)
                 (A) (A) (A) (A) (A) (A) (A) (A) (A) (A) (A) (A)
                 (A) (A) (A) (A) (A) (A) (A) (A) (A) (A) (A) (A)
                 (A) (A) (A) (A) (A) (A) (A) (A) (A) (A) (A) (A)
                 (A) (A) (A) (A) (A) (A) (A) (A) (A) (A) (A) (A)
                 (A) (A) (A) (A) (A) (A) (A) (A) (A) (A) (A) (A)
                 (A) (A) (A) (A) (A) (A) (A) (A) (A) (A) (A) (A)
                 (A) (A) (A) (A) (A) (A) (A) (A) (A) (A) (A) (A)
                 (A) (A) (A) (A) (A) (A) (A) (A) (A) (A) (A) (A)
                 (A) (A) (A) (A) (A) (A) (A) (A) (A) (A) (A) (A)
                 (A) (A) (A) (A) (A) (A) (A) (A) (A) (A) (A) (A)
                 (A) (A) (A) (A) (A) (A) (A) (A) (A) (A) (A) (A)
                 (A) (A) (A) (A) (A) (A) (A) (A) (A) (A) (A) (A)
                 (A) (A) (A) (A) (A) (A) (A) (A) (A) (A) (A) (A)
                 (A) (A) (A) (A) (A) (A) (A) (A) (A) (A) (A) (A)
                 (A) (A) (A) (A) (A) (A) (A) (A) (A) (A) (A) (A)
                 (A) (A) (A) (A) (A) (A) (A) (A) (A) (A) (A) (A)
                 (A) (A) (A) (A) (A) (A) (A) (A) (A) (A) (A) (A)
                 (A) (A) (A) (A) (A) (A) (A) (A) (A) (A) (A) (A)
                 (A) (A) (A) (A) (A) (A) (A) (A) (A) (A) (A) (A)
                 (A) (A) (A) (A) (A) (A) (A) (A) (A) (A) (A) (A)
                 (A) (A) (A) (A) (A) (A) (A) (A) (A) (A) (A) (A)
                 (A) (A) (A) (A) (A) (A) (A) (A) (A) (A) (A) (A)
                 (A) (A) (A) (A) (A) (A) (A) (A) (A) (A) (A) (A)
                 (A) (A) (A) (A) (A) (A) (A) (A) (A) (A) (A) (A)
                 (A) (A) (A) (A) (A) (A) (A) (A) (A) (A) (A) (A)
                 (A) (A) (A) (A) (A) (A) (A) (A) (A) (A) (A) (A)
                 (A) (A) (A) (A) (A) (A) (A) (A) (A) (A) (A) (A)
                 (A) (A) (A) (A) (A) (A) (A) (A) (A) (A) (A) (A)
                 (A) (A) (A) (A) (A) (A) (A) (A) (A) (A) (A) (A)
                 (A) (A) (A) (A) (A) (A) (A) (A) (A) (A) (A) (A)
                 (A) (A) (A) (A) (A) (A) (A) (A) (A) (A) (A) (A)
                 (A) (A) (A) (A) (A) (A) (A) (A) (A) (A) (A) (A)
                 (A) (A) (A) (A) (A) (A) (A) (A) (A) (A) (A) (A)
                 (A) (A) (A) (A) (A) (A) (A) (A) (A) (A) (A) (A)
                 (A) (A) (A) (A) (A) (A) (A) (A) (A) (A) (A) (A)
                 (A) (A) (A) (A) (A) (A) (A) (A) (A) (A) (A) (A)
                 (A) (A) (A) (A) (A) (A) (A) (A) (A) (A) (A) (A)
                 (A) (A) (A) (A) (A) (A) (A) (A) (A) (A) (A) (A)
                 (A) (A) (A) (A) (A) (A) (A) (A) (A) (A) (A) (A)
                 (A) (A) (A) (A) (A) (A) (A) (A) (A) (A) (A) (A)
                 (A) (A) (A) (A) (A) (A) (A) (A) (A) (A) (A) (A)
                 (A) (A) (A) (A) (A) (A) (A) (A) (A) (A) (A) (A)
                 (A) (A) (A) (A) (A) (A) (A) (A) (A) (A) (A) (A)
                 (A) (A) (A) (A) (A) (A) (A) (A) (A) (A) (A) (A)
                 (A) (A) (A) (A) (A) (A) (A) (A) (A) (A) (A) (A)
                 (A) (A) (A) (A) (A) (A) (A) (A) (A) (A) (A) (A)
                 (A) (A) (A) (A) (A) (A) (A) (A) (A) (A) (A) (A)
                 (A) (A) (A) (A) (A) (A) (A) (A) (A) (A) (A) (A)
                 (A) (A) (A) (A) (A) (A) (A) (A) (A) (A) (A) (A)
                 (A) (A) (A) (A) (A) (A) (A) (A) (A) (A) (A) (A)
                 (A) (A) (A) (A) (A) (A) (A) (A) (A) (A) (A) (A)
                 (A) (A) (A) (A) (A) (A) (A) (A) (A) (A) (A) (A)
                 (A) (A) (A) (A) (A) (A) (A) (A) (A) (A) (A) (A)
                 (A) (A) (A) (A) (A) (A) (A) (A) (A) (A) (A) (A)
                 (A) (A) (A) (A) (A) (A) (A) (A) (A) (A) (A) (A)
                 (A) (A) (A) (A) (A) (A) (A) (A) (A) (A) (A) (A)
                 (A) (A) (A) (A) (A) (A) (A) (A) (A) (A) (A) (A)
                 (A) (A) (A) (A) (A) (A) (A) (A) (A) (A) (A) (A)
                 (A) (A) (A) (A) (A) (A) (A) (A) (A) (A) (A) (A)
                 (A) (A) (A) (A) (A) (A) (A) (A) (A) (A) (A) (A)
                 (A) (A) (A) (A) (A) (A) (A) (A) (A) (A) (A) (A)
                 (A) (A) (A) (A) (A) (A) (A) (A) (A) (A) (A) (A)
                 (A) (A) (A) (A) (A) (A) (A) (A) (A) (A) (A) (A)
                 (A) (A) (A) (A) (A) (A) (A) (A) (A) (A) (A) (A)
                 (A) (A) (A) (A) (A) (A) (A) (A) (A) (A) (A) (A)
                 (A) (A) (A) (A) (A) (A) (A) (A) (A) (A) (A) (A)
                 (A) (A) (A) (A) (A) (A) (A) (A) (A) (A) (A) (A)
                 (A) (A) (A) (A) (A) (A) (A) (A) (A) (A) (A) (A)
                 (A) (A) (A) (A) (A) (A) (A) (A) (A) (A) (A) (A)
                 (A) (A) (A) (A) (A) (A) (A) (A) (A) (A) (A) (A)
                 (A) (A) (A) (A) (A) (A) (A) (A) (A) (A) (A) (A)
                 (A) (A) (A) (A) (A) (A) (A) (A) (A) (A) (A) (A)
                 (A) (A) (A) (A) (A) (A) (A) (A) (A) (A) (A) (A)
                 (A) (A) (A) (A) (A) (A) (A) (A) (A) (A) (A) (A)
                 (A) (A) (A) (A) (A) (A) (A) (A) (A) (A) (A) (A)
                 (A) (A) (A) (A) (A) (A) (A) (A) (A) (A) (A) (A)
                 (A) (A) (A) (A) (A) (A) (A) (A) (A) (A) (A) (A)
                 (A) (A) (A)
 The electronic state is 1-A.
 Alpha  occ. eigenvalues -- -145.37258 -19.21098 -19.15636 -19.15584 -19.15170
 Alpha  occ. eigenvalues --  -19.13666 -19.13005 -19.12222 -19.11340 -19.11176
 Alpha  occ. eigenvalues --  -19.09295 -19.08493 -19.08333 -19.08199 -19.07657
 Alpha  occ. eigenvalues --  -19.07123 -19.06799 -19.06325 -19.06238 -19.05560
 Alpha  occ. eigenvalues --  -19.05504 -19.04021 -19.03728 -19.03703 -15.42986
 Alpha  occ. eigenvalues --  -14.56495 -14.40983 -14.39638 -14.38534 -14.37547
 Alpha  occ. eigenvalues --  -14.37157 -14.35073 -14.34185 -14.33683 -14.33387
 Alpha  occ. eigenvalues --  -14.33234 -14.32358 -14.31840 -14.30254 -14.28746
 Alpha  occ. eigenvalues --  -12.56606 -12.56568 -12.56546 -10.33576 -10.31769
 Alpha  occ. eigenvalues --  -10.31570 -10.31448 -10.30943 -10.30283 -10.29837
 Alpha  occ. eigenvalues --  -10.29302 -10.28464 -10.27537 -10.27124 -10.27061
 Alpha  occ. eigenvalues --  -10.26776 -10.26448 -10.26393 -10.25761 -10.25679
 Alpha  occ. eigenvalues --  -10.25494 -10.25050 -10.24348 -10.24210 -10.24192
 Alpha  occ. eigenvalues --  -10.23749 -10.23569 -10.23244 -10.22691 -10.22642
 Alpha  occ. eigenvalues --  -10.22635 -10.22479 -10.22477 -10.21389 -10.21274
 Alpha  occ. eigenvalues --  -10.21219 -10.20888 -10.20760 -10.20603 -10.20061
 Alpha  occ. eigenvalues --  -10.19801 -10.19623 -10.19548 -10.19521 -10.19141
 Alpha  occ. eigenvalues --  -10.18869 -10.18805 -10.18613 -10.18520 -10.18238
 Alpha  occ. eigenvalues --  -10.18220 -10.18076 -10.17926 -10.17538 -10.17194
 Alpha  occ. eigenvalues --  -10.16355 -10.15175  -1.79879  -1.12061  -1.09756
 Alpha  occ. eigenvalues --   -1.08609  -1.07599  -1.07463  -1.07286  -1.06359
 Alpha  occ. eigenvalues --   -1.05509  -1.05474  -1.04212  -1.04167  -1.03357
 Alpha  occ. eigenvalues --   -1.03049  -1.02150  -1.01545  -1.01368  -1.01003
 Alpha  occ. eigenvalues --   -1.00365  -0.99997  -0.99931  -0.99670  -0.98989
 Alpha  occ. eigenvalues --   -0.97594  -0.97149  -0.96645  -0.96285  -0.95184
 Alpha  occ. eigenvalues --   -0.94258  -0.93955  -0.92292  -0.91966  -0.91667
 Alpha  occ. eigenvalues --   -0.90965  -0.90818  -0.90169  -0.89608  -0.89532
 Alpha  occ. eigenvalues --   -0.89164  -0.88843  -0.87344  -0.85794  -0.85187
 Alpha  occ. eigenvalues --   -0.84782  -0.84196  -0.83137  -0.80801  -0.79937
 Alpha  occ. eigenvalues --   -0.79615  -0.79197  -0.78670  -0.77892  -0.76289
 Alpha  occ. eigenvalues --   -0.75800  -0.75269  -0.74765  -0.73639  -0.73622
 Alpha  occ. eigenvalues --   -0.73438  -0.72624  -0.72607  -0.72133  -0.70995
 Alpha  occ. eigenvalues --   -0.70338  -0.70281  -0.69120  -0.68682  -0.68037
 Alpha  occ. eigenvalues --   -0.66986  -0.66573  -0.65829  -0.65530  -0.65374
 Alpha  occ. eigenvalues --   -0.64879  -0.64184  -0.63341  -0.62372  -0.62062
 Alpha  occ. eigenvalues --   -0.61829  -0.61578  -0.61416  -0.61360  -0.59874
 Alpha  occ. eigenvalues --   -0.59831  -0.59655  -0.59329  -0.58947  -0.58409
 Alpha  occ. eigenvalues --   -0.58189  -0.58049  -0.57982  -0.57144  -0.57016
 Alpha  occ. eigenvalues --   -0.56745  -0.56138  -0.55710  -0.55612  -0.55384
 Alpha  occ. eigenvalues --   -0.54784  -0.54308  -0.54217  -0.54058  -0.53932
 Alpha  occ. eigenvalues --   -0.53689  -0.53262  -0.52916  -0.52755  -0.52354
 Alpha  occ. eigenvalues --   -0.52285  -0.51955  -0.51500  -0.51288  -0.50968
 Alpha  occ. eigenvalues --   -0.50464  -0.50080  -0.49626  -0.49474  -0.49044
 Alpha  occ. eigenvalues --   -0.48859  -0.48453  -0.48403  -0.48288  -0.48081
 Alpha  occ. eigenvalues --   -0.48036  -0.47925  -0.47878  -0.47750  -0.47547
 Alpha  occ. eigenvalues --   -0.47323  -0.47149  -0.46772  -0.46697  -0.46419
 Alpha  occ. eigenvalues --   -0.46038  -0.45677  -0.45312  -0.45207  -0.45160
 Alpha  occ. eigenvalues --   -0.44829  -0.44736  -0.44672  -0.44410  -0.44297
 Alpha  occ. eigenvalues --   -0.44259  -0.43795  -0.43742  -0.43644  -0.43451
 Alpha  occ. eigenvalues --   -0.43302  -0.43170  -0.43074  -0.43003  -0.42810
 Alpha  occ. eigenvalues --   -0.42710  -0.42495  -0.42438  -0.42356  -0.42270
 Alpha  occ. eigenvalues --   -0.42116  -0.42008  -0.41940  -0.41785  -0.41676
 Alpha  occ. eigenvalues --   -0.41477  -0.41389  -0.41199  -0.41096  -0.40936
 Alpha  occ. eigenvalues --   -0.40798  -0.40711  -0.40575  -0.40325  -0.40202
 Alpha  occ. eigenvalues --   -0.40154  -0.40059  -0.39929  -0.39897  -0.39776
 Alpha  occ. eigenvalues --   -0.39504  -0.39379  -0.39282  -0.39159  -0.39075
 Alpha  occ. eigenvalues --   -0.38843  -0.38806  -0.38538  -0.38320  -0.38052
 Alpha  occ. eigenvalues --   -0.37713  -0.37500  -0.37348  -0.37247  -0.37164
 Alpha  occ. eigenvalues --   -0.36920  -0.36762  -0.36508  -0.36454  -0.35995
 Alpha  occ. eigenvalues --   -0.35861  -0.35786  -0.35726  -0.35353  -0.35316
 Alpha  occ. eigenvalues --   -0.35120  -0.35029  -0.34958  -0.34813  -0.34679
 Alpha  occ. eigenvalues --   -0.34626  -0.34439  -0.34316  -0.33645  -0.33439
 Alpha  occ. eigenvalues --   -0.33417  -0.33358  -0.33056  -0.32647  -0.32434
 Alpha  occ. eigenvalues --   -0.32328  -0.32121  -0.31938  -0.31557  -0.31362
 Alpha  occ. eigenvalues --   -0.30958  -0.30642  -0.29561  -0.29242  -0.29040
 Alpha  occ. eigenvalues --   -0.28892  -0.27969  -0.27855  -0.27733  -0.27063
 Alpha  occ. eigenvalues --   -0.26807  -0.26579  -0.26520  -0.26119  -0.25865
 Alpha  occ. eigenvalues --   -0.25450  -0.25243  -0.24650  -0.24402  -0.24242
 Alpha  occ. eigenvalues --   -0.24137  -0.23986  -0.23771  -0.23426  -0.23346
 Alpha  occ. eigenvalues --   -0.23210  -0.22981  -0.22673  -0.22470  -0.22321
 Alpha  occ. eigenvalues --   -0.22028  -0.21737  -0.21514  -0.21448  -0.21046
 Alpha  occ. eigenvalues --   -0.20030  -0.19337  -0.17460
 Alpha virt. eigenvalues --   -0.08966  -0.05307  -0.03326  -0.03026  -0.02408
 Alpha virt. eigenvalues --   -0.01972  -0.00997  -0.00834  -0.00724  -0.00368
 Alpha virt. eigenvalues --   -0.00019   0.00652   0.01218   0.01553   0.01803
 Alpha virt. eigenvalues --    0.02386   0.02477   0.02616   0.02770   0.03292
 Alpha virt. eigenvalues --    0.03728   0.04127   0.04309   0.04493   0.04740
 Alpha virt. eigenvalues --    0.05014   0.05099   0.05280   0.05421   0.05519
 Alpha virt. eigenvalues --    0.05723   0.05898   0.06186   0.06223   0.06393
 Alpha virt. eigenvalues --    0.06648   0.06689   0.07156   0.07276   0.07465
 Alpha virt. eigenvalues --    0.07801   0.07941   0.08118   0.08205   0.08708
 Alpha virt. eigenvalues --    0.08763   0.09100   0.09385   0.09562   0.09670
 Alpha virt. eigenvalues --    0.09843   0.10001   0.10078   0.10460   0.10658
 Alpha virt. eigenvalues --    0.10870   0.11036   0.11183   0.11405   0.11515
 Alpha virt. eigenvalues --    0.11593   0.11620   0.11775   0.12037   0.12295
 Alpha virt. eigenvalues --    0.12620   0.12715   0.12853   0.12891   0.13367
 Alpha virt. eigenvalues --    0.13516   0.13770   0.13881   0.14058   0.14305
 Alpha virt. eigenvalues --    0.14399   0.14616   0.14827   0.14891   0.15011
 Alpha virt. eigenvalues --    0.15068   0.15264   0.15352   0.15508   0.15633
 Alpha virt. eigenvalues --    0.16128   0.16239   0.16396   0.16434   0.16630
 Alpha virt. eigenvalues --    0.16860   0.16879   0.17077   0.17168   0.17306
 Alpha virt. eigenvalues --    0.17434   0.17527   0.17867   0.17957   0.18235
 Alpha virt. eigenvalues --    0.18361   0.18531   0.18773   0.18918   0.19234
 Alpha virt. eigenvalues --    0.19366   0.19531   0.19683   0.19888   0.19993
 Alpha virt. eigenvalues --    0.20189   0.20451   0.20564   0.20655   0.20888
 Alpha virt. eigenvalues --    0.20991   0.21389   0.21530   0.21621   0.21858
 Alpha virt. eigenvalues --    0.22018   0.22098   0.22779   0.22993   0.23024
 Alpha virt. eigenvalues --    0.23494   0.23778   0.23832   0.24151   0.24351
 Alpha virt. eigenvalues --    0.24742   0.24774   0.25053   0.25083   0.25362
 Alpha virt. eigenvalues --    0.25716   0.25840   0.25970   0.26304   0.26560
 Alpha virt. eigenvalues --    0.26762   0.26953   0.27014   0.27364   0.27512
 Alpha virt. eigenvalues --    0.27647   0.27920   0.28263   0.28456   0.28950
 Alpha virt. eigenvalues --    0.29068   0.29344   0.29437   0.29732   0.29826
 Alpha virt. eigenvalues --    0.30079   0.30265   0.30454   0.30567   0.30848
 Alpha virt. eigenvalues --    0.31213   0.31319   0.31408   0.31604   0.32021
 Alpha virt. eigenvalues --    0.32216   0.32849   0.33069   0.33247   0.33332
 Alpha virt. eigenvalues --    0.33599   0.33980   0.34079   0.34553   0.34812
 Alpha virt. eigenvalues --    0.34818   0.35096   0.35201   0.35640   0.35920
 Alpha virt. eigenvalues --    0.36316   0.36840   0.37165   0.37370   0.37685
 Alpha virt. eigenvalues --    0.37759   0.38103   0.38201   0.38386   0.39035
 Alpha virt. eigenvalues --    0.39183   0.39438   0.39654   0.39879   0.40014
 Alpha virt. eigenvalues --    0.40240   0.40649   0.40838   0.41005   0.41182
 Alpha virt. eigenvalues --    0.41504   0.42002   0.42256   0.42311   0.42430
 Alpha virt. eigenvalues --    0.43116   0.43176   0.43606   0.43767   0.43868
 Alpha virt. eigenvalues --    0.43948   0.44076   0.44226   0.44499   0.44737
 Alpha virt. eigenvalues --    0.44885   0.45102   0.45173   0.45512   0.45558
 Alpha virt. eigenvalues --    0.45728   0.45925   0.46031   0.46251   0.46623
 Alpha virt. eigenvalues --    0.46671   0.46842   0.47119   0.47180   0.47245
 Alpha virt. eigenvalues --    0.47480   0.47536   0.47619   0.47972   0.48269
 Alpha virt. eigenvalues --    0.48314   0.48560   0.48833   0.49004   0.49289
 Alpha virt. eigenvalues --    0.49560   0.49847   0.49984   0.50013   0.50675
 Alpha virt. eigenvalues --    0.50896   0.51141   0.51435   0.51493   0.51688
 Alpha virt. eigenvalues --    0.51787   0.52085   0.52189   0.52402   0.52640
 Alpha virt. eigenvalues --    0.53031   0.53101   0.53156   0.53576   0.53906
 Alpha virt. eigenvalues --    0.53949   0.54111   0.54272   0.54506   0.54663
 Alpha virt. eigenvalues --    0.54816   0.54862   0.54995   0.55472   0.55659
 Alpha virt. eigenvalues --    0.55777   0.55957   0.56126   0.56273   0.56513
 Alpha virt. eigenvalues --    0.56810   0.56896   0.57107   0.57315   0.57697
 Alpha virt. eigenvalues --    0.57813   0.57900   0.57935   0.58126   0.58440
 Alpha virt. eigenvalues --    0.58629   0.58801   0.58887   0.58939   0.59002
 Alpha virt. eigenvalues --    0.59351   0.59466   0.59520   0.59738   0.59834
 Alpha virt. eigenvalues --    0.60022   0.60113   0.60353   0.60498   0.60547
 Alpha virt. eigenvalues --    0.60755   0.60823   0.61016   0.61065   0.61228
 Alpha virt. eigenvalues --    0.61277   0.61360   0.61648   0.61733   0.61964
 Alpha virt. eigenvalues --    0.62010   0.62184   0.62371   0.62460   0.62571
 Alpha virt. eigenvalues --    0.62668   0.62806   0.62834   0.62963   0.63183
 Alpha virt. eigenvalues --    0.63267   0.63430   0.63560   0.63772   0.63820
 Alpha virt. eigenvalues --    0.63966   0.64146   0.64254   0.64376   0.64459
 Alpha virt. eigenvalues --    0.64704   0.64799   0.64907   0.64943   0.65048
 Alpha virt. eigenvalues --    0.65210   0.65407   0.65566   0.65691   0.65786
 Alpha virt. eigenvalues --    0.65917   0.66016   0.66105   0.66148   0.66345
 Alpha virt. eigenvalues --    0.66442   0.66483   0.66666   0.66722   0.66812
 Alpha virt. eigenvalues --    0.66894   0.67044   0.67154   0.67321   0.67516
 Alpha virt. eigenvalues --    0.67546   0.67581   0.67846   0.67986   0.68034
 Alpha virt. eigenvalues --    0.68072   0.68341   0.68447   0.68590   0.68726
 Alpha virt. eigenvalues --    0.68841   0.68940   0.69168   0.69227   0.69465
 Alpha virt. eigenvalues --    0.69490   0.69608   0.69785   0.69896   0.69994
 Alpha virt. eigenvalues --    0.70144   0.70255   0.70365   0.70571   0.70775
 Alpha virt. eigenvalues --    0.70821   0.71025   0.71145   0.71252   0.71539
 Alpha virt. eigenvalues --    0.71611   0.71631   0.71730   0.71910   0.72140
 Alpha virt. eigenvalues --    0.72216   0.72293   0.72622   0.72736   0.72815
 Alpha virt. eigenvalues --    0.72923   0.73075   0.73192   0.73350   0.73546
 Alpha virt. eigenvalues --    0.73751   0.73865   0.73986   0.74278   0.74303
 Alpha virt. eigenvalues --    0.74554   0.74932   0.75070   0.75253   0.75380
 Alpha virt. eigenvalues --    0.75519   0.75723   0.75956   0.76150   0.76471
 Alpha virt. eigenvalues --    0.76721   0.76797   0.77414   0.77625   0.77708
 Alpha virt. eigenvalues --    0.78098   0.78469   0.78543   0.78619   0.79181
 Alpha virt. eigenvalues --    0.79316   0.79459   0.79734   0.80025   0.80219
 Alpha virt. eigenvalues --    0.80533   0.80609   0.81084   0.81299   0.81402
 Alpha virt. eigenvalues --    0.81714   0.81783   0.82334   0.82632   0.82886
 Alpha virt. eigenvalues --    0.83165   0.83390   0.83724   0.83929   0.84263
 Alpha virt. eigenvalues --    0.84455   0.84622   0.84924   0.85058   0.85393
 Alpha virt. eigenvalues --    0.85646   0.86290   0.86561   0.86902   0.87117
 Alpha virt. eigenvalues --    0.87542   0.87681   0.88047   0.88235   0.88480
 Alpha virt. eigenvalues --    0.88760   0.89158   0.89455   0.89862   0.89882
 Alpha virt. eigenvalues --    0.90310   0.90666   0.90828   0.91400   0.91416
 Alpha virt. eigenvalues --    0.91711   0.91905   0.92076   0.92588   0.92698
 Alpha virt. eigenvalues --    0.93039   0.93601   0.93688   0.93957   0.94373
 Alpha virt. eigenvalues --    0.94481   0.94950   0.95015   0.95380   0.95493
 Alpha virt. eigenvalues --    0.95957   0.96160   0.96521   0.96700   0.97015
 Alpha virt. eigenvalues --    0.97284   0.97405   0.97589   0.97945   0.98497
 Alpha virt. eigenvalues --    0.98640   0.98692   0.98937   0.99297   0.99671
 Alpha virt. eigenvalues --    1.00111   1.00136   1.00383   1.00586   1.00874
 Alpha virt. eigenvalues --    1.01331   1.01678   1.01897   1.02369   1.02714
 Alpha virt. eigenvalues --    1.02934   1.03204   1.03650   1.03866   1.04083
 Alpha virt. eigenvalues --    1.04483   1.04738   1.05195   1.05460   1.05781
 Alpha virt. eigenvalues --    1.05857   1.06248   1.06366   1.06806   1.07386
 Alpha virt. eigenvalues --    1.07742   1.08138   1.08190   1.08295   1.08525
 Alpha virt. eigenvalues --    1.08912   1.09051   1.09693   1.10156   1.10248
 Alpha virt. eigenvalues --    1.10387   1.10676   1.10995   1.11093   1.11104
 Alpha virt. eigenvalues --    1.11415   1.11735   1.12194   1.12441   1.12797
 Alpha virt. eigenvalues --    1.13211   1.13277   1.13633   1.13958   1.14095
 Alpha virt. eigenvalues --    1.14218   1.14373   1.14912   1.15145   1.15183
 Alpha virt. eigenvalues --    1.15510   1.15895   1.16374   1.16433   1.16683
 Alpha virt. eigenvalues --    1.16953   1.17099   1.17476   1.17614   1.18211
 Alpha virt. eigenvalues --    1.18554   1.18578   1.18687   1.19092   1.19190
 Alpha virt. eigenvalues --    1.19236   1.19553   1.19669   1.19734   1.20186
 Alpha virt. eigenvalues --    1.20430   1.20508   1.20964   1.21383   1.21564
 Alpha virt. eigenvalues --    1.21851   1.21927   1.22444   1.22951   1.23040
 Alpha virt. eigenvalues --    1.23349   1.23721   1.23959   1.24166   1.24285
 Alpha virt. eigenvalues --    1.24488   1.24702   1.24877   1.25052   1.25395
 Alpha virt. eigenvalues --    1.25844   1.25913   1.26465   1.26848   1.26978
 Alpha virt. eigenvalues --    1.27346   1.27562   1.27792   1.27977   1.28119
 Alpha virt. eigenvalues --    1.28533   1.28575   1.29143   1.29588   1.29650
 Alpha virt. eigenvalues --    1.30173   1.30354   1.30508   1.30631   1.30862
 Alpha virt. eigenvalues --    1.31053   1.31620   1.31664   1.32080   1.32292
 Alpha virt. eigenvalues --    1.32699   1.32835   1.33051   1.33573   1.34085
 Alpha virt. eigenvalues --    1.34255   1.34649   1.34761   1.34912   1.35034
 Alpha virt. eigenvalues --    1.35607   1.35911   1.36374   1.36443   1.36918
 Alpha virt. eigenvalues --    1.37012   1.37279   1.37455   1.37657   1.38040
 Alpha virt. eigenvalues --    1.38505   1.38739   1.38760   1.39159   1.39643
 Alpha virt. eigenvalues --    1.39919   1.40000   1.40377   1.40673   1.40734
 Alpha virt. eigenvalues --    1.40913   1.41365   1.41909   1.42222   1.42600
 Alpha virt. eigenvalues --    1.42838   1.43075   1.43119   1.43484   1.43709
 Alpha virt. eigenvalues --    1.44307   1.44346   1.44837   1.45380   1.45508
 Alpha virt. eigenvalues --    1.45856   1.45907   1.46162   1.46534   1.46719
 Alpha virt. eigenvalues --    1.47238   1.47557   1.47578   1.48097   1.48192
 Alpha virt. eigenvalues --    1.48379   1.48514   1.48842   1.49025   1.49414
 Alpha virt. eigenvalues --    1.49644   1.49685   1.50185   1.50440   1.50947
 Alpha virt. eigenvalues --    1.51180   1.51227   1.51442   1.51748   1.52157
 Alpha virt. eigenvalues --    1.52419   1.52692   1.52728   1.52891   1.53099
 Alpha virt. eigenvalues --    1.53220   1.53592   1.54132   1.54256   1.54924
 Alpha virt. eigenvalues --    1.55203   1.55528   1.55907   1.56509   1.57007
 Alpha virt. eigenvalues --    1.57444   1.57595   1.57752   1.58317   1.59063
 Alpha virt. eigenvalues --    1.59220   1.59523   1.59935   1.60276   1.60324
 Alpha virt. eigenvalues --    1.60426   1.60782   1.61223   1.61470   1.61759
 Alpha virt. eigenvalues --    1.62164   1.62426   1.62651   1.62957   1.63264
 Alpha virt. eigenvalues --    1.63601   1.63658   1.64304   1.64615   1.64722
 Alpha virt. eigenvalues --    1.65407   1.65613   1.66091   1.66325   1.66662
 Alpha virt. eigenvalues --    1.66754   1.66848   1.67043   1.67272   1.67598
 Alpha virt. eigenvalues --    1.67934   1.68242   1.68712   1.68943   1.69278
 Alpha virt. eigenvalues --    1.69380   1.69653   1.69946   1.70237   1.70615
 Alpha virt. eigenvalues --    1.70698   1.70815   1.71071   1.71513   1.71867
 Alpha virt. eigenvalues --    1.71997   1.72264   1.72691   1.72816   1.73054
 Alpha virt. eigenvalues --    1.73189   1.73418   1.73698   1.73863   1.74179
 Alpha virt. eigenvalues --    1.74363   1.74468   1.74777   1.74969   1.75065
 Alpha virt. eigenvalues --    1.75271   1.75344   1.75544   1.75794   1.75907
 Alpha virt. eigenvalues --    1.76007   1.76321   1.76471   1.76575   1.76720
 Alpha virt. eigenvalues --    1.76735   1.76836   1.77001   1.77251   1.77496
 Alpha virt. eigenvalues --    1.77662   1.77782   1.78097   1.78197   1.78339
 Alpha virt. eigenvalues --    1.78464   1.78540   1.78846   1.79060   1.79346
 Alpha virt. eigenvalues --    1.79530   1.79618   1.79662   1.79811   1.79946
 Alpha virt. eigenvalues --    1.80189   1.80292   1.80660   1.80695   1.80920
 Alpha virt. eigenvalues --    1.81124   1.81442   1.81498   1.81813   1.82075
 Alpha virt. eigenvalues --    1.82128   1.82266   1.82443   1.82515   1.82652
 Alpha virt. eigenvalues --    1.82703   1.83113   1.83177   1.83522   1.83572
 Alpha virt. eigenvalues --    1.83810   1.83935   1.84000   1.84234   1.84523
 Alpha virt. eigenvalues --    1.84668   1.84895   1.85062   1.85253   1.85438
 Alpha virt. eigenvalues --    1.85527   1.85660   1.85938   1.86085   1.86187
 Alpha virt. eigenvalues --    1.86642   1.86869   1.87084   1.87576   1.87702
 Alpha virt. eigenvalues --    1.87868   1.88018   1.88085   1.88147   1.88645
 Alpha virt. eigenvalues --    1.88726   1.88904   1.89048   1.89207   1.89526
 Alpha virt. eigenvalues --    1.89923   1.89956   1.90174   1.90429   1.90620
 Alpha virt. eigenvalues --    1.90940   1.90992   1.91094   1.91325   1.91472
 Alpha virt. eigenvalues --    1.91730   1.91916   1.92269   1.92381   1.92548
 Alpha virt. eigenvalues --    1.92573   1.92980   1.93338   1.93440   1.93861
 Alpha virt. eigenvalues --    1.94031   1.94316   1.94624   1.94743   1.94864
 Alpha virt. eigenvalues --    1.95358   1.95514   1.95754   1.95814   1.96112
 Alpha virt. eigenvalues --    1.96440   1.96661   1.96744   1.96934   1.97235
 Alpha virt. eigenvalues --    1.97479   1.97811   1.98099   1.98218   1.98436
 Alpha virt. eigenvalues --    1.98666   1.99101   1.99278   1.99385   1.99637
 Alpha virt. eigenvalues --    1.99937   2.00031   2.00331   2.00477   2.00727
 Alpha virt. eigenvalues --    2.00843   2.00952   2.01313   2.01639   2.02069
 Alpha virt. eigenvalues --    2.02254   2.02541   2.02824   2.02899   2.03225
 Alpha virt. eigenvalues --    2.03551   2.03716   2.04044   2.04292   2.04378
 Alpha virt. eigenvalues --    2.04599   2.05287   2.05352   2.05771   2.06215
 Alpha virt. eigenvalues --    2.06575   2.06669   2.06870   2.06969   2.07539
 Alpha virt. eigenvalues --    2.07875   2.07933   2.08133   2.08299   2.08585
 Alpha virt. eigenvalues --    2.08664   2.08856   2.09071   2.09145   2.09715
 Alpha virt. eigenvalues --    2.09801   2.09970   2.10232   2.10553   2.10919
 Alpha virt. eigenvalues --    2.11226   2.11270   2.11831   2.11902   2.12418
 Alpha virt. eigenvalues --    2.12633   2.12884   2.13039   2.13403   2.14183
 Alpha virt. eigenvalues --    2.14343   2.14651   2.14810   2.15153   2.15321
 Alpha virt. eigenvalues --    2.15665   2.16005   2.16168   2.16355   2.16511
 Alpha virt. eigenvalues --    2.16917   2.17171   2.17368   2.17391   2.17758
 Alpha virt. eigenvalues --    2.17813   2.18094   2.18373   2.18789   2.19199
 Alpha virt. eigenvalues --    2.19579   2.19752   2.20237   2.20298   2.20490
 Alpha virt. eigenvalues --    2.20749   2.20924   2.21482   2.21685   2.21969
 Alpha virt. eigenvalues --    2.22393   2.23270   2.23316   2.23864   2.23963
 Alpha virt. eigenvalues --    2.24553   2.24768   2.25139   2.25258   2.25431
 Alpha virt. eigenvalues --    2.25772   2.25980   2.26428   2.26778   2.27141
 Alpha virt. eigenvalues --    2.27227   2.27921   2.28217   2.28409   2.28652
 Alpha virt. eigenvalues --    2.29126   2.29289   2.29700   2.30039   2.30301
 Alpha virt. eigenvalues --    2.30640   2.31064   2.31463   2.31552   2.31756
 Alpha virt. eigenvalues --    2.32068   2.32552   2.32580   2.33122   2.33350
 Alpha virt. eigenvalues --    2.33432   2.33681   2.34260   2.34535   2.35104
 Alpha virt. eigenvalues --    2.35414   2.35674   2.36248   2.36433   2.36468
 Alpha virt. eigenvalues --    2.36675   2.36971   2.37170   2.37517   2.38475
 Alpha virt. eigenvalues --    2.38686   2.39132   2.39139   2.39374   2.39606
 Alpha virt. eigenvalues --    2.39638   2.40012   2.40844   2.40987   2.41187
 Alpha virt. eigenvalues --    2.41467   2.41665   2.41979   2.42340   2.42801
 Alpha virt. eigenvalues --    2.43054   2.43187   2.43235   2.43552   2.43775
 Alpha virt. eigenvalues --    2.44186   2.44485   2.44723   2.44950   2.45722
 Alpha virt. eigenvalues --    2.45753   2.47204   2.47381   2.47636   2.47747
 Alpha virt. eigenvalues --    2.48370   2.48400   2.49189   2.49276   2.49939
 Alpha virt. eigenvalues --    2.50116   2.50230   2.50541   2.50871   2.51024
 Alpha virt. eigenvalues --    2.51466   2.51958   2.52580   2.52738   2.53549
 Alpha virt. eigenvalues --    2.53655   2.53934   2.54747   2.55031   2.55262
 Alpha virt. eigenvalues --    2.55421   2.55741   2.56145   2.56411   2.56569
 Alpha virt. eigenvalues --    2.56979   2.57050   2.57455   2.58220   2.58581
 Alpha virt. eigenvalues --    2.59166   2.59337   2.59455   2.59911   2.60230
 Alpha virt. eigenvalues --    2.60362   2.60641   2.61045   2.61532   2.61563
 Alpha virt. eigenvalues --    2.62155   2.63124   2.63206   2.63259   2.63754
 Alpha virt. eigenvalues --    2.63972   2.64117   2.64405   2.64496   2.64660
 Alpha virt. eigenvalues --    2.65103   2.65222   2.65462   2.66307   2.66461
 Alpha virt. eigenvalues --    2.66598   2.67040   2.67195   2.67243   2.67446
 Alpha virt. eigenvalues --    2.68012   2.68077   2.68212   2.68379   2.68941
 Alpha virt. eigenvalues --    2.69324   2.69373   2.69489   2.69604   2.69882
 Alpha virt. eigenvalues --    2.70153   2.70258   2.70402   2.70709   2.70918
 Alpha virt. eigenvalues --    2.71440   2.71810   2.72045   2.72093   2.72241
 Alpha virt. eigenvalues --    2.72401   2.72763   2.72934   2.73144   2.73332
 Alpha virt. eigenvalues --    2.73837   2.73952   2.74098   2.74489   2.75591
 Alpha virt. eigenvalues --    2.75758   2.75883   2.75935   2.75977   2.76228
 Alpha virt. eigenvalues --    2.76463   2.76630   2.76793   2.77072   2.77384
 Alpha virt. eigenvalues --    2.77809   2.78084   2.78226   2.78422   2.79040
 Alpha virt. eigenvalues --    2.79097   2.79292   2.79597   2.80182   2.80306
 Alpha virt. eigenvalues --    2.80614   2.81145   2.81176   2.81759   2.82184
 Alpha virt. eigenvalues --    2.82365   2.82628   2.83335   2.83503   2.83706
 Alpha virt. eigenvalues --    2.83989   2.84159   2.84668   2.85241   2.85431
 Alpha virt. eigenvalues --    2.85938   2.86033   2.86504   2.86744   2.87428
 Alpha virt. eigenvalues --    2.88299   2.88428   2.88714   2.88795   2.88954
 Alpha virt. eigenvalues --    2.89399   2.89721   2.90340   2.90791   2.90870
 Alpha virt. eigenvalues --    2.90999   2.91425   2.91546   2.91700   2.92208
 Alpha virt. eigenvalues --    2.92360   2.92578   2.92813   2.93212   2.93379
 Alpha virt. eigenvalues --    2.93521   2.93982   2.94042   2.94199   2.94591
 Alpha virt. eigenvalues --    2.94843   2.94964   2.95185   2.95463   2.95880
 Alpha virt. eigenvalues --    2.96502   2.96718   2.96964   2.97071   2.97458
 Alpha virt. eigenvalues --    2.97924   2.98484   2.99192   2.99377   2.99665
 Alpha virt. eigenvalues --    2.99966   3.00109   3.00304   3.00573   3.00743
 Alpha virt. eigenvalues --    3.00922   3.01273   3.01481   3.01916   3.02049
 Alpha virt. eigenvalues --    3.02183   3.02414   3.02975   3.03194   3.03560
 Alpha virt. eigenvalues --    3.04288   3.04843   3.05451   3.05710   3.06133
 Alpha virt. eigenvalues --    3.06593   3.07276   3.07412   3.08446   3.08963
 Alpha virt. eigenvalues --    3.09457   3.09722   3.10165   3.10567   3.10756
 Alpha virt. eigenvalues --    3.10966   3.11257   3.11918   3.12673   3.13363
 Alpha virt. eigenvalues --    3.13734   3.14175   3.15424   3.15964   3.16184
 Alpha virt. eigenvalues --    3.16707   3.16880   3.17140   3.17546   3.17632
 Alpha virt. eigenvalues --    3.17749   3.17897   3.18526   3.18891   3.19039
 Alpha virt. eigenvalues --    3.19329   3.19713   3.19981   3.20282   3.20719
 Alpha virt. eigenvalues --    3.21038   3.21276   3.21891   3.21933   3.22059
 Alpha virt. eigenvalues --    3.22749   3.22925   3.23201   3.23573   3.24478
 Alpha virt. eigenvalues --    3.25237   3.25937   3.26109   3.26275   3.26826
 Alpha virt. eigenvalues --    3.27246   3.28086   3.29121   3.29251   3.29445
 Alpha virt. eigenvalues --    3.29827   3.30714   3.33738   3.34254   3.34297
 Alpha virt. eigenvalues --    3.35292   3.37816   3.38464   3.39317   3.40059
 Alpha virt. eigenvalues --    3.42116   3.43999   3.47909   3.49499   3.50197
 Alpha virt. eigenvalues --    3.50317   3.51772   3.52418   3.53881   3.54463
 Alpha virt. eigenvalues --    3.55109   3.55308   3.57392   3.57898   3.58331
 Alpha virt. eigenvalues --    3.59124   3.60426   3.60456   3.61215   3.62806
 Alpha virt. eigenvalues --    3.64492   3.65728   3.66292   3.66722   3.67211
 Alpha virt. eigenvalues --    3.67651   3.68358   3.68792   3.68834   3.69033
 Alpha virt. eigenvalues --    3.69682   3.69747   3.69977   3.71156   3.71955
 Alpha virt. eigenvalues --    3.72427   3.73210   3.73934   3.74826   3.75777
 Alpha virt. eigenvalues --    3.76023   3.77949   3.80835   3.83654
          Condensed to atoms (all electrons):
 Mulliken charges:
               1
     1  C    0.048526
     2  C    0.021433
     3  O   -0.292814
     4  H    0.025520
     5  H    0.046462
     6  H   -0.003701
     7  N   -0.116900
     8  C    0.151503
     9  C    0.078759
    10  O   -0.300570
    11  C    0.028169
    12  C    0.196037
    13  O   -0.401765
    14  O   -0.458166
    15  H    0.115131
    16  H    0.000473
    17  H    0.018803
    18  H    0.014571
    19  N   -0.132846
    20  C    0.038887
    21  C    0.064012
    22  O   -0.289544
    23  C    0.069355
    24  C    0.049212
    25  C   -0.075550
    26  C   -0.019662
    27  N    0.091542
    28  H    0.140806
    29  H    0.004305
    30  H    0.003674
    31  H    0.016613
    32  H    0.013203
    33  H    0.052710
    34  H    0.031912
    35  H    0.008241
    36  H    0.075399
    37  H    0.093022
    38  H    0.201332
    39  H    0.188769
    40  H    0.191813
    41  N   -0.116527
    42  C    0.131736
    43  C    0.089424
    44  O   -0.267089
    45  C    0.076917
    46  C    0.136857
    47  O   -0.465819
    48  O   -0.386079
    49  H    0.126926
    50  H    0.002930
    51  H    0.004383
    52  H    0.030336
    53  N   -0.172978
    54  C    0.240766
    55  C   -0.012928
    56  O   -0.281734
    57  H    0.137530
    58  H    0.008418
    59  H    0.001214
    60  N   -0.165111
    61  C    0.153644
    62  C    0.048318
    63  O   -0.289805
    64  C    0.023923
    65  C    0.113337
    66  N   -0.024322
    67  O   -0.359752
    68  H    0.135580
    69  H    0.018392
    70  H    0.050311
    71  H    0.032339
    72  H    0.134098
    73  H    0.081281
    74  N   -0.167812
    75  C    0.209093
    76  C    0.050432
    77  O   -0.293318
    78  H    0.131896
    79  H    0.020356
    80  H    0.027311
    81  N   -0.142433
    82  C    0.121466
    83  C    0.104273
    84  O   -0.375826
    85  C    0.160814
    86  C   -0.083543
    87  C    0.003472
    88  C    0.037027
    89  C   -0.012215
    90  C    0.011020
    91  C    0.147402
    92  O   -0.207355
    93  H    0.175806
    94  H    0.000080
    95  H    0.004567
    96  H   -0.007416
    97  H   -0.053813
    98  H   -0.018727
    99  H   -0.043454
   100  H   -0.039890
   101  H    0.182403
   102  N   -0.090587
   103  C    0.118303
   104  C    0.062744
   105  O   -0.270689
   106  C   -0.050399
   107  C    0.021357
   108  C    0.018585
   109  C   -0.014897
   110  H    0.130915
   111  H   -0.006509
   112  H   -0.009146
   113  H   -0.005309
   114  H   -0.023359
   115  H    0.017900
   116  H    0.047155
   117  H    0.000253
   118  H    0.040544
   119  H    0.011213
   120  H    0.007735
   121  N   -0.135113
   122  C    0.099041
   123  C    0.088447
   124  O   -0.275461
   125  C    0.216414
   126  O   -0.292761
   127  H    0.163848
   128  H    0.031643
   129  H    0.028492
   130  H   -0.022819
   131  H    0.206857
   132  N   -0.147651
   133  C    0.088188
   134  C    0.044702
   135  O   -0.259545
   136  C    0.061663
   137  H    0.123344
   138  H    0.026652
   139  H    0.026279
   140  H    0.005416
   141  H    0.050170
   142  N   -0.139566
   143  C    0.097114
   144  C    0.040143
   145  O   -0.247260
   146  C    0.062404
   147  H    0.112699
   148  H    0.020742
   149  H    0.022212
   150  H   -0.008320
   151  H    0.031856
   152  N   -0.169477
   153  C    0.132193
   154  C    0.057761
   155  O   -0.307178
   156  C    0.013204
   157  C    0.070821
   158  C    0.131092
   159  O   -0.388057
   160  O   -0.438692
   161  H    0.137807
   162  H   -0.006600
   163  H    0.042729
   164  H   -0.040246
   165  H   -0.024526
   166  H   -0.009119
   167  N   -0.164476
   168  C    0.152852
   169  H    0.004350
   170  H    0.011853
   171  H    0.033655
   172  H    0.137137
   173  Ca   1.266551
   174  O   -0.288190
   175  H    0.178951
   176  H    0.173158
 Sum of Mulliken charges =  -0.00000
 Mulliken charges with hydrogens summed into heavy atoms:
               1
     1  C    0.116806
     2  C    0.021433
     3  O   -0.292814
     7  N   -0.001769
     8  C    0.151976
     9  C    0.078759
    10  O   -0.300570
    11  C    0.061543
    12  C    0.196037
    13  O   -0.401765
    14  O   -0.458166
    19  N    0.007960
    20  C    0.043192
    21  C    0.064012
    22  O   -0.289544
    23  C    0.089642
    24  C    0.115124
    25  C   -0.035398
    26  C    0.148759
    27  N    0.673455
    41  N    0.010399
    42  C    0.134666
    43  C    0.089424
    44  O   -0.267089
    45  C    0.111636
    46  C    0.136857
    47  O   -0.465819
    48  O   -0.386079
    53  N   -0.035448
    54  C    0.250398
    55  C   -0.012928
    56  O   -0.281734
    60  N   -0.029531
    61  C    0.172036
    62  C    0.048318
    63  O   -0.289805
    64  C    0.106573
    65  C    0.113337
    66  N    0.191057
    67  O   -0.359752
    74  N   -0.035917
    75  C    0.256760
    76  C    0.050432
    77  O   -0.293318
    81  N    0.033374
    82  C    0.121547
    83  C    0.104273
    84  O   -0.375826
    85  C    0.157965
    86  C   -0.083543
    87  C   -0.050342
    88  C    0.018300
    89  C   -0.055669
    90  C   -0.028870
    91  C    0.147402
    92  O   -0.024951
   102  N    0.040328
   103  C    0.111794
   104  C    0.062744
   105  O   -0.270689
   106  C   -0.059545
   107  C   -0.007311
   108  C    0.083893
   109  C    0.044594
   121  N    0.028734
   122  C    0.130684
   123  C    0.088447
   124  O   -0.275461
   125  C    0.222087
   126  O   -0.085904
   132  N   -0.024306
   133  C    0.114840
   134  C    0.044702
   135  O   -0.259545
   136  C    0.143529
   142  N   -0.026866
   143  C    0.117856
   144  C    0.040143
   145  O   -0.247260
   146  C    0.108152
   152  N   -0.031671
   153  C    0.125593
   154  C    0.057761
   155  O   -0.307178
   156  C    0.015687
   157  C    0.037176
   158  C    0.131092
   159  O   -0.388057
   160  O   -0.438692
   167  N   -0.027339
   168  C    0.202711
   173  Ca   1.266551
   174  O    0.063918
 DipInt: DoE/N= T F RetVal/Mat= T F Init=T NMatP=  1 IDeriv=0 Min/MaxMlt=  0  4
 Entering OneElI...
 OneElI was handed  1333951383 working-precision words.
 Multipole integrals L=0 to 4 MinM= 0 MaxM= 0.
 Requested accuracy = 0.1000D-12
 ShPair: Thresh= 1.00D-13 NBox=     0 BxSize= 0.00D+00 RnKept= 2.55D+01
         NSMCal=               327645 NSMKep=              165544
 PrmmSu-InSpLW:  IPartL=    0 NPrtUS=    1 NPrtUL=    1 DoSpLW=F IThBeg=    0 IThEnd=    0 NThAct=    1.
 PrsmSu:  NPrtUS=   1 ThrOK=F IAlg=1 NPAlg=1 LenDen=           0 ISkipM=0 DoSpLW=F IThBeg=    0 IThEnd=    0.
 Prism:   IPart=     0 DynPar=F LinDyn=F Incr=         512.
 PRISM was handed  1323679067 working-precision words and165544 shell-pairs
 IPart=  0 NShTot=      165544 NBatch=         379 AvBLen=       436.8
 PrsmSu-ThDecC:  IPartSL=    0    0 NPrtUSL=    1    1 IThBeg=    0 IThEnd=    0 CPU=   -1 GPU=   -1 NThAct=    1.
 PrSmSu:  NxtVal=            513.
 Electronic moments (au):
       -716.00000000          9.69303714         -0.77460675          4.19334424
     -50822.37163972     -27163.28700713     -13373.41332512         55.47240100
          9.71022078         98.73966005    -115560.14758496     -27351.87586770
     -10966.51514942      15884.71583801      87699.18337785      49985.25074396
       6152.91887881      -8079.97663268      -4775.04723008     -31135.42426519
   -7255154.52542133   -2248623.58612534    -605112.96017833     472786.53659882
     369623.51728041    -303412.26967460     -95822.15660481      -7615.56484393
     -12151.99584464   -1664562.89840013    -708780.96027062    -425805.32189612
    -100648.10364778    -180786.24791819     -37436.14318651
 Electronic spatial extent (au):  <R**2>=          91359.0720
 DipInt: DoE/N= F T RetVal/Mat= T F Init=T NMatP=  1 IDeriv=0 Min/MaxMlt=  0  4
 Nuclear    moments (au):
        716.00000000         -0.00000000         -0.00000000         -0.00000000
      50322.99063720      26828.28149139      12983.18738111          0.00000000
         -0.00000000          0.00000000     115493.29817786      28381.21073729
      11138.41456256     -14306.89249976     -88340.74518756     -49773.95129938
      -5712.30392441       8320.76278716       5465.45570992      31314.81010437
    7053996.86096176    2169874.26719352     560200.90162332    -470699.36205151
    -368728.08390005     316964.87851794     108278.09585353       8974.99714803
      16855.74510924    1625573.77930509     672551.55478028     405355.43915195
     107645.86306057     183615.15343971      38910.99098821
 Total      moments (au):
          0.00000000          9.69303714         -0.77460675          4.19334424
       -499.38100251       -335.00551574       -390.22594400         55.47240100
          9.71022078         98.73966005        -66.84940710       1029.33486958
        171.89941314       1577.82333826       -641.56180970        211.29944458
        440.61495440        240.78615447        690.40847985        179.38583918
    -201157.66445957     -78749.31893182     -44912.05855501       2087.17454731
        895.43338035      13552.60884335      12455.93924872       1359.43230410
       4703.74926461     -38989.11909504     -36229.40549033     -20449.88274417
       6997.75941280       2828.90552151       1474.84780170
 Traceless Quadrup. (au):
        -91.17684843         73.19863834         17.97821008         55.47240100
          9.71022078         98.73966005
 Charge=              0.0000 electrons
 Dipole moment (field-independent basis, Debye):
    X=             24.6372    Y=             -1.9689    Z=             10.6584  Tot=             26.9160
 Quadrupole moment (field-independent basis, Debye-Ang):
   XX=           -671.6846   YY=           -450.5939   ZZ=           -524.8673
   XY=             74.6123   XZ=             13.0606   YZ=            132.8082
 Traceless Quadrupole moment (field-independent basis, Debye-Ang):
   XX=           -122.6360   YY=             98.4547   ZZ=             24.1813
   XY=             74.6123   XZ=             13.0606   YZ=            132.8082
 Octapole moment (field-independent basis, Debye-Ang**2):
  XXX=            -47.5808  YYY=            732.6409  ZZZ=            122.3514  XYY=           1123.0339
  XXY=           -456.6390  XXZ=            150.3948  XZZ=            313.6127  YZZ=            171.3823
  YYZ=            491.4062  XYZ=            127.6799
 Hexadecapole moment (field-independent basis, Debye-Ang**3):
 XXXX=         -75765.6223 YYYY=         -29660.7697 ZZZZ=         -16916.0349 XXXY=            786.1300
 XXXZ=            337.2631 YYYX=           5104.5624 YYYZ=           4691.5040 ZZZX=            512.0274
 ZZZY=           1771.6575 XXYY=         -14685.1718 XXZZ=         -13645.7314 YYZZ=          -7702.4064
 XXYZ=           2635.6917 YYXZ=           1065.5015 ZZXY=            555.4984
 N-N= 2.194317017417D+04 E-N=-5.636362955993D+04  KE= 5.290532418899D+03
 Leave Link  601 at Sat Sep 14 23:28:16 2019, MaxMem=  1342177280 cpu:              45.2 elap:               1.2
 FitSet:  NAtFit=   176 NAtPot=   176 NAtFrz=     0 MDM=   180 TotChg=   0.00000
 Merz-Kollman atomic radii used.
 Read replacement radii for each type of atom:
 Rad(20) =   1.700000000000D+00
 Atom Element Radius
    1     6    1.50
    2     6    1.50
    3     8    1.40
    4     1    1.20
    5     1    1.20
    6     1    1.20
    7     7    1.50
    8     6    1.50
    9     6    1.50
   10     8    1.40
   11     6    1.50
   12     6    1.50
   13     8    1.40
   14     8    1.40
   15     1    1.20
   16     1    1.20
   17     1    1.20
   18     1    1.20
   19     7    1.50
   20     6    1.50
   21     6    1.50
   22     8    1.40
   23     6    1.50
   24     6    1.50
   25     6    1.50
   26     6    1.50
   27     7    1.50
   28     1    1.20
   29     1    1.20
   30     1    1.20
   31     1    1.20
   32     1    1.20
   33     1    1.20
   34     1    1.20
   35     1    1.20
   36     1    1.20
   37     1    1.20
   38     1    1.20
   39     1    1.20
   40     1    1.20
   41     7    1.50
   42     6    1.50
   43     6    1.50
   44     8    1.40
   45     6    1.50
   46     6    1.50
   47     8    1.40
   48     8    1.40
   49     1    1.20
   50     1    1.20
   51     1    1.20
   52     1    1.20
   53     7    1.50
   54     6    1.50
   55     6    1.50
   56     8    1.40
   57     1    1.20
   58     1    1.20
   59     1    1.20
   60     7    1.50
   61     6    1.50
   62     6    1.50
   63     8    1.40
   64     6    1.50
   65     6    1.50
   66     7    1.50
   67     8    1.40
   68     1    1.20
   69     1    1.20
   70     1    1.20
   71     1    1.20
   72     1    1.20
   73     1    1.20
   74     7    1.50
   75     6    1.50
   76     6    1.50
   77     8    1.40
   78     1    1.20
   79     1    1.20
   80     1    1.20
   81     7    1.50
   82     6    1.50
   83     6    1.50
   84     8    1.40
   85     6    1.50
   86     6    1.50
   87     6    1.50
   88     6    1.50
   89     6    1.50
   90     6    1.50
   91     6    1.50
   92     8    1.40
   93     1    1.20
   94     1    1.20
   95     1    1.20
   96     1    1.20
   97     1    1.20
   98     1    1.20
   99     1    1.20
  100     1    1.20
  101     1    1.20
  102     7    1.50
  103     6    1.50
  104     6    1.50
  105     8    1.40
  106     6    1.50
  107     6    1.50
  108     6    1.50
  109     6    1.50
  110     1    1.20
  111     1    1.20
  112     1    1.20
  113     1    1.20
  114     1    1.20
  115     1    1.20
  116     1    1.20
  117     1    1.20
  118     1    1.20
  119     1    1.20
  120     1    1.20
  121     7    1.50
  122     6    1.50
  123     6    1.50
  124     8    1.40
  125     6    1.50
  126     8    1.40
  127     1    1.20
  128     1    1.20
  129     1    1.20
  130     1    1.20
  131     1    1.20
  132     7    1.50
  133     6    1.50
  134     6    1.50
  135     8    1.40
  136     6    1.50
  137     1    1.20
  138     1    1.20
  139     1    1.20
  140     1    1.20
  141     1    1.20
  142     7    1.50
  143     6    1.50
  144     6    1.50
  145     8    1.40
  146     6    1.50
  147     1    1.20
  148     1    1.20
  149     1    1.20
  150     1    1.20
  151     1    1.20
  152     7    1.50
  153     6    1.50
  154     6    1.50
  155     8    1.40
  156     6    1.50
  157     6    1.50
  158     6    1.50
  159     8    1.40
  160     8    1.40
  161     1    1.20
  162     1    1.20
  163     1    1.20
  164     1    1.20
  165     1    1.20
  166     1    1.20
  167     7    1.50
  168     6    1.50
  169     1    1.20
  170     1    1.20
  171     1    1.20
  172     1    1.20
  173    20    1.70
[...]
 **** Fit      -0.003057
 **** Fit      -0.006308
 **** Fit      -0.010755
 **** Fit      -0.016941
 **** Fit      -0.009326
 **** Fit      -0.015531
 **** Fit      -0.012462
 **** Fit      -0.024009
 **** Fit      -0.027597
 **** Fit      -0.031985
 **** Fit      -0.037277
 **** Fit      -0.024543
 **** Fit      -0.028128
 **** Fit      -0.032263
 **** Fit      -0.037283
 **** Fit      -0.043584
 **** Fit       0.016145
 **** Fit       0.004917
 **** Fit      -0.013595
 **** Fit      -0.018609
 **** Fit      -0.023089
 **** Fit      -0.027286
 **** Fit      -0.031635
 **** Fit      -0.036629
 **** Fit      -0.042828
 **** Fit       0.004765
 **** Fit       0.003661
 **** Fit       0.001354
 **** Fit      -0.002804
 **** Fit      -0.008135
 **** Fit      -0.019068
 **** Fit      -0.024278
 **** Fit      -0.029419
 **** Fit      -0.034860
 **** Fit      -0.041276
 **** Fit      -0.006273
 **** Fit      -0.007164
 **** Fit      -0.009720
 **** Fit      -0.013957
 **** Fit      -0.024481
 **** Fit      -0.030359
 **** Fit      -0.037035
 **** Fit      -0.045056
 **** Fit      -0.018024
 **** Fit      -0.017178
 **** Fit      -0.019702
 **** Fit      -0.030131
 **** Fit      -0.037809
 **** Fit      -0.032353
 **** Fit      -0.026895
 **** Fit      -0.036555
 **** Fit      -0.009619
 **** Fit      -0.023316
 **** Fit      -0.013890
 **** Fit      -0.005229
 **** Fit      -0.017138
 **** Fit      -0.008828
 **** Fit      -0.001574
 **** Fit      -0.020698
 **** Fit      -0.012351
 **** Fit      -0.005416
 **** Fit       0.000369
 **** Fit       0.005012
 **** Fit      -0.013116
 **** Fit      -0.006446
 **** Fit      -0.001069
 **** Fit       0.003073
 **** Fit       0.005992
 **** Fit      -0.013120
 **** Fit      -0.007058
 **** Fit      -0.002145
 **** Fit       0.001566
 **** Fit       0.004088
 **** Fit      -0.010954
 **** Fit      -0.006087
 **** Fit      -0.001868
 **** Fit       0.001240
 **** Fit      -0.003888
 **** Fit      -0.000497
 **** Fit       0.001787
 **** Fit      -0.001501
 **** Fit       0.001070
 **** Fit       0.003083
 **** Fit       0.002174
 **** Fit       0.005180
 **** Fit       0.002935
 **** Fit       0.000972
 **** Fit       0.007909
 **** Fit       0.004356
 **** Fit       0.001338
 **** Fit      -0.001883
 **** Fit       0.005970
 **** Fit       0.001718
 **** Fit      -0.002606
 **** Fit      -0.007310
 **** Fit      -0.011002
 **** Fit      -0.009973
 **** Fit      -0.001843
 **** Fit       0.009569
 **** Fit       0.017465
 **** Fit       0.007945
 **** Fit       0.002501
 **** Fit      -0.002237
 **** Fit      -0.001899
 **** Fit       0.006063
 **** Fit       0.010881
 **** Fit       0.003854
 **** Fit       0.005697
 **** Fit       0.006965
 **** Fit       0.007603
 **** Fit       0.003611
 **** Fit       0.004387
 **** Fit       0.004723
 **** Fit       0.004277
 **** Fit       0.002206
 **** Fit       0.002207
 **** Fit       0.002431
 **** Fit       0.002408
 **** Fit       0.001752
 **** Fit       0.000334
 **** Fit       0.001283
 **** Fit       0.000918
 **** Fit       0.000411
 **** Fit      -0.000719
 **** Fit      -0.002734
 **** Fit      -0.005759
 **** Fit      -0.000532
 **** Fit      -0.001622
 **** Fit      -0.003653
 **** Fit      -0.007076
 **** Fit       0.012217
 **** Fit       0.011694
 **** Fit       0.011195
 **** Fit       0.009986
 **** Fit       0.010062
 **** Fit       0.012576
 **** Fit       0.012349
 **** Fit       0.012016
 **** Fit       0.011479
 **** Fit       0.010829
 **** Fit       0.010274
 **** Fit       0.008904
 **** Fit       0.008821
 **** Fit       0.009043
 **** Fit       0.012453
 **** Fit       0.012513
 **** Fit       0.012499
 **** Fit       0.010784
 **** Fit       0.009944
 **** Fit       0.009287
 **** Fit       0.007708
 **** Fit       0.007528
 **** Fit       0.007556
 **** Fit       0.007782
 **** Fit       0.011939
 **** Fit       0.012248
 **** Fit       0.012624
 **** Fit       0.009732
 **** Fit       0.008804
 **** Fit       0.008125
 **** Fit       0.006356
 **** Fit       0.006136
 **** Fit       0.006075
 **** Fit       0.006133
 **** Fit       0.006305
 **** Fit       0.006624
 **** Fit       0.010855
 **** Fit       0.011506
 **** Fit       0.012232
 **** Fit       0.008564
 **** Fit       0.007522
 **** Fit       0.006797
 **** Fit       0.004810
 **** Fit       0.004609
 **** Fit       0.004523
 **** Fit       0.004482
 **** Fit       0.004449
 **** Fit       0.004430
 **** Fit       0.004464
 **** Fit       0.010085
 **** Fit       0.011188
 **** Fit       0.006986
 **** Fit       0.005917
 **** Fit       0.005215
 **** Fit       0.003035
 **** Fit       0.002915
 **** Fit       0.001930
 **** Fit       0.001468
 **** Fit       0.000993
 **** Fit       0.010243
 **** Fit       0.005025
 **** Fit       0.003978
 **** Fit       0.003349
 **** Fit       0.000987
 **** Fit      -0.002848
 **** Fit      -0.004364
 **** Fit      -0.006067
 **** Fit       0.002493
 **** Fit       0.001589
 **** Fit       0.001131
 **** Fit      -0.009622
 **** Fit      -0.000646
 **** Fit      -0.001312
 **** Fit      -0.001513
 **** Fit      -0.004563
 **** Fit      -0.004887
 **** Fit      -0.009706
 **** Fit      -0.009404
 **** Fit      -0.016437
 **** Fit       0.014485
 **** Fit       0.013515
 **** Fit       0.014449
 **** Fit       0.015446
 **** Fit       0.015273
 **** Fit       0.014323
 **** Fit       0.013552
 **** Fit       0.012417
 **** Fit       0.013018
 **** Fit       0.014153
 **** Fit       0.015458
 **** Fit       0.016334
 **** Fit       0.016404
 **** Fit       0.015801
 **** Fit       0.014892
 **** Fit       0.014004
 **** Fit       0.013284
 **** Fit       0.012725
 **** Fit       0.012376
 **** Fit       0.011229
 **** Fit       0.011555
 **** Fit       0.012327
 **** Fit       0.013508
 **** Fit       0.014914
 **** Fit       0.016204
 **** Fit       0.017000
 **** Fit       0.017122
 **** Fit       0.016693
 **** Fit       0.015953
 **** Fit       0.015081
 **** Fit       0.014236
 **** Fit       0.013546
 **** Fit       0.013012
 **** Fit       0.012549
 **** Fit       0.012080
 **** Fit       0.011622
 **** Fit       0.011290
 **** Fit       0.010063
 **** Fit       0.010524
 **** Fit       0.011388
 **** Fit       0.012628
 **** Fit       0.014122
 **** Fit       0.015619
 **** Fit       0.016776
 **** Fit       0.017313
 **** Fit       0.017200
 **** Fit       0.016661
 **** Fit       0.015952
 **** Fit       0.015162
 **** Fit       0.014326
 **** Fit       0.013588
 **** Fit       0.013068
 **** Fit       0.012738
 **** Fit       0.008670
 **** Fit       0.009185
 **** Fit       0.010085
 **** Fit       0.011359
 **** Fit       0.012911
 **** Fit       0.014524
 **** Fit       0.015864
 **** Fit       0.016599
 **** Fit       0.016601
 **** Fit       0.016065
 **** Fit       0.015364
 **** Fit       0.014728
 **** Fit       0.012623
 **** Fit       0.012250
 **** Fit       0.007243
 **** Fit       0.008001
 **** Fit       0.009120
 **** Fit       0.010546
 **** Fit       0.012113
 **** Fit       0.013530
 **** Fit       0.014445
 **** Fit       0.014621
 **** Fit       0.014129
 **** Fit       0.013354
 **** Fit       0.012724
 **** Fit       0.004431
 **** Fit       0.004925
 **** Fit       0.005788
 **** Fit       0.006983
 **** Fit       0.008355
 **** Fit       0.009598
 **** Fit       0.010332
 **** Fit       0.010315
 **** Fit       0.009686
 **** Fit       0.008955
 **** Fit       0.008589
 **** Fit      -0.000501
 **** Fit      -0.000416
 **** Fit       0.000077
 **** Fit       0.003044
 **** Fit       0.002925
 **** Fit       0.012697
 **** Fit       0.012595
 **** Fit       0.012033
 **** Fit       0.011253
 **** Fit       0.012693
 **** Fit       0.013109
 **** Fit       0.013221
 **** Fit       0.012898
 **** Fit       0.012168
 **** Fit       0.011226
 **** Fit       0.010342
 **** Fit       0.012609
 **** Fit       0.013315
 **** Fit       0.013775
 **** Fit       0.013822
 **** Fit       0.013375
 **** Fit       0.012488
 **** Fit       0.011343
 **** Fit       0.010175
 **** Fit       0.009197
 **** Fit       0.012890
 **** Fit       0.013855
 **** Fit       0.014491
 **** Fit       0.014614
 **** Fit       0.014131
 **** Fit       0.013100
 **** Fit       0.011709
 **** Fit       0.010208
 **** Fit       0.008829
 **** Fit       0.007742
 **** Fit       0.011686
 **** Fit       0.013179
 **** Fit       0.014495
 **** Fit       0.015382
 **** Fit       0.015619
 **** Fit       0.015102
 **** Fit       0.013894
 **** Fit       0.012211
 **** Fit       0.010338
 **** Fit       0.008539
 **** Fit       0.007008
 **** Fit       0.005858
 **** Fit       0.009701
 **** Fit       0.011876
 **** Fit       0.014063
 **** Fit       0.015845
 **** Fit       0.016840
 **** Fit       0.016796
 **** Fit       0.015670
 **** Fit       0.013687
 **** Fit       0.011248
 **** Fit       0.008762
 **** Fit       0.006538
 **** Fit       0.004756
 **** Fit       0.003489
 **** Fit       0.015535
 **** Fit       0.012868
 **** Fit       0.009444
 **** Fit       0.006268
 **** Fit       0.003642
 **** Fit       0.001683
 **** Fit       0.000393
 **** Fit       0.006869
 **** Fit       0.002761
 **** Fit      -0.000347
 **** Fit      -0.002452
 **** Fit      -0.003671
 **** Fit      -0.001841
 **** Fit      -0.005798
 **** Fit      -0.008091
 **** Fit       0.002007
 **** Fit       0.001897
 **** Fit       0.001812
 **** Fit       0.001647
 **** Fit       0.001305
 **** Fit       0.000686
 **** Fit       0.000043
 **** Fit       0.000059
 **** Fit       0.000037
 **** Fit      -0.000110
 **** Fit      -0.000472
 **** Fit      -0.001158
 **** Fit      -0.002311
 **** Fit       0.000098
 **** Fit      -0.002224
 **** Fit      -0.002072
 **** Fit      -0.002031
 **** Fit      -0.002185
 **** Fit      -0.002625
 **** Fit      -0.003477
 **** Fit      -0.004926
 **** Fit      -0.007252
 **** Fit      -0.010837
 **** Fit      -0.002436
 **** Fit      -0.002391
 **** Fit      -0.004889
 **** Fit      -0.004585
 **** Fit      -0.004473
 **** Fit      -0.004625
 **** Fit      -0.005126
 **** Fit      -0.006105
 **** Fit      -0.007767
 **** Fit      -0.010444
 **** Fit      -0.014665
 **** Fit      -0.005738
 **** Fit      -0.005309
 **** Fit      -0.008061
 **** Fit      -0.007579
 **** Fit      -0.007394
 **** Fit      -0.007562
 **** Fit      -0.008166
 **** Fit      -0.009342
 **** Fit      -0.011321
 **** Fit      -0.014499
 **** Fit      -0.010630
 **** Fit      -0.009687
 **** Fit      -0.008788
 **** Fit      -0.011862
 **** Fit      -0.011159
 **** Fit      -0.010917
 **** Fit      -0.011178
 **** Fit      -0.012034
 **** Fit      -0.013659
 **** Fit      -0.016374
 **** Fit      -0.020753
 **** Fit      -0.016499
 **** Fit      -0.014576
 **** Fit      -0.013008
 **** Fit      -0.016424
 **** Fit      -0.015466
 **** Fit      -0.015204
 **** Fit      -0.015658
 **** Fit      -0.016938
 **** Fit      -0.019286
 **** Fit      -0.023174
 **** Fit      -0.020636
 **** Fit      -0.018121
 **** Fit      -0.021885
 **** Fit      -0.020686
 **** Fit      -0.020464
 **** Fit      -0.021202
 **** Fit      -0.023020
 **** Fit      -0.026221
 **** Fit      -0.031406
 **** Fit      -0.027829
 **** Fit      -0.024188
 **** Fit      -0.028380
 **** Fit      -0.026998
 **** Fit      -0.027061
 **** Fit      -0.028524
 **** Fit      -0.031565
 **** Fit      -0.036645
 **** Fit      -0.031468
 **** Fit      -0.036041
 **** Fit      -0.034759
 **** Fit      -0.035478
 **** Fit       0.044757
 **** Fit       0.045056
 **** Fit       0.047592
 **** Fit       0.046785
 **** Fit       0.045592
 **** Fit       0.040974
 **** Fit       0.045179
 **** Fit       0.005682
 **** Fit      -0.012131
 **** Fit      -0.001460
 **** Fit      -0.009967
 **** Fit       0.000917
 **** Fit      -0.006435
 **** Fit      -0.007846
 **** Fit      -0.021702
 **** Fit      -0.007412
 **** Fit      -0.020631
 **** Fit      -0.009157
 **** Fit      -0.012471
 **** Fit      -0.009249
 **** Fit      -0.005823
 **** Fit       0.040253
 **** Fit       0.045233
 **** Fit       0.032990
 **** Fit       0.037530
 **** Fit       0.042479
 **** Fit       0.047818
 **** Fit       0.030962
 **** Fit       0.034940
 **** Fit       0.039338
 **** Fit       0.044080
 **** Fit       0.049105
 **** Fit       0.028709
 **** Fit       0.031924
 **** Fit       0.035619
 **** Fit       0.039617
 **** Fit       0.043821
 **** Fit       0.048111
 **** Fit       0.052217
 **** Fit       0.029638
 **** Fit       0.028002
 **** Fit       0.030925
 **** Fit       0.034253
 **** Fit       0.037806
 **** Fit       0.041444
 **** Fit       0.045007
 **** Fit       0.048230
 **** Fit       0.050644
 **** Fit       0.051426
 **** Fit       0.049194
 **** Fit       0.036388
 **** Fit       0.026115
 **** Fit       0.012782
 **** Fit       0.022314
 **** Fit       0.024097
 **** Fit       0.026312
 **** Fit       0.028966
 **** Fit       0.031946
 **** Fit       0.035091
 **** Fit       0.038233
 **** Fit       0.041181
 **** Fit       0.043663
 **** Fit       0.045247
 **** Fit       0.045245
 **** Fit       0.042649
 **** Fit       0.031309
 **** Fit       0.022930
 **** Fit       0.012418
 **** Fit       0.001037
 **** Fit       0.020015
 **** Fit       0.022032
 **** Fit       0.024292
 **** Fit       0.026802
 **** Fit       0.029507
 **** Fit       0.032288
 **** Fit       0.034983
 **** Fit       0.037392
 **** Fit       0.039245
 **** Fit       0.040157
 **** Fit       0.039582
 **** Fit       0.036833
 **** Fit       0.027073
 **** Fit       0.019637
 **** Fit       0.010485
 **** Fit       0.000597
 **** Fit       0.017134
 **** Fit       0.019951
 **** Fit       0.022636
 **** Fit       0.025346
 **** Fit       0.028064
 **** Fit       0.030672
 **** Fit       0.032971
 **** Fit       0.034690
 **** Fit       0.035459
 **** Fit       0.034792
 **** Fit       0.032137
 **** Fit       0.023452
 **** Fit       0.016764
 **** Fit       0.008604
 **** Fit      -0.000258
 **** Fit       0.012992
 **** Fit       0.017019
 **** Fit       0.020344
 **** Fit       0.023339
 **** Fit       0.026081
 **** Fit       0.028463
 **** Fit       0.030244
 **** Fit       0.031073
 **** Fit       0.030505
 **** Fit       0.028068
 **** Fit       0.020208
 **** Fit       0.013831
 **** Fit       0.006102
 **** Fit      -0.002041
 **** Fit       0.004866
 **** Fit       0.011051
 **** Fit       0.015841
 **** Fit       0.019657
 **** Fit       0.022781
 **** Fit       0.025186
 **** Fit       0.026587
 **** Fit       0.026527
 **** Fit       0.024503
 **** Fit       0.017175
 **** Fit       0.010588
 **** Fit       0.003105
 **** Fit      -0.002723
 **** Fit      -0.003968
 **** Fit       0.000065
 **** Fit       0.006573
 **** Fit       0.012695
 **** Fit       0.017458
 **** Fit       0.020752
 **** Fit       0.022230
 **** Fit       0.021205
 **** Fit       0.014266
 **** Fit       0.007603
 **** Fit       0.004560
 **** Fit       0.008856
 **** Fit       0.014742
 **** Fit       0.017258
 **** Fit       0.011471
 -----------------------------------------------------------------
 Leave Link  602 at Sat Sep 14 23:28:19 2019, MaxMem=  1342177280 cpu:             106.3 elap:               2.3

 Test job not archived.
 1\1\GINC-C503-032\SP\RB3LYP\SVP\C54H83Ca1N15O23\PENGZHI\14-Sep-2019\0\
 \#b3lyp/svp scf=(tight,noincore) Test #IOP(5/87=12) Density=Current Po
 p=(MK,readradii) iop(6/33=2) iop(6/42=6)\\holoCaM_loop3_99.0\\0,1\C,0,
 84.87,27.17,21.58\C,0,86.36,27.25,21.91\O,0,86.91,26.26,22.37\H,0,84.3
 47,27.995,22.064\H,0,84.732,27.236,20.501\H,0,84.468,26.223,21.941\N,0
 ,87.02,28.39,21.73\C,0,88.37,28.67,22.19\C,0,88.51,28.54,23.7\O,0,87.8
 6,29.3,24.42\C,0,88.79,30.02,21.62\C,0,90.27,30.38,21.69\O,0,90.6,31.4
 7,21.18\O,0,91.09,29.55,22.14\H,0,86.46,29.21,21.57\H,0,89.,27.93,21.7
 1\H,0,88.27,30.78,22.21\H,0,88.49,30.2,20.59\N,0,89.34,27.64,24.24\C,0
 ,89.37,27.28,25.64\C,0,90.37,28.05,26.5\O,0,90.02,28.26,27.66\C,0,89.3
 6,25.78,25.87\C,0,88.21,25.,25.24\C,0,86.84,25.52,25.69\C,0,85.68,24.6
 3,25.25\N,0,84.4,25.3,25.49\H,0,89.75,26.95,23.63\H,0,88.46,27.72,26.0
 6\H,0,89.32,25.68,26.95\H,0,90.35,25.44,25.56\H,0,88.19,23.94,25.53\H,
 0,88.25,25.05,24.16\H,0,86.66,26.5,25.26\H,0,86.71,25.59,26.77\H,0,85.
 7,23.7,25.83\H,0,85.81,24.47,24.18\H,0,84.42,25.65,26.44\H,0,84.23,25.
 98,24.77\H,0,83.72,24.58,25.28\N,0,91.45,28.49,25.86\C,0,92.53,29.24,2
 6.48\C,0,92.42,30.7,26.1\O,0,92.67,31.64,26.85\C,0,93.91,28.63,26.23\C
 ,0,94.19,28.13,24.82\O,0,93.56,28.62,23.87\O,0,95.11,27.3,24.64\H,0,91
 .49,28.21,24.89\H,0,92.51,29.13,27.56\H,0,94.01,27.8,26.93\H,0,94.68,2
 9.34,26.52\N,0,92.08,30.93,24.82\C,0,91.97,32.25,24.24\C,0,93.24,32.69
 ,23.53\O,0,94.14,33.24,24.16\H,0,92.21,30.2,24.14\H,0,91.83,32.95,25.0
 7\H,0,91.17,32.42,23.52\N,0,93.29,32.36,22.24\C,0,94.37,32.51,21.28\C,
 0,93.89,32.53,19.83\O,0,94.69,32.67,18.91\C,0,95.49,31.52,21.57\C,0,95
 .13,30.06,21.32\N,0,96.17,29.29,21.63\O,0,94.08,29.72,20.79\H,0,92.43,
 32.,21.85\H,0,94.78,33.51,21.44\H,0,95.77,31.57,22.62\H,0,96.31,31.8,2
 0.9\H,0,97.09,29.63,21.86\H,0,95.92,28.32,21.56\N,0,92.58,32.51,19.59\
 C,0,92.01,32.71,18.27\C,0,91.9,31.51,17.34\O,0,91.33,31.64,16.26\H,0,9
 1.89,32.38,20.31\H,0,92.62,33.46,17.76\H,0,91.05,33.21,18.36\N,0,92.32
 ,30.37,17.9\C,0,92.17,29.11,17.19\C,0,91.61,28.01,18.08\O,0,91.73,27.9
 6,19.31\C,0,93.42,28.68,16.44\C,0,94.74,29.21,16.95\C,0,95.48,28.48,17
 .88\C,0,95.2,30.46,16.51\C,0,96.75,28.91,18.26\C,0,96.47,30.9,16.88\C,
 0,97.25,30.13,17.77\O,0,98.47,30.6,18.15\H,0,92.76,30.38,18.81\H,0,91.
 38,29.24,16.45\H,0,93.17,28.92,15.41\H,0,93.55,27.6,16.51\H,0,95.06,27
 .52,18.18\H,0,94.6,30.97,15.77\H,0,97.28,28.4,19.06\H,0,96.88,31.85,16
 .56\H,0,98.53,31.54,17.93\N,0,91.03,26.99,17.46\C,0,90.54,25.75,18.02\
 C,0,91.34,24.57,17.49\O,0,91.71,24.56,16.32\C,0,89.06,25.47,17.79\C,0,
 88.14,26.65,17.48\C,0,88.47,24.69,18.97\C,0,87.94,27.7,18.57\H,0,90.83
 ,27.16,16.48\H,0,90.75,25.74,19.09\H,0,88.99,24.86,16.89\H,0,87.19,26.
 25,17.13\H,0,88.48,27.24,16.63\H,0,88.91,23.7,19.05\H,0,88.66,25.26,19
 .89\H,0,87.39,24.76,18.9\H,0,88.93,28.06,18.86\H,0,87.29,28.52,18.27\H
 ,0,87.48,27.22,19.43\N,0,91.5,23.58,18.38\C,0,92.23,22.36,18.12\C,0,91
 .22,21.21,18.18\O,0,90.24,21.22,18.92\C,0,93.31,22.15,19.17\O,0,92.84,
 21.94,20.48\H,0,91.09,23.68,19.3\H,0,92.66,22.29,17.12\H,0,94.08,22.92
 ,19.21\H,0,93.83,21.26,18.81\H,0,93.59,22.28,20.99\N,0,91.68,20.03,17.
 75\C,0,90.95,18.79,17.92\C,0,90.77,18.41,19.38\O,0,89.82,17.69,19.69\C
 ,0,91.63,17.69,17.11\H,0,92.49,20.13,17.15\H,0,89.92,18.9,17.6\H,0,91.
 96,18.03,16.13\H,0,92.51,17.38,17.68\H,0,90.95,16.84,17.07\N,0,91.68,1
 8.89,20.22\C,0,91.54,18.64,21.65\C,0,90.45,19.49,22.27\O,0,89.58,18.94
 ,22.94\C,0,92.9,18.78,22.32\H,0,92.46,19.41,19.84\H,0,91.1,17.66,21.82
 \H,0,93.64,18.13,21.85\H,0,93.18,19.83,22.36\H,0,92.78,18.45,23.36\N,0
 ,90.53,20.8,22.02\C,0,89.49,21.72,22.45\C,0,88.11,21.35,21.95\O,0,87.1
 5,21.38,22.73\C,0,89.86,23.14,22.04\C,0,90.96,23.6,23.\C,0,91.48,25.03
 ,22.84\O,0,92.7,25.26,22.97\O,0,90.79,25.91,22.28\H,0,91.25,21.12,21.3
 9\H,0,89.46,21.7,23.54\H,0,88.99,23.79,22.16\H,0,90.23,23.26,21.02\H,0
 ,91.7,22.8,22.99\H,0,90.52,23.52,23.99\N,0,87.99,20.92,20.69\C,0,86.83
 ,20.33,20.07\H,0,86.033,21.071,20.014\H,0,87.086,19.995,19.065\H,0,86.
 494,19.479,20.663\H,0,88.86,20.87,20.18\Ca,0,92.72,27.65,21.68\O,0,95.
 22,26.61,21.96\H,0,95.21,26.59,22.92\H,0,95.84,25.93,21.71\\Version=ES
 64L-G16RevA.03\State=1-A\HF=-5333.6377178\RMSD=2.871e-09\Dipole=-6.276
 4078,-7.8555378,-3.3221005\Quadrupole=124.8063087,-88.3349544,-36.4713
 543,-39.1082922,-75.5214967,-18.1757824\PG=C01 [X(C54H83Ca1N15O23)]\\@


 SI MONUMENTUM REQUIRIS, CIRCUMSPICE
     -- FROM SIR CHRISTOPHER WREN'S TOMBSTONE
 Job cpu time:       0 days  9 hours 16 minutes 25.0 seconds.
 Elapsed time:       0 days  0 hours 11 minutes 43.4 seconds.
 File lengths (MBytes):  RWF=   1517 Int=      0 D2E=      0 Chk=    171 Scr=      1
 Normal termination of Gaussian 16 at Sat Sep 14 23:28:20 2019.
