 Entering Gaussian System, Link 0=g16
 Initial command:
 /home1/apps/gaussian/16rA.03/g16/l1.exe "/scratch/01990/pengzhi/4328653/Gau-427812.inp" -scrdir="/scratch/01990/pengzhi/4328653/"
 Entering Link 1 = /home1/apps/gaussian/16rA.03/g16/l1.exe PID=    427813.
  
 Copyright (c) 1988,1990,1992,1993,1995,1998,2003,2009,2016,
            Gaussian, Inc.  All Rights Reserved.
  
 This is part of the Gaussian(R) 16 program.  It is based on
 the Gaussian(R) 09 system (copyright 2009, Gaussian, Inc.),
 the Gaussian(R) 03 system (copyright 2003, Gaussian, Inc.),
 the Gaussian(R) 98 system (copyright 1998, Gaussian, Inc.),
 the Gaussian(R) 94 system (copyright 1995, Gaussian, Inc.),
 the Gaussian 92(TM) system (copyright 1992, Gaussian, Inc.),
 the Gaussian 90(TM) system (copyright 1990, Gaussian, Inc.),
 the Gaussian 88(TM) system (copyright 1988, Gaussian, Inc.),
 the Gaussian 86(TM) system (copyright 1986, Carnegie Mellon
 University), and the Gaussian 82(TM) system (copyright 1983,
 Carnegie Mellon University). Gaussian is a federally registered
 trademark of Gaussian, Inc.
  
 This software contains proprietary and confidential information,
 including trade secrets, belonging to Gaussian, Inc.
  
 This software is provided under written license and may be
 used, copied, transmitted, or stored only in accord with that
 written license.
  
 The following legend is applicable only to US Government
 contracts under FAR:
  
                    RESTRICTED RIGHTS LEGEND
  
 Use, reproduction and disclosure by the US Government is
 subject to restrictions as set forth in subparagraphs (a)
 and (c) of the Commercial Computer Software - Restricted
 Rights clause in FAR 52.227-19.
  
 Gaussian, Inc.
 340 Quinnipiac St., Bldg. 40, Wallingford CT 06492
  
  
 ---------------------------------------------------------------
 Warning -- This program may not be used in any manner that
 competes with the business of Gaussian, Inc. or will provide
 assistance to any competitor of Gaussian, Inc.  The licensee
 of this program is prohibited from giving any competitor of
 Gaussian, Inc. access to this program.  By using this program,
 the user acknowledges that Gaussian, Inc. is engaged in the
 business of creating and licensing software in the field of
 computational chemistry and represents and warrants to the
 licensee that it is not a competitor of Gaussian, Inc. and that
 it will not use this program in any manner prohibited above.
 ---------------------------------------------------------------
  

 Cite this work as:
 Gaussian 16, Revision A.03,
 M. J. Frisch, G. W. Trucks, H. B. Schlegel, G. E. Scuseria, 
 M. A. Robb, J. R. Cheeseman, G. Scalmani, V. Barone, 
 G. A. Petersson, H. Nakatsuji, X. Li, M. Caricato, A. V. Marenich, 
 J. Bloino, B. G. Janesko, R. Gomperts, B. Mennucci, H. P. Hratchian, 
 J. V. Ortiz, A. F. Izmaylov, J. L. Sonnenberg, D. Williams-Young, 
 F. Ding, F. Lipparini, F. Egidi, J. Goings, B. Peng, A. Petrone, 
 T. Henderson, D. Ranasinghe, V. G. Zakrzewski, J. Gao, N. Rega, 
 G. Zheng, W. Liang, M. Hada, M. Ehara, K. Toyota, R. Fukuda, 
 J. Hasegawa, M. Ishida, T. Nakajima, Y. Honda, O. Kitao, H. Nakai, 
 T. Vreven, K. Throssell, J. A. Montgomery, Jr., J. E. Peralta, 
 F. Ogliaro, M. J. Bearpark, J. J. Heyd, E. N. Brothers, K. N. Kudin, 
 V. N. Staroverov, T. A. Keith, R. Kobayashi, J. Normand, 
 K. Raghavachari, A. P. Rendell, J. C. Burant, S. S. Iyengar, 
 J. Tomasi, M. Cossi, J. M. Millam, M. Klene, C. Adamo, R. Cammi, 
 J. W. Ochterski, R. L. Martin, K. Morokuma, O. Farkas, 
 J. B. Foresman, and D. J. Fox, Gaussian, Inc., Wallingford CT, 2016.
 
 ******************************************
 Gaussian 16:  ES64L-G16RevA.03 25-Dec-2016
                14-Sep-2019 
 ******************************************
 %chk=holoCaM_loop3_103.0.chk
 %nprocshared=48
 Will use up to   48 processors via shared memory.
 %mem=10GB
 %nosave
 ----------------------------------------------------------------------
 #b3lyp/svp scf=(tight,noincore) Test #IOP(5/87=12) Density=Current Pop
 =(MK,readradii) iop(6/33=2) iop(6/42=6)
 ----------------------------------------------------------------------
 1/30=1,38=1,172=1/1;
 2/12=2,17=6,18=5,40=1/2;
 3/5=18,7=101,11=2,25=1,30=1,74=-5/1,2,3;
 4//1;
 5/5=4,32=2,38=5,87=12/2;
 6/7=2,8=2,9=2,10=2,15=8,20=101,22=-1,28=1,33=2,42=6/1,2;
 99/5=1,9=1/99;
 -------------------
 holoCaM_loop3_103.0
 -------------------
 Symbolic Z-matrix:
 Charge =  0 Multiplicity = 1
 C                     65.17     47.59     20.68 
 C                     64.85     48.11     22.08 
 O                     65.36     47.63     23.09 
 H                     66.206    47.252    20.647 
 H                     64.508    46.757    20.441 
 H                     65.026    48.389    19.953 
 N                     63.93     49.07     22.18 
 C                     63.38     49.71     23.36 
 C                     61.95     49.29     23.65 
 O                     61.1      49.6      22.81 
 C                     63.6      51.22     23.36 
 C                     63.12     51.98     24.59 
 O                     63.44     53.17     24.77 
 O                     62.56     51.3      25.47 
 H                     63.61     49.42     21.28 
 H                     63.92     49.34     24.23 
 H                     63.08     51.64     22.49 
 H                     64.66     51.37     23.17 
 N                     61.76     48.61     24.78 
 C                     60.55     48.01     25.31 
 C                     59.48     49.       25.74 
 O                     58.38     48.58     26.08 
 C                     60.83     47.13     26.53 
 C                     61.69     45.9      26.23 
 C                     61.56     45.04     27.48 
 C                     62.35     43.75     27.24 
 N                     63.8      44.01     27.21 
 H                     62.53     48.4      25.4 
 H                     60.17     47.34     24.55 
 H                     59.85     46.77     26.86 
 H                     61.25     47.59     27.41 
 H                     62.7      46.26     26.01 
 H                     61.3      45.45     25.32 
 H                     60.53     44.68     27.57 
 H                     61.98     45.43     28.41 
 H                     61.97     43.28     26.33 
 H                     62.15     43.09     28.08 
 H                     64.14     44.48     26.39 
 H                     64.15     44.55     27.99 
 H                     64.26     43.12     27.34 
 N                     59.71     50.3      25.54 
 C                     58.77     51.38     25.75 
 C                     58.99     52.61     24.89 
 O                     58.21     53.56     24.93 
 C                     58.65     51.76     27.23 
 C                     59.8      52.49     27.91 
 O                     60.89     52.74     27.35 
 O                     59.76     52.64     29.15 
 H                     60.67     50.62     25.48 
 H                     57.82     50.95     25.45 
 H                     58.33     50.81     27.66 
 H                     57.73     52.33     27.33 
 N                     60.09     52.77     24.15 
 C                     60.47     53.9      23.32 
 C                     60.44     55.22     24.08 
 O                     59.92     56.19     23.53 
 H                     60.69     51.95     24.18 
 H                     59.92     54.       22.38 
 H                     61.47     53.65     22.99 
 N                     60.74     55.25     25.38 
 C                     60.48     56.36     26.28 
 C                     61.44     57.52     26.07 
 O                     61.49     58.36     26.96 
 C                     60.22     55.91     27.71 
 C                     61.47     55.64     28.54 
 N                     61.54     56.04     29.81 
 O                     62.48     55.22     27.98 
 H                     61.14     54.39     25.73 
 H                     59.52     56.68     25.87 
 H                     59.64     54.99     27.65 
 H                     59.59     56.65     28.19 
 H                     60.68     55.98     30.34 
 H                     62.34     55.64     30.28 
 N                     62.24     57.65     25. 
 C                     63.2      58.68     24.65 
 C                     64.61     58.43     25.17 
 O                     65.56     59.14     24.87 
 H                     62.08     56.91     24.33 
 H                     62.81     59.61     25.06 
 H                     63.34     58.71     23.57 
 N                     64.74     57.36     25.95 
 C                     65.92     56.9      26.67 
 C                     66.17     55.41     26.51 
 O                     65.27     54.58     26.5 
 C                     65.73     57.28     28.13 
 C                     65.52     58.76     28.34 
 C                     64.3      59.34     28.7 
 C                     66.53     59.66     27.97 
 C                     64.05     60.7      28.85 
 C                     66.32     61.04     28.05 
 C                     65.07     61.57     28.42 
 O                     64.84     62.92     28.44 
 H                     63.93     56.76     26.01 
 H                     66.74     57.47     26.22 
 H                     66.5      56.88     28.79 
 H                     64.84     56.83     28.58 
 H                     63.61     58.65     29.17 
 H                     67.49     59.3      27.63 
 H                     63.1      61.05     29.23 
 H                     67.16     61.67     27.78 
 H                     65.53     63.5      28.13 
 N                     67.42     54.96     26.63 
 C                     67.85     53.58     26.73 
 C                     68.68     53.43     28. 
 O                     69.6      54.21     28.23 
 C                     68.45     53.23     25.37 
 C                     67.33     52.79     24.44 
 C                     69.54     52.18     25.56 
 C                     67.81     52.43     23.04 
 H                     68.14     55.66     26.77 
 H                     67.03     52.88     26.85 
 H                     68.94     54.1      24.93 
 H                     66.53     53.53     24.34 
 H                     66.8      51.94     24.87 
 H                     70.       51.91     24.6 
 H                     70.3      52.4      26.31 
 H                     69.06     51.25     25.88 
 H                     68.09     51.38     22.92 
 H                     67.07     52.65     22.28 
 H                     68.63     53.09     22.76 
 N                     68.4      52.32     28.7 
 C                     69.13     51.86     29.86 
 C                     70.29     50.95     29.46 
 O                     70.26     50.44     28.34 
 C                     68.19     51.1      30.78 
 O                     67.76     49.93     30.12 
 H                     67.68     51.69     28.38 
 H                     69.47     52.67     30.5 
 H                     67.34     51.68     31.14 
 H                     68.67     50.74     31.69 
 H                     67.17     49.47     30.71 
 N                     71.24     50.59     30.32 
 C                     72.22     49.58     30.01 
 C                     71.53     48.28     29.62 
 O                     71.89     47.65     28.63 
 C                     73.15     49.55     31.22 
 H                     71.29     51.05     31.22 
 H                     72.82     50.       29.2 
 H                     72.53     49.35     32.09 
 H                     73.84     48.72     31.12 
 H                     73.63     50.53     31.27 
 N                     70.6      47.78     30.44 
 C                     69.89     46.54     30.19 
 C                     69.02     46.58     28.95 
 O                     68.95     45.52     28.32 
 C                     69.02     46.21     31.4 
 H                     70.29     48.36     31.2 
 H                     70.55     45.68     30.11 
 H                     69.55     46.32     32.35 
 H                     68.16     46.87     31.45 
 H                     68.7      45.17     31.27 
 N                     68.6      47.72     28.4 
 C                     68.       47.92     27.09 
 C                     69.09     47.94     26.03 
 O                     69.04     47.19     25.06 
 C                     67.16     49.19     27. 
 C                     65.84     48.95     27.73 
 C                     64.96     50.19     27.72 
 O                     64.06     50.38     28.56 
 O                     65.22     51.11     26.91 
 H                     68.65     48.52     29.02 
 H                     67.34     47.07     26.89 
 H                     67.       49.38     25.94 
 H                     67.72     50.02     27.43 
 H                     66.05     48.57     28.73 
 H                     65.23     48.2      27.22 
 N                     70.16     48.7      26.26 
 C                     71.43     48.54     25.56 
 H                     72.209    48.282    26.277 
 H                     71.34     47.745    24.82 
 H                     71.691    49.474    25.061 
 H                     70.13     49.31     27.06 
 Ca                    63.53     52.84     27.53 
 O                     65.1      53.88     29.33 
 H                     64.48     54.17     30. 
 H                     65.96     54.06     29.71 
 
 Stoichiometry    C54H83CaN15O23
 Framework group  C1[X(C54H83CaN15O23)]
 Deg. of freedom   522
 Full point group                 C1      NOp   1
 Largest Abelian subgroup         C1      NOp   1
 Largest concise Abelian subgroup C1      NOp   1
                         Standard orientation:                         
 ---------------------------------------------------------------------
 Center     Atomic      Atomic             Coordinates (Angstroms)
 Number     Number       Type             X           Y           Z
 ---------------------------------------------------------------------
      1          6           0        3.046854    4.363896    5.399214
      2          6           0        2.623038    3.843230    4.027321
      3          8           0        3.430522    3.384926    3.222010
      4          1           0        3.892247    3.779587    5.763250
      5          1           0        3.337624    5.411720    5.316934
      6          1           0        2.214803    4.271184    6.096898
      7          7           0        1.337568    3.969192    3.696113
      8          6           0        0.659588    3.629760    2.459332
      9          6           0        0.255066    4.849737    1.650990
     10          8           0       -0.577706    5.603263    2.163718
     11          6           0       -0.463779    2.618553    2.669115
     12          6           0       -1.195613    2.142131    1.420780
     13          8           0       -1.976798    1.173491    1.469629
     14          8           0       -0.829907    2.649779    0.344233
     15          1           0        0.756206    4.319242    4.453994
     16          1           0        1.374820    3.134421    1.804746
     17          1           0       -1.209200    3.070779    3.335102
     18          1           0       -0.027715    1.796053    3.230847
     19          7           0        0.857079    4.992900    0.470954
     20          6           0        0.753254    6.066034   -0.499924
     21          6           0       -0.596918    6.177514   -1.188769
     22          8           0       -0.813066    7.130743   -1.928117
     23          6           0        1.790841    5.934814   -1.616793
     24          6           0        3.239904    6.072757   -1.143838
     25          6           0        4.038888    6.230700   -2.430570
     26          6           0        5.506588    6.434976   -2.043362
     27          7           0        6.087665    5.201670   -1.484521
     28          1           0        1.534855    4.318209    0.144133
     29          1           0        0.997685    6.984840    0.016746
     30          1           0        1.590089    6.766986   -2.299500
     31          1           0        1.757084    5.062714   -2.249802
     32          1           0        3.471429    5.180773   -0.553193
     33          1           0        3.278072    6.926663   -0.471464
     34          1           0        3.779514    7.181668   -2.906999
     35          1           0        4.069301    5.380893   -3.116355
     36          1           0        5.566753    7.292498   -1.369242
     37          1           0        6.049071    6.672321   -2.954723
     38          1           0        5.781551    4.957844   -0.559457
     39          1           0        5.936440    4.371551   -2.041776
     40          1           0        7.091644    5.307321   -1.522796
     41          7           0       -1.567562    5.343644   -0.807441
     42          6           0       -2.948732    5.380533   -1.237683
     43          6           0       -3.952608    4.815961   -0.250571
     44          8           0       -5.160431    4.861736   -0.477659
     45          6           0       -3.136553    4.759751   -2.626407
     46          6           0       -3.016354    3.251290   -2.793430
     47          8           0       -2.694067    2.474913   -1.867380
     48          8           0       -3.001559    2.779514   -3.950543
     49          1           0       -1.309920    4.457940   -0.387027
     50          1           0       -3.156785    6.441596   -1.328567
     51          1           0       -2.474243    5.388439   -3.222979
     52          1           0       -4.100562    5.103858   -2.991889
     53          7           0       -3.573921    4.143054    0.838921
     54          6           0       -4.403293    3.503141    1.845327
     55          6           0       -5.409494    2.531226    1.242135
     56          8           0       -6.566844    2.567898    1.658063
     57          1           0       -2.563412    4.137260    0.949095
     58          1           0       -4.910547    4.180682    2.537954
     59          1           0       -3.688718    2.997027    2.481432
     60          7           0       -5.100607    1.848877    0.137649
     61          6           0       -6.042375    1.121377   -0.695128
     62          6           0       -6.496526   -0.183595   -0.061019
     63          8           0       -7.046159   -0.991442   -0.799589
     64          6           0       -5.629700    1.087728   -2.159221
     65          6           0       -4.610705    0.012306   -2.518966
     66          7           0       -4.737458   -0.692720   -3.643542
     67          8           0       -3.780260   -0.328729   -1.679826
     68          1           0       -4.125957    1.908991   -0.124158
     69          1           0       -6.888372    1.807597   -0.621029
     70          1           0       -5.198853    2.061759   -2.387332
     71          1           0       -6.524800    0.989000   -2.762504
     72          1           0       -5.093457   -0.186667   -4.444338
     73          1           0       -3.905949   -1.233268   -3.836678
     74          7           0       -6.301186   -0.501264    1.228449
     75          6           0       -6.666302   -1.686309    1.981682
     76          6           0       -5.615718   -2.789535    1.968822
     77          8           0       -5.716111   -3.804878    2.643803
     78          1           0       -5.866140    0.259754    1.732123
     79          1           0       -7.594778   -2.049444    1.544456
     80          1           0       -6.753635   -1.444896    3.040451
     81          7           0       -4.561150   -2.552512    1.192995
     82          6           0       -3.438367   -3.431556    0.894600
     83          6           0       -2.093120   -2.733481    1.000440
     84          8           0       -1.906375   -1.584338    0.621500
     85          6           0       -3.667361   -3.992587   -0.499999
     86          6           0       -4.975846   -4.732220   -0.639327
     87          6           0       -6.079813   -4.254215   -1.351484
     88          6           0       -5.208835   -5.875667    0.138648
     89          6           0       -7.319200   -4.876203   -1.459423
     90          6           0       -6.451719   -6.515525    0.111754
     91          6           0       -7.529715   -5.990208   -0.624632
     92          8           0       -8.766660   -6.577907   -0.605221
     93          1           0       -4.505316   -1.623776    0.800526
     94          1           0       -3.514436   -4.219566    1.651604
     95          1           0       -2.827799   -4.574492   -0.880817
     96          1           0       -3.728789   -3.218694   -1.270982
     97          1           0       -5.830586   -3.504270   -2.092137
     98          1           0       -4.426934   -6.286591    0.760397
     99          1           0       -8.082170   -4.480747   -2.115847
    100          1           0       -6.542923   -7.412941    0.713191
    101          1           0       -8.904511   -7.320281   -0.023432
    102          7           0       -1.017647   -3.468788    1.286940
    103          6           0        0.369800   -3.056223    1.223065
    104          6           0        1.115318   -4.029108    0.316423
    105          8           0        1.009283   -5.239619    0.492829
    106          6           0        0.813009   -2.856163    2.670698
    107          6           0        0.437956   -1.448322    3.106840
    108          6           0        2.303903   -3.158309    2.783136
    109          6           0        0.818084   -1.138310    4.548851
    110          1           0       -1.179633   -4.452754    1.470167
    111          1           0        0.510314   -2.084214    0.762356
    112          1           0        0.309054   -3.565460    3.329125
    113          1           0       -0.625915   -1.222727    2.984837
    114          1           0        0.902083   -0.716550    2.445481
    115          1           0        2.655770   -3.031875    3.815757
    116          1           0        2.638559   -4.109787    2.369379
    117          1           0        2.847296   -2.382556    2.234838
    118          1           0        1.822370   -0.722554    4.666570
    119          1           0        0.130484   -0.444718    5.017609
    120          1           0        0.689834   -2.033989    5.155242
    121          7           0        1.966502   -3.432266   -0.531967
    122          6           0        2.898182   -4.118935   -1.398314
    123          6           0        4.235906   -4.353431   -0.698881
    124          8           0        4.494790   -3.667751    0.290169
    125          6           0        3.125543   -3.292279   -2.652327
    126          8           0        3.767486   -2.089659   -2.290365
    127          1           0        2.047494   -2.426754   -0.541195
    128          1           0        2.500775   -5.045293   -1.804797
    129          1           0        2.225527   -3.094451   -3.234852
    130          1           0        3.804637   -3.761265   -3.364354
    131          1           0        3.897786   -1.584555   -3.087667
    132          7           0        5.167602   -5.161458   -1.199617
    133          6           0        6.500180   -5.234068   -0.655960
    134          6           0        7.140904   -3.852904   -0.648287
    135          8           0        7.730500   -3.439263    0.345634
    136          6           0        7.194143   -6.329564   -1.461071
    137          1           0        4.932483   -5.760125   -1.980909
    138          1           0        6.379890   -5.650180    0.346477
    139          1           0        7.129837   -6.041597   -2.507130
    140          1           0        8.245679   -6.354076   -1.199020
    141          1           0        6.657423   -7.258060   -1.253398
    142          7           0        7.146527   -3.145527   -1.782697
    143          6           0        7.744889   -1.829991   -1.907305
    144          6           0        7.071874   -0.775406   -1.052320
    145          8           0        7.825470    0.082963   -0.582537
    146          6           0        7.693935   -1.394658   -3.369423
    147          1           0        6.595938   -3.491499   -2.549023
    148          1           0        8.807205   -1.821751   -1.677052
    149          1           0        8.018364   -2.177889   -4.059927
    150          1           0        6.682345   -1.129465   -3.659351
    151          1           0        8.357952   -0.526781   -3.451714
    152          7           0        5.829522   -0.909547   -0.586416
    153          6           0        5.164395   -0.125305    0.442501
    154          6           0        5.611551   -0.604417    1.814581
    155          8           0        6.076647    0.180067    2.635660
    156          6           0        3.642910   -0.169247    0.343738
    157          6           0        3.207601    0.718372   -0.820538
    158          6           0        1.699150    0.694522   -1.010551
    159          8           0        1.155157    0.986486   -2.092461
    160          8           0        0.979315    0.256196   -0.083293
    161          1           0        5.277915   -1.603968   -1.076731
    162          1           0        5.475328    0.917362    0.323061
    163          1           0        3.260918    0.203098    1.292812
    164          1           0        3.323108   -1.202566    0.211913
    165          1           0        3.765999    0.434676   -1.712844
    166          1           0        3.423548    1.771784   -0.624602
    167          7           0        5.604685   -1.917327    2.041783
    168          6           0        6.346020   -2.553462    3.125413
    169          1           0        7.080875   -3.240830    2.707076
    170          1           0        6.855926   -1.791080    3.714052
    171          1           0        5.655447   -3.105254    3.764249
    172          1           0        5.188887   -2.505595    1.338894
    173         20           0       -1.297977    0.359173   -1.101497
    174          8           0       -1.056834   -2.018422   -2.138509
    175          1           0       -1.550913   -1.937089   -2.955009
    176          1           0       -0.681972   -2.898475   -2.175728
 ---------------------------------------------------------------------
 Rotational constants (GHZ):           0.0216094           0.0155033           0.0110320
 Standard basis: SVP (5D, 7F)
 There are  1809 symmetry adapted cartesian basis functions of A   symmetry.
 There are  1717 symmetry adapted basis functions of A   symmetry.
  1717 basis functions,  2922 primitive gaussians,  1809 cartesian basis functions
   358 alpha electrons      358 beta electrons
       nuclear repulsion energy     21498.1456800209 Hartrees.
 NAtoms=  176 NActive=  176 NUniq=  176 SFac= 1.00D+00 NAtFMM=   60 NAOKFM=T Big=T
 Integral buffers will be    131072 words long.
 Raffenetti 2 integral format.
 Two-electron integral symmetry is turned on.
 One-electron integrals computed using PRISM.
 NBasis=  1717 RedAO= T EigKep=  3.18D-04  NBF=  1717
 NBsUse=  1717 1.00D-06 EigRej= -1.00D+00 NBFU=  1717
 ExpMin= 1.98D-02 ExpMax= 3.51D+04 ExpMxC= 5.28D+03 IAcc=3 IRadAn=         5 AccDes= 0.00D+00
 Harris functional with IExCor=  402 and IRadAn=       5 diagonalized for initial guess.
 HarFok:  IExCor=  402 AccDes= 0.00D+00 IRadAn=         5 IDoV= 1 UseB2=F ITyADJ=14
 ICtDFT=  3500011 ScaDFX=  1.000000  1.000000  1.000000  1.000000
 FoFCou: FMM=F IPFlag=           0 FMFlag=      100000 FMFlg1=        2001
         NFxFlg=           0 DoJE=T BraDBF=F KetDBF=T FulRan=T
         wScrn=  0.000000 ICntrl=       500 IOpCl=  0 I1Cent=   200000004 NGrid=           0
         NMat0=    1 NMatS0=      1 NMatT0=    0 NMatD0=    1 NMtDS0=    0 NMtDT0=    0
 Petite list used in FoFCou.
 Requested convergence on RMS density matrix=1.00D-08 within 128 cycles.
 Requested convergence on MAX density matrix=1.00D-06.
 Requested convergence on             energy=1.00D-06.
 No special actions if energy rises.
 EnCoef did     4 forward-backward iterations
 SCF Done:  E(RB3LYP) =  -5333.53112377     A.U. after   18 cycles
            NFock= 18  Conv=0.44D-08     -V/T= 2.0081
 SCF density gives NOpUse=  1 NOpAll=  1.
 Hyperfine terms turned off by default for NAtoms > 100.

 **********************************************************************

            Population analysis using the SCF density.

 **********************************************************************

 Orbital symmetries:
 BldTbl:  Degeneracy threshold= 1.00D-02
       Occupied  (A) (A) (A) (A) (A) (A) (A) (A) (A) (A) (A) (A)
                 (A) (A) (A) (A) (A) (A) (A) (A) (A) (A) (A) (A)
                 (A) (A) (A) (A) (A) (A) (A) (A) (A) (A) (A) (A)
                 (A) (A) (A) (A) (A) (A) (A) (A) (A) (A) (A) (A)
                 (A) (A) (A) (A) (A) (A) (A) (A) (A) (A) (A) (A)
                 (A) (A) (A) (A) (A) (A) (A) (A) (A) (A) (A) (A)
                 (A) (A) (A) (A) (A) (A) (A) (A) (A) (A) (A) (A)
                 (A) (A) (A) (A) (A) (A) (A) (A) (A) (A) (A) (A)
                 (A) (A) (A) (A) (A) (A) (A) (A) (A) (A) (A) (A)
                 (A) (A) (A) (A) (A) (A) (A) (A) (A) (A) (A) (A)
                 (A) (A) (A) (A) (A) (A) (A) (A) (A) (A) (A) (A)
                 (A) (A) (A) (A) (A) (A) (A) (A) (A) (A) (A) (A)
                 (A) (A) (A) (A) (A) (A) (A) (A) (A) (A) (A) (A)
                 (A) (A) (A) (A) (A) (A) (A) (A) (A) (A) (A) (A)
                 (A) (A) (A) (A) (A) (A) (A) (A) (A) (A) (A) (A)
                 (A) (A) (A) (A) (A) (A) (A) (A) (A) (A) (A) (A)
                 (A) (A) (A) (A) (A) (A) (A) (A) (A) (A) (A) (A)
                 (A) (A) (A) (A) (A) (A) (A) (A) (A) (A) (A) (A)
                 (A) (A) (A) (A) (A) (A) (A) (A) (A) (A) (A) (A)
                 (A) (A) (A) (A) (A) (A) (A) (A) (A) (A) (A) (A)
                 (A) (A) (A) (A) (A) (A) (A) (A) (A) (A) (A) (A)
                 (A) (A) (A) (A) (A) (A) (A) (A) (A) (A) (A) (A)
                 (A) (A) (A) (A) (A) (A) (A) (A) (A) (A) (A) (A)
                 (A) (A) (A) (A) (A) (A) (A) (A) (A) (A) (A) (A)
                 (A) (A) (A) (A) (A) (A) (A) (A) (A) (A) (A) (A)
                 (A) (A) (A) (A) (A) (A) (A) (A) (A) (A) (A) (A)
                 (A) (A) (A) (A) (A) (A) (A) (A) (A) (A) (A) (A)
                 (A) (A) (A) (A) (A) (A) (A) (A) (A) (A) (A) (A)
                 (A) (A) (A) (A) (A) (A) (A) (A) (A) (A) (A) (A)
                 (A) (A) (A) (A) (A) (A) (A) (A) (A) (A)
       Virtual   (A) (A) (A) (A) (A) (A) (A) (A) (A) (A) (A) (A)
                 (A) (A) (A) (A) (A) (A) (A) (A) (A) (A) (A) (A)
                 (A) (A) (A) (A) (A) (A) (A) (A) (A) (A) (A) (A)
                 (A) (A) (A) (A) (A) (A) (A) (A) (A) (A) (A) (A)
                 (A) (A) (A) (A) (A) (A) (A) (A) (A) (A) (A) (A)
                 (A) (A) (A) (A) (A) (A) (A) (A) (A) (A) (A) (A)
                 (A) (A) (A) (A) (A) (A) (A) (A) (A) (A) (A) (A)
                 (A) (A) (A) (A) (A) (A) (A) (A) (A) (A) (A) (A)
                 (A) (A) (A) (A) (A) (A) (A) (A) (A) (A) (A) (A)
                 (A) (A) (A) (A) (A) (A) (A) (A) (A) (A) (A) (A)
                 (A) (A) (A) (A) (A) (A) (A) (A) (A) (A) (A) (A)
                 (A) (A) (A) (A) (A) (A) (A) (A) (A) (A) (A) (A)
                 (A) (A) (A) (A) (A) (A) (A) (A) (A) (A) (A) (A)
                 (A) (A) (A) (A) (A) (A) (A) (A) (A) (A) (A) (A)
                 (A) (A) (A) (A) (A) (A) (A) (A) (A) (A) (A) (A)
                 (A) (A) (A) (A) (A) (A) (A) (A) (A) (A) (A) (A)
                 (A) (A) (A) (A) (A) (A) (A) (A) (A) (A) (A) (A)
                 (A) (A) (A) (A) (A) (A) (A) (A) (A) (A) (A) (A)
                 (A) (A) (A) (A) (A) (A) (A) (A) (A) (A) (A) (A)
                 (A) (A) (A) (A) (A) (A) (A) (A) (A) (A) (A) (A)
                 (A) (A) (A) (A) (A) (A) (A) (A) (A) (A) (A) (A)
                 (A) (A) (A) (A) (A) (A) (A) (A) (A) (A) (A) (A)
                 (A) (A) (A) (A) (A) (A) (A) (A) (A) (A) (A) (A)
                 (A) (A) (A) (A) (A) (A) (A) (A) (A) (A) (A) (A)
                 (A) (A) (A) (A) (A) (A) (A) (A) (A) (A) (A) (A)
                 (A) (A) (A) (A) (A) (A) (A) (A) (A) (A) (A) (A)
                 (A) (A) (A) (A) (A) (A) (A) (A) (A) (A) (A) (A)
                 (A) (A) (A) (A) (A) (A) (A) (A) (A) (A) (A) (A)
                 (A) (A) (A) (A) (A) (A) (A) (A) (A) (A) (A) (A)
                 (A) (A) (A) (A) (A) (A) (A) (A) (A) (A) (A) (A)
                 (A) (A) (A) (A) (A) (A) (A) (A) (A) (A) (A) (A)
                 (A) (A) (A) (A) (A) (A) (A) (A) (A) (A) (A) (A)
                 (A) (A) (A) (A) (A) (A) (A) (A) (A) (A) (A) (A)
                 (A) (A) (A) (A) (A) (A) (A) (A) (A) (A) (A) (A)
                 (A) (A) (A) (A) (A) (A) (A) (A) (A) (A) (A) (A)
                 (A) (A) (A) (A) (A) (A) (A) (A) (A) (A) (A) (A)
                 (A) (A) (A) (A) (A) (A) (A) (A) (A) (A) (A) (A)
                 (A) (A) (A) (A) (A) (A) (A) (A) (A) (A) (A) (A)
                 (A) (A) (A) (A) (A) (A) (A) (A) (A) (A) (A) (A)
                 (A) (A) (A) (A) (A) (A) (A) (A) (A) (A) (A) (A)
                 (A) (A) (A) (A) (A) (A) (A) (A) (A) (A) (A) (A)
                 (A) (A) (A) (A) (A) (A) (A) (A) (A) (A) (A) (A)
                 (A) (A) (A) (A) (A) (A) (A) (A) (A) (A) (A) (A)
                 (A) (A) (A) (A) (A) (A) (A) (A) (A) (A) (A) (A)
                 (A) (A) (A) (A) (A) (A) (A) (A) (A) (A) (A) (A)
                 (A) (A) (A) (A) (A) (A) (A) (A) (A) (A) (A) (A)
                 (A) (A) (A) (A) (A) (A) (A) (A) (A) (A) (A) (A)
                 (A) (A) (A) (A) (A) (A) (A) (A) (A) (A) (A) (A)
                 (A) (A) (A) (A) (A) (A) (A) (A) (A) (A) (A) (A)
                 (A) (A) (A) (A) (A) (A) (A) (A) (A) (A) (A) (A)
                 (A) (A) (A) (A) (A) (A) (A) (A) (A) (A) (A) (A)
                 (A) (A) (A) (A) (A) (A) (A) (A) (A) (A) (A) (A)
                 (A) (A) (A) (A) (A) (A) (A) (A) (A) (A) (A) (A)
                 (A) (A) (A) (A) (A) (A) (A) (A) (A) (A) (A) (A)
                 (A) (A) (A) (A) (A) (A) (A) (A) (A) (A) (A) (A)
                 (A) (A) (A) (A) (A) (A) (A) (A) (A) (A) (A) (A)
                 (A) (A) (A) (A) (A) (A) (A) (A) (A) (A) (A) (A)
                 (A) (A) (A) (A) (A) (A) (A) (A) (A) (A) (A) (A)
                 (A) (A) (A) (A) (A) (A) (A) (A) (A) (A) (A) (A)
                 (A) (A) (A) (A) (A) (A) (A) (A) (A) (A) (A) (A)
                 (A) (A) (A) (A) (A) (A) (A) (A) (A) (A) (A) (A)
                 (A) (A) (A) (A) (A) (A) (A) (A) (A) (A) (A) (A)
                 (A) (A) (A) (A) (A) (A) (A) (A) (A) (A) (A) (A)
                 (A) (A) (A) (A) (A) (A) (A) (A) (A) (A) (A) (A)
                 (A) (A) (A) (A) (A) (A) (A) (A) (A) (A) (A) (A)
                 (A) (A) (A) (A) (A) (A) (A) (A) (A) (A) (A) (A)
                 (A) (A) (A) (A) (A) (A) (A) (A) (A) (A) (A) (A)
                 (A) (A) (A) (A) (A) (A) (A) (A) (A) (A) (A) (A)
                 (A) (A) (A) (A) (A) (A) (A) (A) (A) (A) (A) (A)
                 (A) (A) (A) (A) (A) (A) (A) (A) (A) (A) (A) (A)
                 (A) (A) (A) (A) (A) (A) (A) (A) (A) (A) (A) (A)
                 (A) (A) (A) (A) (A) (A) (A) (A) (A) (A) (A) (A)
                 (A) (A) (A) (A) (A) (A) (A) (A) (A) (A) (A) (A)
                 (A) (A) (A) (A) (A) (A) (A) (A) (A) (A) (A) (A)
                 (A) (A) (A) (A) (A) (A) (A) (A) (A) (A) (A) (A)
                 (A) (A) (A) (A) (A) (A) (A) (A) (A) (A) (A) (A)
                 (A) (A) (A) (A) (A) (A) (A) (A) (A) (A) (A) (A)
                 (A) (A) (A) (A) (A) (A) (A) (A) (A) (A) (A) (A)
                 (A) (A) (A) (A) (A) (A) (A) (A) (A) (A) (A) (A)
                 (A) (A) (A) (A) (A) (A) (A) (A) (A) (A) (A) (A)
                 (A) (A) (A) (A) (A) (A) (A) (A) (A) (A) (A) (A)
                 (A) (A) (A) (A) (A) (A) (A) (A) (A) (A) (A) (A)
                 (A) (A) (A) (A) (A) (A) (A) (A) (A) (A) (A) (A)
                 (A) (A) (A) (A) (A) (A) (A) (A) (A) (A) (A) (A)
                 (A) (A) (A) (A) (A) (A) (A) (A) (A) (A) (A) (A)
                 (A) (A) (A) (A) (A) (A) (A) (A) (A) (A) (A) (A)
                 (A) (A) (A) (A) (A) (A) (A) (A) (A) (A) (A) (A)
                 (A) (A) (A) (A) (A) (A) (A) (A) (A) (A) (A) (A)
                 (A) (A) (A) (A) (A) (A) (A) (A) (A) (A) (A) (A)
                 (A) (A) (A) (A) (A) (A) (A) (A) (A) (A) (A) (A)
                 (A) (A) (A) (A) (A) (A) (A) (A) (A) (A) (A) (A)
                 (A) (A) (A) (A) (A) (A) (A) (A) (A) (A) (A) (A)
                 (A) (A) (A) (A) (A) (A) (A) (A) (A) (A) (A) (A)
                 (A) (A) (A) (A) (A) (A) (A) (A) (A) (A) (A) (A)
                 (A) (A) (A) (A) (A) (A) (A) (A) (A) (A) (A) (A)
                 (A) (A) (A) (A) (A) (A) (A) (A) (A) (A) (A) (A)
                 (A) (A) (A) (A) (A) (A) (A) (A) (A) (A) (A) (A)
                 (A) (A) (A) (A) (A) (A) (A) (A) (A) (A) (A) (A)
                 (A) (A) (A) (A) (A) (A) (A) (A) (A) (A) (A) (A)
                 (A) (A) (A) (A) (A) (A) (A) (A) (A) (A) (A) (A)
                 (A) (A) (A) (A) (A) (A) (A) (A) (A) (A) (A) (A)
                 (A) (A) (A) (A) (A) (A) (A) (A) (A) (A) (A) (A)
                 (A) (A) (A) (A) (A) (A) (A) (A) (A) (A) (A) (A)
                 (A) (A) (A) (A) (A) (A) (A) (A) (A) (A) (A) (A)
                 (A) (A) (A) (A) (A) (A) (A) (A) (A) (A) (A) (A)
                 (A) (A) (A) (A) (A) (A) (A) (A) (A) (A) (A) (A)
                 (A) (A) (A) (A) (A) (A) (A) (A) (A) (A) (A) (A)
                 (A) (A) (A) (A) (A) (A) (A) (A) (A) (A) (A) (A)
                 (A) (A) (A) (A) (A) (A) (A) (A) (A) (A) (A) (A)
                 (A) (A) (A) (A) (A) (A) (A) (A) (A) (A) (A) (A)
                 (A) (A) (A) (A) (A) (A) (A) (A) (A) (A) (A) (A)
                 (A) (A) (A) (A) (A) (A) (A) (A) (A) (A) (A) (A)
                 (A) (A) (A) (A) (A) (A) (A) (A) (A) (A) (A) (A)
                 (A) (A) (A)
 The electronic state is 1-A.
 Alpha  occ. eigenvalues -- -145.35004 -19.20356 -19.19724 -19.14771 -19.14052
 Alpha  occ. eigenvalues --  -19.12122 -19.11797 -19.10960 -19.09764 -19.09004
 Alpha  occ. eigenvalues --  -19.08056 -19.07292 -19.06963 -19.06391 -19.06240
 Alpha  occ. eigenvalues --  -19.06016 -19.06015 -19.05239 -19.04616 -19.04084
 Alpha  occ. eigenvalues --  -19.03872 -19.03715 -19.01619 -18.99352 -15.40735
 Alpha  occ. eigenvalues --  -14.58180 -14.41046 -14.38889 -14.38723 -14.35772
 Alpha  occ. eigenvalues --  -14.35509 -14.35037 -14.35003 -14.33986 -14.32559
 Alpha  occ. eigenvalues --  -14.32316 -14.31221 -14.30495 -14.30345 -14.30204
 Alpha  occ. eigenvalues --  -12.54356 -12.54314 -12.54292 -10.34916 -10.33520
 Alpha  occ. eigenvalues --  -10.30938 -10.30423 -10.30285 -10.29250 -10.28917
 Alpha  occ. eigenvalues --  -10.28534 -10.28223 -10.28183 -10.27190 -10.26882
 Alpha  occ. eigenvalues --  -10.26783 -10.25734 -10.25654 -10.25537 -10.25361
 Alpha  occ. eigenvalues --  -10.25190 -10.25012 -10.24090 -10.23541 -10.23527
 Alpha  occ. eigenvalues --  -10.23405 -10.23396 -10.23300 -10.23095 -10.22907
 Alpha  occ. eigenvalues --  -10.22663 -10.22415 -10.21822 -10.21502 -10.20779
 Alpha  occ. eigenvalues --  -10.20753 -10.20687 -10.20497 -10.18746 -10.18646
 Alpha  occ. eigenvalues --  -10.18613 -10.18609 -10.18587 -10.18315 -10.18233
 Alpha  occ. eigenvalues --  -10.17941 -10.17786 -10.17012 -10.16833 -10.16748
 Alpha  occ. eigenvalues --  -10.16558 -10.16511 -10.15776 -10.15761 -10.15246
 Alpha  occ. eigenvalues --  -10.15231 -10.13316  -1.77607  -1.13558  -1.09446
 Alpha  occ. eigenvalues --   -1.08197  -1.06363  -1.05330  -1.05201  -1.05153
 Alpha  occ. eigenvalues --   -1.04788  -1.04559  -1.03660  -1.03211  -1.02391
 Alpha  occ. eigenvalues --   -1.02186  -1.01240  -1.01187  -1.00361  -1.00106
 Alpha  occ. eigenvalues --   -0.99789  -0.99352  -0.99085  -0.98456  -0.98200
 Alpha  occ. eigenvalues --   -0.97951  -0.97135  -0.95751  -0.95686  -0.95017
 Alpha  occ. eigenvalues --   -0.92319  -0.92130  -0.91619  -0.90994  -0.90493
 Alpha  occ. eigenvalues --   -0.90273  -0.90128  -0.89677  -0.89021  -0.88545
 Alpha  occ. eigenvalues --   -0.88493  -0.87507  -0.87037  -0.85982  -0.84441
 Alpha  occ. eigenvalues --   -0.83850  -0.82890  -0.82617  -0.81515  -0.80289
 Alpha  occ. eigenvalues --   -0.79649  -0.78801  -0.77481  -0.77387  -0.75659
 Alpha  occ. eigenvalues --   -0.75542  -0.73579  -0.73509  -0.72700  -0.72334
 Alpha  occ. eigenvalues --   -0.72003  -0.71981  -0.71627  -0.71129  -0.71080
 Alpha  occ. eigenvalues --   -0.70336  -0.69784  -0.69040  -0.68584  -0.68490
 Alpha  occ. eigenvalues --   -0.67310  -0.66272  -0.65606  -0.65310  -0.65183
 Alpha  occ. eigenvalues --   -0.64124  -0.63454  -0.63195  -0.62828  -0.62610
 Alpha  occ. eigenvalues --   -0.62119  -0.61521  -0.61383  -0.60300  -0.59968
 Alpha  occ. eigenvalues --   -0.59835  -0.59275  -0.59021  -0.58601  -0.58373
 Alpha  occ. eigenvalues --   -0.57703  -0.57513  -0.56656  -0.56599  -0.56112
 Alpha  occ. eigenvalues --   -0.55868  -0.55610  -0.55538  -0.55437  -0.55226
 Alpha  occ. eigenvalues --   -0.55032  -0.54860  -0.54227  -0.53811  -0.53792
 Alpha  occ. eigenvalues --   -0.53263  -0.53043  -0.52988  -0.52840  -0.52704
 Alpha  occ. eigenvalues --   -0.51928  -0.51734  -0.51418  -0.51250  -0.50276
 Alpha  occ. eigenvalues --   -0.49518  -0.49255  -0.49093  -0.48587  -0.48435
 Alpha  occ. eigenvalues --   -0.48321  -0.48011  -0.47797  -0.47628  -0.47568
 Alpha  occ. eigenvalues --   -0.47522  -0.47377  -0.47085  -0.46777  -0.46200
 Alpha  occ. eigenvalues --   -0.46159  -0.45925  -0.45875  -0.45773  -0.45564
 Alpha  occ. eigenvalues --   -0.45348  -0.45056  -0.45040  -0.44885  -0.44826
 Alpha  occ. eigenvalues --   -0.44657  -0.44413  -0.44409  -0.44306  -0.43848
 Alpha  occ. eigenvalues --   -0.43749  -0.43701  -0.43385  -0.43301  -0.43072
 Alpha  occ. eigenvalues --   -0.42646  -0.42485  -0.42427  -0.42335  -0.42272
 Alpha  occ. eigenvalues --   -0.41931  -0.41797  -0.41696  -0.41559  -0.41226
 Alpha  occ. eigenvalues --   -0.41155  -0.41119  -0.41022  -0.40852  -0.40696
 Alpha  occ. eigenvalues --   -0.40563  -0.40367  -0.40256  -0.40167  -0.40096
 Alpha  occ. eigenvalues --   -0.39982  -0.39784  -0.39606  -0.39351  -0.39155
 Alpha  occ. eigenvalues --   -0.38989  -0.38895  -0.38683  -0.38586  -0.38494
 Alpha  occ. eigenvalues --   -0.38309  -0.38134  -0.38106  -0.38040  -0.37969
 Alpha  occ. eigenvalues --   -0.37805  -0.37674  -0.37446  -0.37148  -0.36927
 Alpha  occ. eigenvalues --   -0.36821  -0.36713  -0.36620  -0.36464  -0.36285
 Alpha  occ. eigenvalues --   -0.36116  -0.35979  -0.35798  -0.35510  -0.35373
 Alpha  occ. eigenvalues --   -0.35118  -0.35020  -0.34761  -0.34740  -0.34642
 Alpha  occ. eigenvalues --   -0.34397  -0.34104  -0.33934  -0.33761  -0.33516
 Alpha  occ. eigenvalues --   -0.33353  -0.33218  -0.33134  -0.32989  -0.32695
 Alpha  occ. eigenvalues --   -0.32639  -0.32369  -0.32119  -0.31892  -0.31642
 Alpha  occ. eigenvalues --   -0.31162  -0.30804  -0.30688  -0.30614  -0.30185
 Alpha  occ. eigenvalues --   -0.29685  -0.29550  -0.29338  -0.29055  -0.27595
 Alpha  occ. eigenvalues --   -0.27383  -0.26718  -0.26629  -0.26396  -0.26260
 Alpha  occ. eigenvalues --   -0.25665  -0.25488  -0.25314  -0.25096  -0.24697
 Alpha  occ. eigenvalues --   -0.24046  -0.23792  -0.23484  -0.23474  -0.23346
 Alpha  occ. eigenvalues --   -0.22882  -0.22759  -0.22429  -0.22117  -0.21857
 Alpha  occ. eigenvalues --   -0.21670  -0.21547  -0.21386  -0.21199  -0.20758
 Alpha  occ. eigenvalues --   -0.20357  -0.20200  -0.19941  -0.19750  -0.19546
 Alpha  occ. eigenvalues --   -0.19448  -0.18072  -0.14936
 Alpha virt. eigenvalues --   -0.09789  -0.04613  -0.04203  -0.03752  -0.03525
 Alpha virt. eigenvalues --   -0.02632  -0.01742  -0.01343  -0.01031  -0.00309
 Alpha virt. eigenvalues --    0.00675   0.00744   0.01004   0.01114   0.01409
 Alpha virt. eigenvalues --    0.02023   0.02524   0.02851   0.03069   0.03543
 Alpha virt. eigenvalues --    0.03721   0.04009   0.04163   0.04228   0.04689
 Alpha virt. eigenvalues --    0.05154   0.05196   0.05368   0.05785   0.05807
 Alpha virt. eigenvalues --    0.05906   0.06099   0.06182   0.06412   0.06702
 Alpha virt. eigenvalues --    0.06775   0.06936   0.06978   0.07237   0.07435
 Alpha virt. eigenvalues --    0.07781   0.07919   0.08180   0.08345   0.08607
 Alpha virt. eigenvalues --    0.09108   0.09129   0.09238   0.09543   0.09732
 Alpha virt. eigenvalues --    0.09887   0.09969   0.10148   0.10392   0.10479
 Alpha virt. eigenvalues --    0.10718   0.10839   0.11243   0.11447   0.11594
 Alpha virt. eigenvalues --    0.11748   0.11819   0.11927   0.12192   0.12453
 Alpha virt. eigenvalues --    0.12548   0.12771   0.12835   0.13047   0.13495
 Alpha virt. eigenvalues --    0.13617   0.13917   0.14032   0.14236   0.14283
 Alpha virt. eigenvalues --    0.14568   0.14717   0.14882   0.15170   0.15220
 Alpha virt. eigenvalues --    0.15375   0.15554   0.15699   0.15860   0.15991
 Alpha virt. eigenvalues --    0.16030   0.16198   0.16336   0.16528   0.16664
 Alpha virt. eigenvalues --    0.16786   0.16882   0.17305   0.17572   0.17615
 Alpha virt. eigenvalues --    0.17791   0.17927   0.18100   0.18211   0.18389
 Alpha virt. eigenvalues --    0.18612   0.18731   0.18935   0.19147   0.19236
 Alpha virt. eigenvalues --    0.19394   0.19467   0.19637   0.20050   0.20098
 Alpha virt. eigenvalues --    0.20285   0.20629   0.20914   0.21085   0.21108
 Alpha virt. eigenvalues --    0.21369   0.21656   0.21718   0.22182   0.22402
 Alpha virt. eigenvalues --    0.23025   0.23150   0.23416   0.23497   0.23812
 Alpha virt. eigenvalues --    0.24226   0.24318   0.24546   0.24777   0.25014
 Alpha virt. eigenvalues --    0.25061   0.25418   0.25454   0.25584   0.25947
 Alpha virt. eigenvalues --    0.26016   0.26449   0.26679   0.26800   0.26967
 Alpha virt. eigenvalues --    0.27259   0.27409   0.27713   0.27949   0.28067
 Alpha virt. eigenvalues --    0.28290   0.28347   0.28550   0.28892   0.29278
 Alpha virt. eigenvalues --    0.29324   0.29470   0.29685   0.30261   0.30483
 Alpha virt. eigenvalues --    0.30661   0.30966   0.31008   0.31216   0.31483
 Alpha virt. eigenvalues --    0.31531   0.31702   0.31832   0.32003   0.32263
 Alpha virt. eigenvalues --    0.32593   0.32716   0.32894   0.33234   0.33896
 Alpha virt. eigenvalues --    0.33916   0.34202   0.34613   0.34752   0.35189
 Alpha virt. eigenvalues --    0.35223   0.35746   0.36002   0.36495   0.36619
 Alpha virt. eigenvalues --    0.36973   0.37065   0.37388   0.37730   0.37971
 Alpha virt. eigenvalues --    0.38300   0.38514   0.38755   0.39119   0.39277
 Alpha virt. eigenvalues --    0.39501   0.39907   0.39977   0.40175   0.40298
 Alpha virt. eigenvalues --    0.40712   0.40982   0.41286   0.42032   0.42169
 Alpha virt. eigenvalues --    0.42245   0.42386   0.42729   0.42875   0.43325
 Alpha virt. eigenvalues --    0.43733   0.43894   0.44021   0.44168   0.44297
 Alpha virt. eigenvalues --    0.44418   0.44598   0.44843   0.45056   0.45179
 Alpha virt. eigenvalues --    0.45394   0.45577   0.45762   0.45926   0.46116
 Alpha virt. eigenvalues --    0.46167   0.46473   0.46780   0.46825   0.46904
 Alpha virt. eigenvalues --    0.47245   0.47279   0.47871   0.47964   0.48094
 Alpha virt. eigenvalues --    0.48568   0.48776   0.49003   0.49065   0.49365
 Alpha virt. eigenvalues --    0.49541   0.49755   0.49868   0.50109   0.50368
 Alpha virt. eigenvalues --    0.50475   0.50540   0.50861   0.51031   0.51163
 Alpha virt. eigenvalues --    0.51413   0.51542   0.51812   0.52019   0.52377
 Alpha virt. eigenvalues --    0.52697   0.52885   0.52996   0.53296   0.53515
 Alpha virt. eigenvalues --    0.53566   0.53746   0.53842   0.53941   0.54203
 Alpha virt. eigenvalues --    0.54252   0.54375   0.54447   0.54643   0.55085
 Alpha virt. eigenvalues --    0.55173   0.55395   0.55744   0.55969   0.56089
 Alpha virt. eigenvalues --    0.56346   0.56620   0.56673   0.56923   0.57048
 Alpha virt. eigenvalues --    0.57201   0.57404   0.57579   0.57693   0.57908
 Alpha virt. eigenvalues --    0.58009   0.58188   0.58234   0.58340   0.58381
 Alpha virt. eigenvalues --    0.58504   0.58871   0.58916   0.59091   0.59175
 Alpha virt. eigenvalues --    0.59281   0.59691   0.59737   0.59798   0.59944
 Alpha virt. eigenvalues --    0.60182   0.60307   0.60479   0.60693   0.60859
 Alpha virt. eigenvalues --    0.60988   0.61126   0.61202   0.61302   0.61414
 Alpha virt. eigenvalues --    0.61534   0.61635   0.61702   0.62025   0.62358
 Alpha virt. eigenvalues --    0.62430   0.62685   0.62772   0.62841   0.62869
 Alpha virt. eigenvalues --    0.63063   0.63319   0.63489   0.63633   0.63743
 Alpha virt. eigenvalues --    0.63915   0.64093   0.64244   0.64364   0.64508
 Alpha virt. eigenvalues --    0.64587   0.64772   0.64897   0.64976   0.65116
 Alpha virt. eigenvalues --    0.65137   0.65245   0.65498   0.65609   0.65730
 Alpha virt. eigenvalues --    0.65797   0.65849   0.65976   0.66078   0.66171
 Alpha virt. eigenvalues --    0.66243   0.66309   0.66500   0.66627   0.66677
 Alpha virt. eigenvalues --    0.66737   0.66787   0.66934   0.67027   0.67097
 Alpha virt. eigenvalues --    0.67280   0.67442   0.67523   0.67597   0.67701
 Alpha virt. eigenvalues --    0.67840   0.67999   0.68054   0.68277   0.68345
 Alpha virt. eigenvalues --    0.68391   0.68631   0.68706   0.68799   0.68910
 Alpha virt. eigenvalues --    0.69042   0.69193   0.69260   0.69396   0.69484
 Alpha virt. eigenvalues --    0.69583   0.69699   0.69788   0.69845   0.70006
 Alpha virt. eigenvalues --    0.70194   0.70358   0.70378   0.70566   0.70727
 Alpha virt. eigenvalues --    0.70943   0.71086   0.71208   0.71292   0.71460
 Alpha virt. eigenvalues --    0.71624   0.71907   0.71995   0.72169   0.72279
 Alpha virt. eigenvalues --    0.72426   0.72570   0.72669   0.72901   0.73011
 Alpha virt. eigenvalues --    0.73166   0.73251   0.73680   0.73863   0.73995
 Alpha virt. eigenvalues --    0.74088   0.74160   0.74612   0.74782   0.74893
 Alpha virt. eigenvalues --    0.75023   0.75210   0.75458   0.75723   0.75853
 Alpha virt. eigenvalues --    0.76227   0.76465   0.76706   0.76891   0.77027
 Alpha virt. eigenvalues --    0.77282   0.77598   0.77812   0.77956   0.78215
 Alpha virt. eigenvalues --    0.78448   0.78760   0.78881   0.79145   0.79338
 Alpha virt. eigenvalues --    0.79645   0.79698   0.79929   0.80405   0.80642
 Alpha virt. eigenvalues --    0.80858   0.81145   0.81496   0.81545   0.81781
 Alpha virt. eigenvalues --    0.82009   0.82208   0.82510   0.82813   0.83385
 Alpha virt. eigenvalues --    0.83467   0.83743   0.83784   0.84325   0.84428
 Alpha virt. eigenvalues --    0.84547   0.85020   0.85335   0.85379   0.85835
 Alpha virt. eigenvalues --    0.85894   0.86154   0.86505   0.86718   0.86991
 Alpha virt. eigenvalues --    0.87185   0.87375   0.87947   0.88023   0.88205
 Alpha virt. eigenvalues --    0.88516   0.88947   0.89331   0.89835   0.89938
 Alpha virt. eigenvalues --    0.90205   0.90672   0.90900   0.91287   0.91511
 Alpha virt. eigenvalues --    0.91749   0.91844   0.91945   0.92397   0.92691
 Alpha virt. eigenvalues --    0.92884   0.92970   0.93282   0.93407   0.93899
 Alpha virt. eigenvalues --    0.94164   0.94409   0.94856   0.95248   0.95413
 Alpha virt. eigenvalues --    0.95777   0.96047   0.96178   0.96331   0.96768
 Alpha virt. eigenvalues --    0.97188   0.97270   0.97368   0.97824   0.97915
 Alpha virt. eigenvalues --    0.98340   0.98514   0.98525   0.98965   0.99259
 Alpha virt. eigenvalues --    0.99476   0.99959   1.00108   1.00331   1.00367
 Alpha virt. eigenvalues --    1.00961   1.01380   1.01442   1.01899   1.02124
 Alpha virt. eigenvalues --    1.02296   1.02445   1.02935   1.03288   1.03672
 Alpha virt. eigenvalues --    1.03888   1.04179   1.04748   1.05048   1.05231
 Alpha virt. eigenvalues --    1.05312   1.05696   1.06272   1.06577   1.06633
 Alpha virt. eigenvalues --    1.07272   1.07382   1.07531   1.07883   1.08553
 Alpha virt. eigenvalues --    1.08614   1.08753   1.09343   1.09656   1.09872
 Alpha virt. eigenvalues --    1.10270   1.10358   1.10627   1.10857   1.11039
 Alpha virt. eigenvalues --    1.12024   1.12111   1.12186   1.12485   1.12772
 Alpha virt. eigenvalues --    1.12828   1.13029   1.13485   1.13822   1.13872
 Alpha virt. eigenvalues --    1.14085   1.14421   1.14664   1.14980   1.15612
 Alpha virt. eigenvalues --    1.15765   1.16028   1.16269   1.16624   1.16794
 Alpha virt. eigenvalues --    1.17034   1.17282   1.17487   1.17764   1.17979
 Alpha virt. eigenvalues --    1.18161   1.18384   1.18772   1.19017   1.19155
 Alpha virt. eigenvalues --    1.19591   1.19695   1.19851   1.20093   1.20759
 Alpha virt. eigenvalues --    1.20960   1.21096   1.21533   1.21560   1.21916
 Alpha virt. eigenvalues --    1.22193   1.22812   1.22892   1.23161   1.23269
 Alpha virt. eigenvalues --    1.23451   1.23727   1.24004   1.24118   1.24350
 Alpha virt. eigenvalues --    1.24797   1.24859   1.25191   1.25465   1.25542
 Alpha virt. eigenvalues --    1.25720   1.26130   1.26249   1.26722   1.26817
 Alpha virt. eigenvalues --    1.27173   1.27258   1.27515   1.27691   1.28240
 Alpha virt. eigenvalues --    1.28505   1.28522   1.28921   1.29022   1.29367
 Alpha virt. eigenvalues --    1.29852   1.30275   1.30425   1.30670   1.30963
 Alpha virt. eigenvalues --    1.31546   1.31772   1.31857   1.32231   1.32331
 Alpha virt. eigenvalues --    1.32689   1.32739   1.33108   1.33331   1.33553
 Alpha virt. eigenvalues --    1.33926   1.34214   1.34432   1.34898   1.34997
 Alpha virt. eigenvalues --    1.35185   1.35321   1.35805   1.36181   1.36379
 Alpha virt. eigenvalues --    1.36779   1.37010   1.37284   1.37508   1.37917
 Alpha virt. eigenvalues --    1.38141   1.38407   1.38694   1.38951   1.39186
 Alpha virt. eigenvalues --    1.39673   1.39984   1.40269   1.40441   1.40637
 Alpha virt. eigenvalues --    1.41020   1.41251   1.41443   1.41817   1.42134
 Alpha virt. eigenvalues --    1.42434   1.42933   1.43361   1.43703   1.44091
 Alpha virt. eigenvalues --    1.44145   1.44703   1.45132   1.45558   1.45869
 Alpha virt. eigenvalues --    1.46172   1.46347   1.46399   1.46960   1.47116
 Alpha virt. eigenvalues --    1.47251   1.47878   1.47961   1.48149   1.48588
 Alpha virt. eigenvalues --    1.48730   1.49164   1.49290   1.49422   1.49590
 Alpha virt. eigenvalues --    1.50402   1.50484   1.50682   1.50829   1.51214
 Alpha virt. eigenvalues --    1.51581   1.51823   1.51894   1.52039   1.52149
 Alpha virt. eigenvalues --    1.53076   1.53680   1.53952   1.54389   1.54767
 Alpha virt. eigenvalues --    1.55135   1.55696   1.55889   1.56017   1.56341
 Alpha virt. eigenvalues --    1.56921   1.57266   1.57554   1.57814   1.58058
 Alpha virt. eigenvalues --    1.58372   1.58524   1.58980   1.59366   1.59635
 Alpha virt. eigenvalues --    1.59915   1.60414   1.60539   1.61054   1.61105
 Alpha virt. eigenvalues --    1.61333   1.61694   1.61856   1.62450   1.62582
 Alpha virt. eigenvalues --    1.62647   1.63160   1.63417   1.63664   1.63829
 Alpha virt. eigenvalues --    1.64413   1.65030   1.65337   1.65534   1.65796
 Alpha virt. eigenvalues --    1.66086   1.66103   1.66742   1.67083   1.67234
 Alpha virt. eigenvalues --    1.67334   1.67838   1.68055   1.68131   1.68232
 Alpha virt. eigenvalues --    1.68412   1.68715   1.68933   1.69205   1.69474
 Alpha virt. eigenvalues --    1.69661   1.70310   1.70409   1.70627   1.70798
 Alpha virt. eigenvalues --    1.70885   1.70991   1.71181   1.71514   1.71916
 Alpha virt. eigenvalues --    1.72070   1.72300   1.72409   1.72686   1.72798
 Alpha virt. eigenvalues --    1.72880   1.73346   1.73362   1.73546   1.73855
 Alpha virt. eigenvalues --    1.74096   1.74311   1.74412   1.74552   1.74794
 Alpha virt. eigenvalues --    1.75077   1.75252   1.75290   1.75492   1.75744
 Alpha virt. eigenvalues --    1.75933   1.76118   1.76325   1.76431   1.76839
 Alpha virt. eigenvalues --    1.76937   1.77066   1.77315   1.77353   1.77814
 Alpha virt. eigenvalues --    1.78085   1.78366   1.78436   1.78623   1.78817
 Alpha virt. eigenvalues --    1.78860   1.79100   1.79136   1.79338   1.79552
 Alpha virt. eigenvalues --    1.79628   1.79706   1.79892   1.79990   1.80170
 Alpha virt. eigenvalues --    1.80196   1.80571   1.80710   1.80806   1.80994
 Alpha virt. eigenvalues --    1.81228   1.81447   1.81706   1.81913   1.82109
 Alpha virt. eigenvalues --    1.82182   1.82361   1.82600   1.82744   1.82930
 Alpha virt. eigenvalues --    1.83146   1.83452   1.83591   1.83951   1.83961
 Alpha virt. eigenvalues --    1.84065   1.84228   1.84448   1.84876   1.85006
 Alpha virt. eigenvalues --    1.85111   1.85260   1.85484   1.85778   1.85914
 Alpha virt. eigenvalues --    1.86240   1.86637   1.86781   1.86932   1.87166
 Alpha virt. eigenvalues --    1.87235   1.87439   1.87696   1.87707   1.88136
 Alpha virt. eigenvalues --    1.88310   1.88420   1.88920   1.89017   1.89197
 Alpha virt. eigenvalues --    1.89304   1.89386   1.89596   1.89685   1.89949
 Alpha virt. eigenvalues --    1.90125   1.90298   1.90502   1.90593   1.90794
 Alpha virt. eigenvalues --    1.91381   1.91469   1.91566   1.91949   1.92119
 Alpha virt. eigenvalues --    1.92152   1.92374   1.92648   1.92843   1.93000
 Alpha virt. eigenvalues --    1.93275   1.93403   1.93587   1.93855   1.94078
 Alpha virt. eigenvalues --    1.94168   1.94269   1.94665   1.94869   1.94963
 Alpha virt. eigenvalues --    1.95109   1.95173   1.95546   1.96056   1.96170
 Alpha virt. eigenvalues --    1.96311   1.96606   1.96734   1.96961   1.97148
 Alpha virt. eigenvalues --    1.97508   1.97694   1.98018   1.98126   1.98173
 Alpha virt. eigenvalues --    1.98393   1.98576   1.98769   1.99261   1.99632
 Alpha virt. eigenvalues --    1.99738   1.99882   1.99949   2.00200   2.00488
 Alpha virt. eigenvalues --    2.00732   2.00881   2.01303   2.01373   2.01562
 Alpha virt. eigenvalues --    2.01737   2.01990   2.02483   2.02834   2.03360
 Alpha virt. eigenvalues --    2.03530   2.03861   2.04191   2.04354   2.04546
 Alpha virt. eigenvalues --    2.04625   2.05092   2.05291   2.05637   2.06141
 Alpha virt. eigenvalues --    2.06228   2.06481   2.06841   2.07303   2.07485
 Alpha virt. eigenvalues --    2.07610   2.07857   2.08095   2.08315   2.08396
 Alpha virt. eigenvalues --    2.08625   2.08864   2.09322   2.09557   2.09611
 Alpha virt. eigenvalues --    2.09774   2.10171   2.10490   2.11039   2.11080
 Alpha virt. eigenvalues --    2.11482   2.11702   2.11913   2.12182   2.12609
 Alpha virt. eigenvalues --    2.12782   2.13033   2.13396   2.13836   2.14191
 Alpha virt. eigenvalues --    2.14350   2.14563   2.15067   2.15183   2.15659
 Alpha virt. eigenvalues --    2.16017   2.16245   2.16803   2.16936   2.17103
 Alpha virt. eigenvalues --    2.17371   2.17833   2.18105   2.18345   2.18502
 Alpha virt. eigenvalues --    2.18614   2.19131   2.19297   2.19489   2.19618
 Alpha virt. eigenvalues --    2.19803   2.20304   2.20790   2.21211   2.21304
 Alpha virt. eigenvalues --    2.21588   2.21833   2.21954   2.22032   2.22094
 Alpha virt. eigenvalues --    2.22442   2.22686   2.22952   2.23297   2.23630
 Alpha virt. eigenvalues --    2.23845   2.24059   2.24286   2.24569   2.25043
 Alpha virt. eigenvalues --    2.25115   2.25407   2.25834   2.26109   2.26373
 Alpha virt. eigenvalues --    2.26851   2.27361   2.27738   2.27856   2.28349
 Alpha virt. eigenvalues --    2.28914   2.29553   2.29856   2.30012   2.30249
 Alpha virt. eigenvalues --    2.30653   2.31168   2.31280   2.31508   2.31879
 Alpha virt. eigenvalues --    2.32571   2.32709   2.33134   2.33866   2.33968
 Alpha virt. eigenvalues --    2.34230   2.34528   2.34778   2.34874   2.35242
 Alpha virt. eigenvalues --    2.35916   2.36372   2.36720   2.37131   2.37220
 Alpha virt. eigenvalues --    2.37333   2.37674   2.37892   2.38056   2.38321
 Alpha virt. eigenvalues --    2.38690   2.38978   2.39612   2.39788   2.40375
 Alpha virt. eigenvalues --    2.40405   2.40758   2.40986   2.41273   2.41415
 Alpha virt. eigenvalues --    2.42037   2.42216   2.42636   2.42894   2.43215
 Alpha virt. eigenvalues --    2.43864   2.44047   2.44145   2.44354   2.44661
 Alpha virt. eigenvalues --    2.44897   2.45208   2.45311   2.45440   2.46167
 Alpha virt. eigenvalues --    2.46960   2.47613   2.47692   2.48343   2.48359
 Alpha virt. eigenvalues --    2.48935   2.49097   2.49540   2.50056   2.50094
 Alpha virt. eigenvalues --    2.50405   2.50684   2.50780   2.51506   2.51909
 Alpha virt. eigenvalues --    2.52005   2.52534   2.53271   2.53482   2.53865
 Alpha virt. eigenvalues --    2.54228   2.54538   2.55045   2.55172   2.55308
 Alpha virt. eigenvalues --    2.55456   2.55629   2.56186   2.57069   2.57246
 Alpha virt. eigenvalues --    2.57743   2.57959   2.58370   2.58559   2.58746
 Alpha virt. eigenvalues --    2.58999   2.59441   2.59815   2.60102   2.60859
 Alpha virt. eigenvalues --    2.60964   2.61434   2.61593   2.61885   2.62183
 Alpha virt. eigenvalues --    2.62343   2.62811   2.63224   2.63638   2.63849
 Alpha virt. eigenvalues --    2.64087   2.64350   2.64445   2.64638   2.65396
 Alpha virt. eigenvalues --    2.65469   2.65553   2.65717   2.66221   2.67341
 Alpha virt. eigenvalues --    2.67668   2.67786   2.67811   2.67894   2.68394
 Alpha virt. eigenvalues --    2.68434   2.68978   2.69045   2.69222   2.69289
 Alpha virt. eigenvalues --    2.69745   2.70273   2.70473   2.70864   2.71308
 Alpha virt. eigenvalues --    2.71570   2.71887   2.71961   2.72185   2.72491
 Alpha virt. eigenvalues --    2.72652   2.72917   2.73456   2.73513   2.73838
 Alpha virt. eigenvalues --    2.74180   2.74309   2.74491   2.74738   2.74774
 Alpha virt. eigenvalues --    2.75384   2.75503   2.76175   2.76328   2.76690
 Alpha virt. eigenvalues --    2.76738   2.76814   2.77483   2.77717   2.77989
 Alpha virt. eigenvalues --    2.78138   2.78169   2.78524   2.78636   2.78797
 Alpha virt. eigenvalues --    2.79109   2.79346   2.79497   2.79722   2.79938
 Alpha virt. eigenvalues --    2.80051   2.80398   2.80637   2.80964   2.81088
 Alpha virt. eigenvalues --    2.81307   2.81833   2.82288   2.82723   2.82767
 Alpha virt. eigenvalues --    2.83158   2.83468   2.83847   2.83911   2.83950
 Alpha virt. eigenvalues --    2.84428   2.84686   2.85011   2.85107   2.86039
 Alpha virt. eigenvalues --    2.86474   2.86795   2.86851   2.87201   2.87776
 Alpha virt. eigenvalues --    2.88198   2.88311   2.88480   2.88858   2.88982
 Alpha virt. eigenvalues --    2.89089   2.89289   2.89402   2.89737   2.89875
 Alpha virt. eigenvalues --    2.90166   2.90499   2.90628   2.90709   2.91783
 Alpha virt. eigenvalues --    2.91837   2.92391   2.92426   2.92590   2.92711
 Alpha virt. eigenvalues --    2.93076   2.93390   2.93471   2.93630   2.93998
 Alpha virt. eigenvalues --    2.94552   2.94803   2.94967   2.95258   2.95362
 Alpha virt. eigenvalues --    2.95709   2.95980   2.96107   2.96876   2.97232
 Alpha virt. eigenvalues --    2.97558   2.97786   2.98411   2.99358   3.00008
 Alpha virt. eigenvalues --    3.00201   3.01001   3.01177   3.01291   3.01824
 Alpha virt. eigenvalues --    3.01838   3.02412   3.02564   3.03139   3.03522
 Alpha virt. eigenvalues --    3.03879   3.04236   3.04465   3.04590   3.04776
 Alpha virt. eigenvalues --    3.05260   3.05362   3.06114   3.06499   3.06755
 Alpha virt. eigenvalues --    3.07339   3.07479   3.07577   3.09730   3.10157
 Alpha virt. eigenvalues --    3.10448   3.10773   3.11262   3.11359   3.11912
 Alpha virt. eigenvalues --    3.12247   3.12712   3.13029   3.13303   3.13832
 Alpha virt. eigenvalues --    3.15041   3.15217   3.15810   3.15839   3.15935
 Alpha virt. eigenvalues --    3.16181   3.16548   3.16718   3.17040   3.17955
 Alpha virt. eigenvalues --    3.18115   3.18706   3.18947   3.19502   3.19807
 Alpha virt. eigenvalues --    3.19930   3.20117   3.20432   3.20777   3.21352
 Alpha virt. eigenvalues --    3.21650   3.21834   3.21967   3.22270   3.23009
 Alpha virt. eigenvalues --    3.23379   3.23610   3.23877   3.24190   3.24529
 Alpha virt. eigenvalues --    3.24811   3.25365   3.26005   3.26246   3.26306
 Alpha virt. eigenvalues --    3.27085   3.28161   3.28973   3.29506   3.30922
 Alpha virt. eigenvalues --    3.31089   3.31516   3.31577   3.33170   3.33284
 Alpha virt. eigenvalues --    3.34496   3.35060   3.35792   3.35892   3.36561
 Alpha virt. eigenvalues --    3.41220   3.41262   3.48114   3.49299   3.51511
 Alpha virt. eigenvalues --    3.52700   3.53413   3.53583   3.55624   3.55918
 Alpha virt. eigenvalues --    3.56315   3.57761   3.58516   3.58941   3.59924
 Alpha virt. eigenvalues --    3.60856   3.62196   3.62870   3.63518   3.65296
 Alpha virt. eigenvalues --    3.66562   3.66929   3.67195   3.67363   3.67630
 Alpha virt. eigenvalues --    3.68068   3.69459   3.70434   3.70873   3.70970
 Alpha virt. eigenvalues --    3.71570   3.71741   3.72102   3.72308   3.72345
 Alpha virt. eigenvalues --    3.73227   3.73640   3.74321   3.76006   3.76239
 Alpha virt. eigenvalues --    3.76726   3.79467   3.81472   3.82238
          Condensed to atoms (all electrons):
 Mulliken charges:
               1
     1  C    0.049522
     2  C   -0.001141
     3  O   -0.302772
     4  H    0.041380
     5  H    0.035263
     6  H    0.008415
     7  N   -0.123250
     8  C    0.148958
     9  C    0.059961
    10  O   -0.286003
    11  C    0.076902
    12  C    0.115834
    13  O   -0.386930
    14  O   -0.420470
    15  H    0.114085
    16  H   -0.024469
    17  H   -0.005455
    18  H    0.018751
    19  N   -0.115123
    20  C    0.166538
    21  C    0.084987
    22  O   -0.299849
    23  C   -0.048145
    24  C   -0.007231
    25  C   -0.015876
    26  C    0.043033
    27  N    0.077527
    28  H    0.132544
    29  H    0.005445
    30  H    0.030262
    31  H    0.017140
    32  H   -0.008836
    33  H    0.016898
    34  H    0.058773
    35  H    0.032133
    36  H    0.079834
    37  H    0.057862
    38  H    0.206098
    39  H    0.186305
    40  H    0.193324
    41  N   -0.155023
    42  C    0.150867
    43  C    0.046244
    44  O   -0.295004
    45  C    0.052611
    46  C    0.122569
    47  O   -0.457465
    48  O   -0.398073
    49  H    0.175773
    50  H    0.000509
    51  H    0.006840
    52  H    0.004697
    53  N   -0.159527
    54  C    0.278953
    55  C   -0.007895
    56  O   -0.301168
    57  H    0.121866
    58  H    0.012288
    59  H    0.005494
    60  N   -0.183055
    61  C    0.157932
    62  C    0.038460
    63  O   -0.290776
    64  C    0.124803
    65  C    0.080441
    66  N   -0.013489
    67  O   -0.364057
    68  H    0.152216
    69  H    0.034765
    70  H    0.073175
    71  H    0.004075
    72  H    0.139586
    73  H    0.093499
    74  N   -0.160604
    75  C    0.246469
    76  C    0.011921
    77  O   -0.287751
    78  H    0.130863
    79  H    0.049262
    80  H    0.033761
    81  N   -0.142730
    82  C    0.120437
    83  C    0.129085
    84  O   -0.323448
    85  C    0.189367
    86  C   -0.073187
    87  C    0.040317
    88  C    0.007161
    89  C   -0.020859
    90  C   -0.032775
    91  C    0.179827
    92  O   -0.215234
    93  H    0.140070
    94  H    0.009147
    95  H   -0.036788
    96  H   -0.038433
    97  H   -0.030253
    98  H   -0.044710
    99  H   -0.019366
   100  H   -0.048692
   101  H    0.170464
   102  N   -0.130656
   103  C    0.142052
   104  C    0.043613
   105  O   -0.269028
   106  C   -0.069218
   107  C   -0.014433
   108  C    0.065371
   109  C    0.037376
   110  H    0.123194
   111  H    0.011611
   112  H   -0.023174
   113  H    0.027211
   114  H    0.022997
   115  H    0.008369
   116  H    0.017802
   117  H   -0.015365
   118  H    0.021600
   119  H   -0.002184
   120  H   -0.010516
   121  N   -0.131429
   122  C    0.109407
   123  C    0.115168
   124  O   -0.274293
   125  C    0.198500
   126  O   -0.296838
   127  H    0.165080
   128  H    0.018469
   129  H    0.018182
   130  H   -0.018785
   131  H    0.189897
   132  N   -0.133207
   133  C    0.090317
   134  C    0.075069
   135  O   -0.234213
   136  C    0.044725
   137  H    0.114772
   138  H    0.029229
   139  H   -0.006759
   140  H    0.046599
   141  H    0.043632
   142  N   -0.130343
   143  C    0.106861
   144  C    0.042329
   145  O   -0.297259
   146  C    0.027722
   147  H    0.094157
   148  H    0.028314
   149  H    0.017914
   150  H   -0.022550
   151  H    0.036275
   152  N   -0.137337
   153  C    0.123417
   154  C    0.059512
   155  O   -0.270144
   156  C    0.016176
   157  C    0.109173
   158  C    0.113977
   159  O   -0.405347
   160  O   -0.438336
   161  H    0.120256
   162  H   -0.043495
   163  H    0.056671
   164  H   -0.013896
   165  H   -0.050128
   166  H   -0.034077
   167  N   -0.164422
   168  C    0.131810
   169  H    0.021548
   170  H    0.031193
   171  H    0.001053
   172  H    0.126924
   173  Ca   1.265173
   174  O   -0.273575
   175  H    0.171534
   176  H    0.181097
 Sum of Mulliken charges =  -0.00000
 Mulliken charges with hydrogens summed into heavy atoms:
               1
     1  C    0.134581
     2  C   -0.001141
     3  O   -0.302772
     7  N   -0.009165
     8  C    0.124489
     9  C    0.059961
    10  O   -0.286003
    11  C    0.090198
    12  C    0.115834
    13  O   -0.386930
    14  O   -0.420470
    19  N    0.017420
    20  C    0.171983
    21  C    0.084987
    22  O   -0.299849
    23  C   -0.000743
    24  C    0.000830
    25  C    0.075031
    26  C    0.180729
    27  N    0.663255
    41  N    0.020750
    42  C    0.151376
    43  C    0.046244
    44  O   -0.295004
    45  C    0.064148
    46  C    0.122569
    47  O   -0.457465
    48  O   -0.398073
    53  N   -0.037662
    54  C    0.296735
    55  C   -0.007895
    56  O   -0.301168
    60  N   -0.030839
    61  C    0.192697
    62  C    0.038460
    63  O   -0.290776
    64  C    0.202052
    65  C    0.080441
    66  N    0.219596
    67  O   -0.364057
    74  N   -0.029741
    75  C    0.329491
    76  C    0.011921
    77  O   -0.287751
    81  N   -0.002660
    82  C    0.129584
    83  C    0.129085
    84  O   -0.323448
    85  C    0.114146
    86  C   -0.073187
    87  C    0.010064
    88  C   -0.037550
    89  C   -0.040225
    90  C   -0.081466
    91  C    0.179827
    92  O   -0.044769
   102  N   -0.007462
   103  C    0.153663
   104  C    0.043613
   105  O   -0.269028
   106  C   -0.092392
   107  C    0.035774
   108  C    0.076177
   109  C    0.046275
   121  N    0.033651
   122  C    0.127876
   123  C    0.115168
   124  O   -0.274293
   125  C    0.197898
   126  O   -0.106941
   132  N   -0.018435
   133  C    0.119546
   134  C    0.075069
   135  O   -0.234213
   136  C    0.128198
   142  N   -0.036186
   143  C    0.135174
   144  C    0.042329
   145  O   -0.297259
   146  C    0.059362
   152  N   -0.017081
   153  C    0.079923
   154  C    0.059512
   155  O   -0.270144
   156  C    0.058952
   157  C    0.024967
   158  C    0.113977
   159  O   -0.405347
   160  O   -0.438336
   167  N   -0.037498
   168  C    0.185605
   173  Ca   1.265173
   174  O    0.079056
 DipInt: DoE/N= T F RetVal/Mat= T F Init=T NMatP=  1 IDeriv=0 Min/MaxMlt=  0  4
 Entering OneElI...
 OneElI was handed  1333951383 working-precision words.
 Multipole integrals L=0 to 4 MinM= 0 MaxM= 0.
 Requested accuracy = 0.1000D-12
 ShPair: Thresh= 1.00D-13 NBox=     0 BxSize= 0.00D+00 RnKept= 2.55D+01
         NSMCal=               327645 NSMKep=              156475
 PrmmSu-InSpLW:  IPartL=    0 NPrtUS=    1 NPrtUL=    1 DoSpLW=F IThBeg=    0 IThEnd=    0 NThAct=    1.
 PrsmSu:  NPrtUS=   1 ThrOK=F IAlg=1 NPAlg=1 LenDen=           0 ISkipM=0 DoSpLW=F IThBeg=    0 IThEnd=    0.
 Prism:   IPart=     0 DynPar=F LinDyn=F Incr=         512.
 PRISM was handed  1324029283 working-precision words and156475 shell-pairs
 IPart=  0 NShTot=      156475 NBatch=         357 AvBLen=       438.3
 PrsmSu-ThDecC:  IPartSL=    0    0 NPrtUSL=    1    1 IThBeg=    0 IThEnd=    0 CPU=   -1 GPU=   -1 NThAct=    1.
 PrSmSu:  NxtVal=            513.
 Electronic moments (au):
       -716.00000000         12.87499448         -1.23597908         -6.40351072
     -52808.18210677     -35467.31400606     -10516.89671166         91.38340829
        -73.57157857         20.40482942     -22717.98585606     -38050.09435993
     -16495.59739243       8104.56598618     139140.88000725      31289.24528707
     -14699.14904963     -17231.20678723      17618.18820268     -10317.26089307
   -7550039.15075930   -3512149.73585289    -436709.08704763    -251493.51856255
     281949.79738467    -546627.82429716     105333.23319676    -118082.08575006
     -71532.77301920   -2694826.30899893    -631194.30671949    -442524.84434780
    -103459.20297864      89891.25026083     -21951.29965673
 Electronic spatial extent (au):  <R**2>=          98792.3928
 DipInt: DoE/N= F T RetVal/Mat= T F Init=T NMatP=  1 IDeriv=0 Min/MaxMlt=  0  4
 Nuclear    moments (au):
        716.00000000          0.00000000         -0.00000000          0.00000000
      52387.89900563      35119.05282263      10123.81866514         -0.00000000
          0.00000000         -0.00000000      24109.20829791      37987.91629943
      16439.08178737      -6366.11752318    -138685.15336477     -32266.26183480
      14947.38043202      17155.76035429     -17911.70712352      10167.77527175
    7358875.47444087    3397176.15718183     401902.47469117     263267.25673578
    -292263.90530898     560572.82495770    -105778.54570105     117485.06625387
      74237.36077259    2658719.90456895     596638.49705643     416724.31966627
     100751.13034092     -95996.13136991      22449.78364952
 Total      moments (au):
          0.00000000         12.87499448         -1.23597908         -6.40351072
       -420.28310114       -348.26118343       -393.07804652         91.38340829
        -73.57157857         20.40482942       1391.22244185        -62.17806050
        -56.51560507       1738.44846300        455.72664248       -977.01654774
        248.23138238        -75.44643294       -293.51892084       -149.48562132
    -191163.67631842    -114973.57867106     -34806.61235646      11773.73817323
     -10314.10792431      13945.00066054       -445.31250429       -597.01949619
       2704.58775339     -36106.40442998     -34555.80966306     -25800.52468153
      -2708.07263772      -6104.88110908        498.48399278
 Traceless Quadrup. (au):
        -33.07565744         38.94626027         -5.87060283         91.38340829
        -73.57157857         20.40482942
 Charge=              0.0000 electrons
 Dipole moment (field-independent basis, Debye):
    X=             32.7250    Y=             -3.1415    Z=            -16.2761  Tot=             36.6838
 Quadrupole moment (field-independent basis, Debye-Ang):
   XX=           -565.2952   YY=           -468.4232   ZZ=           -528.7034
   XY=            122.9138   XZ=            -98.9563   YZ=             27.4452
 Traceless Quadrupole moment (field-independent basis, Debye-Ang):
   XX=            -44.4879   YY=             52.3841   ZZ=             -7.8962
   XY=            122.9138   XZ=            -98.9563   YZ=             27.4452
 Octapole moment (field-independent basis, Debye-Ang**2):
  XXX=            990.2185  YYY=            -44.2559  ZZZ=            -40.2256  XYY=           1237.3606
  XXY=            324.3687  XXZ=           -695.4027  XZZ=            176.6815  YZZ=            -53.6999
  YYZ=           -208.9155  XYZ=           -106.3981
 Hexadecapole moment (field-independent basis, Debye-Ang**3):
 XXXX=         -72001.4071 YYYY=         -43304.5629 ZZZZ=         -13109.8392 XXXY=           4434.5544
 XXXZ=          -3884.7876 YYYX=           5252.3559 YYYZ=           -167.7260 ZZZX=           -224.8662
 ZZZY=           1018.6774 XXYY=         -13599.4033 XXZZ=         -13015.3749 YYZZ=          -9717.7148
 XXYZ=          -1019.9900 YYXZ=          -2299.3910 ZZXY=            187.7530
 N-N= 2.149814568002D+04 E-N=-5.547900692278D+04  KE= 5.290644935954D+03
 Leave Link  601 at Sat Sep 14 22:37:36 2019, MaxMem=  1342177280 cpu:              43.3 elap:               1.1
 FitSet:  NAtFit=   176 NAtPot=   176 NAtFrz=     0 MDM=   180 TotChg=   0.00000
 Merz-Kollman atomic radii used.
 Read replacement radii for each type of atom:
 Rad(20) =   1.700000000000D+00
 Atom Element Radius
    1     6    1.50
    2     6    1.50
    3     8    1.40
    4     1    1.20
    5     1    1.20
    6     1    1.20
    7     7    1.50
    8     6    1.50
    9     6    1.50
   10     8    1.40
   11     6    1.50
   12     6    1.50
   13     8    1.40
   14     8    1.40
   15     1    1.20
   16     1    1.20
   17     1    1.20
   18     1    1.20
   19     7    1.50
   20     6    1.50
   21     6    1.50
   22     8    1.40
   23     6    1.50
   24     6    1.50
   25     6    1.50
   26     6    1.50
   27     7    1.50
   28     1    1.20
   29     1    1.20
   30     1    1.20
   31     1    1.20
   32     1    1.20
   33     1    1.20
   34     1    1.20
   35     1    1.20
   36     1    1.20
   37     1    1.20
   38     1    1.20
   39     1    1.20
   40     1    1.20
   41     7    1.50
   42     6    1.50
   43     6    1.50
   44     8    1.40
   45     6    1.50
   46     6    1.50
   47     8    1.40
   48     8    1.40
   49     1    1.20
   50     1    1.20
   51     1    1.20
   52     1    1.20
   53     7    1.50
   54     6    1.50
   55     6    1.50
   56     8    1.40
   57     1    1.20
   58     1    1.20
   59     1    1.20
   60     7    1.50
   61     6    1.50
   62     6    1.50
   63     8    1.40
   64     6    1.50
   65     6    1.50
   66     7    1.50
   67     8    1.40
   68     1    1.20
   69     1    1.20
   70     1    1.20
   71     1    1.20
   72     1    1.20
   73     1    1.20
   74     7    1.50
   75     6    1.50
   76     6    1.50
   77     8    1.40
   78     1    1.20
   79     1    1.20
   80     1    1.20
   81     7    1.50
   82     6    1.50
   83     6    1.50
   84     8    1.40
   85     6    1.50
   86     6    1.50
   87     6    1.50
   88     6    1.50
   89     6    1.50
   90     6    1.50
   91     6    1.50
   92     8    1.40
   93     1    1.20
   94     1    1.20
   95     1    1.20
   96     1    1.20
   97     1    1.20
   98     1    1.20
   99     1    1.20
  100     1    1.20
  101     1    1.20
  102     7    1.50
  103     6    1.50
  104     6    1.50
  105     8    1.40
  106     6    1.50
  107     6    1.50
  108     6    1.50
  109     6    1.50
  110     1    1.20
  111     1    1.20
  112     1    1.20
  113     1    1.20
  114     1    1.20
  115     1    1.20
  116     1    1.20
  117     1    1.20
  118     1    1.20
  119     1    1.20
  120     1    1.20
  121     7    1.50
  122     6    1.50
  123     6    1.50
  124     8    1.40
  125     6    1.50
  126     8    1.40
  127     1    1.20
  128     1    1.20
  129     1    1.20
  130     1    1.20
  131     1    1.20
  132     7    1.50
  133     6    1.50
  134     6    1.50
  135     8    1.40
  136     6    1.50
  137     1    1.20
  138     1    1.20
  139     1    1.20
  140     1    1.20
  141     1    1.20
  142     7    1.50
  143     6    1.50
  144     6    1.50
  145     8    1.40
  146     6    1.50
  147     1    1.20
  148     1    1.20
  149     1    1.20
  150     1    1.20
  151     1    1.20
  152     7    1.50
  153     6    1.50
  154     6    1.50
  155     8    1.40
  156     6    1.50
  157     6    1.50
  158     6    1.50
  159     8    1.40
  160     8    1.40
  161     1    1.20
  162     1    1.20
  163     1    1.20
  164     1    1.20
  165     1    1.20
  166     1    1.20
  167     7    1.50
  168     6    1.50
  169     1    1.20
  170     1    1.20
  171     1    1.20
  172     1    1.20
  173    20    1.70
  174     8    1.40
[...]
 **** Fit      -0.049193
 **** Fit      -0.040560
 **** Fit      -0.040779
 **** Fit      -0.040470
 **** Fit      -0.039816
 **** Fit      -0.039016
 **** Fit      -0.038315
 **** Fit      -0.038020
 **** Fit      -0.038527
 **** Fit      -0.040341
 **** Fit      -0.044110
 **** Fit      -0.041620
 **** Fit      -0.041416
 **** Fit      -0.040651
 **** Fit      -0.039463
 **** Fit      -0.038041
 **** Fit      -0.036631
 **** Fit      -0.035566
 **** Fit      -0.035279
 **** Fit      -0.036348
 **** Fit      -0.039530
 **** Fit      -0.041147
 **** Fit      -0.043266
 **** Fit      -0.042636
 **** Fit      -0.041367
 **** Fit      -0.039559
 **** Fit      -0.037384
 **** Fit      -0.035090
 **** Fit      -0.033015
 **** Fit      -0.031607
 **** Fit      -0.031459
 **** Fit      -0.033341
 **** Fit      -0.038230
 **** Fit      -0.043221
 **** Fit      -0.045843
 **** Fit      -0.044783
 **** Fit      -0.042897
 **** Fit      -0.040270
 **** Fit      -0.037089
 **** Fit      -0.033638
 **** Fit      -0.030291
 **** Fit      -0.027542
 **** Fit      -0.026030
 **** Fit      -0.026561
 **** Fit      -0.030086
 **** Fit      -0.045751
 **** Fit      -0.046115
 **** Fit      -0.048463
 **** Fit      -0.045750
 **** Fit      -0.041946
 **** Fit      -0.037329
 **** Fit      -0.032275
 **** Fit      -0.027256
 **** Fit      -0.022852
 **** Fit      -0.019798
 **** Fit      -0.018975
 **** Fit      -0.021312
 **** Fit      -0.049974
 **** Fit      -0.031809
 **** Fit      -0.024675
 **** Fit      -0.018231
 **** Fit      -0.013276
 **** Fit      -0.010720
 **** Fit      -0.020301
 **** Fit       0.063619
 **** Fit       0.065117
 **** Fit       0.060279
 **** Fit       0.050466
 **** Fit       0.036833
 **** Fit       0.049454
 **** Fit       0.040872
 **** Fit       0.028005
 **** Fit       0.028054
 **** Fit       0.022004
 **** Fit      -0.046585
 **** Fit       0.018068
 **** Fit       0.016289
 **** Fit       0.013082
 **** Fit       0.008255
 **** Fit      -0.035973
 **** Fit      -0.046132
 **** Fit       0.013165
 **** Fit       0.010830
 **** Fit       0.007664
 **** Fit       0.003125
 **** Fit      -0.002916
 **** Fit      -0.010363
 **** Fit      -0.019003
 **** Fit      -0.028409
 **** Fit      -0.037995
 **** Fit      -0.047210
 **** Fit       0.013583
 **** Fit       0.009843
 **** Fit       0.006671
 **** Fit       0.003278
 **** Fit      -0.001030
 **** Fit      -0.006606
 **** Fit      -0.013450
 **** Fit      -0.021309
 **** Fit      -0.029730
 **** Fit      -0.038101
 **** Fit      -0.045627
 **** Fit      -0.050978
 **** Fit       0.016612
 **** Fit       0.019030
 **** Fit       0.022300
 **** Fit       0.018322
 **** Fit       0.007601
 **** Fit       0.003730
 **** Fit      -0.000142
 **** Fit      -0.004592
 **** Fit      -0.010071
 **** Fit      -0.016645
 **** Fit      -0.023986
 **** Fit      -0.031440
 **** Fit      -0.038019
 **** Fit      -0.042239
 **** Fit      -0.042049
 **** Fit      -0.035902
 **** Fit      -0.024823
 **** Fit      -0.012474
 **** Fit      -0.002461
 **** Fit       0.003797
 **** Fit       0.007144
 **** Fit       0.009372
 **** Fit       0.011686
 **** Fit       0.014231
 **** Fit       0.016372
 **** Fit       0.016973
 **** Fit       0.015218
 **** Fit       0.011661
 **** Fit       0.001716
 **** Fit      -0.002504
 **** Fit      -0.007328
 **** Fit      -0.013085
 **** Fit      -0.019725
 **** Fit      -0.026520
 **** Fit      -0.032047
 **** Fit      -0.034269
 **** Fit      -0.031254
 **** Fit      -0.023231
 **** Fit      -0.013432
 **** Fit      -0.005358
 **** Fit      -0.000063
 **** Fit       0.003426
 **** Fit       0.006061
 **** Fit       0.007718
 **** Fit       0.007583
 **** Fit       0.005334
 **** Fit      -0.003791
 **** Fit      -0.008622
 **** Fit      -0.014618
 **** Fit      -0.021037
 **** Fit      -0.025822
 **** Fit      -0.026036
 **** Fit      -0.020550
 **** Fit      -0.012519
 **** Fit      -0.005941
 **** Fit      -0.001800
 **** Fit       0.000110
 **** Fit      -0.000599
 **** Fit      -0.008792
 **** Fit      -0.014675
 **** Fit      -0.019556
 **** Fit      -0.017182
 **** Fit      -0.010347
 **** Fit      -0.006779
 **** Fit      -0.013255
 **** Fit      -0.003848
 **** Fit      -0.002721
 **** Fit      -0.007350
 **** Fit       0.006375
 **** Fit       0.016809
 **** Fit       0.022428
 **** Fit       0.021790
 **** Fit       0.019715
 **** Fit       0.034523
 **** Fit       0.032167
 **** Fit       0.057044
 **** Fit       0.066428
 **** Fit       0.051483
 **** Fit       0.057437
 **** Fit       0.062849
 **** Fit       0.064862
 **** Fit       0.052704
 **** Fit       0.055581
 **** Fit       0.056700
 **** Fit       0.053742
 **** Fit       0.045721
 **** Fit       0.051593
 **** Fit       0.051249
 **** Fit       0.050722
 **** Fit       0.047616
 **** Fit       0.040407
 **** Fit       0.028852
 **** Fit       0.050364
 **** Fit       0.047372
 **** Fit       0.043002
 **** Fit       0.035278
 **** Fit       0.023857
 **** Fit       0.046569
 **** Fit       0.039934
 **** Fit       0.030597
 **** Fit       0.019584
 **** Fit       0.039437
 **** Fit       0.030004
 **** Fit      -0.015678
 **** Fit      -0.015220
 **** Fit      -0.017155
 **** Fit      -0.017759
 **** Fit      -0.016084
 **** Fit      -0.013966
 **** Fit      -0.014778
 **** Fit      -0.020317
 **** Fit      -0.018729
 **** Fit      -0.012550
 **** Fit      -0.013390
 **** Fit      -0.023503
 **** Fit      -0.021705
 **** Fit      -0.011377
 **** Fit      -0.012082
 **** Fit      -0.013107
 **** Fit      -0.026829
 **** Fit      -0.024179
 **** Fit      -0.010318
 **** Fit      -0.010966
 **** Fit      -0.011856
 **** Fit      -0.012964
 **** Fit      -0.031653
 **** Fit      -0.028273
 **** Fit      -0.024735
 **** Fit      -0.009069
 **** Fit      -0.009520
 **** Fit      -0.010158
 **** Fit      -0.010986
 **** Fit      -0.011982
 **** Fit      -0.013115
 **** Fit      -0.034460
 **** Fit      -0.029735
 **** Fit      -0.025457
 **** Fit      -0.008207
 **** Fit      -0.008662
 **** Fit      -0.009299
 **** Fit      -0.010122
 **** Fit      -0.011115
 **** Fit      -0.012241
 **** Fit      -0.013464
 **** Fit      -0.036204
 **** Fit      -0.030517
 **** Fit      -0.007415
 **** Fit      -0.007879
 **** Fit      -0.008534
 **** Fit      -0.009380
 **** Fit      -0.010400
 **** Fit      -0.011559
 **** Fit      -0.012815
 **** Fit      -0.014135
 **** Fit      -0.016616
 **** Fit      -0.006549
 **** Fit      -0.007005
 **** Fit      -0.007682
 **** Fit      -0.008572
 **** Fit      -0.009654
 **** Fit      -0.010896
 **** Fit      -0.012250
 **** Fit      -0.013668
 **** Fit      -0.015120
 **** Fit      -0.018108
 **** Fit      -0.005618
 **** Fit      -0.006074
 **** Fit      -0.006800
 **** Fit      -0.014934
 **** Fit      -0.016510
 **** Fit      -0.020070
 **** Fit      -0.021877
 **** Fit      -0.004493
 **** Fit      -0.004477
 **** Fit      -0.004874
 **** Fit      -0.018373
 **** Fit      -0.022652
 **** Fit      -0.024548
 **** Fit      -0.003220
 **** Fit      -0.003200
 **** Fit      -0.027941
 **** Fit      -0.030172
 **** Fit      -0.033193
 **** Fit      -0.004248
 **** Fit      -0.002499
 **** Fit      -0.001537
 **** Fit      -0.032367
 **** Fit      -0.034316
 **** Fit      -0.037160
 **** Fit      -0.041339
 **** Fit      -0.003407
 **** Fit      -0.042288
 **** Fit      -0.046454
 **** Fit      -0.007852
 **** Fit      -0.008842
 **** Fit      -0.010139
 **** Fit      -0.011665
 **** Fit      -0.006070
 **** Fit      -0.006795
 **** Fit      -0.007900
 **** Fit      -0.009287
 **** Fit      -0.010875
 **** Fit      -0.012603
 **** Fit      -0.014439
 **** Fit      -0.018036
 **** Fit      -0.004516
 **** Fit      -0.005298
 **** Fit      -0.006559
 **** Fit      -0.008155
 **** Fit      -0.009964
 **** Fit      -0.011891
 **** Fit      -0.013884
 **** Fit      -0.015927
 **** Fit      -0.020419
 **** Fit      -0.022721
 **** Fit      -0.002627
 **** Fit      -0.003520
 **** Fit      -0.005049
 **** Fit      -0.006997
 **** Fit      -0.009180
 **** Fit      -0.011460
 **** Fit      -0.013744
 **** Fit      -0.015990
 **** Fit      -0.018200
 **** Fit      -0.023899
 **** Fit      -0.026241
 **** Fit      -0.028749
 **** Fit      -0.000853
 **** Fit      -0.002695
 **** Fit      -0.005194
 **** Fit      -0.008034
 **** Fit      -0.010984
 **** Fit      -0.013881
 **** Fit      -0.016627
 **** Fit      -0.019186
 **** Fit      -0.021585
 **** Fit      -0.004896
 **** Fit      -0.018461
 **** Fit      -0.017586
 **** Fit      -0.019947
 **** Fit      -0.021113
 **** Fit      -0.019556
 **** Fit      -0.016435
 **** Fit      -0.016971
 **** Fit      -0.019199
 **** Fit      -0.021852
 **** Fit      -0.024027
 **** Fit      -0.024608
 **** Fit      -0.023279
 **** Fit      -0.015515
 **** Fit      -0.016653
 **** Fit      -0.018687
 **** Fit      -0.021302
 **** Fit      -0.024302
 **** Fit      -0.027153
 **** Fit      -0.029042
 **** Fit      -0.029271
 **** Fit      -0.027779
 **** Fit      -0.014227
 **** Fit      -0.015192
 **** Fit      -0.016668
 **** Fit      -0.018634
 **** Fit      -0.021202
 **** Fit      -0.024394
 **** Fit      -0.028051
 **** Fit      -0.031716
 **** Fit      -0.034616
 **** Fit      -0.035896
 **** Fit      -0.035108
 **** Fit      -0.032552
 **** Fit      -0.014105
 **** Fit      -0.015197
 **** Fit      -0.017053
 **** Fit      -0.019015
 **** Fit      -0.021598
 **** Fit      -0.024926
 **** Fit      -0.029039
 **** Fit      -0.033778
 **** Fit      -0.038647
 **** Fit      -0.014386
 **** Fit      -0.015558
 **** Fit      -0.017857
 **** Fit      -0.019785
 **** Fit      -0.022323
 **** Fit      -0.025649
 **** Fit      -0.029923
 **** Fit      -0.035229
 **** Fit      -0.015153
 **** Fit      -0.016365
 **** Fit      -0.019140
 **** Fit      -0.021147
 **** Fit      -0.023825
 **** Fit      -0.027413
 **** Fit      -0.032177
 **** Fit      -0.038385
 **** Fit      -0.017591
 **** Fit      -0.020983
 **** Fit      -0.023029
 **** Fit      -0.025791
 **** Fit      -0.029551
 **** Fit      -0.034657
 **** Fit      -0.019414
 **** Fit      -0.023494
 **** Fit      -0.025595
 **** Fit      -0.028498
 **** Fit      -0.032531
 **** Fit      -0.038129
 **** Fit      -0.029030
 **** Fit      -0.032257
 **** Fit      -0.036912
 **** Fit      -0.037011
 **** Fit      -0.013329
 **** Fit      -0.013335
 **** Fit      -0.015070
 **** Fit      -0.015087
 **** Fit      -0.013328
 **** Fit      -0.011846
 **** Fit      -0.011862
 **** Fit      -0.017194
 **** Fit      -0.015376
 **** Fit      -0.013331
 **** Fit      -0.011665
 **** Fit      -0.010603
 **** Fit      -0.010244
 **** Fit      -0.010638
 **** Fit      -0.011717
 **** Fit      -0.019722
 **** Fit      -0.017653
 **** Fit      -0.015364
 **** Fit      -0.013293
 **** Fit      -0.011667
 **** Fit      -0.010451
 **** Fit      -0.009591
 **** Fit      -0.009134
 **** Fit      -0.009142
 **** Fit      -0.009619
 **** Fit      -0.010514
 **** Fit      -0.021922
 **** Fit      -0.019229
 **** Fit      -0.016499
 **** Fit      -0.010954
 **** Fit      -0.009927
 **** Fit      -0.009051
 **** Fit      -0.008412
 **** Fit      -0.008112
 **** Fit      -0.008198
 **** Fit      -0.008662
 **** Fit      -0.009456
 **** Fit      -0.022913
 **** Fit      -0.009116
 **** Fit      -0.008246
 **** Fit      -0.007597
 **** Fit      -0.007278
 **** Fit      -0.007331
 **** Fit      -0.007748
 **** Fit      -0.008476
 **** Fit      -0.008564
 **** Fit      -0.007598
 **** Fit      -0.006897
 **** Fit      -0.006542
 **** Fit      -0.006563
 **** Fit      -0.006947
 **** Fit      -0.009050
 **** Fit      -0.007716
 **** Fit      -0.006681
 **** Fit      -0.006032
 **** Fit      -0.005808
 **** Fit      -0.006017
 **** Fit      -0.008142
 **** Fit      -0.006726
 **** Fit      -0.005733
 **** Fit      -0.005204
 **** Fit      -0.005173
 **** Fit      -0.007536
 **** Fit      -0.006026
 **** Fit      -0.004977
 **** Fit      -0.004471
 **** Fit      -0.006256
 **** Fit      -0.004788
 **** Fit      -0.003923
 **** Fit      -0.005664
 **** Fit      -0.004431
 **** Fit      -0.017449
 **** Fit       0.010029
 **** Fit      -0.002484
 **** Fit      -0.017275
 **** Fit       0.012680
 **** Fit       0.011740
 **** Fit      -0.003060
 **** Fit       0.026529
 **** Fit       0.018087
 **** Fit       0.036996
 **** Fit       0.029542
 **** Fit       0.024307
 **** Fit       0.057892
 **** Fit       0.044735
 **** Fit       0.050361
 **** Fit       0.040176
 **** Fit       0.038329
 **** Fit       0.040361
 **** Fit       0.044028
 **** Fit       0.042376
 **** Fit       0.043937
 **** Fit       0.046951
 **** Fit       0.050910
 **** Fit       0.023157
 **** Fit       0.019782
 **** Fit       0.018106
 **** Fit       0.017077
 **** Fit       0.016943
 **** Fit       0.045591
 **** Fit       0.045556
 **** Fit       0.047328
 **** Fit       0.050148
 **** Fit       0.053339
 **** Fit       0.056168
 **** Fit       0.043327
 **** Fit       0.037133
 **** Fit       0.031275
 **** Fit       0.026768
 **** Fit       0.023938
 **** Fit       0.022664
 **** Fit       0.023464
 **** Fit       0.047122
 **** Fit       0.047693
 **** Fit       0.049434
 **** Fit       0.051527
 **** Fit       0.053157
 **** Fit       0.053552
 **** Fit       0.052125
 **** Fit       0.048623
 **** Fit       0.042727
 **** Fit       0.037628
 **** Fit       0.032998
 **** Fit       0.029877
 **** Fit       0.028918
 **** Fit       0.031001
 **** Fit       0.047766
 **** Fit       0.048317
 **** Fit       0.049458
 **** Fit       0.050165
 **** Fit       0.049521
 **** Fit       0.046995
 **** Fit       0.042371
 **** Fit       0.038055
 **** Fit       0.035065
 **** Fit       0.035211
 **** Fit       0.048014
 **** Fit       0.047344
 **** Fit       0.047527
 **** Fit       0.047513
 **** Fit       0.045924
 **** Fit       0.042446
 **** Fit       0.039570
 **** Fit       0.041297
 **** Fit       0.044993
 **** Fit       0.045814
 **** Fit       0.045228
 **** Fit       0.043196
 **** Fit       0.035920
 **** Fit       0.038118
 **** Fit       0.037849
 **** Fit       0.040028
 **** Fit       0.042867
 **** Fit       0.046823
 **** Fit       0.040231
 **** Fit       0.042521
 **** Fit       0.045380
 **** Fit       0.049072
 **** Fit       0.053853
 **** Fit       0.041939
 **** Fit       0.041826
 **** Fit       0.042850
 **** Fit       0.044650
 **** Fit       0.047111
 **** Fit       0.050286
 **** Fit       0.054272
 **** Fit       0.046805
 **** Fit       0.046580
 **** Fit       0.047717
 **** Fit       0.049845
 **** Fit       0.052813
 **** Fit       0.056539
 **** Fit       0.050797
 **** Fit       0.050806
 **** Fit       0.052245
 **** Fit       0.054694
 **** Fit       0.057830
 **** Fit       0.054252
 **** Fit       0.054170
 **** Fit       0.055631
 **** Fit       0.057879
 **** Fit       0.056554
 **** Fit       0.057546
 **** Fit       0.058342
 -----------------------------------------------------------------
 Leave Link  602 at Sat Sep 14 22:37:38 2019, MaxMem=  1342177280 cpu:             106.2 elap:               2.3

 Test job not archived.
 1\1\GINC-C506-081\SP\RB3LYP\SVP\C54H83Ca1N15O23\PENGZHI\14-Sep-2019\0\
 \#b3lyp/svp scf=(tight,noincore) Test #IOP(5/87=12) Density=Current Po
 p=(MK,readradii) iop(6/33=2) iop(6/42=6)\\holoCaM_loop3_103.0\\0,1\C,0
 ,65.17,47.59,20.68\C,0,64.85,48.11,22.08\O,0,65.36,47.63,23.09\H,0,66.
 206,47.252,20.647\H,0,64.508,46.757,20.441\H,0,65.026,48.389,19.953\N,
 0,63.93,49.07,22.18\C,0,63.38,49.71,23.36\C,0,61.95,49.29,23.65\O,0,61
 .1,49.6,22.81\C,0,63.6,51.22,23.36\C,0,63.12,51.98,24.59\O,0,63.44,53.
 17,24.77\O,0,62.56,51.3,25.47\H,0,63.61,49.42,21.28\H,0,63.92,49.34,24
 .23\H,0,63.08,51.64,22.49\H,0,64.66,51.37,23.17\N,0,61.76,48.61,24.78\
 C,0,60.55,48.01,25.31\C,0,59.48,49.,25.74\O,0,58.38,48.58,26.08\C,0,60
 .83,47.13,26.53\C,0,61.69,45.9,26.23\C,0,61.56,45.04,27.48\C,0,62.35,4
 3.75,27.24\N,0,63.8,44.01,27.21\H,0,62.53,48.4,25.4\H,0,60.17,47.34,24
 .55\H,0,59.85,46.77,26.86\H,0,61.25,47.59,27.41\H,0,62.7,46.26,26.01\H
 ,0,61.3,45.45,25.32\H,0,60.53,44.68,27.57\H,0,61.98,45.43,28.41\H,0,61
 .97,43.28,26.33\H,0,62.15,43.09,28.08\H,0,64.14,44.48,26.39\H,0,64.15,
 44.55,27.99\H,0,64.26,43.12,27.34\N,0,59.71,50.3,25.54\C,0,58.77,51.38
 ,25.75\C,0,58.99,52.61,24.89\O,0,58.21,53.56,24.93\C,0,58.65,51.76,27.
 23\C,0,59.8,52.49,27.91\O,0,60.89,52.74,27.35\O,0,59.76,52.64,29.15\H,
 0,60.67,50.62,25.48\H,0,57.82,50.95,25.45\H,0,58.33,50.81,27.66\H,0,57
 .73,52.33,27.33\N,0,60.09,52.77,24.15\C,0,60.47,53.9,23.32\C,0,60.44,5
 5.22,24.08\O,0,59.92,56.19,23.53\H,0,60.69,51.95,24.18\H,0,59.92,54.,2
 2.38\H,0,61.47,53.65,22.99\N,0,60.74,55.25,25.38\C,0,60.48,56.36,26.28
 \C,0,61.44,57.52,26.07\O,0,61.49,58.36,26.96\C,0,60.22,55.91,27.71\C,0
 ,61.47,55.64,28.54\N,0,61.54,56.04,29.81\O,0,62.48,55.22,27.98\H,0,61.
 14,54.39,25.73\H,0,59.52,56.68,25.87\H,0,59.64,54.99,27.65\H,0,59.59,5
 6.65,28.19\H,0,60.68,55.98,30.34\H,0,62.34,55.64,30.28\N,0,62.24,57.65
 ,25.\C,0,63.2,58.68,24.65\C,0,64.61,58.43,25.17\O,0,65.56,59.14,24.87\
 H,0,62.08,56.91,24.33\H,0,62.81,59.61,25.06\H,0,63.34,58.71,23.57\N,0,
 64.74,57.36,25.95\C,0,65.92,56.9,26.67\C,0,66.17,55.41,26.51\O,0,65.27
 ,54.58,26.5\C,0,65.73,57.28,28.13\C,0,65.52,58.76,28.34\C,0,64.3,59.34
 ,28.7\C,0,66.53,59.66,27.97\C,0,64.05,60.7,28.85\C,0,66.32,61.04,28.05
 \C,0,65.07,61.57,28.42\O,0,64.84,62.92,28.44\H,0,63.93,56.76,26.01\H,0
 ,66.74,57.47,26.22\H,0,66.5,56.88,28.79\H,0,64.84,56.83,28.58\H,0,63.6
 1,58.65,29.17\H,0,67.49,59.3,27.63\H,0,63.1,61.05,29.23\H,0,67.16,61.6
 7,27.78\H,0,65.53,63.5,28.13\N,0,67.42,54.96,26.63\C,0,67.85,53.58,26.
 73\C,0,68.68,53.43,28.\O,0,69.6,54.21,28.23\C,0,68.45,53.23,25.37\C,0,
 67.33,52.79,24.44\C,0,69.54,52.18,25.56\C,0,67.81,52.43,23.04\H,0,68.1
 4,55.66,26.77\H,0,67.03,52.88,26.85\H,0,68.94,54.1,24.93\H,0,66.53,53.
 53,24.34\H,0,66.8,51.94,24.87\H,0,70.,51.91,24.6\H,0,70.3,52.4,26.31\H
 ,0,69.06,51.25,25.88\H,0,68.09,51.38,22.92\H,0,67.07,52.65,22.28\H,0,6
 8.63,53.09,22.76\N,0,68.4,52.32,28.7\C,0,69.13,51.86,29.86\C,0,70.29,5
 0.95,29.46\O,0,70.26,50.44,28.34\C,0,68.19,51.1,30.78\O,0,67.76,49.93,
 30.12\H,0,67.68,51.69,28.38\H,0,69.47,52.67,30.5\H,0,67.34,51.68,31.14
 \H,0,68.67,50.74,31.69\H,0,67.17,49.47,30.71\N,0,71.24,50.59,30.32\C,0
 ,72.22,49.58,30.01\C,0,71.53,48.28,29.62\O,0,71.89,47.65,28.63\C,0,73.
 15,49.55,31.22\H,0,71.29,51.05,31.22\H,0,72.82,50.,29.2\H,0,72.53,49.3
 5,32.09\H,0,73.84,48.72,31.12\H,0,73.63,50.53,31.27\N,0,70.6,47.78,30.
 44\C,0,69.89,46.54,30.19\C,0,69.02,46.58,28.95\O,0,68.95,45.52,28.32\C
 ,0,69.02,46.21,31.4\H,0,70.29,48.36,31.2\H,0,70.55,45.68,30.11\H,0,69.
 55,46.32,32.35\H,0,68.16,46.87,31.45\H,0,68.7,45.17,31.27\N,0,68.6,47.
 72,28.4\C,0,68.,47.92,27.09\C,0,69.09,47.94,26.03\O,0,69.04,47.19,25.0
 6\C,0,67.16,49.19,27.\C,0,65.84,48.95,27.73\C,0,64.96,50.19,27.72\O,0,
 64.06,50.38,28.56\O,0,65.22,51.11,26.91\H,0,68.65,48.52,29.02\H,0,67.3
 4,47.07,26.89\H,0,67.,49.38,25.94\H,0,67.72,50.02,27.43\H,0,66.05,48.5
 7,28.73\H,0,65.23,48.2,27.22\N,0,70.16,48.7,26.26\C,0,71.43,48.54,25.5
 6\H,0,72.209,48.282,26.277\H,0,71.34,47.745,24.82\H,0,71.691,49.474,25
 .061\H,0,70.13,49.31,27.06\Ca,0,63.53,52.84,27.53\O,0,65.1,53.88,29.33
 \H,0,64.48,54.17,30.\H,0,65.96,54.06,29.71\\Version=ES64L-G16RevA.03\S
 tate=1-A\HF=-5333.5311238\RMSD=4.446e-09\Dipole=5.7893654,-10.4837849,
 8.0542895\Quadrupole=-103.9695947,82.5851355,21.3844591,72.5311383,30.
 038117,-17.2048261\PG=C01 [X(C54H83Ca1N15O23)]\\@


 NO SCIENCE HAS EVER MADE MORE RAPID PROGRESS IN A
 SHORTER TIME THAN CHEMISTRY.
   -- MARTIN HEINRICH KLOPROTH, 1791
 (FIRST PROFESSOR OF CHEMISTRY AT THE UNIVERSITY OF BERLIN)
 Job cpu time:       0 days  8 hours 30 minutes 41.7 seconds.
 Elapsed time:       0 days  0 hours 10 minutes 45.6 seconds.
 File lengths (MBytes):  RWF=   1517 Int=      0 D2E=      0 Chk=    171 Scr=      1
 Normal termination of Gaussian 16 at Sat Sep 14 22:37:39 2019.
