 Entering Gaussian System, Link 0=g16
 Initial command:
 /home1/apps/gaussian/16rA.03/g16/l1.exe "/scratch/01990/pengzhi/4328670/Gau-220818.inp" -scrdir="/scratch/01990/pengzhi/4328670/"
 Entering Link 1 = /home1/apps/gaussian/16rA.03/g16/l1.exe PID=    220824.
  
 Copyright (c) 1988,1990,1992,1993,1995,1998,2003,2009,2016,
            Gaussian, Inc.  All Rights Reserved.
  
 This is part of the Gaussian(R) 16 program.  It is based on
 the Gaussian(R) 09 system (copyright 2009, Gaussian, Inc.),
 the Gaussian(R) 03 system (copyright 2003, Gaussian, Inc.),
 the Gaussian(R) 98 system (copyright 1998, Gaussian, Inc.),
 the Gaussian(R) 94 system (copyright 1995, Gaussian, Inc.),
 the Gaussian 92(TM) system (copyright 1992, Gaussian, Inc.),
 the Gaussian 90(TM) system (copyright 1990, Gaussian, Inc.),
 the Gaussian 88(TM) system (copyright 1988, Gaussian, Inc.),
 the Gaussian 86(TM) system (copyright 1986, Carnegie Mellon
 University), and the Gaussian 82(TM) system (copyright 1983,
 Carnegie Mellon University). Gaussian is a federally registered
 trademark of Gaussian, Inc.
  
 This software contains proprietary and confidential information,
 including trade secrets, belonging to Gaussian, Inc.
  
 This software is provided under written license and may be
 used, copied, transmitted, or stored only in accord with that
 written license.
  
 The following legend is applicable only to US Government
 contracts under FAR:
  
                    RESTRICTED RIGHTS LEGEND
  
 Use, reproduction and disclosure by the US Government is
 subject to restrictions as set forth in subparagraphs (a)
 and (c) of the Commercial Computer Software - Restricted
 Rights clause in FAR 52.227-19.
  
 Gaussian, Inc.
 340 Quinnipiac St., Bldg. 40, Wallingford CT 06492
  
  
 ---------------------------------------------------------------
 Warning -- This program may not be used in any manner that
 competes with the business of Gaussian, Inc. or will provide
 assistance to any competitor of Gaussian, Inc.  The licensee
 of this program is prohibited from giving any competitor of
 Gaussian, Inc. access to this program.  By using this program,
 the user acknowledges that Gaussian, Inc. is engaged in the
 business of creating and licensing software in the field of
 computational chemistry and represents and warrants to the
 licensee that it is not a competitor of Gaussian, Inc. and that
 it will not use this program in any manner prohibited above.
 ---------------------------------------------------------------
  

 Cite this work as:
 Gaussian 16, Revision A.03,
 M. J. Frisch, G. W. Trucks, H. B. Schlegel, G. E. Scuseria, 
 M. A. Robb, J. R. Cheeseman, G. Scalmani, V. Barone, 
 G. A. Petersson, H. Nakatsuji, X. Li, M. Caricato, A. V. Marenich, 
 J. Bloino, B. G. Janesko, R. Gomperts, B. Mennucci, H. P. Hratchian, 
 J. V. Ortiz, A. F. Izmaylov, J. L. Sonnenberg, D. Williams-Young, 
 F. Ding, F. Lipparini, F. Egidi, J. Goings, B. Peng, A. Petrone, 
 T. Henderson, D. Ranasinghe, V. G. Zakrzewski, J. Gao, N. Rega, 
 G. Zheng, W. Liang, M. Hada, M. Ehara, K. Toyota, R. Fukuda, 
 J. Hasegawa, M. Ishida, T. Nakajima, Y. Honda, O. Kitao, H. Nakai, 
 T. Vreven, K. Throssell, J. A. Montgomery, Jr., J. E. Peralta, 
 F. Ogliaro, M. J. Bearpark, J. J. Heyd, E. N. Brothers, K. N. Kudin, 
 V. N. Staroverov, T. A. Keith, R. Kobayashi, J. Normand, 
 K. Raghavachari, A. P. Rendell, J. C. Burant, S. S. Iyengar, 
 J. Tomasi, M. Cossi, J. M. Millam, M. Klene, C. Adamo, R. Cammi, 
 J. W. Ochterski, R. L. Martin, K. Morokuma, O. Farkas, 
 J. B. Foresman, and D. J. Fox, Gaussian, Inc., Wallingford CT, 2016.
 
 ******************************************
 Gaussian 16:  ES64L-G16RevA.03 25-Dec-2016
                14-Sep-2019 
 ******************************************
 %chk=holoCaM_loop3_68.0.chk
 %nprocshared=48
 Will use up to   48 processors via shared memory.
 %mem=10GB
 %nosave
 ----------------------------------------------------------------------
 #b3lyp/svp scf=(tight,noincore) Test #IOP(5/87=12) Density=Current Pop
 =(MK,readradii) iop(6/33=2) iop(6/42=6)
 ----------------------------------------------------------------------
 1/30=1,38=1,172=1/1;
 2/12=2,17=6,18=5,40=1/2;
 3/5=18,7=101,11=2,25=1,30=1,74=-5/1,2,3;
 4//1;
 5/5=4,32=2,38=5,87=12/2;
 6/7=2,8=2,9=2,10=2,15=8,20=101,22=-1,28=1,33=2,42=6/1,2;
 99/5=1,9=1/99;
 ------------------
 holoCaM_loop3_68.0
 ------------------
 Symbolic Z-matrix:
 Charge =  0 Multiplicity = 1
 C                     46.04     51.91     46.33 
 C                     46.64     51.63     47.7 
 O                     45.89     51.59     48.68 
 H                     45.15     52.529    46.443 
 H                     46.77     52.434    45.713 
 H                     45.769    50.969    45.852 
 N                     47.96     51.55     47.88 
 C                     48.59     51.3      49.16 
 C                     48.89     52.61     49.88 
 O                     49.97     53.16     49.68 
 C                     49.84     50.43     49.07 
 C                     50.5      50.27     50.43 
 O                     49.96     50.68     51.49 
 O                     51.55     49.61     50.55 
 H                     48.52     51.59     47.04 
 H                     47.93     50.72     49.8 
 H                     50.55     50.92     48.4 
 H                     49.44     49.46     48.77 
 N                     47.95     53.08     50.7 
 C                     47.8      54.41     51.25 
 C                     49.01     54.9      52.03 
 O                     49.34     56.08     51.88 
 C                     46.54     54.42     52.1 
 C                     46.03     55.86     52.17 
 C                     44.84     55.88     53.13 
 C                     44.42     57.33     53.35 
 N                     43.16     57.42     54.11 
 H                     47.32     52.36     51.04 
 H                     47.59     55.09     50.43 
 H                     46.66     53.94     53.07 
 H                     45.76     53.86     51.58 
 H                     45.68     56.15     51.18 
 H                     46.81     56.53     52.53 
 H                     45.22     55.42     54.04 
 H                     44.01     55.32     52.69 
 H                     44.23     57.7      52.35 
 H                     45.19     57.94     53.83 
 H                     43.32     56.98     55.01 
 H                     42.86     58.36     54.3 
 H                     42.41     56.99     53.59 
 N                     49.61     54.05     52.86 
 C                     50.8      54.31     53.65 
 C                     52.07     53.72     53.08 
 O                     53.14     54.12     53.53 
 C                     50.48     53.88     55.08 
 C                     49.86     52.5      55.26 
 O                     49.76     52.08     56.44 
 O                     49.59     51.8      54.27 
 H                     49.32     53.08     52.83 
 H                     51.02     55.38     53.65 
 H                     49.72     54.54     55.5 
 H                     51.44     53.94     55.59 
 N                     51.97     52.76     52.16 
 C                     53.13     52.2      51.49 
 C                     53.93     51.26     52.38 
 O                     55.04     51.58     52.8 
 H                     51.09     52.33     51.92 
 H                     53.85     53.01     51.39 
 H                     52.86     51.73     50.54 
 N                     53.23     50.23     52.87 
 C                     53.76     49.14     53.67 
 C                     53.87     47.81     52.94 
 O                     54.42     46.83     53.43 
 C                     52.94     49.01     54.96 
 C                     51.63     48.27     54.76 
 N                     51.33     47.24     55.55 
 O                     50.76     48.5      53.92 
 H                     52.37     50.02     52.38 
 H                     54.72     49.44     54.09 
 H                     52.9      49.95     55.49 
 H                     53.54     48.39     55.63 
 H                     51.92     46.82     56.26 
 H                     50.38     46.91     55.61 
 N                     53.32     47.72     51.73 
 C                     53.48     46.61     50.8 
 C                     52.15     45.91     50.58 
 O                     52.11     44.97     49.78 
 H                     52.82     48.54     51.43 
 H                     54.05     45.75     51.15 
 H                     53.86     46.81     49.8 
 N                     51.13     46.3      51.34 
 C                     49.84     45.63     51.34 
 C                     48.68     46.6      51.23 
 O                     48.83     47.78     51.54 
 C                     49.63     44.68     52.51 
 C                     50.65     43.57     52.67 
 C                     51.87     43.9      53.27 
 C                     50.52     42.35     51.99 
 C                     52.88     42.93     53.35 
 C                     51.5      41.36     52.12 
 C                     52.67     41.63     52.87 
 O                     53.7      40.74     52.99 
 H                     51.3      47.01     52.04 
 H                     49.78     44.9      50.53 
 H                     48.64     44.23     52.46 
 H                     49.7      45.36     53.35 
 H                     52.02     44.91     53.64 
 H                     49.58     42.14     51.5 
 H                     53.83     43.08     53.84 
 H                     51.4      40.38     51.67 
 H                     53.51     39.91     52.54 
 N                     47.52     46.16     50.74 
 C                     46.3      46.93     50.61 
 C                     45.32     46.19     51.52 
 O                     45.28     44.97     51.55 
 C                     45.92     46.98     49.13 
 C                     46.82     47.88     48.3 
 C                     44.52     47.53     48.91 
 C                     46.93     47.51     46.82 
 H                     47.42     45.18     50.49 
 H                     46.45     47.94     50.98 
 H                     45.96     45.95     48.77 
 H                     47.82     47.83     48.73 
 H                     46.48     48.91     48.43 
 H                     44.16     47.5      47.88 
 H                     43.73     47.12     49.54 
 H                     44.53     48.57     49.23 
 H                     46.03     47.51     46.21 
 H                     47.74     48.13     46.44 
 H                     47.3      46.49     46.71 
 N                     44.48     46.97     52.21 
 C                     43.43     46.5      53.08 
 C                     42.06     46.95     52.57 
 O                     41.98     47.7      51.61 
 C                     43.55     47.14     54.46 
 O                     43.42     48.55     54.45 
 H                     44.55     47.98     52.13 
 H                     43.38     45.41     53.04 
 H                     44.52     46.88     54.89 
 H                     42.79     46.78     55.15 
 H                     43.56     48.97     55.3 
 N                     40.96     46.54     53.21 
 C                     39.62     46.93     52.81 
 C                     39.42     48.41     53.12 
 O                     38.95     49.11     52.23 
 C                     38.6      46.02     53.49 
 H                     41.04     45.91     53.99 
 H                     39.47     46.77     51.74 
 H                     38.88     44.97     53.56 
 H                     38.38     46.5      54.44 
 H                     37.68     45.95     52.91 
 N                     39.94     48.92     54.24 
 C                     39.88     50.33     54.54 
 C                     40.57     51.21     53.5 
 O                     40.35     52.41     53.57 
 C                     40.6      50.53     55.88 
 H                     40.38     48.29     54.9 
 H                     38.84     50.66     54.56 
 H                     41.68     50.4      55.77 
 H                     40.3      51.48     56.32 
 H                     40.26     49.8      56.61 
 N                     41.49     50.67     52.7 
 C                     42.35     51.28     51.7 
 C                     41.86     51.07     50.28 
 O                     41.91     51.96     49.43 
 C                     43.73     50.68     51.97 
 C                     44.42     51.33     53.16 
 C                     45.85     50.84     53.13 
 O                     46.47     50.66     52.06 
 O                     46.37     50.7      54.26 
 H                     41.59     49.66     52.73 
 H                     42.34     52.35     51.9 
 H                     44.37     50.75     51.09 
 H                     43.6      49.62     52.15 
 H                     43.89     51.24     54.12 
 H                     44.39     52.38     52.88 
 N                     41.1      50.02     49.99 
 C                     40.29     50.       48.79 
 H                     39.399    50.608    48.944 
 H                     40.865    50.403    47.956 
 H                     39.995    48.975    48.567 
 H                     41.21     49.28     50.67 
 Ca                    48.62     49.67     53.39 
 O                     48.79     49.63     56.08 
 H                     49.28     50.39     56.39 
 H                     48.37     49.27     56.87 
 
 Stoichiometry    C54H83CaN15O23
 Framework group  C1[X(C54H83CaN15O23)]
 Deg. of freedom   522
 Full point group                 C1      NOp   1
 Largest Abelian subgroup         C1      NOp   1
 Largest concise Abelian subgroup C1      NOp   1
                         Standard orientation:                         
 ---------------------------------------------------------------------
 Center     Atomic      Atomic             Coordinates (Angstroms)
 Number     Number       Type             X           Y           Z
 ---------------------------------------------------------------------
      1          6           0        2.081537    1.583736    5.867506
      2          6           0        1.407234    1.544211    4.504035
      3          8           0        2.103010    1.349974    3.502703
      4          1           0        3.104679    1.942694    5.756329
      5          1           0        1.531339    2.255474    6.526456
      6          1           0        2.093172    0.582370    6.297082
      7          7           0        0.112788    1.834342    4.357631
      8          6           0       -0.580839    1.827409    3.086162
      9          6           0       -0.523527    3.203136    2.431493
     10          8           0       -1.409693    4.015182    2.684852
     11          6           0       -2.019047    1.326010    3.173664
     12          6           0       -2.718234    1.417629    1.826985
     13          8           0       -2.103119    1.716840    0.770857
     14          8           0       -3.910010    1.074042    1.708170
     15          1           0       -0.402322    1.983836    5.213851
     16          1           0       -0.113590    1.121962    2.403797
     17          1           0       -2.558462    1.957054    3.883534
     18          1           0       -1.893908    0.270432    3.420637
     19          7           0        0.496399    3.439760    1.606472
     20          6           0        0.994667    4.704292    1.109897
     21          6           0       -0.047784    5.541714    0.385590
     22          8           0       -0.041544    6.758219    0.595063
     23          6           0        2.196688    4.413363    0.226322
     24          6           0        3.078548    5.662529    0.203795
     25          6           0        4.214280    5.405572   -0.787258
     26          6           0        5.010002    6.696088   -0.956654
     27          7           0        6.235182    6.477670   -1.746924
     28          1           0        0.901202    2.593260    1.218563
     29          1           0        1.394383    5.260966    1.952062
     30          1           0        1.935763    4.031820   -0.759600
     31          1           0        2.802438    3.638032    0.699956
     32          1           0        3.509293    5.798040    1.195156
     33          1           0        2.505192    6.535797   -0.105342
     34          1           0        3.709577    5.110895   -1.705158
     35          1           0        4.866919    4.620570   -0.394913
     36          1           0        5.308762    6.951435    0.052574
     37          1           0        4.428100    7.514817   -1.388480
     38          1           0        5.947733    6.142021   -2.660112
     39          1           0        6.776983    7.309065   -1.904829
     40          1           0        6.847484    5.835441   -1.266894
     41          7           0       -0.869166    4.927968   -0.462965
     42          6           0       -1.955182    5.539366   -1.207654
     43          6           0       -3.329072    5.289144   -0.628244
     44          8           0       -4.256343    5.985974   -1.030732
     45          6           0       -1.786161    5.108887   -2.663099
     46          6           0       -1.568341    3.622892   -2.919168
     47          8           0       -1.604456    3.249549   -4.118380
     48          8           0       -1.484247    2.828497   -1.967923
     49          1           0       -0.853951    3.915405   -0.482575
     50          1           0       -1.875357    6.627592   -1.155756
     51          1           0       -0.881578    5.557502   -3.075499
     52          1           0       -2.701136    5.451969   -3.143116
     53          7           0       -3.480417    4.294381    0.246708
     54          6           0       -4.738790    4.038266    0.924206
     55          6           0       -5.778012    3.395215    0.017452
     56          8           0       -6.765103    4.024540   -0.357382
     57          1           0       -2.747297    3.630517    0.443481
     58          1           0       -5.209304    5.007401    1.078785
     59          1           0       -4.592649    3.466904    1.845340
     60          7           0       -5.392588    2.239047   -0.535471
     61          6           0       -6.211549    1.374144   -1.366282
     62          6           0       -6.668603    0.089982   -0.691057
     63          8           0       -7.472136   -0.678867   -1.207009
     64          6           0       -5.477650    1.089507   -2.683010
     65          6           0       -4.415898    0.012907   -2.551427
     66          7           0       -4.419851   -1.020076   -3.392813
     67          8           0       -3.503502   -0.043076   -1.726928
     68          1           0       -4.614985    1.779896   -0.079057
     69          1           0       -7.059779    1.943534   -1.746151
     70          1           0       -5.191145    2.008040   -3.173227
     71          1           0       -6.233950    0.689045   -3.361937
     72          1           0       -5.112655   -1.229057   -4.103411
     73          1           0       -3.596699   -1.592193   -3.493322
     74          7           0       -6.145623   -0.204779    0.498190
     75          6           0       -6.587814   -1.273649    1.383958
     76          6           0       -5.495621   -2.318203    1.536669
     77          8           0       -5.701063   -3.271608    2.294304
     78          1           0       -5.436663    0.433104    0.818940
     79          1           0       -7.375774   -1.928545    1.013513
     80          1           0       -6.883739   -1.027009    2.401798
     81          7           0       -4.419612   -2.183114    0.765918
     82          6           0       -3.361068   -3.177252    0.701313
     83          6           0       -1.979169   -2.565051    0.820336
     84          8           0       -1.806739   -1.374979    0.565392
     85          6           0       -3.435581   -4.090388   -0.513647
     86          6           0       -4.721688   -4.872721   -0.692494
     87          6           0       -5.814613   -4.195155   -1.243600
     88          6           0       -4.918640   -6.113848   -0.069186
     89          6           0       -7.051747   -4.849529   -1.336841
     90          6           0       -6.133120   -6.793152   -0.214053
     91          6           0       -7.196563   -6.179519   -0.918924
     92          8           0       -8.431753   -6.749616   -1.048134
     93          1           0       -4.400375   -1.420383    0.101937
     94          1           0       -3.489911   -3.934714    1.477361
     95          1           0       -2.604966   -4.794071   -0.510547
     96          1           0       -3.330435   -3.376811   -1.321516
     97          1           0       -5.689403   -3.165567   -1.565737
     98          1           0       -4.064072   -6.594711    0.384999
     99          1           0       -7.932281   -4.423625   -1.793314
    100          1           0       -6.297046   -7.784231    0.190656
    101          1           0       -8.468232   -7.620938   -0.639516
    102          7           0       -0.975602   -3.326707    1.258552
    103          6           0        0.409842   -2.924011    1.387322
    104          6           0        1.137268   -3.856945    0.419548
    105          8           0        0.842955   -5.039039    0.336290
    106          6           0        0.811507   -3.051221    2.856942
    107          6           0        0.203418   -1.982304    3.749435
    108          6           0        2.311558   -2.913236    3.061168
    109          6           0        0.019260   -2.380241    5.214744
    110          1           0       -1.142564   -4.308038    1.463522
    111          1           0        0.535052   -1.894424    1.065185
    112          1           0        0.497906   -4.047978    3.173531
    113          1           0       -0.778790   -1.738000    3.345722
    114          1           0        0.809128   -1.078178    3.654186
    115          1           0        2.665359   -3.089982    4.078511
    116          1           0        2.950337   -3.491044    2.392439
    117          1           0        2.580388   -1.895246    2.786348
    118          1           0        0.894373   -2.654239    5.798870
    119          1           0       -0.585348   -1.582961    5.643339
    120          1           0       -0.612892   -3.265637    5.291283
    121          7           0        2.147408   -3.301535   -0.259596
    122          6           0        3.016336   -3.995885   -1.177824
    123          6           0        4.464685   -3.960016   -0.687417
    124          8           0        4.760527   -3.307597    0.301181
    125          6           0        3.054288   -3.280866   -2.525306
    126          8           0        3.563606   -1.961302   -2.458632
    127          1           0        2.356412   -2.315594   -0.134549
    128          1           0        2.768119   -5.059145   -1.185892
    129          1           0        2.043736   -3.246563   -2.938837
    130          1           0        3.676915   -3.799546   -3.250983
    131          1           0        3.530430   -1.478159   -3.285658
    132          7           0        5.401552   -4.621472   -1.374772
    133          6           0        6.803025   -4.629773   -0.995952
    134          6           0        7.393900   -3.246324   -1.247817
    135          8           0        8.050263   -2.744404   -0.342133
    136          6           0        7.526114   -5.748183   -1.742412
    137          1           0        5.141130   -5.167316   -2.178473
    138          1           0        6.919987   -4.876434    0.061629
    139          1           0        6.969643   -6.678068   -1.849430
    140          1           0        7.854107   -5.300197   -2.676773
    141          1           0        8.400944   -6.093432   -1.191799
    142          7           0        7.015559   -2.560376   -2.330052
    143          6           0        7.452829   -1.206703   -2.571023
    144          6           0        7.044511   -0.224242   -1.475512
    145          8           0        7.581994    0.872937   -1.500223
    146          6           0        6.794290   -0.753732   -3.880658
    147          1           0        6.410617   -3.014363   -3.003878
    148          1           0        8.542964   -1.170785   -2.605862
    149          1           0        5.721520   -0.590935   -3.746267
    150          1           0        7.335021    0.099461   -4.287810
    151          1           0        6.911452   -1.512127   -4.650405
    152          7           0        6.024454   -0.532605   -0.674016
    153          6           0        5.378428    0.238413    0.374736
    154          6           0        5.814182   -0.165647    1.770248
    155          8           0        6.021424    0.661988    2.658601
    156          6           0        3.883239    0.049376    0.117879
    157          6           0        3.378423    0.919447   -1.023539
    158          6           0        1.869650    0.835093   -0.974689
    159          8           0        1.240377    0.778190    0.103493
    160          8           0        1.314091    0.896729   -2.094714
    161          1           0        5.652658   -1.474845   -0.744391
    162          1           0        5.676492    1.273963    0.220486
    163          1           0        3.299944    0.247469    1.017560
    164          1           0        3.716820   -0.996038   -0.110848
    165          1           0        3.849230    0.735883   -2.000906
    166          1           0        3.697566    1.906949   -0.699829
    167          7           0        6.263719   -1.395342    1.993781
    168          6           0        7.055753   -1.692894    3.168789
    169          1           0        8.076238   -1.342783    3.016168
    170          1           0        6.625006   -1.190110    4.034962
    171          1           0        7.063724   -2.769089    3.339436
    172          1           0        5.945989   -2.043653    1.286081
    173         20           0       -1.117927    0.474921   -1.207207
    174          8           0       -1.333198    0.613725   -3.890673
    175          1           0       -1.602281    1.492358   -4.154107
    176          1           0       -1.039189    0.192197   -4.706745
 ---------------------------------------------------------------------
 Rotational constants (GHZ):           0.0229954           0.0153589           0.0117016
 Standard basis: SVP (5D, 7F)
 There are  1809 symmetry adapted cartesian basis functions of A   symmetry.
 There are  1717 symmetry adapted basis functions of A   symmetry.
  1717 basis functions,  2922 primitive gaussians,  1809 cartesian basis functions
   358 alpha electrons      358 beta electrons
       nuclear repulsion energy     21717.9342389073 Hartrees.
 NAtoms=  176 NActive=  176 NUniq=  176 SFac= 1.00D+00 NAtFMM=   60 NAOKFM=T Big=T
 Integral buffers will be    131072 words long.
 Raffenetti 2 integral format.
 Two-electron integral symmetry is turned on.
 One-electron integrals computed using PRISM.
 NBasis=  1717 RedAO= T EigKep=  2.84D-04  NBF=  1717
 NBsUse=  1717 1.00D-06 EigRej= -1.00D+00 NBFU=  1717
 ExpMin= 1.98D-02 ExpMax= 3.51D+04 ExpMxC= 5.28D+03 IAcc=3 IRadAn=         5 AccDes= 0.00D+00
 Harris functional with IExCor=  402 and IRadAn=       5 diagonalized for initial guess.
 HarFok:  IExCor=  402 AccDes= 0.00D+00 IRadAn=         5 IDoV= 1 UseB2=F ITyADJ=14
 ICtDFT=  3500011 ScaDFX=  1.000000  1.000000  1.000000  1.000000
 FoFCou: FMM=F IPFlag=           0 FMFlag=      100000 FMFlg1=        2001
         NFxFlg=           0 DoJE=T BraDBF=F KetDBF=T FulRan=T
         wScrn=  0.000000 ICntrl=       500 IOpCl=  0 I1Cent=   200000004 NGrid=           0
         NMat0=    1 NMatS0=      1 NMatT0=    0 NMatD0=    1 NMtDS0=    0 NMtDT0=    0
 Petite list used in FoFCou.
 Requested convergence on RMS density matrix=1.00D-08 within 128 cycles.
 Requested convergence on MAX density matrix=1.00D-06.
 Requested convergence on             energy=1.00D-06.
 No special actions if energy rises.
 EnCoef did     4 forward-backward iterations
 SCF Done:  E(RB3LYP) =  -5333.59537542     A.U. after   18 cycles
            NFock= 18  Conv=0.74D-08     -V/T= 2.0081
 SCF density gives NOpUse=  1 NOpAll=  1.
 Hyperfine terms turned off by default for NAtoms > 100.

 **********************************************************************

            Population analysis using the SCF density.

 **********************************************************************

 Orbital symmetries:
 BldTbl:  Degeneracy threshold= 1.00D-02
       Occupied  (A) (A) (A) (A) (A) (A) (A) (A) (A) (A) (A) (A)
                 (A) (A) (A) (A) (A) (A) (A) (A) (A) (A) (A) (A)
                 (A) (A) (A) (A) (A) (A) (A) (A) (A) (A) (A) (A)
                 (A) (A) (A) (A) (A) (A) (A) (A) (A) (A) (A) (A)
                 (A) (A) (A) (A) (A) (A) (A) (A) (A) (A) (A) (A)
                 (A) (A) (A) (A) (A) (A) (A) (A) (A) (A) (A) (A)
                 (A) (A) (A) (A) (A) (A) (A) (A) (A) (A) (A) (A)
                 (A) (A) (A) (A) (A) (A) (A) (A) (A) (A) (A) (A)
                 (A) (A) (A) (A) (A) (A) (A) (A) (A) (A) (A) (A)
                 (A) (A) (A) (A) (A) (A) (A) (A) (A) (A) (A) (A)
                 (A) (A) (A) (A) (A) (A) (A) (A) (A) (A) (A) (A)
                 (A) (A) (A) (A) (A) (A) (A) (A) (A) (A) (A) (A)
                 (A) (A) (A) (A) (A) (A) (A) (A) (A) (A) (A) (A)
                 (A) (A) (A) (A) (A) (A) (A) (A) (A) (A) (A) (A)
                 (A) (A) (A) (A) (A) (A) (A) (A) (A) (A) (A) (A)
                 (A) (A) (A) (A) (A) (A) (A) (A) (A) (A) (A) (A)
                 (A) (A) (A) (A) (A) (A) (A) (A) (A) (A) (A) (A)
                 (A) (A) (A) (A) (A) (A) (A) (A) (A) (A) (A) (A)
                 (A) (A) (A) (A) (A) (A) (A) (A) (A) (A) (A) (A)
                 (A) (A) (A) (A) (A) (A) (A) (A) (A) (A) (A) (A)
                 (A) (A) (A) (A) (A) (A) (A) (A) (A) (A) (A) (A)
                 (A) (A) (A) (A) (A) (A) (A) (A) (A) (A) (A) (A)
                 (A) (A) (A) (A) (A) (A) (A) (A) (A) (A) (A) (A)
                 (A) (A) (A) (A) (A) (A) (A) (A) (A) (A) (A) (A)
                 (A) (A) (A) (A) (A) (A) (A) (A) (A) (A) (A) (A)
                 (A) (A) (A) (A) (A) (A) (A) (A) (A) (A) (A) (A)
                 (A) (A) (A) (A) (A) (A) (A) (A) (A) (A) (A) (A)
                 (A) (A) (A) (A) (A) (A) (A) (A) (A) (A) (A) (A)
                 (A) (A) (A) (A) (A) (A) (A) (A) (A) (A) (A) (A)
                 (A) (A) (A) (A) (A) (A) (A) (A) (A) (A)
       Virtual   (A) (A) (A) (A) (A) (A) (A) (A) (A) (A) (A) (A)
                 (A) (A) (A) (A) (A) (A) (A) (A) (A) (A) (A) (A)
                 (A) (A) (A) (A) (A) (A) (A) (A) (A) (A) (A) (A)
                 (A) (A) (A) (A) (A) (A) (A) (A) (A) (A) (A) (A)
                 (A) (A) (A) (A) (A) (A) (A) (A) (A) (A) (A) (A)
                 (A) (A) (A) (A) (A) (A) (A) (A) (A) (A) (A) (A)
                 (A) (A) (A) (A) (A) (A) (A) (A) (A) (A) (A) (A)
                 (A) (A) (A) (A) (A) (A) (A) (A) (A) (A) (A) (A)
                 (A) (A) (A) (A) (A) (A) (A) (A) (A) (A) (A) (A)
                 (A) (A) (A) (A) (A) (A) (A) (A) (A) (A) (A) (A)
                 (A) (A) (A) (A) (A) (A) (A) (A) (A) (A) (A) (A)
                 (A) (A) (A) (A) (A) (A) (A) (A) (A) (A) (A) (A)
                 (A) (A) (A) (A) (A) (A) (A) (A) (A) (A) (A) (A)
                 (A) (A) (A) (A) (A) (A) (A) (A) (A) (A) (A) (A)
                 (A) (A) (A) (A) (A) (A) (A) (A) (A) (A) (A) (A)
                 (A) (A) (A) (A) (A) (A) (A) (A) (A) (A) (A) (A)
                 (A) (A) (A) (A) (A) (A) (A) (A) (A) (A) (A) (A)
                 (A) (A) (A) (A) (A) (A) (A) (A) (A) (A) (A) (A)
                 (A) (A) (A) (A) (A) (A) (A) (A) (A) (A) (A) (A)
                 (A) (A) (A) (A) (A) (A) (A) (A) (A) (A) (A) (A)
                 (A) (A) (A) (A) (A) (A) (A) (A) (A) (A) (A) (A)
                 (A) (A) (A) (A) (A) (A) (A) (A) (A) (A) (A) (A)
                 (A) (A) (A) (A) (A) (A) (A) (A) (A) (A) (A) (A)
                 (A) (A) (A) (A) (A) (A) (A) (A) (A) (A) (A) (A)
                 (A) (A) (A) (A) (A) (A) (A) (A) (A) (A) (A) (A)
                 (A) (A) (A) (A) (A) (A) (A) (A) (A) (A) (A) (A)
                 (A) (A) (A) (A) (A) (A) (A) (A) (A) (A) (A) (A)
                 (A) (A) (A) (A) (A) (A) (A) (A) (A) (A) (A) (A)
                 (A) (A) (A) (A) (A) (A) (A) (A) (A) (A) (A) (A)
                 (A) (A) (A) (A) (A) (A) (A) (A) (A) (A) (A) (A)
                 (A) (A) (A) (A) (A) (A) (A) (A) (A) (A) (A) (A)
                 (A) (A) (A) (A) (A) (A) (A) (A) (A) (A) (A) (A)
                 (A) (A) (A) (A) (A) (A) (A) (A) (A) (A) (A) (A)
                 (A) (A) (A) (A) (A) (A) (A) (A) (A) (A) (A) (A)
                 (A) (A) (A) (A) (A) (A) (A) (A) (A) (A) (A) (A)
                 (A) (A) (A) (A) (A) (A) (A) (A) (A) (A) (A) (A)
                 (A) (A) (A) (A) (A) (A) (A) (A) (A) (A) (A) (A)
                 (A) (A) (A) (A) (A) (A) (A) (A) (A) (A) (A) (A)
                 (A) (A) (A) (A) (A) (A) (A) (A) (A) (A) (A) (A)
                 (A) (A) (A) (A) (A) (A) (A) (A) (A) (A) (A) (A)
                 (A) (A) (A) (A) (A) (A) (A) (A) (A) (A) (A) (A)
                 (A) (A) (A) (A) (A) (A) (A) (A) (A) (A) (A) (A)
                 (A) (A) (A) (A) (A) (A) (A) (A) (A) (A) (A) (A)
                 (A) (A) (A) (A) (A) (A) (A) (A) (A) (A) (A) (A)
                 (A) (A) (A) (A) (A) (A) (A) (A) (A) (A) (A) (A)
                 (A) (A) (A) (A) (A) (A) (A) (A) (A) (A) (A) (A)
                 (A) (A) (A) (A) (A) (A) (A) (A) (A) (A) (A) (A)
                 (A) (A) (A) (A) (A) (A) (A) (A) (A) (A) (A) (A)
                 (A) (A) (A) (A) (A) (A) (A) (A) (A) (A) (A) (A)
                 (A) (A) (A) (A) (A) (A) (A) (A) (A) (A) (A) (A)
                 (A) (A) (A) (A) (A) (A) (A) (A) (A) (A) (A) (A)
                 (A) (A) (A) (A) (A) (A) (A) (A) (A) (A) (A) (A)
                 (A) (A) (A) (A) (A) (A) (A) (A) (A) (A) (A) (A)
                 (A) (A) (A) (A) (A) (A) (A) (A) (A) (A) (A) (A)
                 (A) (A) (A) (A) (A) (A) (A) (A) (A) (A) (A) (A)
                 (A) (A) (A) (A) (A) (A) (A) (A) (A) (A) (A) (A)
                 (A) (A) (A) (A) (A) (A) (A) (A) (A) (A) (A) (A)
                 (A) (A) (A) (A) (A) (A) (A) (A) (A) (A) (A) (A)
                 (A) (A) (A) (A) (A) (A) (A) (A) (A) (A) (A) (A)
                 (A) (A) (A) (A) (A) (A) (A) (A) (A) (A) (A) (A)
                 (A) (A) (A) (A) (A) (A) (A) (A) (A) (A) (A) (A)
                 (A) (A) (A) (A) (A) (A) (A) (A) (A) (A) (A) (A)
                 (A) (A) (A) (A) (A) (A) (A) (A) (A) (A) (A) (A)
                 (A) (A) (A) (A) (A) (A) (A) (A) (A) (A) (A) (A)
                 (A) (A) (A) (A) (A) (A) (A) (A) (A) (A) (A) (A)
                 (A) (A) (A) (A) (A) (A) (A) (A) (A) (A) (A) (A)
                 (A) (A) (A) (A) (A) (A) (A) (A) (A) (A) (A) (A)
                 (A) (A) (A) (A) (A) (A) (A) (A) (A) (A) (A) (A)
                 (A) (A) (A) (A) (A) (A) (A) (A) (A) (A) (A) (A)
                 (A) (A) (A) (A) (A) (A) (A) (A) (A) (A) (A) (A)
                 (A) (A) (A) (A) (A) (A) (A) (A) (A) (A) (A) (A)
                 (A) (A) (A) (A) (A) (A) (A) (A) (A) (A) (A) (A)
                 (A) (A) (A) (A) (A) (A) (A) (A) (A) (A) (A) (A)
                 (A) (A) (A) (A) (A) (A) (A) (A) (A) (A) (A) (A)
                 (A) (A) (A) (A) (A) (A) (A) (A) (A) (A) (A) (A)
                 (A) (A) (A) (A) (A) (A) (A) (A) (A) (A) (A) (A)
                 (A) (A) (A) (A) (A) (A) (A) (A) (A) (A) (A) (A)
                 (A) (A) (A) (A) (A) (A) (A) (A) (A) (A) (A) (A)
                 (A) (A) (A) (A) (A) (A) (A) (A) (A) (A) (A) (A)
                 (A) (A) (A) (A) (A) (A) (A) (A) (A) (A) (A) (A)
                 (A) (A) (A) (A) (A) (A) (A) (A) (A) (A) (A) (A)
                 (A) (A) (A) (A) (A) (A) (A) (A) (A) (A) (A) (A)
                 (A) (A) (A) (A) (A) (A) (A) (A) (A) (A) (A) (A)
                 (A) (A) (A) (A) (A) (A) (A) (A) (A) (A) (A) (A)
                 (A) (A) (A) (A) (A) (A) (A) (A) (A) (A) (A) (A)
                 (A) (A) (A) (A) (A) (A) (A) (A) (A) (A) (A) (A)
                 (A) (A) (A) (A) (A) (A) (A) (A) (A) (A) (A) (A)
                 (A) (A) (A) (A) (A) (A) (A) (A) (A) (A) (A) (A)
                 (A) (A) (A) (A) (A) (A) (A) (A) (A) (A) (A) (A)
                 (A) (A) (A) (A) (A) (A) (A) (A) (A) (A) (A) (A)
                 (A) (A) (A) (A) (A) (A) (A) (A) (A) (A) (A) (A)
                 (A) (A) (A) (A) (A) (A) (A) (A) (A) (A) (A) (A)
                 (A) (A) (A) (A) (A) (A) (A) (A) (A) (A) (A) (A)
                 (A) (A) (A) (A) (A) (A) (A) (A) (A) (A) (A) (A)
                 (A) (A) (A) (A) (A) (A) (A) (A) (A) (A) (A) (A)
                 (A) (A) (A) (A) (A) (A) (A) (A) (A) (A) (A) (A)
                 (A) (A) (A) (A) (A) (A) (A) (A) (A) (A) (A) (A)
                 (A) (A) (A) (A) (A) (A) (A) (A) (A) (A) (A) (A)
                 (A) (A) (A) (A) (A) (A) (A) (A) (A) (A) (A) (A)
                 (A) (A) (A) (A) (A) (A) (A) (A) (A) (A) (A) (A)
                 (A) (A) (A) (A) (A) (A) (A) (A) (A) (A) (A) (A)
                 (A) (A) (A) (A) (A) (A) (A) (A) (A) (A) (A) (A)
                 (A) (A) (A) (A) (A) (A) (A) (A) (A) (A) (A) (A)
                 (A) (A) (A) (A) (A) (A) (A) (A) (A) (A) (A) (A)
                 (A) (A) (A) (A) (A) (A) (A) (A) (A) (A) (A) (A)
                 (A) (A) (A) (A) (A) (A) (A) (A) (A) (A) (A) (A)
                 (A) (A) (A) (A) (A) (A) (A) (A) (A) (A) (A) (A)
                 (A) (A) (A) (A) (A) (A) (A) (A) (A) (A) (A) (A)
                 (A) (A) (A) (A) (A) (A) (A) (A) (A) (A) (A) (A)
                 (A) (A) (A) (A) (A) (A) (A) (A) (A) (A) (A) (A)
                 (A) (A) (A) (A) (A) (A) (A) (A) (A) (A) (A) (A)
                 (A) (A) (A) (A) (A) (A) (A) (A) (A) (A) (A) (A)
                 (A) (A) (A) (A) (A) (A) (A) (A) (A) (A) (A) (A)
                 (A) (A) (A)
 The electronic state is 1-A.
 Alpha  occ. eigenvalues -- -145.35205 -19.18228 -19.15308 -19.14872 -19.12347
 Alpha  occ. eigenvalues --  -19.12110 -19.12108 -19.11654 -19.10397 -19.09380
 Alpha  occ. eigenvalues --  -19.07681 -19.06523 -19.06502 -19.06330 -19.06099
 Alpha  occ. eigenvalues --  -19.05999 -19.05612 -19.05002 -19.04328 -19.03839
 Alpha  occ. eigenvalues --  -19.03742 -19.03693 -19.02824 -19.02230 -15.41003
 Alpha  occ. eigenvalues --  -14.57981 -14.40660 -14.38870 -14.38420 -14.37148
 Alpha  occ. eigenvalues --  -14.36444 -14.34898 -14.33788 -14.33206 -14.31889
 Alpha  occ. eigenvalues --  -14.31834 -14.31020 -14.29746 -14.29557 -14.28467
 Alpha  occ. eigenvalues --  -12.54621 -12.54576 -12.54545 -10.34022 -10.33145
 Alpha  occ. eigenvalues --  -10.30830 -10.30679 -10.30676 -10.30339 -10.29012
 Alpha  occ. eigenvalues --  -10.28441 -10.28123 -10.27043 -10.26106 -10.26063
 Alpha  occ. eigenvalues --  -10.25840 -10.25612 -10.25348 -10.25200 -10.24815
 Alpha  occ. eigenvalues --  -10.24271 -10.24055 -10.23933 -10.23831 -10.23794
 Alpha  occ. eigenvalues --  -10.23028 -10.23011 -10.22388 -10.22170 -10.22144
 Alpha  occ. eigenvalues --  -10.22068 -10.21967 -10.21497 -10.20900 -10.20745
 Alpha  occ. eigenvalues --  -10.19882 -10.19843 -10.19542 -10.19473 -10.19361
 Alpha  occ. eigenvalues --  -10.19358 -10.19135 -10.18423 -10.18196 -10.17975
 Alpha  occ. eigenvalues --  -10.17926 -10.17812 -10.17466 -10.17414 -10.17336
 Alpha  occ. eigenvalues --  -10.17284 -10.17228 -10.17131 -10.16812 -10.15902
 Alpha  occ. eigenvalues --  -10.15795 -10.13702  -1.77983  -1.13235  -1.08748
 Alpha  occ. eigenvalues --   -1.06181  -1.06003  -1.05858  -1.05640  -1.05567
 Alpha  occ. eigenvalues --   -1.05302  -1.04561  -1.04466  -1.03689  -1.02649
 Alpha  occ. eigenvalues --   -1.01612  -1.00117  -1.00047  -0.99721  -0.99310
 Alpha  occ. eigenvalues --   -0.98986  -0.98522  -0.98147  -0.97584  -0.97429
 Alpha  occ. eigenvalues --   -0.96725  -0.96397  -0.95630  -0.95408  -0.95360
 Alpha  occ. eigenvalues --   -0.94048  -0.92150  -0.91772  -0.90650  -0.90422
 Alpha  occ. eigenvalues --   -0.89537  -0.89169  -0.88941  -0.88235  -0.88099
 Alpha  occ. eigenvalues --   -0.87858  -0.87856  -0.86943  -0.86766  -0.84752
 Alpha  occ. eigenvalues --   -0.83790  -0.83516  -0.82029  -0.80553  -0.80305
 Alpha  occ. eigenvalues --   -0.79180  -0.78580  -0.78141  -0.76891  -0.75941
 Alpha  occ. eigenvalues --   -0.74776  -0.74279  -0.73152  -0.72975  -0.72692
 Alpha  occ. eigenvalues --   -0.72602  -0.72273  -0.71437  -0.71040  -0.70982
 Alpha  occ. eigenvalues --   -0.70591  -0.70088  -0.68994  -0.68028  -0.67824
 Alpha  occ. eigenvalues --   -0.66722  -0.66461  -0.65437  -0.65001  -0.64306
 Alpha  occ. eigenvalues --   -0.63195  -0.62796  -0.62763  -0.62599  -0.62416
 Alpha  occ. eigenvalues --   -0.61284  -0.61020  -0.60988  -0.60530  -0.60281
 Alpha  occ. eigenvalues --   -0.59579  -0.59241  -0.58750  -0.57797  -0.57603
 Alpha  occ. eigenvalues --   -0.57234  -0.56961  -0.56815  -0.56285  -0.56258
 Alpha  occ. eigenvalues --   -0.55741  -0.55463  -0.55067  -0.54968  -0.54730
 Alpha  occ. eigenvalues --   -0.54066  -0.53937  -0.53680  -0.53486  -0.52974
 Alpha  occ. eigenvalues --   -0.52835  -0.52168  -0.51760  -0.51719  -0.51343
 Alpha  occ. eigenvalues --   -0.51039  -0.50885  -0.50757  -0.50384  -0.50049
 Alpha  occ. eigenvalues --   -0.49528  -0.49378  -0.49153  -0.49017  -0.48873
 Alpha  occ. eigenvalues --   -0.48574  -0.48424  -0.47988  -0.47930  -0.47596
 Alpha  occ. eigenvalues --   -0.47532  -0.47328  -0.47222  -0.46963  -0.46494
 Alpha  occ. eigenvalues --   -0.46004  -0.45896  -0.45508  -0.45291  -0.45248
 Alpha  occ. eigenvalues --   -0.45138  -0.44761  -0.44665  -0.44461  -0.44310
 Alpha  occ. eigenvalues --   -0.44245  -0.44102  -0.43821  -0.43551  -0.43421
 Alpha  occ. eigenvalues --   -0.43245  -0.43226  -0.43131  -0.43029  -0.42847
 Alpha  occ. eigenvalues --   -0.42785  -0.42565  -0.42377  -0.42290  -0.42077
 Alpha  occ. eigenvalues --   -0.41952  -0.41545  -0.41519  -0.41378  -0.41207
 Alpha  occ. eigenvalues --   -0.41162  -0.41028  -0.40952  -0.40642  -0.40572
 Alpha  occ. eigenvalues --   -0.40447  -0.40288  -0.40075  -0.40017  -0.39811
 Alpha  occ. eigenvalues --   -0.39746  -0.39475  -0.39405  -0.39203  -0.39124
 Alpha  occ. eigenvalues --   -0.39019  -0.38903  -0.38832  -0.38664  -0.38573
 Alpha  occ. eigenvalues --   -0.38482  -0.38227  -0.38206  -0.37864  -0.37789
 Alpha  occ. eigenvalues --   -0.37562  -0.37314  -0.37220  -0.37088  -0.36996
 Alpha  occ. eigenvalues --   -0.36838  -0.36450  -0.36387  -0.36102  -0.36079
 Alpha  occ. eigenvalues --   -0.35873  -0.35672  -0.35450  -0.35302  -0.35289
 Alpha  occ. eigenvalues --   -0.35056  -0.35050  -0.34846  -0.34520  -0.34208
 Alpha  occ. eigenvalues --   -0.33735  -0.33670  -0.33583  -0.33388  -0.33225
 Alpha  occ. eigenvalues --   -0.32988  -0.32955  -0.32815  -0.32701  -0.32679
 Alpha  occ. eigenvalues --   -0.32615  -0.32195  -0.32015  -0.31922  -0.31840
 Alpha  occ. eigenvalues --   -0.31635  -0.31537  -0.30824  -0.30412  -0.29986
 Alpha  occ. eigenvalues --   -0.29535  -0.29484  -0.29034  -0.28666  -0.28600
 Alpha  occ. eigenvalues --   -0.28032  -0.27564  -0.27418  -0.27240  -0.26537
 Alpha  occ. eigenvalues --   -0.25407  -0.25193  -0.25115  -0.24796  -0.24671
 Alpha  occ. eigenvalues --   -0.24550  -0.24031  -0.23783  -0.23300  -0.22883
 Alpha  occ. eigenvalues --   -0.22766  -0.22668  -0.22414  -0.22166  -0.22063
 Alpha  occ. eigenvalues --   -0.21488  -0.21343  -0.21154  -0.20971  -0.20910
 Alpha  occ. eigenvalues --   -0.20659  -0.20518  -0.20291  -0.20056  -0.19044
 Alpha  occ. eigenvalues --   -0.18743  -0.18471  -0.17356
 Alpha virt. eigenvalues --   -0.09958  -0.03890  -0.03465  -0.03080  -0.02309
 Alpha virt. eigenvalues --   -0.01413  -0.01053  -0.00569  -0.00376  -0.00205
 Alpha virt. eigenvalues --   -0.00042   0.00385   0.01191   0.01667   0.01818
 Alpha virt. eigenvalues --    0.02169   0.03565   0.03641   0.03977   0.04070
 Alpha virt. eigenvalues --    0.04209   0.04391   0.04577   0.04684   0.04945
 Alpha virt. eigenvalues --    0.05605   0.05644   0.05652   0.05763   0.06060
 Alpha virt. eigenvalues --    0.06208   0.06482   0.06749   0.06884   0.07041
 Alpha virt. eigenvalues --    0.07147   0.07317   0.07608   0.07732   0.08083
 Alpha virt. eigenvalues --    0.08215   0.08398   0.08521   0.08691   0.08757
 Alpha virt. eigenvalues --    0.09132   0.09530   0.09581   0.09801   0.09982
 Alpha virt. eigenvalues --    0.10091   0.10496   0.10615   0.10865   0.10935
 Alpha virt. eigenvalues --    0.11205   0.11319   0.11415   0.11571   0.11845
 Alpha virt. eigenvalues --    0.12077   0.12200   0.12467   0.12636   0.12845
 Alpha virt. eigenvalues --    0.13311   0.13510   0.13633   0.13827   0.13886
 Alpha virt. eigenvalues --    0.13916   0.13957   0.14231   0.14465   0.14685
 Alpha virt. eigenvalues --    0.14832   0.14950   0.14994   0.15137   0.15315
 Alpha virt. eigenvalues --    0.15507   0.15683   0.15811   0.16019   0.16171
 Alpha virt. eigenvalues --    0.16535   0.16768   0.16790   0.17041   0.17306
 Alpha virt. eigenvalues --    0.17490   0.17607   0.17844   0.17999   0.18152
 Alpha virt. eigenvalues --    0.18397   0.18468   0.18618   0.18738   0.19035
 Alpha virt. eigenvalues --    0.19087   0.19151   0.19217   0.19671   0.19723
 Alpha virt. eigenvalues --    0.20060   0.20204   0.20394   0.20616   0.20963
 Alpha virt. eigenvalues --    0.21039   0.21727   0.21846   0.22045   0.22158
 Alpha virt. eigenvalues --    0.22249   0.22414   0.22766   0.22802   0.23152
 Alpha virt. eigenvalues --    0.23230   0.23458   0.23653   0.23825   0.23948
 Alpha virt. eigenvalues --    0.24074   0.24232   0.24428   0.24640   0.24829
 Alpha virt. eigenvalues --    0.25045   0.25280   0.25498   0.25730   0.26087
 Alpha virt. eigenvalues --    0.26198   0.26406   0.26533   0.26846   0.26944
 Alpha virt. eigenvalues --    0.27118   0.27376   0.27677   0.27827   0.28047
 Alpha virt. eigenvalues --    0.28511   0.28708   0.28926   0.29007   0.29254
 Alpha virt. eigenvalues --    0.29450   0.29749   0.29865   0.29994   0.30362
 Alpha virt. eigenvalues --    0.30632   0.30807   0.31298   0.31346   0.31544
 Alpha virt. eigenvalues --    0.31900   0.31946   0.32104   0.32318   0.32368
 Alpha virt. eigenvalues --    0.32905   0.33261   0.33448   0.33779   0.34364
 Alpha virt. eigenvalues --    0.34538   0.35184   0.35294   0.35513   0.35691
 Alpha virt. eigenvalues --    0.35954   0.36210   0.36412   0.36548   0.36935
 Alpha virt. eigenvalues --    0.37233   0.37568   0.37782   0.37990   0.38338
 Alpha virt. eigenvalues --    0.38610   0.38643   0.39057   0.39594   0.40043
 Alpha virt. eigenvalues --    0.40113   0.40208   0.40670   0.40822   0.41136
 Alpha virt. eigenvalues --    0.41186   0.41342   0.41576   0.41617   0.42120
 Alpha virt. eigenvalues --    0.42455   0.42515   0.42571   0.42970   0.43348
 Alpha virt. eigenvalues --    0.43456   0.43632   0.44096   0.44320   0.44472
 Alpha virt. eigenvalues --    0.44550   0.44716   0.44944   0.45050   0.45238
 Alpha virt. eigenvalues --    0.45508   0.45613   0.45810   0.46126   0.46483
 Alpha virt. eigenvalues --    0.46622   0.46928   0.47029   0.47164   0.47339
 Alpha virt. eigenvalues --    0.47513   0.47718   0.48035   0.48239   0.48372
 Alpha virt. eigenvalues --    0.48591   0.48785   0.48915   0.49167   0.49456
 Alpha virt. eigenvalues --    0.49687   0.49826   0.49965   0.50128   0.50335
 Alpha virt. eigenvalues --    0.50453   0.50921   0.51012   0.51241   0.51592
 Alpha virt. eigenvalues --    0.51709   0.52272   0.52383   0.52764   0.52842
 Alpha virt. eigenvalues --    0.52875   0.53031   0.53291   0.53406   0.53469
 Alpha virt. eigenvalues --    0.53791   0.53807   0.53973   0.54338   0.54500
 Alpha virt. eigenvalues --    0.54594   0.54818   0.54967   0.55092   0.55228
 Alpha virt. eigenvalues --    0.55511   0.55660   0.55738   0.55833   0.55934
 Alpha virt. eigenvalues --    0.56011   0.56137   0.56267   0.56494   0.56560
 Alpha virt. eigenvalues --    0.56861   0.57339   0.57671   0.57946   0.57976
 Alpha virt. eigenvalues --    0.58054   0.58141   0.58668   0.58787   0.58991
 Alpha virt. eigenvalues --    0.59086   0.59385   0.59484   0.59636   0.59711
 Alpha virt. eigenvalues --    0.59767   0.59806   0.60083   0.60200   0.60310
 Alpha virt. eigenvalues --    0.60508   0.60646   0.60749   0.60999   0.61054
 Alpha virt. eigenvalues --    0.61210   0.61309   0.61414   0.61569   0.61633
 Alpha virt. eigenvalues --    0.61687   0.61947   0.62000   0.62320   0.62438
 Alpha virt. eigenvalues --    0.62571   0.62590   0.62790   0.62890   0.63061
 Alpha virt. eigenvalues --    0.63476   0.63598   0.63662   0.63833   0.63857
 Alpha virt. eigenvalues --    0.63912   0.64008   0.64080   0.64214   0.64280
 Alpha virt. eigenvalues --    0.64402   0.64532   0.64647   0.64760   0.64932
 Alpha virt. eigenvalues --    0.65037   0.65117   0.65446   0.65526   0.65569
 Alpha virt. eigenvalues --    0.65769   0.65782   0.66144   0.66235   0.66420
 Alpha virt. eigenvalues --    0.66507   0.66592   0.66689   0.66776   0.66945
 Alpha virt. eigenvalues --    0.67026   0.67202   0.67369   0.67386   0.67589
 Alpha virt. eigenvalues --    0.67695   0.67797   0.67879   0.67931   0.68131
 Alpha virt. eigenvalues --    0.68237   0.68263   0.68475   0.68560   0.68751
 Alpha virt. eigenvalues --    0.68934   0.69022   0.69089   0.69179   0.69396
 Alpha virt. eigenvalues --    0.69515   0.69697   0.69720   0.69857   0.69970
 Alpha virt. eigenvalues --    0.70126   0.70342   0.70399   0.70648   0.70695
 Alpha virt. eigenvalues --    0.70727   0.70962   0.71142   0.71204   0.71286
 Alpha virt. eigenvalues --    0.71310   0.71626   0.71667   0.71771   0.71872
 Alpha virt. eigenvalues --    0.71888   0.71999   0.72302   0.72394   0.72624
 Alpha virt. eigenvalues --    0.72779   0.73015   0.73178   0.73220   0.73396
 Alpha virt. eigenvalues --    0.73663   0.73726   0.73926   0.73948   0.74157
 Alpha virt. eigenvalues --    0.74409   0.74563   0.74738   0.75104   0.75370
 Alpha virt. eigenvalues --    0.75440   0.75589   0.75770   0.75823   0.76008
 Alpha virt. eigenvalues --    0.76139   0.76233   0.76602   0.76787   0.76930
 Alpha virt. eigenvalues --    0.77155   0.77424   0.77697   0.77916   0.78131
 Alpha virt. eigenvalues --    0.78483   0.78731   0.78892   0.79187   0.79248
 Alpha virt. eigenvalues --    0.79349   0.79724   0.79910   0.80277   0.80661
 Alpha virt. eigenvalues --    0.81070   0.81330   0.81493   0.81689   0.82026
 Alpha virt. eigenvalues --    0.82153   0.82325   0.82769   0.83053   0.83179
 Alpha virt. eigenvalues --    0.83383   0.83688   0.83889   0.84041   0.84232
 Alpha virt. eigenvalues --    0.84469   0.85068   0.85200   0.85631   0.85885
 Alpha virt. eigenvalues --    0.86154   0.86252   0.86919   0.87036   0.87459
 Alpha virt. eigenvalues --    0.87556   0.88252   0.88527   0.88736   0.88885
 Alpha virt. eigenvalues --    0.89074   0.89498   0.89840   0.90150   0.90372
 Alpha virt. eigenvalues --    0.90646   0.90876   0.91105   0.91787   0.91863
 Alpha virt. eigenvalues --    0.91933   0.92557   0.92989   0.93148   0.93570
 Alpha virt. eigenvalues --    0.93685   0.94160   0.94554   0.94754   0.95056
 Alpha virt. eigenvalues --    0.95537   0.95684   0.95872   0.96085   0.96326
 Alpha virt. eigenvalues --    0.96552   0.96845   0.97311   0.97422   0.97744
 Alpha virt. eigenvalues --    0.98001   0.98148   0.98478   0.98723   0.98983
 Alpha virt. eigenvalues --    0.99526   0.99611   0.99680   0.99769   0.99942
 Alpha virt. eigenvalues --    1.00314   1.00343   1.00941   1.01331   1.01874
 Alpha virt. eigenvalues --    1.02126   1.02281   1.02795   1.03117   1.03513
 Alpha virt. eigenvalues --    1.03877   1.04138   1.04457   1.04763   1.04884
 Alpha virt. eigenvalues --    1.05102   1.05564   1.05784   1.05898   1.05949
 Alpha virt. eigenvalues --    1.06170   1.06692   1.06927   1.07077   1.07498
 Alpha virt. eigenvalues --    1.08181   1.08325   1.08549   1.08648   1.09042
 Alpha virt. eigenvalues --    1.09163   1.09318   1.09796   1.09914   1.10003
 Alpha virt. eigenvalues --    1.10482   1.10723   1.11231   1.11428   1.11522
 Alpha virt. eigenvalues --    1.11967   1.12150   1.12382   1.12695   1.13079
 Alpha virt. eigenvalues --    1.13505   1.14065   1.14304   1.14645   1.14719
 Alpha virt. eigenvalues --    1.15204   1.15451   1.15777   1.15984   1.16440
 Alpha virt. eigenvalues --    1.16689   1.17018   1.17227   1.17670   1.17898
 Alpha virt. eigenvalues --    1.18178   1.18314   1.18593   1.19003   1.19259
 Alpha virt. eigenvalues --    1.19652   1.19967   1.20420   1.20695   1.20762
 Alpha virt. eigenvalues --    1.20914   1.21017   1.21249   1.21398   1.21720
 Alpha virt. eigenvalues --    1.22058   1.22453   1.22672   1.22816   1.23050
 Alpha virt. eigenvalues --    1.23117   1.23286   1.23691   1.23984   1.24120
 Alpha virt. eigenvalues --    1.24345   1.24719   1.24961   1.25102   1.25399
 Alpha virt. eigenvalues --    1.25667   1.25755   1.26056   1.26524   1.26577
 Alpha virt. eigenvalues --    1.26998   1.27340   1.27525   1.28030   1.28215
 Alpha virt. eigenvalues --    1.28566   1.28657   1.28905   1.29048   1.29371
 Alpha virt. eigenvalues --    1.29480   1.29647   1.29983   1.30272   1.30439
 Alpha virt. eigenvalues --    1.30610   1.30928   1.31081   1.31439   1.31668
 Alpha virt. eigenvalues --    1.32087   1.32497   1.32534   1.32724   1.33072
 Alpha virt. eigenvalues --    1.33175   1.33501   1.33627   1.34028   1.34318
 Alpha virt. eigenvalues --    1.34377   1.34752   1.35272   1.35599   1.35961
 Alpha virt. eigenvalues --    1.36046   1.36279   1.36520   1.36554   1.36706
 Alpha virt. eigenvalues --    1.37459   1.37863   1.37929   1.38094   1.38250
 Alpha virt. eigenvalues --    1.38444   1.38766   1.39011   1.39160   1.39456
 Alpha virt. eigenvalues --    1.39960   1.40000   1.40609   1.40803   1.41181
 Alpha virt. eigenvalues --    1.41645   1.42175   1.42436   1.43170   1.43260
 Alpha virt. eigenvalues --    1.43698   1.43956   1.44032   1.44125   1.44583
 Alpha virt. eigenvalues --    1.44919   1.45245   1.45485   1.45592   1.46026
 Alpha virt. eigenvalues --    1.46241   1.46457   1.46533   1.47349   1.47602
 Alpha virt. eigenvalues --    1.47835   1.48062   1.48321   1.48679   1.48858
 Alpha virt. eigenvalues --    1.49152   1.49300   1.49563   1.49929   1.50302
 Alpha virt. eigenvalues --    1.50484   1.50887   1.51226   1.51503   1.51911
 Alpha virt. eigenvalues --    1.52051   1.52476   1.52545   1.53034   1.53145
 Alpha virt. eigenvalues --    1.53508   1.54087   1.54409   1.54489   1.54601
 Alpha virt. eigenvalues --    1.54661   1.55361   1.55728   1.56030   1.56320
 Alpha virt. eigenvalues --    1.56540   1.56657   1.57041   1.57632   1.57844
 Alpha virt. eigenvalues --    1.58508   1.58738   1.58927   1.59395   1.59851
 Alpha virt. eigenvalues --    1.60129   1.60278   1.60573   1.60878   1.61238
 Alpha virt. eigenvalues --    1.61573   1.61892   1.62349   1.62769   1.63178
 Alpha virt. eigenvalues --    1.63355   1.63536   1.63641   1.64419   1.64580
 Alpha virt. eigenvalues --    1.65143   1.65180   1.65846   1.65922   1.66051
 Alpha virt. eigenvalues --    1.66419   1.66880   1.67252   1.67819   1.68048
 Alpha virt. eigenvalues --    1.68193   1.68341   1.68463   1.68483   1.68663
 Alpha virt. eigenvalues --    1.68932   1.69043   1.69393   1.69871   1.69938
 Alpha virt. eigenvalues --    1.70339   1.70356   1.70688   1.70939   1.71355
 Alpha virt. eigenvalues --    1.71553   1.71938   1.72129   1.72242   1.72402
 Alpha virt. eigenvalues --    1.72583   1.72884   1.73001   1.73190   1.73271
 Alpha virt. eigenvalues --    1.73440   1.73559   1.73673   1.74050   1.74563
 Alpha virt. eigenvalues --    1.74755   1.74953   1.75195   1.75416   1.75486
 Alpha virt. eigenvalues --    1.75534   1.75764   1.76104   1.76177   1.76361
 Alpha virt. eigenvalues --    1.76545   1.76692   1.76840   1.76908   1.77072
 Alpha virt. eigenvalues --    1.77221   1.77313   1.77524   1.77749   1.78049
 Alpha virt. eigenvalues --    1.78217   1.78336   1.78545   1.78825   1.78945
 Alpha virt. eigenvalues --    1.79125   1.79378   1.79455   1.79489   1.79828
 Alpha virt. eigenvalues --    1.80016   1.80141   1.80422   1.80713   1.80767
 Alpha virt. eigenvalues --    1.81132   1.81245   1.81343   1.81526   1.81672
 Alpha virt. eigenvalues --    1.81781   1.81879   1.82017   1.82221   1.82548
 Alpha virt. eigenvalues --    1.82705   1.82971   1.83205   1.83430   1.83560
 Alpha virt. eigenvalues --    1.83714   1.83873   1.84191   1.84253   1.84485
 Alpha virt. eigenvalues --    1.84596   1.84789   1.84856   1.85105   1.85158
 Alpha virt. eigenvalues --    1.85298   1.85643   1.85949   1.86036   1.86198
 Alpha virt. eigenvalues --    1.86255   1.86419   1.86661   1.86781   1.86867
 Alpha virt. eigenvalues --    1.87127   1.87338   1.87438   1.87564   1.87834
 Alpha virt. eigenvalues --    1.88046   1.88182   1.88524   1.88546   1.88770
 Alpha virt. eigenvalues --    1.89045   1.89061   1.89336   1.89440   1.89633
 Alpha virt. eigenvalues --    1.89786   1.90316   1.90380   1.90471   1.90679
 Alpha virt. eigenvalues --    1.90849   1.91023   1.91144   1.91200   1.91514
 Alpha virt. eigenvalues --    1.92088   1.92262   1.92298   1.92534   1.93001
 Alpha virt. eigenvalues --    1.93110   1.93309   1.93419   1.93843   1.94322
 Alpha virt. eigenvalues --    1.94499   1.94693   1.94698   1.95091   1.95218
 Alpha virt. eigenvalues --    1.95473   1.95534   1.95844   1.96178   1.96408
 Alpha virt. eigenvalues --    1.96838   1.97004   1.97098   1.97496   1.97895
 Alpha virt. eigenvalues --    1.98087   1.98307   1.98402   1.98693   1.99070
 Alpha virt. eigenvalues --    1.99306   1.99371   1.99594   1.99806   1.99893
 Alpha virt. eigenvalues --    2.00286   2.00496   2.00696   2.00923   2.00946
 Alpha virt. eigenvalues --    2.01174   2.01466   2.01837   2.01914   2.02219
 Alpha virt. eigenvalues --    2.02418   2.02646   2.02796   2.02992   2.03057
 Alpha virt. eigenvalues --    2.03301   2.03552   2.03600   2.03893   2.04249
 Alpha virt. eigenvalues --    2.04433   2.04463   2.04930   2.05262   2.05616
 Alpha virt. eigenvalues --    2.06252   2.06289   2.06442   2.06847   2.07088
 Alpha virt. eigenvalues --    2.07304   2.07774   2.07858   2.08016   2.08443
 Alpha virt. eigenvalues --    2.08649   2.08686   2.09009   2.09439   2.09772
 Alpha virt. eigenvalues --    2.09862   2.10080   2.10235   2.10624   2.10961
 Alpha virt. eigenvalues --    2.11194   2.11510   2.11947   2.12200   2.12757
 Alpha virt. eigenvalues --    2.12930   2.13129   2.13439   2.13609   2.13977
 Alpha virt. eigenvalues --    2.14202   2.14524   2.14645   2.14903   2.15074
 Alpha virt. eigenvalues --    2.15802   2.16258   2.16429   2.16798   2.16996
 Alpha virt. eigenvalues --    2.17533   2.17812   2.17849   2.18072   2.18289
 Alpha virt. eigenvalues --    2.18626   2.18884   2.19127   2.19409   2.19640
 Alpha virt. eigenvalues --    2.19732   2.20299   2.20805   2.21397   2.21731
 Alpha virt. eigenvalues --    2.21898   2.21999   2.22294   2.22581   2.23013
 Alpha virt. eigenvalues --    2.23306   2.23585   2.24132   2.24281   2.24792
 Alpha virt. eigenvalues --    2.25278   2.25477   2.25560   2.25778   2.25898
 Alpha virt. eigenvalues --    2.26266   2.26741   2.27067   2.27199   2.27986
 Alpha virt. eigenvalues --    2.28221   2.28669   2.28759   2.29392   2.29793
 Alpha virt. eigenvalues --    2.29987   2.30363   2.30519   2.30990   2.31093
 Alpha virt. eigenvalues --    2.31475   2.32368   2.32535   2.33130   2.33307
 Alpha virt. eigenvalues --    2.33401   2.33709   2.34280   2.34456   2.34503
 Alpha virt. eigenvalues --    2.34702   2.34794   2.35436   2.35785   2.36379
 Alpha virt. eigenvalues --    2.36448   2.36471   2.36829   2.37140   2.37443
 Alpha virt. eigenvalues --    2.37731   2.38102   2.38377   2.38505   2.38849
 Alpha virt. eigenvalues --    2.38905   2.39652   2.39727   2.40061   2.40146
 Alpha virt. eigenvalues --    2.40701   2.40916   2.41385   2.41783   2.41857
 Alpha virt. eigenvalues --    2.42148   2.42242   2.42858   2.43135   2.43395
 Alpha virt. eigenvalues --    2.43466   2.43889   2.44593   2.45375   2.46159
 Alpha virt. eigenvalues --    2.46224   2.46629   2.46834   2.47201   2.47405
 Alpha virt. eigenvalues --    2.47650   2.47863   2.48190   2.48630   2.48926
 Alpha virt. eigenvalues --    2.49154   2.49639   2.49943   2.50173   2.50846
 Alpha virt. eigenvalues --    2.51212   2.51464   2.51847   2.52127   2.52235
 Alpha virt. eigenvalues --    2.52522   2.52701   2.52974   2.53309   2.53691
 Alpha virt. eigenvalues --    2.53989   2.54058   2.55239   2.55455   2.55735
 Alpha virt. eigenvalues --    2.55897   2.56340   2.56562   2.57230   2.57385
 Alpha virt. eigenvalues --    2.57872   2.58181   2.58575   2.58674   2.58968
 Alpha virt. eigenvalues --    2.59095   2.59225   2.59504   2.59729   2.60208
 Alpha virt. eigenvalues --    2.60261   2.60375   2.60988   2.61773   2.61875
 Alpha virt. eigenvalues --    2.61915   2.62457   2.62583   2.62873   2.63183
 Alpha virt. eigenvalues --    2.63424   2.63966   2.64469   2.64539   2.64838
 Alpha virt. eigenvalues --    2.65148   2.65284   2.65993   2.66055   2.66327
 Alpha virt. eigenvalues --    2.66700   2.67392   2.67580   2.67877   2.68076
 Alpha virt. eigenvalues --    2.68418   2.68485   2.68885   2.69348   2.69995
 Alpha virt. eigenvalues --    2.70191   2.70248   2.70422   2.70547   2.70940
 Alpha virt. eigenvalues --    2.71057   2.71382   2.71548   2.72109   2.72323
 Alpha virt. eigenvalues --    2.72825   2.72868   2.73121   2.73351   2.73455
 Alpha virt. eigenvalues --    2.73566   2.74226   2.74700   2.74811   2.75196
 Alpha virt. eigenvalues --    2.75459   2.75850   2.75867   2.76083   2.76314
 Alpha virt. eigenvalues --    2.77149   2.77325   2.77486   2.77677   2.77752
 Alpha virt. eigenvalues --    2.78003   2.78425   2.78781   2.79141   2.79263
 Alpha virt. eigenvalues --    2.79499   2.79560   2.79685   2.79892   2.80106
 Alpha virt. eigenvalues --    2.80442   2.80689   2.81010   2.81498   2.81967
 Alpha virt. eigenvalues --    2.82301   2.82572   2.82742   2.82972   2.83228
 Alpha virt. eigenvalues --    2.83540   2.83789   2.83924   2.84233   2.84359
 Alpha virt. eigenvalues --    2.84657   2.84901   2.85102   2.85674   2.85830
 Alpha virt. eigenvalues --    2.85912   2.86200   2.86333   2.86609   2.87408
 Alpha virt. eigenvalues --    2.87546   2.87705   2.88897   2.89044   2.89679
 Alpha virt. eigenvalues --    2.89711   2.90691   2.90852   2.91025   2.91235
 Alpha virt. eigenvalues --    2.91544   2.91946   2.92022   2.92150   2.93240
 Alpha virt. eigenvalues --    2.93630   2.93833   2.93945   2.93967   2.94496
 Alpha virt. eigenvalues --    2.94612   2.94811   2.95096   2.95511   2.95720
 Alpha virt. eigenvalues --    2.95873   2.96465   2.96725   2.97060   2.97378
 Alpha virt. eigenvalues --    2.97464   2.97501   2.97833   2.98267   2.98565
 Alpha virt. eigenvalues --    2.98760   2.99070   2.99230   2.99525   2.99869
 Alpha virt. eigenvalues --    2.99989   3.00195   3.00876   3.00978   3.01203
 Alpha virt. eigenvalues --    3.01433   3.02256   3.02744   3.02896   3.03094
 Alpha virt. eigenvalues --    3.03169   3.03811   3.03926   3.04244   3.04723
 Alpha virt. eigenvalues --    3.04932   3.05210   3.05573   3.05705   3.05913
 Alpha virt. eigenvalues --    3.07036   3.07293   3.07822   3.08633   3.09251
 Alpha virt. eigenvalues --    3.09395   3.09787   3.10524   3.10803   3.11098
 Alpha virt. eigenvalues --    3.11754   3.12407   3.13346   3.13514   3.14111
 Alpha virt. eigenvalues --    3.14322   3.14829   3.15552   3.15771   3.15851
 Alpha virt. eigenvalues --    3.16886   3.17308   3.18347   3.18355   3.18442
 Alpha virt. eigenvalues --    3.18626   3.19168   3.19915   3.19989   3.20224
 Alpha virt. eigenvalues --    3.20281   3.20996   3.21287   3.21448   3.22108
 Alpha virt. eigenvalues --    3.22681   3.22938   3.23161   3.23663   3.23817
 Alpha virt. eigenvalues --    3.23835   3.24031   3.24597   3.25354   3.25430
 Alpha virt. eigenvalues --    3.25946   3.26490   3.26814   3.27077   3.27535
 Alpha virt. eigenvalues --    3.28196   3.28463   3.28938   3.29874   3.30052
 Alpha virt. eigenvalues --    3.30217   3.32195   3.33676   3.34147   3.35264
 Alpha virt. eigenvalues --    3.35905   3.36237   3.37506   3.38517   3.39180
 Alpha virt. eigenvalues --    3.41326   3.47154   3.47321   3.49782   3.51992
 Alpha virt. eigenvalues --    3.53048   3.54698   3.55576   3.56561   3.56771
 Alpha virt. eigenvalues --    3.58626   3.59459   3.59920   3.60161   3.60224
 Alpha virt. eigenvalues --    3.61043   3.62469   3.62642   3.62788   3.63079
 Alpha virt. eigenvalues --    3.64909   3.65647   3.66925   3.67277   3.69205
 Alpha virt. eigenvalues --    3.69556   3.69749   3.70052   3.70320   3.70921
 Alpha virt. eigenvalues --    3.71556   3.71875   3.72043   3.72280   3.72829
 Alpha virt. eigenvalues --    3.73878   3.74412   3.74481   3.75566   3.76211
 Alpha virt. eigenvalues --    3.77249   3.78135   3.81862   3.87292
          Condensed to atoms (all electrons):
 Mulliken charges:
               1
     1  C    0.073144
     2  C    0.015622
     3  O   -0.302033
     4  H    0.043101
     5  H    0.001241
     6  H    0.031528
     7  N   -0.108986
     8  C    0.039011
     9  C    0.064960
    10  O   -0.284637
    11  C    0.141796
    12  C    0.162691
    13  O   -0.486629
    14  O   -0.383470
    15  H    0.111163
    16  H    0.020909
    17  H    0.013561
    18  H    0.008076
    19  N   -0.129751
    20  C    0.162894
    21  C    0.060117
    22  O   -0.300366
    23  C   -0.019932
    24  C   -0.019290
    25  C   -0.045694
    26  C    0.025430
    27  N    0.087876
    28  H    0.157766
    29  H   -0.017687
    30  H    0.032600
    31  H    0.032523
    32  H    0.016148
    33  H    0.033318
    34  H    0.039026
    35  H    0.036678
    36  H    0.063329
    37  H    0.083845
    38  H    0.198451
    39  H    0.181518
    40  H    0.198923
    41  N   -0.147387
    42  C    0.138447
    43  C    0.063257
    44  O   -0.286409
    45  C    0.086055
    46  C    0.153272
    47  O   -0.414266
    48  O   -0.465837
    49  H    0.146166
    50  H    0.005872
    51  H   -0.012817
    52  H    0.026458
    53  N   -0.155952
    54  C    0.238527
    55  C    0.008433
    56  O   -0.267371
    57  H    0.154502
    58  H    0.003341
    59  H    0.033860
    60  N   -0.157095
    61  C    0.106925
    62  C    0.041791
    63  O   -0.284913
    64  C    0.102731
    65  C    0.103333
    66  N   -0.041001
    67  O   -0.378933
    68  H    0.137443
    69  H    0.029706
    70  H    0.069377
    71  H   -0.004497
    72  H    0.125717
    73  H    0.118833
    74  N   -0.173171
    75  C    0.269085
    76  C   -0.001926
    77  O   -0.303136
    78  H    0.136445
    79  H    0.045167
    80  H    0.032863
    81  N   -0.123101
    82  C    0.106077
    83  C    0.137844
    84  O   -0.343127
    85  C    0.114699
    86  C   -0.006033
    87  C   -0.000826
    88  C    0.019152
    89  C   -0.010338
    90  C   -0.035845
    91  C    0.150534
    92  O   -0.198318
    93  H    0.147309
    94  H    0.001715
    95  H   -0.010772
    96  H   -0.049166
    97  H   -0.032798
    98  H   -0.038170
    99  H   -0.015649
   100  H   -0.047631
   101  H    0.173431
   102  N   -0.119792
   103  C    0.103751
   104  C    0.075764
   105  O   -0.274981
   106  C   -0.047913
   107  C   -0.026650
   108  C    0.042001
   109  C    0.041087
   110  H    0.136004
   111  H    0.015240
   112  H   -0.024825
   113  H    0.014691
   114  H    0.043460
   115  H    0.008889
   116  H    0.000462
   117  H    0.020002
   118  H    0.010730
   119  H    0.007772
   120  H   -0.004549
   121  N   -0.127266
   122  C    0.113312
   123  C    0.087869
   124  O   -0.269836
   125  C    0.223112
   126  O   -0.319516
   127  H    0.154189
   128  H    0.044455
   129  H    0.019412
   130  H   -0.026300
   131  H    0.200387
   132  N   -0.137988
   133  C    0.087110
   134  C    0.041458
   135  O   -0.243388
   136  C    0.042481
   137  H    0.114803
   138  H    0.028582
   139  H    0.026979
   140  H    0.009864
   141  H    0.041555
   142  N   -0.141586
   143  C    0.088385
   144  C    0.065730
   145  O   -0.300102
   146  C    0.052897
   147  H    0.103056
   148  H    0.025123
   149  H    0.001016
   150  H    0.030652
   151  H    0.001422
   152  N   -0.153262
   153  C    0.116670
   154  C    0.086616
   155  O   -0.301696
   156  C   -0.061753
   157  C    0.162060
   158  C    0.078401
   159  O   -0.404037
   160  O   -0.399264
   161  H    0.153606
   162  H   -0.017915
   163  H    0.071189
   164  H   -0.025528
   165  H   -0.029282
   166  H   -0.040568
   167  N   -0.161350
   168  C    0.162314
   169  H    0.018399
   170  H    0.030545
   171  H   -0.001018
   172  H    0.115000
   173  Ca   1.295227
   174  O   -0.318725
   175  H    0.151539
   176  H    0.153172
 Sum of Mulliken charges =  -0.00000
 Mulliken charges with hydrogens summed into heavy atoms:
               1
     1  C    0.149014
     2  C    0.015622
     3  O   -0.302033
     7  N    0.002177
     8  C    0.059921
     9  C    0.064960
    10  O   -0.284637
    11  C    0.163433
    12  C    0.162691
    13  O   -0.486629
    14  O   -0.383470
    19  N    0.028015
    20  C    0.145208
    21  C    0.060117
    22  O   -0.300366
    23  C    0.045191
    24  C    0.030176
    25  C    0.030010
    26  C    0.172604
    27  N    0.666768
    41  N   -0.001221
    42  C    0.144320
    43  C    0.063257
    44  O   -0.286409
    45  C    0.099696
    46  C    0.153272
    47  O   -0.414266
    48  O   -0.465837
    53  N   -0.001450
    54  C    0.275729
    55  C    0.008433
    56  O   -0.267371
    60  N   -0.019653
    61  C    0.136631
    62  C    0.041791
    63  O   -0.284913
    64  C    0.167611
    65  C    0.103333
    66  N    0.203549
    67  O   -0.378933
    74  N   -0.036726
    75  C    0.347116
    76  C   -0.001926
    77  O   -0.303136
    81  N    0.024207
    82  C    0.107791
    83  C    0.137844
    84  O   -0.343127
    85  C    0.054761
    86  C   -0.006033
    87  C   -0.033624
    88  C   -0.019018
    89  C   -0.025987
    90  C   -0.083477
    91  C    0.150534
    92  O   -0.024887
   102  N    0.016212
   103  C    0.118991
   104  C    0.075764
   105  O   -0.274981
   106  C   -0.072738
   107  C    0.031501
   108  C    0.071354
   109  C    0.055040
   121  N    0.026923
   122  C    0.157767
   123  C    0.087869
   124  O   -0.269836
   125  C    0.216224
   126  O   -0.119129
   132  N   -0.023185
   133  C    0.115692
   134  C    0.041458
   135  O   -0.243388
   136  C    0.120879
   142  N   -0.038530
   143  C    0.113508
   144  C    0.065730
   145  O   -0.300102
   146  C    0.085986
   152  N    0.000344
   153  C    0.098755
   154  C    0.086616
   155  O   -0.301696
   156  C   -0.016092
   157  C    0.092209
   158  C    0.078401
   159  O   -0.404037
   160  O   -0.399264
   167  N   -0.046351
   168  C    0.210240
   173  Ca   1.295227
   174  O   -0.014014
 DipInt: DoE/N= T F RetVal/Mat= T F Init=T NMatP=  1 IDeriv=0 Min/MaxMlt=  0  4
 Entering OneElI...
 OneElI was handed  1333951383 working-precision words.
 Multipole integrals L=0 to 4 MinM= 0 MaxM= 0.
 Requested accuracy = 0.1000D-12
 ShPair: Thresh= 1.00D-13 NBox=     0 BxSize= 0.00D+00 RnKept= 2.55D+01
         NSMCal=               327645 NSMKep=              160784
 PrmmSu-InSpLW:  IPartL=    0 NPrtUS=    1 NPrtUL=    1 DoSpLW=F IThBeg=    0 IThEnd=    0 NThAct=    1.
 PrsmSu:  NPrtUS=   1 ThrOK=F IAlg=1 NPAlg=1 LenDen=           0 ISkipM=0 DoSpLW=F IThBeg=    0 IThEnd=    0.
 Prism:   IPart=     0 DynPar=F LinDyn=F Incr=         512.
 PRISM was handed  1323866947 working-precision words and160784 shell-pairs
 IPart=  0 NShTot=      160784 NBatch=         368 AvBLen=       436.9
 PrsmSu-ThDecC:  IPartSL=    0    0 NPrtUSL=    1    1 IThBeg=    0 IThEnd=    0 CPU=   -1 GPU=   -1 NThAct=    1.
 PrSmSu:  NxtVal=            513.
 Electronic moments (au):
       -716.00000000         13.81681734         -2.32281793         -5.34611921
     -51941.54431388     -31299.63892302     -11992.21422984        124.31824773
        -56.47801829         -1.45861865     -42899.58945482     -20119.14065544
     -23493.77308871      28029.73311265     112020.07718921      53388.92186317
     -16101.88688246      -4223.45401450      19209.09723767      -7016.09965835
   -7451058.48696415   -3060020.03116461    -624481.36576010    -199712.73114726
     185546.05241250    -643993.31285219      11839.10688953     -76886.86769316
      10027.04924555   -2506095.83513891    -616635.36041118    -290065.45138649
    -157988.11881333      48664.75836122      52605.25562285
 Electronic spatial extent (au):  <R**2>=          95233.3975
 DipInt: DoE/N= F T RetVal/Mat= T F Init=T NMatP=  1 IDeriv=0 Min/MaxMlt=  0  4
 Nuclear    moments (au):
        716.00000000         -0.00000000          0.00000000         -0.00000000
      51529.57750516      30959.70065667      11610.66859168         -0.00000000
         -0.00000000          0.00000000      44668.76638822      20288.26386930
      23419.00815786     -25812.23700561    -111492.99328191     -54154.40073374
      16342.25824069       4169.65342322     -19724.48010232       6689.63250118
    7262257.51833551    2966840.67667180     586591.53545103     216267.44799299
    -194318.83088994     669900.79901900     -16814.46439321      76288.53036315
      -8481.06134736    2477955.48763813     582728.56223446     266055.91769773
     155544.23495745     -56006.10343753     -52452.65112107
 Total      moments (au):
         -0.00000000         13.81681734         -2.32281793         -5.34611921
       -411.96680872       -339.93826635       -381.54563815        124.31824773
        -56.47801829         -1.45861865       1769.17693340        169.12321386
        -74.76493084       2217.49610704        527.08390731       -765.47887057
        240.37135823        -53.80059127       -515.38286465       -326.46715717
    -188800.96862864     -93179.35449282     -37889.83030907      16554.71684573
      -8772.77847744      25907.48616681      -4975.35750368       -598.33733001
       1545.98789819     -28140.34750078     -33906.79817672     -24009.53368876
      -2443.88385588      -7341.34507631        152.60450177
 Traceless Quadrup. (au):
        -34.14990431         37.87863806         -3.72873375        124.31824773
        -56.47801829         -1.45861865
 Charge=             -0.0000 electrons
 Dipole moment (field-independent basis, Debye):
    X=             35.1188    Y=             -5.9040    Z=            -13.5885  Tot=             38.1161
 Quadrupole moment (field-independent basis, Debye-Ang):
   XX=           -554.1095   YY=           -457.2286   ZZ=           -513.1920
   XY=            167.2123   XZ=            -75.9649   YZ=             -1.9619
 Traceless Quadrupole moment (field-independent basis, Debye-Ang):
   XX=            -45.9328   YY=             50.9481   ZZ=             -5.0153
   XY=            167.2123   XZ=            -75.9649   YZ=             -1.9619
 Octapole moment (field-independent basis, Debye-Ang**2):
  XXX=           1259.2320  YYY=            120.3754  ZZZ=            -53.2148  XYY=           1578.3283
  XXY=            375.1580  XXZ=           -544.8384  XZZ=            171.0871  YZZ=            -38.2932
  YYZ=           -366.8297  XYZ=           -232.3667
 Hexadecapole moment (field-independent basis, Debye-Ang**3):
 XXXX=         -71111.4981 YYYY=         -35095.8130 ZZZZ=         -14271.1270 XXXY=           6235.3002
 XXXZ=          -3304.2490 YYYX=           9758.0016 YYYZ=          -1873.9582 ZZZX=           -225.3625
 ZZZY=            582.2932 XXYY=         -10599.0042 XXZZ=         -12770.9261 YYZZ=          -9043.1417
 XXYZ=           -920.4838 YYXZ=          -2765.1026 ZZXY=             57.4782
 N-N= 2.171793423891D+04 E-N=-5.591987235585D+04  KE= 5.290668213130D+03
 Leave Link  601 at Sat Sep 14 22:39:18 2019, MaxMem=  1342177280 cpu:              53.3 elap:               1.3
 FitSet:  NAtFit=   176 NAtPot=   176 NAtFrz=     0 MDM=   180 TotChg=   0.00000
 Merz-Kollman atomic radii used.
 Read replacement radii for each type of atom:
 Rad(20) =   1.700000000000D+00
 Atom Element Radius
    1     6    1.50
    2     6    1.50
    3     8    1.40
    4     1    1.20
    5     1    1.20
    6     1    1.20
    7     7    1.50
    8     6    1.50
    9     6    1.50
   10     8    1.40
   11     6    1.50
   12     6    1.50
   13     8    1.40
   14     8    1.40
   15     1    1.20
   16     1    1.20
   17     1    1.20
   18     1    1.20
   19     7    1.50
   20     6    1.50
   21     6    1.50
   22     8    1.40
   23     6    1.50
   24     6    1.50
   25     6    1.50
   26     6    1.50
   27     7    1.50
   28     1    1.20
   29     1    1.20
   30     1    1.20
   31     1    1.20
   32     1    1.20
   33     1    1.20
   34     1    1.20
   35     1    1.20
   36     1    1.20
   37     1    1.20
   38     1    1.20
   39     1    1.20
   40     1    1.20
   41     7    1.50
   42     6    1.50
   43     6    1.50
   44     8    1.40
   45     6    1.50
   46     6    1.50
   47     8    1.40
   48     8    1.40
   49     1    1.20
   50     1    1.20
   51     1    1.20
   52     1    1.20
   53     7    1.50
   54     6    1.50
   55     6    1.50
   56     8    1.40
   57     1    1.20
   58     1    1.20
   59     1    1.20
   60     7    1.50
   61     6    1.50
   62     6    1.50
   63     8    1.40
   64     6    1.50
   65     6    1.50
   66     7    1.50
   67     8    1.40
   68     1    1.20
   69     1    1.20
   70     1    1.20
   71     1    1.20
   72     1    1.20
   73     1    1.20
   74     7    1.50
   75     6    1.50
   76     6    1.50
   77     8    1.40
   78     1    1.20
   79     1    1.20
   80     1    1.20
   81     7    1.50
   82     6    1.50
   83     6    1.50
   84     8    1.40
   85     6    1.50
   86     6    1.50
   87     6    1.50
   88     6    1.50
   89     6    1.50
   90     6    1.50
   91     6    1.50
   92     8    1.40
   93     1    1.20
   94     1    1.20
   95     1    1.20
   96     1    1.20
   97     1    1.20
   98     1    1.20
   99     1    1.20
  100     1    1.20
  101     1    1.20
  102     7    1.50
  103     6    1.50
  104     6    1.50
  105     8    1.40
  106     6    1.50
  107     6    1.50
  108     6    1.50
  109     6    1.50
  110     1    1.20
  111     1    1.20
  112     1    1.20
  113     1    1.20
  114     1    1.20
  115     1    1.20
  116     1    1.20
  117     1    1.20
  118     1    1.20
  119     1    1.20
  120     1    1.20
  121     7    1.50
  122     6    1.50
  123     6    1.50
  124     8    1.40
  125     6    1.50
  126     8    1.40
  127     1    1.20
  128     1    1.20
  129     1    1.20
  130     1    1.20
  131     1    1.20
  132     7    1.50
  133     6    1.50
  134     6    1.50
  135     8    1.40
  136     6    1.50
  137     1    1.20
  138     1    1.20
  139     1    1.20
  140     1    1.20
  141     1    1.20
  142     7    1.50
  143     6    1.50
  144     6    1.50
  145     8    1.40
  146     6    1.50
  147     1    1.20
  148     1    1.20
  149     1    1.20
  150     1    1.20
  151     1    1.20
  152     7    1.50
  153     6    1.50
  154     6    1.50
  155     8    1.40
  156     6    1.50
  157     6    1.50
  158     6    1.50
  159     8    1.40
  160     8    1.40
  161     1    1.20
  162     1    1.20
  163     1    1.20
  164     1    1.20
  165     1    1.20
  166     1    1.20
  167     7    1.50
  168     6    1.50
  169     1    1.20
  170     1    1.20
  171     1    1.20
  172     1    1.20
  173    20    1.70
  174     8    1.40
[...]
 **** Fit      -0.030717
 **** Fit      -0.040008
 **** Fit       0.010997
 **** Fit      -0.004210
 **** Fit      -0.010687
 **** Fit      -0.017172
 **** Fit      -0.024256
 **** Fit      -0.032343
 **** Fit      -0.040883
 **** Fit       0.005711
 **** Fit       0.007537
 **** Fit       0.006594
 **** Fit       0.002090
 **** Fit      -0.009301
 **** Fit      -0.016235
 **** Fit      -0.023833
 **** Fit      -0.031427
 **** Fit      -0.001591
 **** Fit      -0.003851
 **** Fit      -0.013816
 **** Fit      -0.021592
 **** Fit      -0.009604
 **** Fit      -0.017542
 **** Fit       0.003213
 **** Fit       0.007490
 **** Fit      -0.012721
 **** Fit      -0.002888
 **** Fit       0.006828
 **** Fit       0.015361
 **** Fit       0.000769
 **** Fit       0.012795
 **** Fit       0.023783
 **** Fit       0.016148
 **** Fit       0.029840
 **** Fit       0.022811
 **** Fit       0.028752
 **** Fit       0.020642
 **** Fit       0.025203
 **** Fit       0.028000
 **** Fit       0.027716
 **** Fit       0.024082
 **** Fit       0.025570
 **** Fit       0.024811
 **** Fit       0.020812
 **** Fit       0.013306
 **** Fit       0.024307
 **** Fit       0.022751
 **** Fit       0.018614
 **** Fit       0.011361
 **** Fit       0.001142
 **** Fit       0.021509
 **** Fit       0.016516
 **** Fit       0.008893
 **** Fit      -0.000633
 **** Fit       0.020981
 **** Fit       0.014511
 **** Fit       0.006873
 **** Fit       0.001958
 **** Fit       0.021950
 **** Fit       0.015331
 **** Fit       0.017202
 **** Fit      -0.029039
 **** Fit      -0.005526
 **** Fit      -0.003933
 **** Fit      -0.003837
 **** Fit      -0.004393
 **** Fit      -0.005221
 **** Fit      -0.006744
 **** Fit      -0.003990
 **** Fit      -0.003150
 **** Fit      -0.002728
 **** Fit      -0.002766
 **** Fit      -0.003224
 **** Fit      -0.004048
 **** Fit      -0.004936
 **** Fit      -0.006449
 **** Fit      -0.008332
 **** Fit      -0.003679
 **** Fit      -0.002619
 **** Fit      -0.001890
 **** Fit      -0.001577
 **** Fit      -0.001680
 **** Fit      -0.002120
 **** Fit      -0.002818
 **** Fit      -0.003746
 **** Fit      -0.004683
 **** Fit      -0.006060
 **** Fit      -0.007797
 **** Fit      -0.009953
 **** Fit      -0.012541
 **** Fit      -0.004250
 **** Fit      -0.002943
 **** Fit      -0.000661
 **** Fit      -0.001187
 **** Fit      -0.001866
 **** Fit      -0.002658
 **** Fit      -0.003577
 **** Fit      -0.004470
 **** Fit      -0.005768
 **** Fit      -0.007446
 **** Fit      -0.009610
 **** Fit      -0.012338
 **** Fit      -0.015676
 **** Fit      -0.006367
 **** Fit      -0.004637
 **** Fit      -0.003139
 **** Fit      -0.000902
 **** Fit      -0.001707
 **** Fit      -0.002537
 **** Fit      -0.003431
 **** Fit      -0.015179
 **** Fit      -0.019444
 **** Fit      -0.005200
 **** Fit      -0.003577
 **** Fit      -0.000930
 **** Fit      -0.001783
 **** Fit      -0.002584
 **** Fit      -0.003392
 **** Fit      -0.019217
 **** Fit      -0.024933
 **** Fit      -0.001171
 **** Fit      -0.002033
 **** Fit      -0.002772
 **** Fit      -0.024220
 **** Fit      -0.001743
 **** Fit      -0.002559
 **** Fit      -0.001557
 **** Fit      -0.002624
 **** Fit      -0.002684
 **** Fit      -0.003868
 **** Fit      -0.004553
 **** Fit      -0.005856
 **** Fit      -0.007541
 **** Fit      -0.008951
 **** Fit      -0.009098
 **** Fit      -0.011839
 **** Fit      -0.013552
 **** Fit      -0.005038
 **** Fit      -0.006321
 **** Fit      -0.008127
 **** Fit      -0.010627
 **** Fit      -0.004108
 **** Fit      -0.004700
 **** Fit      -0.005775
 **** Fit      -0.007307
 **** Fit      -0.009480
 **** Fit      -0.012509
 **** Fit      -0.016638
 **** Fit      -0.003329
 **** Fit      -0.003931
 **** Fit      -0.004581
 **** Fit      -0.005450
 **** Fit      -0.006703
 **** Fit      -0.008497
 **** Fit      -0.011032
 **** Fit      -0.014581
 **** Fit      -0.019507
 **** Fit      -0.003080
 **** Fit      -0.003506
 **** Fit      -0.003971
 **** Fit      -0.004760
 **** Fit      -0.005488
 **** Fit      -0.006582
 **** Fit      -0.008191
 **** Fit      -0.010516
 **** Fit      -0.013844
 **** Fit      -0.018608
 **** Fit      -0.025452
 **** Fit      -0.003623
 **** Fit      -0.003934
 **** Fit      -0.004278
 **** Fit      -0.005330
 **** Fit      -0.005905
 **** Fit      -0.006823
 **** Fit      -0.008213
 **** Fit      -0.010254
 **** Fit      -0.013207
 **** Fit      -0.017478
 **** Fit      -0.023714
 **** Fit      -0.004369
 **** Fit      -0.004613
 **** Fit      -0.004783
 **** Fit      -0.004989
 **** Fit      -0.006407
 **** Fit      -0.006833
 **** Fit      -0.007601
 **** Fit      -0.008831
 **** Fit      -0.010681
 **** Fit      -0.013389
 **** Fit      -0.017329
 **** Fit      -0.023116
 **** Fit      -0.006138
 **** Fit      -0.006197
 **** Fit      -0.006187
 **** Fit      -0.006224
 **** Fit      -0.008142
 **** Fit      -0.008410
 **** Fit      -0.009077
 **** Fit      -0.010261
 **** Fit      -0.012124
 **** Fit      -0.014909
 **** Fit      -0.019005
 **** Fit      -0.008899
 **** Fit      -0.008675
 **** Fit      -0.008384
 **** Fit      -0.008167
 **** Fit      -0.010730
 **** Fit      -0.010775
 **** Fit      -0.011332
 **** Fit      -0.012519
 **** Fit      -0.014494
 **** Fit      -0.017491
 **** Fit      -0.021889
 **** Fit      -0.013326
 **** Fit      -0.012550
 **** Fit      -0.011742
 **** Fit      -0.011090
 **** Fit      -0.014432
 **** Fit      -0.014116
 **** Fit      -0.014483
 **** Fit      -0.015625
 **** Fit      -0.017654
 **** Fit      -0.020714
 **** Fit      -0.024997
 **** Fit      -0.016752
 **** Fit      -0.015344
 **** Fit      -0.019582
 **** Fit      -0.018643
 **** Fit      -0.018779
 **** Fit      -0.020014
 **** Fit      -0.022331
 **** Fit      -0.025600
 **** Fit      -0.024504
 **** Fit      -0.024157
 **** Fit      -0.025280
 **** Fit      -0.027418
 **** Fit      -0.008322
 **** Fit      -0.007845
 **** Fit      -0.009669
 **** Fit      -0.010334
 **** Fit      -0.008982
 **** Fit      -0.007268
 **** Fit      -0.006775
 **** Fit      -0.007517
 **** Fit      -0.009384
 **** Fit      -0.011378
 **** Fit      -0.012812
 **** Fit      -0.013002
 **** Fit      -0.011833
 **** Fit      -0.009875
 **** Fit      -0.007914
 **** Fit      -0.006450
 **** Fit      -0.005643
 **** Fit      -0.005542
 **** Fit      -0.006179
 **** Fit      -0.007308
 **** Fit      -0.009134
 **** Fit      -0.011283
 **** Fit      -0.013530
 **** Fit      -0.015475
 **** Fit      -0.016615
 **** Fit      -0.016590
 **** Fit      -0.015406
 **** Fit      -0.013402
 **** Fit      -0.011075
 **** Fit      -0.008888
 **** Fit      -0.007114
 **** Fit      -0.005815
 **** Fit      -0.004950
 **** Fit      -0.004500
 **** Fit      -0.005904
 **** Fit      -0.009086
 **** Fit      -0.011359
 **** Fit      -0.013949
 **** Fit      -0.016676
 **** Fit      -0.019194
 **** Fit      -0.021024
 **** Fit      -0.021729
 **** Fit      -0.021146
 **** Fit      -0.019439
 **** Fit      -0.016952
 **** Fit      -0.014112
 **** Fit      -0.011348
 **** Fit      -0.008966
 **** Fit      -0.007097
 **** Fit      -0.005701
 **** Fit      -0.004666
 **** Fit      -0.011633
 **** Fit      -0.014538
 **** Fit      -0.017839
 **** Fit      -0.021345
 **** Fit      -0.024670
 **** Fit      -0.027251
 **** Fit      -0.028533
 **** Fit      -0.028250
 **** Fit      -0.026550
 **** Fit      -0.023792
 **** Fit      -0.020353
 **** Fit      -0.016682
 **** Fit      -0.013222
 **** Fit      -0.010267
 **** Fit      -0.007957
 **** Fit      -0.006244
 **** Fit      -0.018755
 **** Fit      -0.023015
 **** Fit      -0.027614
 **** Fit      -0.029398
 **** Fit      -0.024775
 **** Fit      -0.020078
 **** Fit      -0.015767
 **** Fit      -0.012102
 **** Fit      -0.009230
 **** Fit      -0.007134
 **** Fit      -0.025946
 **** Fit      -0.030754
 **** Fit      -0.024455
 **** Fit      -0.018886
 **** Fit      -0.029185
 **** Fit      -0.001432
 **** Fit      -0.000698
 **** Fit      -0.000677
 **** Fit      -0.001774
 **** Fit      -0.000543
 **** Fit       0.000261
 **** Fit       0.000576
 **** Fit       0.000408
 **** Fit      -0.000160
 **** Fit      -0.001386
 **** Fit      -0.000065
 **** Fit       0.000926
 **** Fit       0.001524
 **** Fit       0.001695
 **** Fit       0.001457
 **** Fit       0.000880
 **** Fit       0.000067
 **** Fit      -0.001730
 **** Fit      -0.000200
 **** Fit       0.001077
 **** Fit       0.002033
 **** Fit       0.002602
 **** Fit       0.002754
 **** Fit       0.002504
 **** Fit       0.001913
 **** Fit       0.001072
 **** Fit       0.000090
 **** Fit      -0.002385
 **** Fit      -0.000670
 **** Fit       0.000861
 **** Fit       0.002141
 **** Fit       0.003088
 **** Fit       0.003639
 **** Fit       0.003769
 **** Fit       0.003495
 **** Fit       0.002873
 **** Fit       0.001985
 **** Fit       0.000933
 **** Fit      -0.000178
 **** Fit      -0.003220
 **** Fit      -0.001191
 **** Fit       0.000685
 **** Fit       0.002311
 **** Fit       0.003581
 **** Fit       0.004413
 **** Fit       0.004760
 **** Fit       0.004624
 **** Fit       0.004052
 **** Fit       0.003127
 **** Fit       0.001957
 **** Fit       0.000661
 **** Fit      -0.000639
 **** Fit      -0.002212
 **** Fit       0.000100
 **** Fit       0.002159
 **** Fit       0.003837
 **** Fit       0.005026
 **** Fit       0.005661
 **** Fit       0.005722
 **** Fit       0.005244
 **** Fit       0.004309
 **** Fit       0.003030
 **** Fit       0.001540
 **** Fit      -0.000024
 **** Fit      -0.002089
 **** Fit       0.000681
 **** Fit       0.003099
 **** Fit       0.004993
 **** Fit       0.006238
 **** Fit       0.006769
 **** Fit       0.006588
 **** Fit       0.005763
 **** Fit       0.004418
 **** Fit       0.002710
 **** Fit       0.000808
 **** Fit      -0.001120
 **** Fit      -0.001215
 **** Fit       0.002221
 **** Fit       0.005004
 **** Fit       0.006907
 **** Fit       0.007802
 **** Fit       0.007666
 **** Fit       0.006598
 **** Fit       0.004792
 **** Fit       0.002491
 **** Fit      -0.000050
 **** Fit      -0.002589
 **** Fit       0.003010
 **** Fit       0.006516
 **** Fit       0.008551
 **** Fit       0.008963
 **** Fit       0.007833
 **** Fit       0.005473
 **** Fit       0.002313
 **** Fit      -0.001218
 **** Fit      -0.004731
 **** Fit       0.001790
 **** Fit      -0.003213
 **** Fit      -0.008170
 **** Fit       0.038780
 **** Fit       0.040346
 **** Fit       0.039521
 **** Fit       0.040675
 **** Fit       0.041652
 **** Fit       0.040309
 **** Fit       0.040505
 **** Fit       0.040939
 **** Fit       0.040309
 **** Fit       0.039555
 **** Fit       0.039185
 **** Fit       0.038227
 **** Fit       0.029472
 **** Fit       0.036140
 **** Fit       0.035061
 **** Fit       0.033873
 **** Fit       0.031413
 **** Fit       0.026605
 **** Fit       0.034356
 **** Fit       0.033433
 **** Fit      -0.019747
 **** Fit      -0.026632
 **** Fit      -0.032992
 **** Fit      -0.018668
 **** Fit      -0.026273
 **** Fit      -0.021743
 **** Fit      -0.007230
 **** Fit      -0.006122
 **** Fit       0.000231
 **** Fit       0.006275
 **** Fit      -0.007730
 **** Fit      -0.001023
 **** Fit      -0.023118
 **** Fit      -0.015077
 **** Fit      -0.023472
 **** Fit      -0.014936
 **** Fit      -0.022863
 **** Fit      -0.014072
 **** Fit      -0.016965
 **** Fit      -0.015204
 **** Fit      -0.013188
 **** Fit       0.033919
 **** Fit       0.033167
 **** Fit       0.032632
 **** Fit       0.031506
 **** Fit       0.029001
 **** Fit       0.024395
 **** Fit       0.017069
 **** Fit       0.033644
 **** Fit       0.032788
 **** Fit       0.032532
 **** Fit       0.032332
 **** Fit       0.031641
 **** Fit       0.029917
 **** Fit       0.026653
 **** Fit       0.021376
 **** Fit       0.013731
 **** Fit       0.003900
 **** Fit       0.002339
 **** Fit      -0.006382
 **** Fit      -0.014524
 **** Fit       0.032099
 **** Fit       0.031758
 **** Fit       0.031773
 **** Fit       0.031827
 **** Fit       0.031525
 **** Fit       0.030444
 **** Fit       0.028162
 **** Fit       0.024278
 **** Fit       0.018509
 **** Fit       0.010965
 **** Fit       0.008069
 **** Fit       0.000626
 **** Fit      -0.006784
 **** Fit      -0.014207
 **** Fit       0.029525
 **** Fit       0.029986
 **** Fit       0.030246
 **** Fit       0.030550
 **** Fit       0.030817
 **** Fit       0.030795
 **** Fit       0.030151
 **** Fit       0.028528
 **** Fit       0.025586
 **** Fit       0.021094
 **** Fit       0.015105
 **** Fit       0.011447
 **** Fit       0.005096
 **** Fit      -0.001528
 **** Fit      -0.008428
 **** Fit      -0.015868
 **** Fit       0.022510
 **** Fit       0.025364
 **** Fit       0.027058
 **** Fit       0.028093
 **** Fit       0.028818
 **** Fit       0.029322
 **** Fit       0.029499
 **** Fit       0.029125
 **** Fit       0.027924
 **** Fit       0.025626
 **** Fit       0.022055
 **** Fit       0.017236
 **** Fit       0.013316
 **** Fit       0.007515
 **** Fit       0.001270
 **** Fit      -0.005337
 **** Fit      -0.012292
 **** Fit      -0.019300
 **** Fit       0.002441
 **** Fit       0.008217
 **** Fit       0.013601
 **** Fit       0.018228
 **** Fit       0.021778
 **** Fit       0.024249
 **** Fit       0.025900
 **** Fit       0.026994
 **** Fit       0.027627
 **** Fit       0.027711
 **** Fit       0.027038
 **** Fit       0.025363
 **** Fit       0.022497
 **** Fit       0.018417
 **** Fit       0.014185
 **** Fit       0.008893
 **** Fit       0.003119
 **** Fit      -0.002866
 **** Fit      -0.008642
 **** Fit      -0.013361
 **** Fit      -0.015801
 **** Fit      -0.011690
 **** Fit      -0.006710
 **** Fit      -0.001228
 **** Fit       0.004260
 **** Fit       0.009525
 **** Fit       0.014313
 **** Fit       0.018317
 **** Fit       0.021364
 **** Fit       0.023504
 **** Fit       0.024883
 **** Fit       0.025563
 **** Fit       0.025455
 **** Fit       0.024375
 **** Fit       0.022141
 **** Fit       0.018697
 **** Fit       0.014361
 **** Fit       0.009358
 **** Fit       0.003981
 **** Fit      -0.001090
 **** Fit      -0.004868
 **** Fit      -0.006258
 **** Fit      -0.004835
 **** Fit      -0.001245
 **** Fit       0.003444
 **** Fit       0.008417
 **** Fit       0.013119
 **** Fit       0.017109
 **** Fit       0.020116
 **** Fit       0.022083
 **** Fit       0.023014
 **** Fit       0.022821
 **** Fit       0.021340
 **** Fit       0.018477
 **** Fit       0.014036
 **** Fit       0.009065
 **** Fit       0.004318
 **** Fit       0.001524
 **** Fit       0.001941
 **** Fit       0.005209
 **** Fit       0.009839
 **** Fit       0.014402
 **** Fit       0.017899
 **** Fit       0.019808
 **** Fit       0.019862
 **** Fit       0.017888
 **** Fit       0.013338
 **** Fit       0.008734
 **** Fit       0.007593
 **** Fit       0.011171
 **** Fit       0.015362
 **** Fit       0.016406
 **** Fit       0.012358
 -----------------------------------------------------------------
 Leave Link  602 at Sat Sep 14 22:39:22 2019, MaxMem=  1342177280 cpu:             149.8 elap:               3.2

 Test job not archived.
 1\1\GINC-C495-111\SP\RB3LYP\SVP\C54H83Ca1N15O23\PENGZHI\14-Sep-2019\0\
 \#b3lyp/svp scf=(tight,noincore) Test #IOP(5/87=12) Density=Current Po
 p=(MK,readradii) iop(6/33=2) iop(6/42=6)\\holoCaM_loop3_68.0\\0,1\C,0,
 46.04,51.91,46.33\C,0,46.64,51.63,47.7\O,0,45.89,51.59,48.68\H,0,45.15
 ,52.529,46.443\H,0,46.77,52.434,45.713\H,0,45.769,50.969,45.852\N,0,47
 .96,51.55,47.88\C,0,48.59,51.3,49.16\C,0,48.89,52.61,49.88\O,0,49.97,5
 3.16,49.68\C,0,49.84,50.43,49.07\C,0,50.5,50.27,50.43\O,0,49.96,50.68,
 51.49\O,0,51.55,49.61,50.55\H,0,48.52,51.59,47.04\H,0,47.93,50.72,49.8
 \H,0,50.55,50.92,48.4\H,0,49.44,49.46,48.77\N,0,47.95,53.08,50.7\C,0,4
 7.8,54.41,51.25\C,0,49.01,54.9,52.03\O,0,49.34,56.08,51.88\C,0,46.54,5
 4.42,52.1\C,0,46.03,55.86,52.17\C,0,44.84,55.88,53.13\C,0,44.42,57.33,
 53.35\N,0,43.16,57.42,54.11\H,0,47.32,52.36,51.04\H,0,47.59,55.09,50.4
 3\H,0,46.66,53.94,53.07\H,0,45.76,53.86,51.58\H,0,45.68,56.15,51.18\H,
 0,46.81,56.53,52.53\H,0,45.22,55.42,54.04\H,0,44.01,55.32,52.69\H,0,44
 .23,57.7,52.35\H,0,45.19,57.94,53.83\H,0,43.32,56.98,55.01\H,0,42.86,5
 8.36,54.3\H,0,42.41,56.99,53.59\N,0,49.61,54.05,52.86\C,0,50.8,54.31,5
 3.65\C,0,52.07,53.72,53.08\O,0,53.14,54.12,53.53\C,0,50.48,53.88,55.08
 \C,0,49.86,52.5,55.26\O,0,49.76,52.08,56.44\O,0,49.59,51.8,54.27\H,0,4
 9.32,53.08,52.83\H,0,51.02,55.38,53.65\H,0,49.72,54.54,55.5\H,0,51.44,
 53.94,55.59\N,0,51.97,52.76,52.16\C,0,53.13,52.2,51.49\C,0,53.93,51.26
 ,52.38\O,0,55.04,51.58,52.8\H,0,51.09,52.33,51.92\H,0,53.85,53.01,51.3
 9\H,0,52.86,51.73,50.54\N,0,53.23,50.23,52.87\C,0,53.76,49.14,53.67\C,
 0,53.87,47.81,52.94\O,0,54.42,46.83,53.43\C,0,52.94,49.01,54.96\C,0,51
 .63,48.27,54.76\N,0,51.33,47.24,55.55\O,0,50.76,48.5,53.92\H,0,52.37,5
 0.02,52.38\H,0,54.72,49.44,54.09\H,0,52.9,49.95,55.49\H,0,53.54,48.39,
 55.63\H,0,51.92,46.82,56.26\H,0,50.38,46.91,55.61\N,0,53.32,47.72,51.7
 3\C,0,53.48,46.61,50.8\C,0,52.15,45.91,50.58\O,0,52.11,44.97,49.78\H,0
 ,52.82,48.54,51.43\H,0,54.05,45.75,51.15\H,0,53.86,46.81,49.8\N,0,51.1
 3,46.3,51.34\C,0,49.84,45.63,51.34\C,0,48.68,46.6,51.23\O,0,48.83,47.7
 8,51.54\C,0,49.63,44.68,52.51\C,0,50.65,43.57,52.67\C,0,51.87,43.9,53.
 27\C,0,50.52,42.35,51.99\C,0,52.88,42.93,53.35\C,0,51.5,41.36,52.12\C,
 0,52.67,41.63,52.87\O,0,53.7,40.74,52.99\H,0,51.3,47.01,52.04\H,0,49.7
 8,44.9,50.53\H,0,48.64,44.23,52.46\H,0,49.7,45.36,53.35\H,0,52.02,44.9
 1,53.64\H,0,49.58,42.14,51.5\H,0,53.83,43.08,53.84\H,0,51.4,40.38,51.6
 7\H,0,53.51,39.91,52.54\N,0,47.52,46.16,50.74\C,0,46.3,46.93,50.61\C,0
 ,45.32,46.19,51.52\O,0,45.28,44.97,51.55\C,0,45.92,46.98,49.13\C,0,46.
 82,47.88,48.3\C,0,44.52,47.53,48.91\C,0,46.93,47.51,46.82\H,0,47.42,45
 .18,50.49\H,0,46.45,47.94,50.98\H,0,45.96,45.95,48.77\H,0,47.82,47.83,
 48.73\H,0,46.48,48.91,48.43\H,0,44.16,47.5,47.88\H,0,43.73,47.12,49.54
 \H,0,44.53,48.57,49.23\H,0,46.03,47.51,46.21\H,0,47.74,48.13,46.44\H,0
 ,47.3,46.49,46.71\N,0,44.48,46.97,52.21\C,0,43.43,46.5,53.08\C,0,42.06
 ,46.95,52.57\O,0,41.98,47.7,51.61\C,0,43.55,47.14,54.46\O,0,43.42,48.5
 5,54.45\H,0,44.55,47.98,52.13\H,0,43.38,45.41,53.04\H,0,44.52,46.88,54
 .89\H,0,42.79,46.78,55.15\H,0,43.56,48.97,55.3\N,0,40.96,46.54,53.21\C
 ,0,39.62,46.93,52.81\C,0,39.42,48.41,53.12\O,0,38.95,49.11,52.23\C,0,3
 8.6,46.02,53.49\H,0,41.04,45.91,53.99\H,0,39.47,46.77,51.74\H,0,38.88,
 44.97,53.56\H,0,38.38,46.5,54.44\H,0,37.68,45.95,52.91\N,0,39.94,48.92
 ,54.24\C,0,39.88,50.33,54.54\C,0,40.57,51.21,53.5\O,0,40.35,52.41,53.5
 7\C,0,40.6,50.53,55.88\H,0,40.38,48.29,54.9\H,0,38.84,50.66,54.56\H,0,
 41.68,50.4,55.77\H,0,40.3,51.48,56.32\H,0,40.26,49.8,56.61\N,0,41.49,5
 0.67,52.7\C,0,42.35,51.28,51.7\C,0,41.86,51.07,50.28\O,0,41.91,51.96,4
 9.43\C,0,43.73,50.68,51.97\C,0,44.42,51.33,53.16\C,0,45.85,50.84,53.13
 \O,0,46.47,50.66,52.06\O,0,46.37,50.7,54.26\H,0,41.59,49.66,52.73\H,0,
 42.34,52.35,51.9\H,0,44.37,50.75,51.09\H,0,43.6,49.62,52.15\H,0,43.89,
 51.24,54.12\H,0,44.39,52.38,52.88\N,0,41.1,50.02,49.99\C,0,40.29,50.,4
 8.79\H,0,39.399,50.608,48.944\H,0,40.865,50.403,47.956\H,0,39.995,48.9
 75,48.567\H,0,41.21,49.28,50.67\Ca,0,48.62,49.67,53.39\O,0,48.79,49.63
 ,56.08\H,0,49.28,50.39,56.39\H,0,48.37,49.27,56.87\\Version=ES64L-G16R
 evA.03\State=1-A\HF=-5333.5953754\RMSD=7.363e-09\Dipole=-14.0720276,1.
 3024126,5.0162413\Quadrupole=-90.7357536,96.1266028,-5.3908491,-85.106
 8173,-60.0825696,18.7112169\PG=C01 [X(C54H83Ca1N15O23)]\\@


 TRUTH, IN SCIENCE, CAN BE DEFINED AS THE WORKING HYPOTHESIS 
 BEST FITTED TO OPEN THE WAY TO THE NEXT BETTER ONE.

                              -- KONRAD LORENZ
 Job cpu time:       0 days  8 hours 56 minutes 18.0 seconds.
 Elapsed time:       0 days  0 hours 11 minutes 17.8 seconds.
 File lengths (MBytes):  RWF=   1517 Int=      0 D2E=      0 Chk=    171 Scr=      1
 Normal termination of Gaussian 16 at Sat Sep 14 22:39:23 2019.
