 Entering Gaussian System, Link 0=g16
 Initial command:
 /home1/apps/gaussian/16rA.03/g16/l1.exe "/scratch/01990/pengzhi/4328835/Gau-138751.inp" -scrdir="/scratch/01990/pengzhi/4328835/"
 Entering Link 1 = /home1/apps/gaussian/16rA.03/g16/l1.exe PID=    138752.
  
 Copyright (c) 1988,1990,1992,1993,1995,1998,2003,2009,2016,
            Gaussian, Inc.  All Rights Reserved.
  
 This is part of the Gaussian(R) 16 program.  It is based on
 the Gaussian(R) 09 system (copyright 2009, Gaussian, Inc.),
 the Gaussian(R) 03 system (copyright 2003, Gaussian, Inc.),
 the Gaussian(R) 98 system (copyright 1998, Gaussian, Inc.),
 the Gaussian(R) 94 system (copyright 1995, Gaussian, Inc.),
 the Gaussian 92(TM) system (copyright 1992, Gaussian, Inc.),
 the Gaussian 90(TM) system (copyright 1990, Gaussian, Inc.),
 the Gaussian 88(TM) system (copyright 1988, Gaussian, Inc.),
 the Gaussian 86(TM) system (copyright 1986, Carnegie Mellon
 University), and the Gaussian 82(TM) system (copyright 1983,
 Carnegie Mellon University). Gaussian is a federally registered
 trademark of Gaussian, Inc.
  
 This software contains proprietary and confidential information,
 including trade secrets, belonging to Gaussian, Inc.
  
 This software is provided under written license and may be
 used, copied, transmitted, or stored only in accord with that
 written license.
  
 The following legend is applicable only to US Government
 contracts under FAR:
  
                    RESTRICTED RIGHTS LEGEND
  
 Use, reproduction and disclosure by the US Government is
 subject to restrictions as set forth in subparagraphs (a)
 and (c) of the Commercial Computer Software - Restricted
 Rights clause in FAR 52.227-19.
  
 Gaussian, Inc.
 340 Quinnipiac St., Bldg. 40, Wallingford CT 06492
  
  
 ---------------------------------------------------------------
 Warning -- This program may not be used in any manner that
 competes with the business of Gaussian, Inc. or will provide
 assistance to any competitor of Gaussian, Inc.  The licensee
 of this program is prohibited from giving any competitor of
 Gaussian, Inc. access to this program.  By using this program,
 the user acknowledges that Gaussian, Inc. is engaged in the
 business of creating and licensing software in the field of
 computational chemistry and represents and warrants to the
 licensee that it is not a competitor of Gaussian, Inc. and that
 it will not use this program in any manner prohibited above.
 ---------------------------------------------------------------
  

 Cite this work as:
 Gaussian 16, Revision A.03,
 M. J. Frisch, G. W. Trucks, H. B. Schlegel, G. E. Scuseria, 
 M. A. Robb, J. R. Cheeseman, G. Scalmani, V. Barone, 
 G. A. Petersson, H. Nakatsuji, X. Li, M. Caricato, A. V. Marenich, 
 J. Bloino, B. G. Janesko, R. Gomperts, B. Mennucci, H. P. Hratchian, 
 J. V. Ortiz, A. F. Izmaylov, J. L. Sonnenberg, D. Williams-Young, 
 F. Ding, F. Lipparini, F. Egidi, J. Goings, B. Peng, A. Petrone, 
 T. Henderson, D. Ranasinghe, V. G. Zakrzewski, J. Gao, N. Rega, 
 G. Zheng, W. Liang, M. Hada, M. Ehara, K. Toyota, R. Fukuda, 
 J. Hasegawa, M. Ishida, T. Nakajima, Y. Honda, O. Kitao, H. Nakai, 
 T. Vreven, K. Throssell, J. A. Montgomery, Jr., J. E. Peralta, 
 F. Ogliaro, M. J. Bearpark, J. J. Heyd, E. N. Brothers, K. N. Kudin, 
 V. N. Staroverov, T. A. Keith, R. Kobayashi, J. Normand, 
 K. Raghavachari, A. P. Rendell, J. C. Burant, S. S. Iyengar, 
 J. Tomasi, M. Cossi, J. M. Millam, M. Klene, C. Adamo, R. Cammi, 
 J. W. Ochterski, R. L. Martin, K. Morokuma, O. Farkas, 
 J. B. Foresman, and D. J. Fox, Gaussian, Inc., Wallingford CT, 2016.
 
 ******************************************
 Gaussian 16:  ES64L-G16RevA.03 25-Dec-2016
                14-Sep-2019 
 ******************************************
 %chk=holoCaM_loop3_96.0.chk
 %nprocshared=48
 Will use up to   48 processors via shared memory.
 %mem=10GB
 %nosave
 ----------------------------------------------------------------------
 #b3lyp/svp scf=(tight,noincore) Test #IOP(5/87=12) Density=Current Pop
 =(MK,readradii) iop(6/33=2) iop(6/42=6)
 ----------------------------------------------------------------------
 1/30=1,38=1,172=1/1;
 2/12=2,17=6,18=5,40=1/2;
 3/5=18,7=101,11=2,25=1,30=1,74=-5/1,2,3;
 4//1;
 5/5=4,32=2,38=5,87=12/2;
 6/7=2,8=2,9=2,10=2,15=8,20=101,22=-1,28=1,33=2,42=6/1,2;
 99/5=1,9=1/99;
 ------------------
 holoCaM_loop3_96.0
 ------------------
 Symbolic Z-matrix:
 Charge =  0 Multiplicity = 1
 C                     91.21     59.29     103.617 
 C                     92.5      59.77     102.977 
 O                     93.16     58.8      102.637 
 H                     90.411    59.301    102.875 
 H                     91.345    58.275    103.99 
 H                     90.946    59.95     104.444 
 N                     92.76     61.08     102.887 
 C                     93.96     61.58     102.257 
 C                     95.2      61.29     103.087 
 O                     95.14     61.47     104.297 
 C                     93.74     63.07     101.977 
 C                     94.76     63.78     101.097 
 O                     94.47     64.35     100.017 
 O                     95.91     63.32     101.217 
 H                     92.22     61.61     103.557 
 H                     94.03     61.1      101.277 
 H                     93.6      63.59     102.927 
 H                     92.74     63.18     101.567 
 N                     96.26     60.69     102.537 
 C                     97.39     60.15     103.257 
 C                     98.48     61.19     103.477 
 O                     99.28     60.97     104.377 
 C                     97.84     58.85     102.597 
 C                     96.87     57.67     102.737 
 C                     97.5      56.3      102.517 
 C                     98.65     55.9      103.437 
 N                     99.15     54.54     103.197 
 H                     96.34     60.58     101.537 
 H                     97.05     59.95     104.277 
 H                     98.76     58.57     103.117 
 H                     98.07     58.9      101.537 
 H                     96.02     57.8      102.067 
 H                     96.34     57.66     103.697 
 H                     97.96     56.29     101.527 
 H                     96.72     55.54     102.507 
 H                     98.29     55.92     104.467 
 H                     99.43     56.67     103.427 
 H                     100.1     54.49     103.557 
 H                     98.51     53.84     103.527 
 H                     99.42     54.42     102.227 
 N                     98.49     62.32     102.757 
 C                     99.25     63.49     103.137 
 C                     98.34     64.61     103.617 
 O                     98.86     65.52     104.247 
 C                     100.08    63.98     101.957 
 C                     99.4      64.23     100.617 
 O                     100.15    63.87     99.677 
 O                     98.19     64.54     100.577 
 H                     97.72     62.34     102.107 
 H                     99.9      63.2      103.967 
 H                     100.9     63.28     101.777 
 H                     100.44    64.97     102.207 
 N                     97.04     64.61     103.287 
 C                     96.08     65.63     103.647 
 C                     96.04     66.81     102.687 
 O                     95.49     67.85     103.047 
 H                     96.72     63.9      102.647 
 H                     96.27     66.02     104.647 
 H                     95.09     65.17     103.577 
 N                     96.45     66.71     101.417 
 C                     96.59     67.77     100.427 
 C                     95.34     68.13     99.627 
 O                     95.25     69.24     99.127 
 C                     97.83     67.54     99.577 
 C                     97.6      66.71     98.317 
 N                     98.23     67.08     97.197 
 O                     96.86     65.74     98.247 
 H                     96.84     65.84     101.087 
 H                     96.75     68.62     101.087 
 H                     98.72     67.15     100.077 
 H                     98.09     68.55     99.257 
 H                     98.88     67.85     97.237 
 H                     97.97     66.63     96.337 
 N                     94.32     67.27     99.587 
 C                     93.06     67.52     98.907 
 C                     92.85     66.92     97.527 
 O                     91.98     67.39     96.797 
 H                     94.39     66.42     100.117 
 H                     92.95     68.58     98.707 
 H                     92.27     67.1      99.517 
 N                     93.67     65.91     97.227 
 C                     93.61     65.2      95.967 
 C                     93.93     63.76     96.337 
 O                     94.7      63.53     97.267 
 C                     94.71     65.74     95.057 
 C                     94.5      67.14     94.527 
 C                     95.35     68.21     94.857 
 C                     93.5      67.44     93.607 
 C                     95.26     69.5      94.327 
 C                     93.36     68.75     93.117 
 C                     94.21     69.83     93.447 
 O                     94.18     71.03     92.797 
 H                     94.35     65.59     97.907 
 H                     92.62     65.33     95.527 
 H                     95.02     65.       94.317 
 H                     95.55     65.87     95.747 
 H                     96.2      68.07     95.507 
 H                     92.89     66.7      93.107 
 H                     96.04     70.21     94.537 
 H                     92.68     69.08     92.347 
 H                     93.35     71.04     92.307 
 N                     93.3      62.81     95.647 
 C                     93.31     61.39     95.957 
 C                     93.8      60.64     94.737 
 O                     93.21     60.79     93.667 
 C                     91.99     60.84     96.477 
 C                     91.44     61.35     97.807 
 C                     91.98     59.31     96.447 
 C                     92.31     61.25     99.047 
 H                     92.72     63.08     94.867 
 H                     94.07     61.16     96.707 
 H                     91.16     61.07     95.797 
 H                     90.46     60.88     97.937 
 H                     91.2      62.41     97.717 
 H                     90.99     59.02     96.787 
 H                     92.14     58.83     95.477 
 H                     92.7      58.96     97.187 
 H                     93.06     62.04     99.107 
 H                     91.67     61.29     99.937 
 H                     92.91     60.35     99.187 
 N                     94.8      59.77     94.857 
 C                     95.33     58.9      93.827 
 C                     94.77     57.5      94.027 
 O                     94.05     57.13     94.947 
 C                     96.85     59.04     93.837 
 O                     97.42     58.2      94.817 
 H                     95.11     59.6      95.807 
 H                     95.       59.21     92.827 
 H                     97.1      60.09     94.017 
 H                     97.19     58.72     92.857 
 H                     98.36     58.11     94.667 
 N                     95.09     56.66     93.037 
 C                     94.66     55.28     93.127 
 C                     95.44     54.51     94.187 
 O                     94.91     53.55     94.747 
 C                     94.86     54.54     91.807 
 H                     95.51     57.03     92.197 
 H                     93.63     55.41     93.457 
 H                     94.23     53.66     91.957 
 H                     94.38     55.03     90.967 
 H                     95.91     54.34     91.617 
 N                     96.68     54.91     94.497 
 C                     97.51     54.45     95.587 
 C                     96.91     54.74     96.947 
 O                     96.6      53.83     97.717 
 C                     98.99     54.76     95.357 
 H                     97.15     55.57     93.897 
 H                     97.48     53.36     95.477 
 H                     99.14     55.84     95.367 
 H                     99.6      54.4      96.177 
 H                     99.32     54.35     94.397 
 N                     96.5      55.99     97.187 
 C                     95.65     56.33     98.307 
 C                     94.36     55.54     98.387 
 O                     94.1      54.85     99.377 
 C                     95.3      57.82     98.247 
 C                     96.54     58.71     98.357 
 C                     96.19     60.17     98.567 
 O                     96.03     60.66     99.707 
 O                     96.3      60.96     97.607 
 H                     96.74     56.77     96.587 
 H                     96.09     56.08     99.267 
 H                     94.7      58.07     99.117 
 H                     94.84     58.02     97.277 
 H                     97.18     58.5      97.497 
 H                     97.15     58.4      99.207 
 N                     93.68     55.49     97.237 
 C                     92.39     54.83     97.247 
 H                     91.661    55.45     96.726 
 H                     92.471    53.866    96.745 
 H                     92.067    54.678    98.277 
 H                     94.03     56.06     96.487 
 Ca                    96.88     63.1      98.86 
 O                     98.92     61.42     99.29 
 H                     99.68     61.99     99.28 
 H                     99.22     60.63     99.73 
 
 Stoichiometry    C54H83CaN15O23
 Framework group  C1[X(C54H83CaN15O23)]
 Deg. of freedom   522
 Full point group                 C1      NOp   1
 Largest Abelian subgroup         C1      NOp   1
 Largest concise Abelian subgroup C1      NOp   1
                         Standard orientation:                         
 ---------------------------------------------------------------------
 Center     Atomic      Atomic             Coordinates (Angstroms)
 Number     Number       Type             X           Y           Z
 ---------------------------------------------------------------------
      1          6           0        1.499927    3.653565    5.840006
      2          6           0        1.135237    3.384179    4.391375
      3          8           0        2.152212    3.404576    3.715028
      4          1           0        1.592344    2.706676    6.372871
      5          1           0        2.448597    4.188154    5.882658
      6          1           0        0.720267    4.257214    6.305797
      7          7           0       -0.143507    3.196847    4.042777
      8          6           0       -0.530417    2.906186    2.681632
      9          6           0       -0.355650    4.111485    1.772065
     10          8           0       -0.716301    5.205669    2.187746
     11          6           0       -1.963536    2.366284    2.721316
     12          6           0       -2.522307    1.755370    1.443247
     13          8           0       -2.926301    0.570105    1.357598
     14          8           0       -2.073586    2.288842    0.412443
     15          1           0       -0.773920    3.585523    4.730462
     16          1           0        0.092296    2.073367    2.343486
     17          1           0       -2.622009    3.143608    3.114610
     18          1           0       -2.021052    1.655507    3.540882
     19          7           0        0.331350    4.006553    0.630522
     20          6           0        0.768657    5.109292   -0.193874
     21          6           0       -0.281135    5.508405   -1.221856
     22          8           0       -0.190708    6.633431   -1.695713
     23          6           0        2.157811    4.809844   -0.749464
     24          6           0        3.293084    4.806054    0.282060
     25          6           0        4.687111    4.985963   -0.306601
     26          6           0        4.956133    6.263407   -1.096958
     27          7           0        6.341923    6.382833   -1.568684
     28          1           0        0.591410    3.106268    0.255880
     29          1           0        0.809317    5.991199    0.451562
     30          1           0        2.365991    5.623066   -1.449843
     31          1           0        2.270303    3.877223   -1.294039
     32          1           0        3.256493    3.894432    0.878639
     33          1           0        3.152957    5.546094    1.079121
     34          1           0        4.850790    4.198820   -1.045124
     35          1           0        5.431751    4.841218    0.474846
     36          1           0        4.777596    7.117749   -0.441883
     37          1           0        4.204617    6.387943   -1.885066
     38          1           0        6.347125    7.022704   -2.359341
     39          1           0        6.977552    6.592823   -0.820099
     40          1           0        6.609344    5.571023   -2.114258
     41          7           0       -1.289753    4.676314   -1.514623
     42          6           0       -2.495590    5.105481   -2.187434
     43          6           0       -3.684534    5.118315   -1.239201
     44          8           0       -4.673480    5.744611   -1.592953
     45          6           0       -2.793723    4.184341   -3.363876
     46          6           0       -2.846337    2.678495   -3.139912
     47          8           0       -2.341150    2.077175   -4.119147
     48          8           0       -3.159442    2.222652   -2.019210
     49          1           0       -1.219774    3.823672   -0.981797
     50          1           0       -2.327001    6.127995   -2.536062
     51          1           0       -2.066059    4.367012   -4.158821
     52          1           0       -3.806245    4.392505   -3.685849
     53          7           0       -3.648489    4.405220   -0.103817
     54          6           0       -4.721043    4.303698    0.861025
     55          6           0       -5.743497    3.223413    0.539820
     56          8           0       -6.831530    3.246112    1.113728
     57          1           0       -2.853656    3.803505    0.045445
     58          1           0       -5.255073    5.248463    0.963155
     59          1           0       -4.266140    3.995504    1.806900
     60          7           0       -5.449237    2.170042   -0.231426
     61          6           0       -6.346665    1.134093   -0.726131
     62          6           0       -6.595249   -0.055881    0.198134
     63          8           0       -7.618250   -0.709255    0.068624
     64          6           0       -5.978402    0.751035   -2.151140
     65          6           0       -4.970701   -0.389095   -2.269641
     66          7           0       -5.161331   -1.298984   -3.230871
     67          8           0       -4.009016   -0.548500   -1.532653
     68          1           0       -4.535449    2.102209   -0.653670
     69          1           0       -7.284581    1.685466   -0.725084
     70          1           0       -5.658786    1.551540   -2.822882
     71          1           0       -6.925968    0.389362   -2.552900
     72          1           0       -5.921732   -1.167699   -3.880142
     73          1           0       -4.589788   -2.125379   -3.220390
     74          7           0       -5.749752   -0.289204    1.204262
     75          6           0       -5.907758   -1.354035    2.180822
     76          6           0       -5.109158   -2.632996    1.993743
     77          8           0       -5.473039   -3.654800    2.571850
     78          1           0       -4.988501    0.349819    1.347249
     79          1           0       -6.926685   -1.724475    2.164588
     80          1           0       -5.592631   -0.966354    3.141549
     81          7           0       -4.056984   -2.519817    1.179728
     82          6           0       -3.166130   -3.624066    0.892825
     83          6           0       -1.794934   -2.975536    0.782675
     84          8           0       -1.699451   -1.830192    0.347048
     85          6           0       -3.551494   -4.214630   -0.460847
     86          6           0       -4.857918   -4.973959   -0.501787
     87          6           0       -5.956432   -4.549945   -1.269757
     88          6           0       -5.026513   -6.190944    0.151605
     89          6           0       -7.152858   -5.256710   -1.418575
     90          6           0       -6.249254   -6.878380    0.061387
     91          6           0       -7.357653   -6.455764   -0.707148
     92          8           0       -8.446423   -7.244207   -0.944503
     93          1           0       -3.835852   -1.624880    0.758552
     94          1           0       -3.238797   -4.362756    1.692610
     95          1           0       -2.705358   -4.711018   -0.939339
     96          1           0       -3.775042   -3.323665   -1.056505
     97          1           0       -5.906946   -3.655733   -1.871868
     98          1           0       -4.226128   -6.746643    0.620948
     99          1           0       -7.878167   -4.916881   -2.136240
    100          1           0       -6.466727   -7.859356    0.454567
    101          1           0       -8.391264   -7.963566   -0.305300
    102          7           0       -0.758570   -3.686743    1.224979
    103          6           0        0.598637   -3.193478    1.390143
    104          6           0        1.528774   -4.084121    0.594781
    105          8           0        1.535327   -5.294174    0.821120
    106          6           0        1.050270   -3.036449    2.834673
    107          6           0        0.340206   -2.027373    3.734159
    108          6           0        2.567173   -2.853748    2.921433
    109          6           0        0.261575   -0.577692    3.290604
    110          1           0       -0.914178   -4.637751    1.523425
    111          1           0        0.721102   -2.220514    0.909161
    112          1           0        0.916538   -3.965267    3.403543
    113          1           0        0.775003   -2.142979    4.732050
    114          1           0       -0.696634   -2.334637    3.875050
    115          1           0        2.792324   -2.800134    3.982674
    116          1           0        3.189323   -3.649279    2.500769
    117          1           0        2.809351   -1.885795    2.482209
    118          1           0       -0.520560   -0.399415    2.551225
    119          1           0        0.081402    0.055444    4.168087
    120          1           0        1.136492   -0.134256    2.813650
    121          7           0        2.381233   -3.539769   -0.270260
    122          6           0        3.401824   -4.222549   -1.038964
    123          6           0        4.749843   -4.012119   -0.366534
    124          8           0        4.969627   -3.318204    0.619304
    125          6           0        3.277838   -3.761826   -2.488951
    126          8           0        3.966723   -2.546094   -2.684743
    127          1           0        2.409576   -2.526519   -0.265836
    128          1           0        3.242397   -5.308601   -1.047518
    129          1           0        2.215384   -3.661964   -2.731065
    130          1           0        3.745208   -4.533378   -3.092831
    131          1           0        4.088109   -2.383358   -3.619078
    132          7           0        5.732559   -4.726535   -0.925084
    133          6           0        7.078722   -4.582079   -0.410908
    134          6           0        7.688569   -3.235844   -0.785926
    135          8           0        8.547764   -2.739102   -0.057138
    136          6           0        8.010985   -5.658009   -0.961598
    137          1           0        5.497596   -5.438155   -1.601316
    138          1           0        6.889765   -4.609010    0.661599
    139          1           0        8.851746   -5.589025   -0.267219
    140          1           0        7.647970   -6.665238   -0.788937
    141          1           0        8.248283   -5.483427   -2.006495
    142          7           0        7.259482   -2.616097   -1.892948
    143          6           0        7.558884   -1.269520   -2.323864
    144          6           0        7.061265   -0.216948   -1.355274
    145          8           0        7.841735    0.538452   -0.774467
    146          6           0        7.302541   -1.070678   -3.818571
    147          1           0        6.702244   -3.127082   -2.559942
    148          1           0        8.652651   -1.229798   -2.267319
    149          1           0        6.234965   -1.165871   -4.019120
    150          1           0        7.541414   -0.060169   -4.128265
    151          1           0        7.855767   -1.813930   -4.401767
    152          7           0        5.785159   -0.293105   -0.962904
    153          6           0        5.271609    0.449313    0.167397
    154          6           0        6.027022    0.235407    1.462849
    155          8           0        6.557427    1.182424    2.050751
    156          6           0        3.804023    0.076037    0.397732
    157          6           0        2.920638    0.439152   -0.797918
    158          6           0        1.442078    0.323995   -0.483594
    159          8           0        0.784461    1.278006   -0.011680
    160          8           0        0.806732   -0.655267   -0.925388
    161          1           0        5.106887   -0.892130   -1.418004
    162          1           0        5.378894    1.523433    0.055789
    163          1           0        3.419681    0.673382    1.219232
    164          1           0        3.747461   -1.006690    0.528131
    165          1           0        3.264352   -0.141991   -1.656658
    166          1           0        3.105570    1.470882   -1.101291
    167          7           0        6.242383   -1.049789    1.761664
    168          6           0        6.879818   -1.347712    3.028440
    169          1           0        6.337679   -2.150260    3.527724
    170          1           0        7.909177   -1.659885    2.852858
    171          1           0        6.871700   -0.457848    3.658050
    172          1           0        5.795432   -1.726430    1.168122
    173         20           0       -1.491260    0.403472   -1.215754
    174          8           0        0.126171    1.674861   -2.929342
    175          1           0       -0.427843    1.821177   -3.687141
    176          1           0        0.844061    2.292106   -3.035846
 ---------------------------------------------------------------------
 Rotational constants (GHZ):           0.0227375           0.0150534           0.0111188
 Standard basis: SVP (5D, 7F)
 There are  1809 symmetry adapted cartesian basis functions of A   symmetry.
 There are  1717 symmetry adapted basis functions of A   symmetry.
  1717 basis functions,  2922 primitive gaussians,  1809 cartesian basis functions
   358 alpha electrons      358 beta electrons
       nuclear repulsion energy     21610.3566051823 Hartrees.
 NAtoms=  176 NActive=  176 NUniq=  176 SFac= 1.00D+00 NAtFMM=   60 NAOKFM=T Big=T
 Integral buffers will be    131072 words long.
 Raffenetti 2 integral format.
 Two-electron integral symmetry is turned on.
 One-electron integrals computed using PRISM.
 NBasis=  1717 RedAO= T EigKep=  2.67D-04  NBF=  1717
 NBsUse=  1717 1.00D-06 EigRej= -1.00D+00 NBFU=  1717
 ExpMin= 1.98D-02 ExpMax= 3.51D+04 ExpMxC= 5.28D+03 IAcc=3 IRadAn=         5 AccDes= 0.00D+00
 Harris functional with IExCor=  402 and IRadAn=       5 diagonalized for initial guess.
 HarFok:  IExCor=  402 AccDes= 0.00D+00 IRadAn=         5 IDoV= 1 UseB2=F ITyADJ=14
 ICtDFT=  3500011 ScaDFX=  1.000000  1.000000  1.000000  1.000000
 FoFCou: FMM=F IPFlag=           0 FMFlag=      100000 FMFlg1=        2001
         NFxFlg=           0 DoJE=T BraDBF=F KetDBF=T FulRan=T
         wScrn=  0.000000 ICntrl=       500 IOpCl=  0 I1Cent=   200000004 NGrid=           0
         NMat0=    1 NMatS0=      1 NMatT0=    0 NMatD0=    1 NMtDS0=    0 NMtDT0=    0
 Petite list used in FoFCou.
 Requested convergence on RMS density matrix=1.00D-08 within 128 cycles.
 Requested convergence on MAX density matrix=1.00D-06.
 Requested convergence on             energy=1.00D-06.
 No special actions if energy rises.
 EnCoef did     3 forward-backward iterations
 SCF Done:  E(RB3LYP) =  -5333.56449778     A.U. after   19 cycles
            NFock= 19  Conv=0.24D-08     -V/T= 2.0081
 SCF density gives NOpUse=  1 NOpAll=  1.
 Hyperfine terms turned off by default for NAtoms > 100.

 **********************************************************************

            Population analysis using the SCF density.

 **********************************************************************

 Orbital symmetries:
 BldTbl:  Degeneracy threshold= 1.00D-02
       Occupied  (A) (A) (A) (A) (A) (A) (A) (A) (A) (A) (A) (A)
                 (A) (A) (A) (A) (A) (A) (A) (A) (A) (A) (A) (A)
                 (A) (A) (A) (A) (A) (A) (A) (A) (A) (A) (A) (A)
                 (A) (A) (A) (A) (A) (A) (A) (A) (A) (A) (A) (A)
                 (A) (A) (A) (A) (A) (A) (A) (A) (A) (A) (A) (A)
                 (A) (A) (A) (A) (A) (A) (A) (A) (A) (A) (A) (A)
                 (A) (A) (A) (A) (A) (A) (A) (A) (A) (A) (A) (A)
                 (A) (A) (A) (A) (A) (A) (A) (A) (A) (A) (A) (A)
                 (A) (A) (A) (A) (A) (A) (A) (A) (A) (A) (A) (A)
                 (A) (A) (A) (A) (A) (A) (A) (A) (A) (A) (A) (A)
                 (A) (A) (A) (A) (A) (A) (A) (A) (A) (A) (A) (A)
                 (A) (A) (A) (A) (A) (A) (A) (A) (A) (A) (A) (A)
                 (A) (A) (A) (A) (A) (A) (A) (A) (A) (A) (A) (A)
                 (A) (A) (A) (A) (A) (A) (A) (A) (A) (A) (A) (A)
                 (A) (A) (A) (A) (A) (A) (A) (A) (A) (A) (A) (A)
                 (A) (A) (A) (A) (A) (A) (A) (A) (A) (A) (A) (A)
                 (A) (A) (A) (A) (A) (A) (A) (A) (A) (A) (A) (A)
                 (A) (A) (A) (A) (A) (A) (A) (A) (A) (A) (A) (A)
                 (A) (A) (A) (A) (A) (A) (A) (A) (A) (A) (A) (A)
                 (A) (A) (A) (A) (A) (A) (A) (A) (A) (A) (A) (A)
                 (A) (A) (A) (A) (A) (A) (A) (A) (A) (A) (A) (A)
                 (A) (A) (A) (A) (A) (A) (A) (A) (A) (A) (A) (A)
                 (A) (A) (A) (A) (A) (A) (A) (A) (A) (A) (A) (A)
                 (A) (A) (A) (A) (A) (A) (A) (A) (A) (A) (A) (A)
                 (A) (A) (A) (A) (A) (A) (A) (A) (A) (A) (A) (A)
                 (A) (A) (A) (A) (A) (A) (A) (A) (A) (A) (A) (A)
                 (A) (A) (A) (A) (A) (A) (A) (A) (A) (A) (A) (A)
                 (A) (A) (A) (A) (A) (A) (A) (A) (A) (A) (A) (A)
                 (A) (A) (A) (A) (A) (A) (A) (A) (A) (A) (A) (A)
                 (A) (A) (A) (A) (A) (A) (A) (A) (A) (A)
       Virtual   (A) (A) (A) (A) (A) (A) (A) (A) (A) (A) (A) (A)
                 (A) (A) (A) (A) (A) (A) (A) (A) (A) (A) (A) (A)
                 (A) (A) (A) (A) (A) (A) (A) (A) (A) (A) (A) (A)
                 (A) (A) (A) (A) (A) (A) (A) (A) (A) (A) (A) (A)
                 (A) (A) (A) (A) (A) (A) (A) (A) (A) (A) (A) (A)
                 (A) (A) (A) (A) (A) (A) (A) (A) (A) (A) (A) (A)
                 (A) (A) (A) (A) (A) (A) (A) (A) (A) (A) (A) (A)
                 (A) (A) (A) (A) (A) (A) (A) (A) (A) (A) (A) (A)
                 (A) (A) (A) (A) (A) (A) (A) (A) (A) (A) (A) (A)
                 (A) (A) (A) (A) (A) (A) (A) (A) (A) (A) (A) (A)
                 (A) (A) (A) (A) (A) (A) (A) (A) (A) (A) (A) (A)
                 (A) (A) (A) (A) (A) (A) (A) (A) (A) (A) (A) (A)
                 (A) (A) (A) (A) (A) (A) (A) (A) (A) (A) (A) (A)
                 (A) (A) (A) (A) (A) (A) (A) (A) (A) (A) (A) (A)
                 (A) (A) (A) (A) (A) (A) (A) (A) (A) (A) (A) (A)
                 (A) (A) (A) (A) (A) (A) (A) (A) (A) (A) (A) (A)
                 (A) (A) (A) (A) (A) (A) (A) (A) (A) (A) (A) (A)
                 (A) (A) (A) (A) (A) (A) (A) (A) (A) (A) (A) (A)
                 (A) (A) (A) (A) (A) (A) (A) (A) (A) (A) (A) (A)
                 (A) (A) (A) (A) (A) (A) (A) (A) (A) (A) (A) (A)
                 (A) (A) (A) (A) (A) (A) (A) (A) (A) (A) (A) (A)
                 (A) (A) (A) (A) (A) (A) (A) (A) (A) (A) (A) (A)
                 (A) (A) (A) (A) (A) (A) (A) (A) (A) (A) (A) (A)
                 (A) (A) (A) (A) (A) (A) (A) (A) (A) (A) (A) (A)
                 (A) (A) (A) (A) (A) (A) (A) (A) (A) (A) (A) (A)
                 (A) (A) (A) (A) (A) (A) (A) (A) (A) (A) (A) (A)
                 (A) (A) (A) (A) (A) (A) (A) (A) (A) (A) (A) (A)
                 (A) (A) (A) (A) (A) (A) (A) (A) (A) (A) (A) (A)
                 (A) (A) (A) (A) (A) (A) (A) (A) (A) (A) (A) (A)
                 (A) (A) (A) (A) (A) (A) (A) (A) (A) (A) (A) (A)
                 (A) (A) (A) (A) (A) (A) (A) (A) (A) (A) (A) (A)
                 (A) (A) (A) (A) (A) (A) (A) (A) (A) (A) (A) (A)
                 (A) (A) (A) (A) (A) (A) (A) (A) (A) (A) (A) (A)
                 (A) (A) (A) (A) (A) (A) (A) (A) (A) (A) (A) (A)
                 (A) (A) (A) (A) (A) (A) (A) (A) (A) (A) (A) (A)
                 (A) (A) (A) (A) (A) (A) (A) (A) (A) (A) (A) (A)
                 (A) (A) (A) (A) (A) (A) (A) (A) (A) (A) (A) (A)
                 (A) (A) (A) (A) (A) (A) (A) (A) (A) (A) (A) (A)
                 (A) (A) (A) (A) (A) (A) (A) (A) (A) (A) (A) (A)
                 (A) (A) (A) (A) (A) (A) (A) (A) (A) (A) (A) (A)
                 (A) (A) (A) (A) (A) (A) (A) (A) (A) (A) (A) (A)
                 (A) (A) (A) (A) (A) (A) (A) (A) (A) (A) (A) (A)
                 (A) (A) (A) (A) (A) (A) (A) (A) (A) (A) (A) (A)
                 (A) (A) (A) (A) (A) (A) (A) (A) (A) (A) (A) (A)
                 (A) (A) (A) (A) (A) (A) (A) (A) (A) (A) (A) (A)
                 (A) (A) (A) (A) (A) (A) (A) (A) (A) (A) (A) (A)
                 (A) (A) (A) (A) (A) (A) (A) (A) (A) (A) (A) (A)
                 (A) (A) (A) (A) (A) (A) (A) (A) (A) (A) (A) (A)
                 (A) (A) (A) (A) (A) (A) (A) (A) (A) (A) (A) (A)
                 (A) (A) (A) (A) (A) (A) (A) (A) (A) (A) (A) (A)
                 (A) (A) (A) (A) (A) (A) (A) (A) (A) (A) (A) (A)
                 (A) (A) (A) (A) (A) (A) (A) (A) (A) (A) (A) (A)
                 (A) (A) (A) (A) (A) (A) (A) (A) (A) (A) (A) (A)
                 (A) (A) (A) (A) (A) (A) (A) (A) (A) (A) (A) (A)
                 (A) (A) (A) (A) (A) (A) (A) (A) (A) (A) (A) (A)
                 (A) (A) (A) (A) (A) (A) (A) (A) (A) (A) (A) (A)
                 (A) (A) (A) (A) (A) (A) (A) (A) (A) (A) (A) (A)
                 (A) (A) (A) (A) (A) (A) (A) (A) (A) (A) (A) (A)
                 (A) (A) (A) (A) (A) (A) (A) (A) (A) (A) (A) (A)
                 (A) (A) (A) (A) (A) (A) (A) (A) (A) (A) (A) (A)
                 (A) (A) (A) (A) (A) (A) (A) (A) (A) (A) (A) (A)
                 (A) (A) (A) (A) (A) (A) (A) (A) (A) (A) (A) (A)
                 (A) (A) (A) (A) (A) (A) (A) (A) (A) (A) (A) (A)
                 (A) (A) (A) (A) (A) (A) (A) (A) (A) (A) (A) (A)
                 (A) (A) (A) (A) (A) (A) (A) (A) (A) (A) (A) (A)
                 (A) (A) (A) (A) (A) (A) (A) (A) (A) (A) (A) (A)
                 (A) (A) (A) (A) (A) (A) (A) (A) (A) (A) (A) (A)
                 (A) (A) (A) (A) (A) (A) (A) (A) (A) (A) (A) (A)
                 (A) (A) (A) (A) (A) (A) (A) (A) (A) (A) (A) (A)
                 (A) (A) (A) (A) (A) (A) (A) (A) (A) (A) (A) (A)
                 (A) (A) (A) (A) (A) (A) (A) (A) (A) (A) (A) (A)
                 (A) (A) (A) (A) (A) (A) (A) (A) (A) (A) (A) (A)
                 (A) (A) (A) (A) (A) (A) (A) (A) (A) (A) (A) (A)
                 (A) (A) (A) (A) (A) (A) (A) (A) (A) (A) (A) (A)
                 (A) (A) (A) (A) (A) (A) (A) (A) (A) (A) (A) (A)
                 (A) (A) (A) (A) (A) (A) (A) (A) (A) (A) (A) (A)
                 (A) (A) (A) (A) (A) (A) (A) (A) (A) (A) (A) (A)
                 (A) (A) (A) (A) (A) (A) (A) (A) (A) (A) (A) (A)
                 (A) (A) (A) (A) (A) (A) (A) (A) (A) (A) (A) (A)
                 (A) (A) (A) (A) (A) (A) (A) (A) (A) (A) (A) (A)
                 (A) (A) (A) (A) (A) (A) (A) (A) (A) (A) (A) (A)
                 (A) (A) (A) (A) (A) (A) (A) (A) (A) (A) (A) (A)
                 (A) (A) (A) (A) (A) (A) (A) (A) (A) (A) (A) (A)
                 (A) (A) (A) (A) (A) (A) (A) (A) (A) (A) (A) (A)
                 (A) (A) (A) (A) (A) (A) (A) (A) (A) (A) (A) (A)
                 (A) (A) (A) (A) (A) (A) (A) (A) (A) (A) (A) (A)
                 (A) (A) (A) (A) (A) (A) (A) (A) (A) (A) (A) (A)
                 (A) (A) (A) (A) (A) (A) (A) (A) (A) (A) (A) (A)
                 (A) (A) (A) (A) (A) (A) (A) (A) (A) (A) (A) (A)
                 (A) (A) (A) (A) (A) (A) (A) (A) (A) (A) (A) (A)
                 (A) (A) (A) (A) (A) (A) (A) (A) (A) (A) (A) (A)
                 (A) (A) (A) (A) (A) (A) (A) (A) (A) (A) (A) (A)
                 (A) (A) (A) (A) (A) (A) (A) (A) (A) (A) (A) (A)
                 (A) (A) (A) (A) (A) (A) (A) (A) (A) (A) (A) (A)
                 (A) (A) (A) (A) (A) (A) (A) (A) (A) (A) (A) (A)
                 (A) (A) (A) (A) (A) (A) (A) (A) (A) (A) (A) (A)
                 (A) (A) (A) (A) (A) (A) (A) (A) (A) (A) (A) (A)
                 (A) (A) (A) (A) (A) (A) (A) (A) (A) (A) (A) (A)
                 (A) (A) (A) (A) (A) (A) (A) (A) (A) (A) (A) (A)
                 (A) (A) (A) (A) (A) (A) (A) (A) (A) (A) (A) (A)
                 (A) (A) (A) (A) (A) (A) (A) (A) (A) (A) (A) (A)
                 (A) (A) (A) (A) (A) (A) (A) (A) (A) (A) (A) (A)
                 (A) (A) (A) (A) (A) (A) (A) (A) (A) (A) (A) (A)
                 (A) (A) (A) (A) (A) (A) (A) (A) (A) (A) (A) (A)
                 (A) (A) (A) (A) (A) (A) (A) (A) (A) (A) (A) (A)
                 (A) (A) (A) (A) (A) (A) (A) (A) (A) (A) (A) (A)
                 (A) (A) (A) (A) (A) (A) (A) (A) (A) (A) (A) (A)
                 (A) (A) (A) (A) (A) (A) (A) (A) (A) (A) (A) (A)
                 (A) (A) (A) (A) (A) (A) (A) (A) (A) (A) (A) (A)
                 (A) (A) (A) (A) (A) (A) (A) (A) (A) (A) (A) (A)
                 (A) (A) (A) (A) (A) (A) (A) (A) (A) (A) (A) (A)
                 (A) (A) (A) (A) (A) (A) (A) (A) (A) (A) (A) (A)
                 (A) (A) (A) (A) (A) (A) (A) (A) (A) (A) (A) (A)
                 (A) (A) (A)
 The electronic state is 1-A.
 Alpha  occ. eigenvalues -- -145.37099 -19.19688 -19.15520 -19.14942 -19.14936
 Alpha  occ. eigenvalues --  -19.11330 -19.10853 -19.10793 -19.10398 -19.10009
 Alpha  occ. eigenvalues --  -19.08155 -19.08051 -19.07452 -19.07156 -19.06839
 Alpha  occ. eigenvalues --  -19.06610 -19.06235 -19.06192 -19.05665 -19.05611
 Alpha  occ. eigenvalues --  -19.05225 -19.04704 -19.03947 -19.03841 -15.42792
 Alpha  occ. eigenvalues --  -14.58952 -14.39635 -14.38061 -14.36816 -14.36531
 Alpha  occ. eigenvalues --  -14.36402 -14.35812 -14.34191 -14.32401 -14.32207
 Alpha  occ. eigenvalues --  -14.31708 -14.31561 -14.30595 -14.29665 -14.28919
 Alpha  occ. eigenvalues --  -12.56422 -12.56394 -12.56331 -10.34306 -10.32826
 Alpha  occ. eigenvalues --  -10.30350 -10.29456 -10.29258 -10.29129 -10.28879
 Alpha  occ. eigenvalues --  -10.28742 -10.27453 -10.27383 -10.26513 -10.26239
 Alpha  occ. eigenvalues --  -10.26230 -10.25568 -10.25501 -10.25457 -10.25414
 Alpha  occ. eigenvalues --  -10.25321 -10.24404 -10.24227 -10.24032 -10.23320
 Alpha  occ. eigenvalues --  -10.23307 -10.23062 -10.22807 -10.22714 -10.22630
 Alpha  occ. eigenvalues --  -10.22305 -10.22096 -10.22083 -10.22067 -10.21552
 Alpha  occ. eigenvalues --  -10.21202 -10.20254 -10.19935 -10.19408 -10.19216
 Alpha  occ. eigenvalues --  -10.19215 -10.18891 -10.18598 -10.18580 -10.18481
 Alpha  occ. eigenvalues --  -10.18255 -10.17852 -10.17809 -10.17397 -10.17391
 Alpha  occ. eigenvalues --  -10.17155 -10.16983 -10.16921 -10.16854 -10.16621
 Alpha  occ. eigenvalues --  -10.15406 -10.14312  -1.79597  -1.14100  -1.08355
 Alpha  occ. eigenvalues --   -1.07407  -1.07344  -1.07131  -1.06954  -1.04524
 Alpha  occ. eigenvalues --   -1.04013  -1.04009  -1.03943  -1.03291  -1.03249
 Alpha  occ. eigenvalues --   -1.03147  -1.01704  -1.01512  -1.00920  -1.00402
 Alpha  occ. eigenvalues --   -0.99688  -0.99652  -0.99459  -0.98931  -0.98244
 Alpha  occ. eigenvalues --   -0.97497  -0.96872  -0.96864  -0.94701  -0.93888
 Alpha  occ. eigenvalues --   -0.92913  -0.92904  -0.92498  -0.91257  -0.90924
 Alpha  occ. eigenvalues --   -0.90617  -0.90499  -0.90184  -0.89485  -0.88994
 Alpha  occ. eigenvalues --   -0.88911  -0.87846  -0.87659  -0.86598  -0.85753
 Alpha  occ. eigenvalues --   -0.83201  -0.83001  -0.81305  -0.80648  -0.80533
 Alpha  occ. eigenvalues --   -0.79580  -0.78615  -0.77292  -0.76673  -0.76003
 Alpha  occ. eigenvalues --   -0.75519  -0.75120  -0.73996  -0.73858  -0.73260
 Alpha  occ. eigenvalues --   -0.72328  -0.71913  -0.70831  -0.70707  -0.70389
 Alpha  occ. eigenvalues --   -0.70100  -0.69569  -0.69139  -0.68425  -0.67670
 Alpha  occ. eigenvalues --   -0.67434  -0.66698  -0.65120  -0.64543  -0.64265
 Alpha  occ. eigenvalues --   -0.63569  -0.63044  -0.63003  -0.62539  -0.62205
 Alpha  occ. eigenvalues --   -0.61943  -0.61321  -0.61121  -0.60980  -0.60674
 Alpha  occ. eigenvalues --   -0.59824  -0.58665  -0.58611  -0.58411  -0.57382
 Alpha  occ. eigenvalues --   -0.56823  -0.56543  -0.56487  -0.56172  -0.55769
 Alpha  occ. eigenvalues --   -0.55566  -0.55531  -0.55414  -0.55209  -0.54951
 Alpha  occ. eigenvalues --   -0.54753  -0.54360  -0.54176  -0.53607  -0.53363
 Alpha  occ. eigenvalues --   -0.53098  -0.52960  -0.52694  -0.52273  -0.51887
 Alpha  occ. eigenvalues --   -0.51591  -0.51063  -0.50552  -0.50191  -0.49641
 Alpha  occ. eigenvalues --   -0.49545  -0.49374  -0.49314  -0.49102  -0.48788
 Alpha  occ. eigenvalues --   -0.48342  -0.48233  -0.47897  -0.47797  -0.47732
 Alpha  occ. eigenvalues --   -0.47602  -0.47140  -0.47099  -0.46961  -0.46314
 Alpha  occ. eigenvalues --   -0.46294  -0.46246  -0.46028  -0.45708  -0.45528
 Alpha  occ. eigenvalues --   -0.45438  -0.45150  -0.44966  -0.44780  -0.44747
 Alpha  occ. eigenvalues --   -0.44505  -0.44135  -0.43904  -0.43772  -0.43646
 Alpha  occ. eigenvalues --   -0.43404  -0.43376  -0.43215  -0.42958  -0.42658
 Alpha  occ. eigenvalues --   -0.42566  -0.42558  -0.42403  -0.42237  -0.42081
 Alpha  occ. eigenvalues --   -0.42030  -0.41879  -0.41803  -0.41568  -0.41421
 Alpha  occ. eigenvalues --   -0.41329  -0.41257  -0.41176  -0.40901  -0.40840
 Alpha  occ. eigenvalues --   -0.40590  -0.40513  -0.40234  -0.40206  -0.40153
 Alpha  occ. eigenvalues --   -0.39922  -0.39714  -0.39662  -0.39616  -0.39393
 Alpha  occ. eigenvalues --   -0.39260  -0.39002  -0.38957  -0.38788  -0.38643
 Alpha  occ. eigenvalues --   -0.38562  -0.38439  -0.38293  -0.38168  -0.38066
 Alpha  occ. eigenvalues --   -0.38032  -0.37909  -0.37780  -0.37443  -0.37244
 Alpha  occ. eigenvalues --   -0.37172  -0.37135  -0.36959  -0.36914  -0.36833
 Alpha  occ. eigenvalues --   -0.36757  -0.36627  -0.36582  -0.36216  -0.35748
 Alpha  occ. eigenvalues --   -0.35610  -0.35537  -0.35388  -0.35279  -0.34866
 Alpha  occ. eigenvalues --   -0.34469  -0.34268  -0.34047  -0.34039  -0.33887
 Alpha  occ. eigenvalues --   -0.33756  -0.33489  -0.33277  -0.32982  -0.32844
 Alpha  occ. eigenvalues --   -0.32564  -0.32418  -0.32290  -0.31861  -0.31755
 Alpha  occ. eigenvalues --   -0.31697  -0.31444  -0.31273  -0.30892  -0.30655
 Alpha  occ. eigenvalues --   -0.30351  -0.28891  -0.28456  -0.27996  -0.27698
 Alpha  occ. eigenvalues --   -0.27380  -0.27113  -0.26681  -0.26634  -0.26554
 Alpha  occ. eigenvalues --   -0.26008  -0.25754  -0.25681  -0.25442  -0.25283
 Alpha  occ. eigenvalues --   -0.24766  -0.24543  -0.24128  -0.23860  -0.23701
 Alpha  occ. eigenvalues --   -0.23457  -0.23442  -0.23092  -0.22980  -0.22823
 Alpha  occ. eigenvalues --   -0.22745  -0.22599  -0.22404  -0.22315  -0.21810
 Alpha  occ. eigenvalues --   -0.21607  -0.21055  -0.20800  -0.20456  -0.20039
 Alpha  occ. eigenvalues --   -0.19685  -0.19241  -0.18530
 Alpha virt. eigenvalues --   -0.10912  -0.04957  -0.04353  -0.03397  -0.02430
 Alpha virt. eigenvalues --   -0.01299  -0.01157  -0.00257  -0.00171   0.00227
 Alpha virt. eigenvalues --    0.00757   0.01110   0.01300   0.01539   0.01785
 Alpha virt. eigenvalues --    0.02131   0.02830   0.03000   0.03159   0.03580
 Alpha virt. eigenvalues --    0.03733   0.04203   0.04550   0.04728   0.04949
 Alpha virt. eigenvalues --    0.05269   0.05301   0.05397   0.05654   0.05751
 Alpha virt. eigenvalues --    0.06019   0.06208   0.06415   0.06511   0.06767
 Alpha virt. eigenvalues --    0.06885   0.07021   0.07500   0.07510   0.07858
 Alpha virt. eigenvalues --    0.08018   0.08297   0.08339   0.08431   0.08608
 Alpha virt. eigenvalues --    0.08871   0.09127   0.09498   0.09672   0.09792
 Alpha virt. eigenvalues --    0.10064   0.10238   0.10380   0.10584   0.10895
 Alpha virt. eigenvalues --    0.11058   0.11292   0.11516   0.11565   0.11935
 Alpha virt. eigenvalues --    0.12012   0.12120   0.12411   0.12511   0.12719
 Alpha virt. eigenvalues --    0.12958   0.13074   0.13180   0.13365   0.13526
 Alpha virt. eigenvalues --    0.13679   0.13972   0.14167   0.14240   0.14660
 Alpha virt. eigenvalues --    0.14904   0.15084   0.15148   0.15603   0.15675
 Alpha virt. eigenvalues --    0.15937   0.16071   0.16324   0.16366   0.16410
 Alpha virt. eigenvalues --    0.16485   0.16640   0.16880   0.16940   0.17100
 Alpha virt. eigenvalues --    0.17140   0.17475   0.17817   0.17913   0.18082
 Alpha virt. eigenvalues --    0.18148   0.18473   0.18539   0.18699   0.18848
 Alpha virt. eigenvalues --    0.19055   0.19236   0.19325   0.19584   0.19775
 Alpha virt. eigenvalues --    0.19916   0.20018   0.20181   0.20351   0.20609
 Alpha virt. eigenvalues --    0.20779   0.20904   0.21365   0.21599   0.21691
 Alpha virt. eigenvalues --    0.21856   0.22055   0.22607   0.22701   0.22839
 Alpha virt. eigenvalues --    0.23077   0.23259   0.23345   0.23685   0.23793
 Alpha virt. eigenvalues --    0.24045   0.24413   0.24583   0.24770   0.25070
 Alpha virt. eigenvalues --    0.25134   0.25373   0.25599   0.25655   0.25841
 Alpha virt. eigenvalues --    0.25979   0.26157   0.26405   0.26580   0.26772
 Alpha virt. eigenvalues --    0.27010   0.27138   0.27390   0.27544   0.27696
 Alpha virt. eigenvalues --    0.28043   0.28443   0.28700   0.28946   0.29061
 Alpha virt. eigenvalues --    0.29169   0.29262   0.29568   0.30208   0.30482
 Alpha virt. eigenvalues --    0.30563   0.30823   0.30979   0.31319   0.31460
 Alpha virt. eigenvalues --    0.31501   0.31670   0.31893   0.32154   0.32388
 Alpha virt. eigenvalues --    0.32503   0.33020   0.33370   0.33556   0.33892
 Alpha virt. eigenvalues --    0.33959   0.34110   0.34690   0.34896   0.35032
 Alpha virt. eigenvalues --    0.35414   0.35513   0.36081   0.36410   0.36601
 Alpha virt. eigenvalues --    0.36806   0.37070   0.37680   0.38053   0.38157
 Alpha virt. eigenvalues --    0.38394   0.38572   0.38901   0.39130   0.39273
 Alpha virt. eigenvalues --    0.39855   0.39931   0.40112   0.40204   0.40482
 Alpha virt. eigenvalues --    0.40509   0.40925   0.41000   0.41110   0.41470
 Alpha virt. eigenvalues --    0.42123   0.42293   0.42479   0.42604   0.43076
 Alpha virt. eigenvalues --    0.43437   0.43561   0.43726   0.44010   0.44285
 Alpha virt. eigenvalues --    0.44491   0.44764   0.44921   0.45167   0.45444
 Alpha virt. eigenvalues --    0.45549   0.45617   0.45785   0.45942   0.46147
 Alpha virt. eigenvalues --    0.46231   0.46594   0.46756   0.46865   0.46956
 Alpha virt. eigenvalues --    0.47151   0.47269   0.47492   0.47719   0.48058
 Alpha virt. eigenvalues --    0.48255   0.48441   0.48689   0.48848   0.49049
 Alpha virt. eigenvalues --    0.49396   0.49604   0.50002   0.50288   0.50355
 Alpha virt. eigenvalues --    0.50674   0.50744   0.50996   0.51115   0.51408
 Alpha virt. eigenvalues --    0.51486   0.51796   0.51869   0.52298   0.52344
 Alpha virt. eigenvalues --    0.52622   0.52879   0.53097   0.53385   0.53464
 Alpha virt. eigenvalues --    0.53666   0.53773   0.53910   0.54098   0.54415
 Alpha virt. eigenvalues --    0.54490   0.54604   0.54698   0.54837   0.55010
 Alpha virt. eigenvalues --    0.55276   0.55436   0.55514   0.55592   0.55723
 Alpha virt. eigenvalues --    0.55976   0.56030   0.56306   0.56369   0.56559
 Alpha virt. eigenvalues --    0.56893   0.56955   0.57137   0.57327   0.57347
 Alpha virt. eigenvalues --    0.57698   0.57845   0.58050   0.58233   0.58487
 Alpha virt. eigenvalues --    0.58720   0.58893   0.59023   0.59473   0.59497
 Alpha virt. eigenvalues --    0.59650   0.59799   0.59953   0.60146   0.60189
 Alpha virt. eigenvalues --    0.60281   0.60594   0.60621   0.60812   0.60937
 Alpha virt. eigenvalues --    0.61039   0.61250   0.61311   0.61432   0.61584
 Alpha virt. eigenvalues --    0.61647   0.61836   0.61960   0.62053   0.62312
 Alpha virt. eigenvalues --    0.62472   0.62629   0.62704   0.62977   0.63065
 Alpha virt. eigenvalues --    0.63222   0.63312   0.63424   0.63606   0.63787
 Alpha virt. eigenvalues --    0.63971   0.63989   0.64144   0.64213   0.64289
 Alpha virt. eigenvalues --    0.64400   0.64587   0.64627   0.64836   0.64899
 Alpha virt. eigenvalues --    0.65055   0.65212   0.65301   0.65356   0.65509
 Alpha virt. eigenvalues --    0.65682   0.65817   0.65909   0.66036   0.66174
 Alpha virt. eigenvalues --    0.66223   0.66487   0.66600   0.66699   0.66795
 Alpha virt. eigenvalues --    0.66881   0.67041   0.67065   0.67107   0.67282
 Alpha virt. eigenvalues --    0.67378   0.67537   0.67711   0.67885   0.68045
 Alpha virt. eigenvalues --    0.68124   0.68275   0.68331   0.68443   0.68531
 Alpha virt. eigenvalues --    0.68642   0.68726   0.68830   0.68879   0.69115
 Alpha virt. eigenvalues --    0.69225   0.69500   0.69615   0.69681   0.69834
 Alpha virt. eigenvalues --    0.69891   0.69967   0.70166   0.70227   0.70438
 Alpha virt. eigenvalues --    0.70571   0.70805   0.71012   0.71135   0.71225
 Alpha virt. eigenvalues --    0.71315   0.71497   0.71542   0.71710   0.71759
 Alpha virt. eigenvalues --    0.71889   0.71956   0.72248   0.72380   0.72754
 Alpha virt. eigenvalues --    0.72777   0.72925   0.73108   0.73252   0.73373
 Alpha virt. eigenvalues --    0.73703   0.73791   0.74041   0.74095   0.74283
 Alpha virt. eigenvalues --    0.74405   0.74500   0.74704   0.74839   0.75154
 Alpha virt. eigenvalues --    0.75330   0.75591   0.75705   0.75924   0.76163
 Alpha virt. eigenvalues --    0.76371   0.76709   0.76922   0.77150   0.77278
 Alpha virt. eigenvalues --    0.77387   0.77672   0.78049   0.78252   0.78465
 Alpha virt. eigenvalues --    0.78493   0.78762   0.78995   0.79280   0.79487
 Alpha virt. eigenvalues --    0.79667   0.79999   0.80576   0.80601   0.81081
 Alpha virt. eigenvalues --    0.81149   0.81242   0.81378   0.81598   0.81895
 Alpha virt. eigenvalues --    0.82170   0.82455   0.82503   0.82695   0.82874
 Alpha virt. eigenvalues --    0.83444   0.83613   0.83744   0.83999   0.84483
 Alpha virt. eigenvalues --    0.84657   0.84710   0.85000   0.85512   0.85887
 Alpha virt. eigenvalues --    0.86065   0.86427   0.86456   0.86659   0.87087
 Alpha virt. eigenvalues --    0.87161   0.87526   0.87775   0.88257   0.88493
 Alpha virt. eigenvalues --    0.88570   0.89236   0.89402   0.89614   0.90044
 Alpha virt. eigenvalues --    0.90296   0.90527   0.90996   0.91411   0.91612
 Alpha virt. eigenvalues --    0.91885   0.92288   0.92717   0.92764   0.93181
 Alpha virt. eigenvalues --    0.93676   0.93886   0.94281   0.94738   0.95003
 Alpha virt. eigenvalues --    0.95107   0.95413   0.95521   0.95931   0.96302
 Alpha virt. eigenvalues --    0.96507   0.96561   0.96945   0.97040   0.97406
 Alpha virt. eigenvalues --    0.97787   0.97991   0.98142   0.98408   0.98483
 Alpha virt. eigenvalues --    0.98782   0.99520   0.99877   0.99957   1.00301
 Alpha virt. eigenvalues --    1.00454   1.00614   1.01059   1.01158   1.01496
 Alpha virt. eigenvalues --    1.01917   1.01994   1.02266   1.02323   1.02493
 Alpha virt. eigenvalues --    1.03007   1.03384   1.03482   1.03724   1.04123
 Alpha virt. eigenvalues --    1.04647   1.05053   1.05254   1.05850   1.06091
 Alpha virt. eigenvalues --    1.06454   1.06823   1.07021   1.07450   1.07623
 Alpha virt. eigenvalues --    1.07984   1.08284   1.08580   1.08912   1.09117
 Alpha virt. eigenvalues --    1.09340   1.09630   1.10023   1.10232   1.10335
 Alpha virt. eigenvalues --    1.10604   1.11045   1.11243   1.11335   1.11527
 Alpha virt. eigenvalues --    1.11966   1.12261   1.12782   1.12858   1.13077
 Alpha virt. eigenvalues --    1.13289   1.13824   1.14088   1.14409   1.14720
 Alpha virt. eigenvalues --    1.15033   1.15599   1.15631   1.15847   1.15986
 Alpha virt. eigenvalues --    1.16309   1.16789   1.16925   1.17053   1.17297
 Alpha virt. eigenvalues --    1.17958   1.18212   1.18313   1.18669   1.18847
 Alpha virt. eigenvalues --    1.19141   1.19304   1.19762   1.19884   1.20522
 Alpha virt. eigenvalues --    1.20565   1.20756   1.20914   1.21222   1.21336
 Alpha virt. eigenvalues --    1.21657   1.22074   1.22261   1.22495   1.22779
 Alpha virt. eigenvalues --    1.23168   1.23323   1.23482   1.23755   1.23985
 Alpha virt. eigenvalues --    1.24099   1.24408   1.24694   1.25139   1.25404
 Alpha virt. eigenvalues --    1.25509   1.25734   1.25872   1.26200   1.26345
 Alpha virt. eigenvalues --    1.26428   1.26609   1.26862   1.27256   1.27728
 Alpha virt. eigenvalues --    1.27785   1.28243   1.28638   1.28826   1.29098
 Alpha virt. eigenvalues --    1.29123   1.29665   1.29737   1.29896   1.30201
 Alpha virt. eigenvalues --    1.30507   1.30669   1.30957   1.31446   1.31586
 Alpha virt. eigenvalues --    1.32052   1.32471   1.32663   1.32922   1.33215
 Alpha virt. eigenvalues --    1.33429   1.33851   1.33950   1.34343   1.34758
 Alpha virt. eigenvalues --    1.35237   1.35469   1.35578   1.35852   1.36015
 Alpha virt. eigenvalues --    1.36509   1.36741   1.37054   1.37394   1.37616
 Alpha virt. eigenvalues --    1.37726   1.38051   1.38215   1.38536   1.38986
 Alpha virt. eigenvalues --    1.39115   1.39194   1.39672   1.39824   1.39971
 Alpha virt. eigenvalues --    1.40375   1.40736   1.40934   1.41147   1.41649
 Alpha virt. eigenvalues --    1.41819   1.42103   1.42227   1.42464   1.42715
 Alpha virt. eigenvalues --    1.42964   1.43214   1.43499   1.43699   1.44035
 Alpha virt. eigenvalues --    1.44410   1.44717   1.45136   1.45288   1.45463
 Alpha virt. eigenvalues --    1.45813   1.46408   1.46419   1.46739   1.46998
 Alpha virt. eigenvalues --    1.47589   1.47740   1.48002   1.48169   1.48565
 Alpha virt. eigenvalues --    1.48583   1.48833   1.49021   1.49355   1.49515
 Alpha virt. eigenvalues --    1.49803   1.50334   1.50427   1.50557   1.50871
 Alpha virt. eigenvalues --    1.51216   1.51404   1.51477   1.51708   1.51936
 Alpha virt. eigenvalues --    1.52623   1.52793   1.53547   1.53641   1.54070
 Alpha virt. eigenvalues --    1.54286   1.54501   1.54759   1.55107   1.55449
 Alpha virt. eigenvalues --    1.56231   1.56659   1.56864   1.57201   1.57303
 Alpha virt. eigenvalues --    1.57685   1.58216   1.58487   1.58506   1.59132
 Alpha virt. eigenvalues --    1.59817   1.60060   1.60496   1.60987   1.61499
 Alpha virt. eigenvalues --    1.61594   1.61869   1.62092   1.62332   1.62492
 Alpha virt. eigenvalues --    1.62877   1.63265   1.63413   1.63863   1.64281
 Alpha virt. eigenvalues --    1.64523   1.65039   1.65094   1.65306   1.65591
 Alpha virt. eigenvalues --    1.65643   1.65853   1.65984   1.66530   1.66572
 Alpha virt. eigenvalues --    1.67356   1.67582   1.67981   1.68125   1.68174
 Alpha virt. eigenvalues --    1.68481   1.68723   1.68950   1.69517   1.69686
 Alpha virt. eigenvalues --    1.69919   1.70473   1.70757   1.70929   1.71187
 Alpha virt. eigenvalues --    1.71410   1.71576   1.71719   1.71928   1.72149
 Alpha virt. eigenvalues --    1.72356   1.72398   1.72776   1.73215   1.73398
 Alpha virt. eigenvalues --    1.73656   1.73931   1.74239   1.74385   1.74519
 Alpha virt. eigenvalues --    1.74658   1.74827   1.74901   1.75066   1.75211
 Alpha virt. eigenvalues --    1.75527   1.75622   1.75956   1.76057   1.76151
 Alpha virt. eigenvalues --    1.76390   1.76560   1.76675   1.76857   1.77227
 Alpha virt. eigenvalues --    1.77343   1.77634   1.77983   1.78204   1.78299
 Alpha virt. eigenvalues --    1.78435   1.78679   1.78805   1.78886   1.79034
 Alpha virt. eigenvalues --    1.79272   1.79446   1.79552   1.79901   1.80123
 Alpha virt. eigenvalues --    1.80167   1.80288   1.80490   1.80688   1.80793
 Alpha virt. eigenvalues --    1.80883   1.81074   1.81222   1.81380   1.81616
 Alpha virt. eigenvalues --    1.81723   1.81830   1.81998   1.82124   1.82263
 Alpha virt. eigenvalues --    1.82369   1.82623   1.82966   1.83133   1.83581
 Alpha virt. eigenvalues --    1.83699   1.83842   1.83947   1.84331   1.84484
 Alpha virt. eigenvalues --    1.84673   1.84761   1.85027   1.85216   1.85386
 Alpha virt. eigenvalues --    1.85713   1.85821   1.86097   1.86220   1.86430
 Alpha virt. eigenvalues --    1.86535   1.86718   1.87047   1.87130   1.87259
 Alpha virt. eigenvalues --    1.87441   1.87477   1.87645   1.87891   1.88089
 Alpha virt. eigenvalues --    1.88237   1.88277   1.88604   1.88827   1.88834
 Alpha virt. eigenvalues --    1.88983   1.89367   1.89488   1.89633   1.89675
 Alpha virt. eigenvalues --    1.89867   1.90020   1.90336   1.90600   1.90781
 Alpha virt. eigenvalues --    1.91075   1.91114   1.91317   1.91481   1.91760
 Alpha virt. eigenvalues --    1.91812   1.92112   1.92306   1.92550   1.92672
 Alpha virt. eigenvalues --    1.93119   1.93319   1.93480   1.93936   1.94141
 Alpha virt. eigenvalues --    1.94611   1.94804   1.94943   1.95271   1.95326
 Alpha virt. eigenvalues --    1.95357   1.95476   1.95933   1.96091   1.96572
 Alpha virt. eigenvalues --    1.96749   1.96978   1.97058   1.97388   1.97610
 Alpha virt. eigenvalues --    1.97903   1.97987   1.98337   1.98464   1.98585
 Alpha virt. eigenvalues --    1.98746   1.99111   1.99447   1.99680   1.99762
 Alpha virt. eigenvalues --    1.99904   2.00163   2.00303   2.00585   2.00739
 Alpha virt. eigenvalues --    2.00844   2.00988   2.01363   2.01442   2.01557
 Alpha virt. eigenvalues --    2.01908   2.02168   2.02318   2.02452   2.02793
 Alpha virt. eigenvalues --    2.02913   2.03457   2.03670   2.04012   2.04292
 Alpha virt. eigenvalues --    2.04458   2.04586   2.05221   2.05381   2.05943
 Alpha virt. eigenvalues --    2.06172   2.06356   2.06770   2.06908   2.07082
 Alpha virt. eigenvalues --    2.07332   2.07382   2.07826   2.08086   2.08381
 Alpha virt. eigenvalues --    2.08534   2.08974   2.09252   2.09851   2.09983
 Alpha virt. eigenvalues --    2.10255   2.10468   2.10683   2.10732   2.10982
 Alpha virt. eigenvalues --    2.11201   2.11976   2.12147   2.12182   2.12468
 Alpha virt. eigenvalues --    2.12887   2.13329   2.13642   2.13741   2.14073
 Alpha virt. eigenvalues --    2.14476   2.14637   2.14752   2.15199   2.15416
 Alpha virt. eigenvalues --    2.15646   2.15801   2.16291   2.16715   2.17319
 Alpha virt. eigenvalues --    2.17619   2.17634   2.17842   2.18294   2.18665
 Alpha virt. eigenvalues --    2.19018   2.19418   2.19888   2.20003   2.20167
 Alpha virt. eigenvalues --    2.20540   2.20705   2.21018   2.21185   2.21364
 Alpha virt. eigenvalues --    2.21833   2.22639   2.22863   2.23229   2.23361
 Alpha virt. eigenvalues --    2.23517   2.23527   2.23930   2.24461   2.24595
 Alpha virt. eigenvalues --    2.24711   2.25130   2.25514   2.26422   2.26549
 Alpha virt. eigenvalues --    2.26921   2.27096   2.27361   2.27395   2.27641
 Alpha virt. eigenvalues --    2.27992   2.28244   2.28694   2.29067   2.29656
 Alpha virt. eigenvalues --    2.29921   2.30277   2.30698   2.30977   2.31305
 Alpha virt. eigenvalues --    2.31552   2.32205   2.32924   2.33117   2.33237
 Alpha virt. eigenvalues --    2.33461   2.33852   2.34087   2.34208   2.34331
 Alpha virt. eigenvalues --    2.34769   2.35077   2.35451   2.35592   2.35868
 Alpha virt. eigenvalues --    2.35990   2.36128   2.36407   2.36998   2.37235
 Alpha virt. eigenvalues --    2.37370   2.37787   2.37994   2.38391   2.38444
 Alpha virt. eigenvalues --    2.38718   2.38895   2.39545   2.39617   2.39872
 Alpha virt. eigenvalues --    2.40132   2.40920   2.41261   2.41643   2.41965
 Alpha virt. eigenvalues --    2.42160   2.42287   2.42982   2.43283   2.43623
 Alpha virt. eigenvalues --    2.43748   2.44417   2.44633   2.44716   2.45261
 Alpha virt. eigenvalues --    2.45479   2.45862   2.46215   2.46553   2.47220
 Alpha virt. eigenvalues --    2.47590   2.47845   2.48029   2.48301   2.48469
 Alpha virt. eigenvalues --    2.48779   2.48967   2.49013   2.49189   2.49397
 Alpha virt. eigenvalues --    2.49947   2.50601   2.51207   2.51573   2.52060
 Alpha virt. eigenvalues --    2.52351   2.52458   2.52658   2.52937   2.53076
 Alpha virt. eigenvalues --    2.53541   2.53925   2.54593   2.54855   2.54967
 Alpha virt. eigenvalues --    2.55357   2.55405   2.56638   2.57329   2.57373
 Alpha virt. eigenvalues --    2.57513   2.57768   2.57982   2.58404   2.58663
 Alpha virt. eigenvalues --    2.58763   2.59006   2.59589   2.59857   2.60433
 Alpha virt. eigenvalues --    2.60722   2.61167   2.61504   2.61803   2.62048
 Alpha virt. eigenvalues --    2.62311   2.62451   2.62540   2.62765   2.63444
 Alpha virt. eigenvalues --    2.63729   2.63838   2.64302   2.64353   2.65050
 Alpha virt. eigenvalues --    2.65106   2.65335   2.65772   2.65964   2.66053
 Alpha virt. eigenvalues --    2.66188   2.66604   2.67110   2.67568   2.67956
 Alpha virt. eigenvalues --    2.68568   2.68635   2.68887   2.68993   2.69540
 Alpha virt. eigenvalues --    2.69876   2.70337   2.70664   2.70781   2.71108
 Alpha virt. eigenvalues --    2.71439   2.71600   2.71793   2.71944   2.72142
 Alpha virt. eigenvalues --    2.72356   2.72715   2.72960   2.73213   2.73399
 Alpha virt. eigenvalues --    2.73549   2.73587   2.74107   2.74391   2.75095
 Alpha virt. eigenvalues --    2.75487   2.75548   2.75675   2.75782   2.75858
 Alpha virt. eigenvalues --    2.76218   2.76445   2.76929   2.77121   2.77500
 Alpha virt. eigenvalues --    2.77767   2.77923   2.78091   2.78334   2.78612
 Alpha virt. eigenvalues --    2.78842   2.79067   2.79108   2.79576   2.79648
 Alpha virt. eigenvalues --    2.80246   2.80402   2.80525   2.80658   2.81211
 Alpha virt. eigenvalues --    2.81713   2.81816   2.82150   2.82575   2.82796
 Alpha virt. eigenvalues --    2.83107   2.83403   2.83861   2.84290   2.84524
 Alpha virt. eigenvalues --    2.84730   2.84858   2.85034   2.85159   2.85442
 Alpha virt. eigenvalues --    2.85787   2.85901   2.86264   2.87575   2.88018
 Alpha virt. eigenvalues --    2.88184   2.88281   2.88749   2.89138   2.89919
 Alpha virt. eigenvalues --    2.89972   2.90145   2.90483   2.90740   2.91270
 Alpha virt. eigenvalues --    2.91738   2.92251   2.92461   2.92756   2.93019
 Alpha virt. eigenvalues --    2.93159   2.93626   2.93882   2.94058   2.94177
 Alpha virt. eigenvalues --    2.94316   2.94554   2.94902   2.95099   2.95251
 Alpha virt. eigenvalues --    2.95299   2.95618   2.95848   2.96385   2.96565
 Alpha virt. eigenvalues --    2.97210   2.97644   2.97912   2.98061   2.98271
 Alpha virt. eigenvalues --    2.98535   2.99137   2.99311   2.99730   2.99827
 Alpha virt. eigenvalues --    3.00188   3.00561   3.00812   3.01109   3.01423
 Alpha virt. eigenvalues --    3.02015   3.02051   3.02188   3.02337   3.02805
 Alpha virt. eigenvalues --    3.02965   3.03431   3.03768   3.04249   3.04770
 Alpha virt. eigenvalues --    3.04868   3.05189   3.05468   3.06303   3.06536
 Alpha virt. eigenvalues --    3.07569   3.07668   3.07781   3.08978   3.09195
 Alpha virt. eigenvalues --    3.09225   3.09456   3.10071   3.10713   3.11537
 Alpha virt. eigenvalues --    3.11807   3.12131   3.12376   3.12938   3.13727
 Alpha virt. eigenvalues --    3.14729   3.14941   3.15602   3.16308   3.16806
 Alpha virt. eigenvalues --    3.17295   3.17890   3.17987   3.18492   3.18653
 Alpha virt. eigenvalues --    3.19167   3.19208   3.19542   3.19577   3.19754
 Alpha virt. eigenvalues --    3.19880   3.20363   3.20637   3.20952   3.21492
 Alpha virt. eigenvalues --    3.22133   3.22198   3.22821   3.23267   3.23370
 Alpha virt. eigenvalues --    3.23510   3.23803   3.24404   3.24881   3.25211
 Alpha virt. eigenvalues --    3.25382   3.25490   3.27148   3.27686   3.28912
 Alpha virt. eigenvalues --    3.29471   3.29571   3.30015   3.30370   3.31201
 Alpha virt. eigenvalues --    3.31712   3.31874   3.32911   3.34036   3.34510
 Alpha virt. eigenvalues --    3.34778   3.36344   3.38092   3.38248   3.42008
 Alpha virt. eigenvalues --    3.42269   3.42489   3.43971   3.50019   3.50570
 Alpha virt. eigenvalues --    3.53101   3.53716   3.54100   3.54767   3.55437
 Alpha virt. eigenvalues --    3.56320   3.56869   3.57685   3.58374   3.59223
 Alpha virt. eigenvalues --    3.60226   3.61562   3.62302   3.62748   3.65439
 Alpha virt. eigenvalues --    3.65950   3.66591   3.66664   3.67007   3.68020
 Alpha virt. eigenvalues --    3.68351   3.69102   3.69807   3.70739   3.71013
 Alpha virt. eigenvalues --    3.71125   3.71574   3.72044   3.72243   3.72464
 Alpha virt. eigenvalues --    3.72811   3.73121   3.73839   3.74307   3.74734
 Alpha virt. eigenvalues --    3.76130   3.79961   3.81828   3.89744
          Condensed to atoms (all electrons):
 Mulliken charges:
               1
     1  C    0.054125
     2  C    0.021002
     3  O   -0.296857
     4  H    0.031637
     5  H    0.026940
     6  H   -0.006975
     7  N   -0.122230
     8  C    0.121290
     9  C    0.098516
    10  O   -0.294075
    11  C    0.081198
    12  C    0.155648
    13  O   -0.379430
    14  O   -0.471190
    15  H    0.127983
    16  H    0.014774
    17  H   -0.003075
    18  H   -0.009659
    19  N   -0.159278
    20  C    0.147864
    21  C    0.041715
    22  O   -0.303829
    23  C    0.012069
    24  C    0.047574
    25  C   -0.022240
    26  C   -0.017754
    27  N    0.093824
    28  H    0.134384
    29  H    0.015762
    30  H   -0.016018
    31  H   -0.016964
    32  H    0.052252
    33  H    0.017306
    34  H    0.006193
    35  H    0.045738
    36  H    0.067025
    37  H    0.084198
    38  H    0.189607
    39  H    0.209672
    40  H    0.183701
    41  N   -0.145443
    42  C    0.139706
    43  C    0.048009
    44  O   -0.290208
    45  C    0.112695
    46  C    0.089411
    47  O   -0.412963
    48  O   -0.424584
    49  H    0.136485
    50  H    0.019250
    51  H   -0.014243
    52  H    0.010807
    53  N   -0.172175
    54  C    0.238935
    55  C    0.008787
    56  O   -0.301191
    57  H    0.163837
    58  H    0.032073
    59  H    0.017039
    60  N   -0.179067
    61  C    0.148533
    62  C    0.044523
    63  O   -0.277957
    64  C    0.061465
    65  C    0.072522
    66  N   -0.030461
    67  O   -0.335120
    68  H    0.164461
    69  H    0.023021
    70  H    0.065861
    71  H    0.011037
    72  H    0.126209
    73  H    0.133589
    74  N   -0.156301
    75  C    0.232096
    76  C    0.018209
    77  O   -0.295138
    78  H    0.138708
    79  H    0.036920
    80  H    0.021403
    81  N   -0.165890
    82  C    0.092456
    83  C    0.119279
    84  O   -0.332873
    85  C    0.165661
    86  C    0.021369
    87  C    0.013478
    88  C    0.027586
    89  C   -0.034061
    90  C   -0.035058
    91  C    0.146468
    92  O   -0.189651
    93  H    0.178995
    94  H    0.011260
    95  H   -0.004092
    96  H   -0.033008
    97  H   -0.074203
    98  H   -0.038324
    99  H   -0.034511
   100  H   -0.064660
   101  H    0.174144
   102  N   -0.107647
   103  C    0.198761
   104  C    0.013037
   105  O   -0.299115
   106  C   -0.079280
   107  C    0.059597
   108  C    0.050572
   109  C   -0.056804
   110  H    0.125638
   111  H    0.015727
   112  H   -0.020327
   113  H   -0.008836
   114  H   -0.006371
   115  H   -0.007434
   116  H    0.033492
   117  H   -0.001622
   118  H    0.048443
   119  H    0.008426
   120  H    0.017458
   121  N   -0.124829
   122  C    0.060283
   123  C    0.126981
   124  O   -0.268522
   125  C    0.240922
   126  O   -0.305549
   127  H    0.147158
   128  H    0.040065
   129  H    0.043316
   130  H   -0.018549
   131  H    0.184985
   132  N   -0.152369
   133  C    0.071804
   134  C    0.051440
   135  O   -0.248539
   136  C    0.073522
   137  H    0.115374
   138  H    0.034305
   139  H    0.047211
   140  H    0.021850
   141  H    0.014103
   142  N   -0.124355
   143  C    0.095707
   144  C    0.069273
   145  O   -0.250805
   146  C    0.044970
   147  H    0.084763
   148  H    0.016423
   149  H   -0.023583
   150  H    0.022713
   151  H    0.033502
   152  N   -0.149017
   153  C    0.140637
   154  C    0.049273
   155  O   -0.274836
   156  C   -0.079952
   157  C    0.115185
   158  C    0.164437
   159  O   -0.396106
   160  O   -0.445141
   161  H    0.127935
   162  H   -0.036747
   163  H    0.047734
   164  H    0.017575
   165  H   -0.033173
   166  H   -0.042781
   167  N   -0.167485
   168  C    0.137105
   169  H    0.007041
   170  H    0.026394
   171  H    0.034821
   172  H    0.134463
   173  Ca   1.297454
   174  O   -0.295422
   175  H    0.162012
   176  H    0.163777
 Sum of Mulliken charges =  -0.00000
 Mulliken charges with hydrogens summed into heavy atoms:
               1
     1  C    0.105727
     2  C    0.021002
     3  O   -0.296857
     7  N    0.005753
     8  C    0.136064
     9  C    0.098516
    10  O   -0.294075
    11  C    0.068464
    12  C    0.155648
    13  O   -0.379430
    14  O   -0.471190
    19  N   -0.024894
    20  C    0.163626
    21  C    0.041715
    22  O   -0.303829
    23  C   -0.020913
    24  C    0.117131
    25  C    0.029691
    26  C    0.133469
    27  N    0.676804
    41  N   -0.008958
    42  C    0.158956
    43  C    0.048009
    44  O   -0.290208
    45  C    0.109260
    46  C    0.089411
    47  O   -0.412963
    48  O   -0.424584
    53  N   -0.008338
    54  C    0.288048
    55  C    0.008787
    56  O   -0.301191
    60  N   -0.014606
    61  C    0.171553
    62  C    0.044523
    63  O   -0.277957
    64  C    0.138364
    65  C    0.072522
    66  N    0.229337
    67  O   -0.335120
    74  N   -0.017593
    75  C    0.290418
    76  C    0.018209
    77  O   -0.295138
    81  N    0.013104
    82  C    0.103716
    83  C    0.119279
    84  O   -0.332873
    85  C    0.128562
    86  C    0.021369
    87  C   -0.060725
    88  C   -0.010738
    89  C   -0.068572
    90  C   -0.099718
    91  C    0.146468
    92  O   -0.015507
   102  N    0.017991
   103  C    0.214488
   104  C    0.013037
   105  O   -0.299115
   106  C   -0.099607
   107  C    0.044390
   108  C    0.075007
   109  C    0.017523
   121  N    0.022329
   122  C    0.100347
   123  C    0.126981
   124  O   -0.268522
   125  C    0.265688
   126  O   -0.120563
   132  N   -0.036994
   133  C    0.106109
   134  C    0.051440
   135  O   -0.248539
   136  C    0.156686
   142  N   -0.039592
   143  C    0.112129
   144  C    0.069273
   145  O   -0.250805
   146  C    0.077601
   152  N   -0.021082
   153  C    0.103890
   154  C    0.049273
   155  O   -0.274836
   156  C   -0.014642
   157  C    0.039231
   158  C    0.164437
   159  O   -0.396106
   160  O   -0.445141
   167  N   -0.033021
   168  C    0.205361
   173  Ca   1.297454
   174  O    0.030367
 DipInt: DoE/N= T F RetVal/Mat= T F Init=T NMatP=  1 IDeriv=0 Min/MaxMlt=  0  4
 Entering OneElI...
 OneElI was handed  1333951383 working-precision words.
 Multipole integrals L=0 to 4 MinM= 0 MaxM= 0.
 Requested accuracy = 0.1000D-12
 ShPair: Thresh= 1.00D-13 NBox=     0 BxSize= 0.00D+00 RnKept= 2.55D+01
         NSMCal=               327645 NSMKep=              159349
 PrmmSu-InSpLW:  IPartL=    0 NPrtUS=    1 NPrtUL=    1 DoSpLW=F IThBeg=    0 IThEnd=    0 NThAct=    1.
 PrsmSu:  NPrtUS=   1 ThrOK=F IAlg=1 NPAlg=1 LenDen=           0 ISkipM=0 DoSpLW=F IThBeg=    0 IThEnd=    0.
 Prism:   IPart=     0 DynPar=F LinDyn=F Incr=         512.
 PRISM was handed  1323909395 working-precision words and159349 shell-pairs
 IPart=  0 NShTot=      159349 NBatch=         365 AvBLen=       436.6
 PrsmSu-ThDecC:  IPartSL=    0    0 NPrtUSL=    1    1 IThBeg=    0 IThEnd=    0 CPU=   -1 GPU=   -1 NThAct=    1.
 PrSmSu:  NxtVal=            513.
 Electronic moments (au):
       -716.00000000         13.84459307          0.00105749         -6.48255126
     -54476.36156144     -33008.25652686     -10654.51691844        108.40760539
        -60.05709008          1.08485892     -66515.68474908       -743.71914142
     -16517.42576902      33946.15007211     127329.19279961      40544.80167449
      -7934.07903701     -17525.07028365      13434.88172136     -10192.88490320
   -8125493.20237450   -3166928.04232947    -492764.83755847    -171232.94593039
     230845.25240792    -729161.27196388      56616.20671441     -63894.87505545
     -91089.25234950   -2727386.53486421    -580941.63166870    -374701.25616511
    -133017.86643221      -8745.02186525      29803.21730042
 Electronic spatial extent (au):  <R**2>=          98139.1350
 DipInt: DoE/N= F T RetVal/Mat= T F Init=T NMatP=  1 IDeriv=0 Min/MaxMlt=  0  4
 Nuclear    moments (au):
        716.00000000          0.00000000          0.00000000         -0.00000000
      54038.89672318      32663.21834295      10269.16628031         -0.00000000
         -0.00000000         -0.00000000      68214.57711958        957.77551707
      16456.37892287     -31853.96616581    -126631.70537839     -41654.72544328
       8223.31744951      17522.90446565     -13817.48208821       9837.76649598
    7916991.00294333    3065411.87517720     457706.44897972     186710.13751935
    -237714.86948365     751727.92623186     -58975.63982236      62377.18112563
      92384.53312166    2696108.74076604     547025.41992719     350317.97722541
     129785.02230448       1051.85990498     -29695.77447092
 Total      moments (au):
         -0.00000000         13.84459307          0.00105749         -6.48255126
       -437.46483826       -345.03818391       -385.35063813        108.40760539
        -60.05709008          1.08485892       1698.89237050        214.05637565
        -61.04684615       2092.18390630        697.48742122      -1109.92376879
        289.23841250         -2.16581800       -382.60036685       -355.11840722
    -208502.19943117    -101516.16715227     -35058.38857875      15477.19158896
      -6869.61707573      22566.65426798      -2359.43310796      -1517.69392982
       1295.28077216     -31277.79409817     -33916.21174151     -24383.27893970
      -3232.84412773      -7693.16196027        107.44282949
 Traceless Quadrup. (au):
        -48.18028482         44.24636952          3.93391530        108.40760539
        -60.05709008          1.08485892
 Charge=             -0.0000 electrons
 Dipole moment (field-independent basis, Debye):
    X=             35.1894    Y=              0.0027    Z=            -16.4770  Tot=             38.8560
 Quadrupole moment (field-independent basis, Debye-Ang):
   XX=           -588.4052   YY=           -464.0882   ZZ=           -518.3098
   XY=            145.8119   XZ=            -80.7788   YZ=              1.4592
 Traceless Quadrupole moment (field-independent basis, Debye-Ang):
   XX=            -64.8041   YY=             59.5129   ZZ=              5.2913
   XY=            145.8119   XZ=            -80.7788   YZ=              1.4592
 Octapole moment (field-independent basis, Debye-Ang**2):
  XXX=           1209.2061  YYY=            152.3571  ZZZ=            -43.4508  XYY=           1489.1359
  XXY=            496.4447  XXZ=           -790.0010  XZZ=            205.8688  YZZ=             -1.5415
  YYZ=           -272.3202  XYZ=           -252.7596
 Hexadecapole moment (field-independent basis, Debye-Ang**3):
 XXXX=         -78531.9263 YYYY=         -38235.8564 ZZZZ=         -13204.6702 XXXY=           5829.4525
 XXXZ=          -2587.4272 YYYX=           8499.6841 YYYZ=           -888.6756 ZZZX=           -571.6363
 ZZZY=            487.8648 XXYY=         -11780.7171 XXZZ=         -12774.4717 YYZZ=          -9183.9121
 XXYZ=          -1217.6441 YYXZ=          -2897.6137 ZZXY=             40.4681
 N-N= 2.161035660518D+04 E-N=-5.570246815018D+04  KE= 5.290719653143D+03
 Leave Link  601 at Sat Sep 14 23:26:43 2019, MaxMem=  1342177280 cpu:              44.1 elap:               1.1
 FitSet:  NAtFit=   176 NAtPot=   176 NAtFrz=     0 MDM=   180 TotChg=   0.00000
 Merz-Kollman atomic radii used.
 Read replacement radii for each type of atom:
 Rad(20) =   1.700000000000D+00
 Atom Element Radius
    1     6    1.50
    2     6    1.50
    3     8    1.40
    4     1    1.20
    5     1    1.20
    6     1    1.20
    7     7    1.50
    8     6    1.50
    9     6    1.50
   10     8    1.40
   11     6    1.50
   12     6    1.50
   13     8    1.40
   14     8    1.40
   15     1    1.20
   16     1    1.20
   17     1    1.20
   18     1    1.20
   19     7    1.50
   20     6    1.50
   21     6    1.50
   22     8    1.40
   23     6    1.50
   24     6    1.50
   25     6    1.50
   26     6    1.50
   27     7    1.50
   28     1    1.20
   29     1    1.20
   30     1    1.20
   31     1    1.20
   32     1    1.20
   33     1    1.20
   34     1    1.20
   35     1    1.20
   36     1    1.20
   37     1    1.20
   38     1    1.20
   39     1    1.20
   40     1    1.20
   41     7    1.50
   42     6    1.50
   43     6    1.50
   44     8    1.40
   45     6    1.50
   46     6    1.50
   47     8    1.40
   48     8    1.40
   49     1    1.20
   50     1    1.20
   51     1    1.20
   52     1    1.20
   53     7    1.50
   54     6    1.50
   55     6    1.50
   56     8    1.40
   57     1    1.20
   58     1    1.20
   59     1    1.20
   60     7    1.50
   61     6    1.50
   62     6    1.50
   63     8    1.40
   64     6    1.50
   65     6    1.50
   66     7    1.50
   67     8    1.40
   68     1    1.20
   69     1    1.20
   70     1    1.20
   71     1    1.20
   72     1    1.20
   73     1    1.20
   74     7    1.50
   75     6    1.50
   76     6    1.50
   77     8    1.40
   78     1    1.20
   79     1    1.20
   80     1    1.20
   81     7    1.50
   82     6    1.50
   83     6    1.50
   84     8    1.40
   85     6    1.50
   86     6    1.50
   87     6    1.50
   88     6    1.50
   89     6    1.50
   90     6    1.50
   91     6    1.50
   92     8    1.40
   93     1    1.20
   94     1    1.20
   95     1    1.20
   96     1    1.20
   97     1    1.20
   98     1    1.20
   99     1    1.20
  100     1    1.20
  101     1    1.20
  102     7    1.50
  103     6    1.50
  104     6    1.50
  105     8    1.40
  106     6    1.50
  107     6    1.50
  108     6    1.50
  109     6    1.50
  110     1    1.20
  111     1    1.20
  112     1    1.20
  113     1    1.20
  114     1    1.20
  115     1    1.20
  116     1    1.20
  117     1    1.20
  118     1    1.20
  119     1    1.20
  120     1    1.20
  121     7    1.50
  122     6    1.50
  123     6    1.50
  124     8    1.40
  125     6    1.50
  126     8    1.40
  127     1    1.20
  128     1    1.20
  129     1    1.20
  130     1    1.20
  131     1    1.20
  132     7    1.50
  133     6    1.50
  134     6    1.50
  135     8    1.40
  136     6    1.50
  137     1    1.20
  138     1    1.20
  139     1    1.20
  140     1    1.20
  141     1    1.20
  142     7    1.50
  143     6    1.50
  144     6    1.50
  145     8    1.40
  146     6    1.50
  147     1    1.20
  148     1    1.20
  149     1    1.20
  150     1    1.20
  151     1    1.20
  152     7    1.50
  153     6    1.50
  154     6    1.50
  155     8    1.40
  156     6    1.50
  157     6    1.50
  158     6    1.50
  159     8    1.40
  160     8    1.40
  161     1    1.20
[...]
 **** Fit      -0.021879
 **** Fit      -0.018422
 **** Fit      -0.015178
 **** Fit      -0.012440
 **** Fit      -0.010539
 **** Fit      -0.009829
 **** Fit      -0.010667
 **** Fit      -0.013345
 **** Fit      -0.017915
 **** Fit      -0.024033
 **** Fit      -0.036273
 **** Fit      -0.037489
 **** Fit      -0.035106
 **** Fit      -0.032057
 **** Fit      -0.028454
 **** Fit      -0.024414
 **** Fit      -0.020071
 **** Fit      -0.015599
 **** Fit      -0.011228
 **** Fit      -0.007251
 **** Fit      -0.004006
 **** Fit      -0.039743
 **** Fit      -0.039087
 **** Fit      -0.040502
 **** Fit      -0.037243
 **** Fit      -0.033266
 **** Fit      -0.028678
 **** Fit      -0.023590
 **** Fit      -0.018127
 **** Fit      -0.012455
 **** Fit      -0.006808
 **** Fit      -0.001496
 **** Fit       0.003147
 **** Fit      -0.044449
 **** Fit      -0.042938
 **** Fit      -0.040523
 **** Fit      -0.035270
 **** Fit      -0.029346
 **** Fit      -0.022878
 **** Fit      -0.015998
 **** Fit      -0.008886
 **** Fit      -0.001806
 **** Fit       0.004895
 **** Fit      -0.023109
 **** Fit      -0.014668
 **** Fit      -0.006081
 **** Fit       0.002347
 **** Fit      -0.012030
 **** Fit      -0.001615
 **** Fit       0.008098
 **** Fit       0.003650
 **** Fit       0.043829
 **** Fit       0.042412
 **** Fit       0.043259
 **** Fit       0.041073
 **** Fit       0.041190
 **** Fit       0.037871
 **** Fit       0.036227
 **** Fit       0.004003
 **** Fit       0.007542
 **** Fit       0.011072
 **** Fit       0.011510
 **** Fit       0.012871
 **** Fit       0.011688
 **** Fit       0.010604
 **** Fit       0.005634
 **** Fit       0.009304
 **** Fit       0.008585
 **** Fit       0.008720
 **** Fit       0.007929
 **** Fit       0.005869
 **** Fit       0.005339
 **** Fit      -0.025123
 **** Fit      -0.025415
 **** Fit      -0.020739
 **** Fit       0.042633
 **** Fit       0.041591
 **** Fit       0.043145
 **** Fit       0.040821
 **** Fit       0.038470
 **** Fit       0.035260
 **** Fit       0.016383
 **** Fit       0.043735
 **** Fit       0.039872
 **** Fit       0.035943
 **** Fit       0.030849
 **** Fit       0.025354
 **** Fit       0.023312
 **** Fit       0.039107
 **** Fit       0.033691
 **** Fit       0.031490
 **** Fit       0.038566
 **** Fit       0.050743
 **** Fit       0.046144
 **** Fit       0.050526
 **** Fit       0.054007
 **** Fit       0.055570
 **** Fit       0.046108
 **** Fit       0.049286
 **** Fit       0.051347
 **** Fit       0.052385
 **** Fit       0.045246
 **** Fit       0.047617
 **** Fit       0.043812
 **** Fit      -0.007057
 **** Fit      -0.006941
 **** Fit      -0.007814
 **** Fit      -0.008067
 **** Fit      -0.007302
 **** Fit      -0.006297
 **** Fit      -0.006193
 **** Fit      -0.006983
 **** Fit      -0.007887
 **** Fit      -0.008747
 **** Fit      -0.007648
 **** Fit      -0.006390
 **** Fit      -0.005182
 **** Fit      -0.005461
 **** Fit      -0.006117
 **** Fit      -0.007198
 **** Fit      -0.008118
 **** Fit      -0.009393
 **** Fit      -0.008065
 **** Fit      -0.004400
 **** Fit      -0.004860
 **** Fit      -0.005513
 **** Fit      -0.006307
 **** Fit      -0.007590
 **** Fit      -0.008593
 **** Fit      -0.010858
 **** Fit      -0.009353
 **** Fit      -0.004290
 **** Fit      -0.004979
 **** Fit      -0.005760
 **** Fit      -0.006633
 **** Fit      -0.008150
 **** Fit      -0.009205
 **** Fit      -0.010299
 **** Fit      -0.011682
 **** Fit      -0.009959
 **** Fit      -0.003959
 **** Fit      -0.004677
 **** Fit      -0.005440
 **** Fit      -0.006262
 **** Fit      -0.007163
 **** Fit      -0.008864
 **** Fit      -0.010055
 **** Fit      -0.011335
 **** Fit      -0.014680
 **** Fit      -0.012662
 **** Fit      -0.010693
 **** Fit      -0.003492
 **** Fit      -0.004284
 **** Fit      -0.005088
 **** Fit      -0.005916
 **** Fit      -0.006801
 **** Fit      -0.007778
 **** Fit      -0.011052
 **** Fit      -0.012514
 **** Fit      -0.014127
 **** Fit      -0.015888
 **** Fit      -0.013601
 **** Fit      -0.011542
 **** Fit      -0.003086
 **** Fit      -0.003966
 **** Fit      -0.004841
 **** Fit      -0.005700
 **** Fit      -0.013927
 **** Fit      -0.015825
 **** Fit      -0.018344
 **** Fit      -0.015646
 **** Fit      -0.003531
 **** Fit      -0.004553
 **** Fit      -0.017681
 **** Fit      -0.020223
 **** Fit      -0.020493
 **** Fit      -0.017330
 **** Fit      -0.003044
 **** Fit      -0.004286
 **** Fit      -0.022833
 **** Fit      -0.026498
 **** Fit      -0.002130
 **** Fit      -0.003694
 **** Fit      -0.026353
 **** Fit      -0.030807
 **** Fit      -0.000124
 **** Fit      -0.001888
 **** Fit      -0.004167
 **** Fit      -0.030387
 **** Fit      -0.035077
 **** Fit      -0.041522
 **** Fit      -0.005252
 **** Fit      -0.005378
 **** Fit      -0.004410
 **** Fit      -0.004370
 **** Fit      -0.006775
 **** Fit      -0.005545
 **** Fit      -0.004402
 **** Fit      -0.003645
 **** Fit      -0.003383
 **** Fit      -0.003644
 **** Fit      -0.004316
 **** Fit      -0.007112
 **** Fit      -0.005743
 **** Fit      -0.004540
 **** Fit      -0.003632
 **** Fit      -0.003004
 **** Fit      -0.002671
 **** Fit      -0.002686
 **** Fit      -0.003055
 **** Fit      -0.003698
 **** Fit      -0.008300
 **** Fit      -0.006731
 **** Fit      -0.005280
 **** Fit      -0.004169
 **** Fit      -0.003356
 **** Fit      -0.002714
 **** Fit      -0.002238
 **** Fit      -0.002003
 **** Fit      -0.002082
 **** Fit      -0.002485
 **** Fit      -0.003148
 **** Fit      -0.008962
 **** Fit      -0.002927
 **** Fit      -0.002282
 **** Fit      -0.001755
 **** Fit      -0.001465
 **** Fit      -0.001500
 **** Fit      -0.001887
 **** Fit      -0.002577
 **** Fit      -0.002814
 **** Fit      -0.002033
 **** Fit      -0.001386
 **** Fit      -0.000996
 **** Fit      -0.000959
 **** Fit      -0.001315
 **** Fit      -0.002030
 **** Fit      -0.002993
 **** Fit      -0.002552
 **** Fit      -0.001564
 **** Fit      -0.000812
 **** Fit      -0.000435
 **** Fit      -0.000542
 **** Fit      -0.001154
 **** Fit      -0.002185
 **** Fit      -0.002196
 **** Fit      -0.001002
 **** Fit      -0.000149
 **** Fit       0.000162
 **** Fit      -0.000184
 **** Fit      -0.001168
 **** Fit      -0.002296
 **** Fit      -0.000669
 **** Fit       0.000492
 **** Fit       0.000867
 **** Fit       0.000300
 **** Fit      -0.001641
 **** Fit       0.000605
 **** Fit       0.001749
 **** Fit       0.001388
 **** Fit      -0.009002
 **** Fit      -0.010234
 **** Fit      -0.006138
 **** Fit      -0.006985
 **** Fit      -0.007930
 **** Fit      -0.009804
 **** Fit      -0.011081
 **** Fit      -0.012599
 **** Fit      -0.005975
 **** Fit      -0.006837
 **** Fit      -0.007741
 **** Fit      -0.008713
 **** Fit      -0.010911
 **** Fit      -0.012164
 **** Fit      -0.013694
 **** Fit      -0.015589
 **** Fit      -0.005106
 **** Fit      -0.006051
 **** Fit      -0.007009
 **** Fit      -0.007950
 **** Fit      -0.008881
 **** Fit      -0.009845
 **** Fit      -0.012482
 **** Fit      -0.013736
 **** Fit      -0.015314
 **** Fit      -0.017354
 **** Fit      -0.020021
 **** Fit      -0.004790
 **** Fit      -0.006023
 **** Fit      -0.007268
 **** Fit      -0.008435
 **** Fit      -0.009492
 **** Fit      -0.010466
 **** Fit      -0.011430
 **** Fit      -0.014715
 **** Fit      -0.015892
 **** Fit      -0.017427
 **** Fit      -0.019484
 **** Fit      -0.022275
 **** Fit      -0.006117
 **** Fit      -0.007847
 **** Fit      -0.009440
 **** Fit      -0.010798
 **** Fit      -0.011916
 **** Fit      -0.012863
 **** Fit      -0.013752
 **** Fit      -0.017870
 **** Fit      -0.018906
 **** Fit      -0.020361
 **** Fit      -0.022421
 **** Fit      -0.025323
 **** Fit      -0.005823
 **** Fit      -0.008408
 **** Fit      -0.010836
 **** Fit      -0.012869
 **** Fit      -0.014419
 **** Fit      -0.015537
 **** Fit      -0.016364
 **** Fit      -0.017081
 **** Fit      -0.022298
 **** Fit      -0.023102
 **** Fit      -0.024475
 **** Fit      -0.026641
 **** Fit      -0.029882
 **** Fit      -0.020959
 **** Fit      -0.021494
 **** Fit      -0.021844
 **** Fit      -0.028495
 **** Fit      -0.028810
 **** Fit      -0.029986
 **** Fit      -0.032281
 **** Fit      -0.035995
 **** Fit      -0.037130
 **** Fit      -0.039382
 **** Fit      -0.043422
 **** Fit      -0.009338
 **** Fit      -0.009114
 **** Fit      -0.010367
 **** Fit      -0.010780
 **** Fit      -0.009800
 **** Fit      -0.008526
 **** Fit      -0.008238
 **** Fit      -0.009154
 **** Fit      -0.010442
 **** Fit      -0.011715
 **** Fit      -0.012603
 **** Fit      -0.012699
 **** Fit      -0.011880
 **** Fit      -0.010477
 **** Fit      -0.008996
 **** Fit      -0.008070
 **** Fit      -0.009484
 **** Fit      -0.010757
 **** Fit      -0.012129
 **** Fit      -0.013498
 **** Fit      -0.014655
 **** Fit      -0.015322
 **** Fit      -0.015263
 **** Fit      -0.014427
 **** Fit      -0.013011
 **** Fit      -0.011348
 **** Fit      -0.010134
 **** Fit      -0.011474
 **** Fit      -0.012942
 **** Fit      -0.014524
 **** Fit      -0.016126
 **** Fit      -0.017559
 **** Fit      -0.018566
 **** Fit      -0.018902
 **** Fit      -0.018428
 **** Fit      -0.017176
 **** Fit      -0.015380
 **** Fit      -0.013377
 **** Fit      -0.012608
 **** Fit      -0.014232
 **** Fit      -0.016042
 **** Fit      -0.018010
 **** Fit      -0.020004
 **** Fit      -0.021792
 **** Fit      -0.023082
 **** Fit      -0.023605
 **** Fit      -0.023194
 **** Fit      -0.021842
 **** Fit      -0.019734
 **** Fit      -0.017234
 **** Fit      -0.014730
 **** Fit      -0.014147
 **** Fit      -0.015940
 **** Fit      -0.017978
 **** Fit      -0.020287
 **** Fit      -0.022803
 **** Fit      -0.025344
 **** Fit      -0.027613
 **** Fit      -0.029249
 **** Fit      -0.029937
 **** Fit      -0.029506
 **** Fit      -0.027951
 **** Fit      -0.025440
 **** Fit      -0.022324
 **** Fit      -0.019078
 **** Fit      -0.018402
 **** Fit      -0.020890
 **** Fit      -0.023806
 **** Fit      -0.027135
 **** Fit      -0.029674
 **** Fit      -0.025203
 **** Fit      -0.020959
 **** Fit      -0.024493
 **** Fit      -0.028146
 **** Fit      -0.029230
 **** Fit       0.015840
 **** Fit       0.014542
 **** Fit       0.011823
 **** Fit       0.020295
 **** Fit       0.020020
 **** Fit       0.019245
 **** Fit       0.017520
 **** Fit       0.014496
 **** Fit       0.022966
 **** Fit       0.022565
 **** Fit       0.021814
 **** Fit       0.020240
 **** Fit       0.017491
 **** Fit       0.023290
 **** Fit       0.023319
 **** Fit       0.022836
 **** Fit       0.021502
 **** Fit       0.019037
 **** Fit       0.015278
 **** Fit       0.021112
 **** Fit       0.022114
 **** Fit       0.022169
 **** Fit       0.021185
 **** Fit       0.019017
 **** Fit       0.015608
 **** Fit       0.011073
 **** Fit       0.015507
 **** Fit       0.018422
 **** Fit       0.019647
 **** Fit       0.019417
 **** Fit       0.017758
 **** Fit       0.014688
 **** Fit       0.005893
 **** Fit       0.011662
 **** Fit       0.014721
 **** Fit       0.015612
 **** Fit       0.014614
 **** Fit       0.005535
 **** Fit       0.009107
 **** Fit       0.009573
 **** Fit       0.006076
 **** Fit       0.010807
 **** Fit       0.007945
 **** Fit       0.007034
 **** Fit       0.008189
 **** Fit       0.011093
 **** Fit       0.015193
 **** Fit       0.019916
 **** Fit       0.024883
 **** Fit       0.030025
 **** Fit       0.010906
 **** Fit       0.010532
 **** Fit       0.009609
 **** Fit       0.009347
 **** Fit       0.010333
 **** Fit       0.012641
 **** Fit       0.015997
 **** Fit       0.020010
 **** Fit       0.024389
 **** Fit       0.029040
 **** Fit       0.004988
 **** Fit       0.007488
 **** Fit       0.008755
 **** Fit       0.010083
 **** Fit       0.012124
 **** Fit       0.015017
 **** Fit       0.018588
 **** Fit       0.022597
 **** Fit       0.026899
 **** Fit       0.031396
 **** Fit       0.004900
 **** Fit       0.007843
 **** Fit       0.010361
 **** Fit       0.013163
 **** Fit       0.016456
 **** Fit       0.020165
 **** Fit       0.024138
 **** Fit       0.028205
 **** Fit       0.027847
 **** Fit       0.009805
 **** Fit       0.013245
 **** Fit       0.016874
 **** Fit       0.020684
 **** Fit       0.024471
 **** Fit       0.023318
 **** Fit       0.024811
 **** Fit       0.012343
 **** Fit       0.016414
 **** Fit       0.020234
 **** Fit       0.012332
 **** Fit       0.002670
 **** Fit       0.019382
 **** Fit       0.011024
 **** Fit      -0.000843
 **** Fit       0.004153
 **** Fit       0.022387
 **** Fit       0.020776
 **** Fit       0.016268
 **** Fit       0.009104
 **** Fit      -0.000299
 **** Fit      -0.003762
 **** Fit       0.002625
 **** Fit       0.007339
 **** Fit       0.011355
 **** Fit       0.015457
 **** Fit       0.015217
 **** Fit       0.011947
 **** Fit       0.005440
 **** Fit      -0.004103
 **** Fit      -0.000456
 **** Fit       0.005438
 **** Fit       0.009955
 **** Fit       0.013422
 **** Fit       0.008683
 **** Fit       0.006867
 **** Fit       0.000418
 **** Fit      -0.006180
 **** Fit       0.001659
 **** Fit       0.006632
 **** Fit       0.000656
 **** Fit      -0.004512
 **** Fit      -0.003238
 **** Fit       0.048834
 **** Fit       0.052561
 **** Fit       0.054790
 **** Fit       0.047787
 **** Fit       0.050871
 **** Fit       0.052437
 **** Fit       0.051923
 **** Fit       0.048980
 **** Fit       0.043650
 **** Fit       0.036354
 **** Fit       0.027768
 **** Fit       0.018733
 **** Fit       0.033260
 **** Fit       0.038880
 **** Fit       0.043701
 **** Fit       0.045663
 **** Fit       0.048083
 **** Fit       0.048991
 **** Fit       0.047958
 **** Fit       0.044757
 **** Fit       0.039504
 **** Fit       0.032655
 **** Fit       0.024909
 **** Fit       0.017072
 **** Fit       0.032525
 **** Fit       0.037776
 **** Fit       0.042150
 **** Fit       0.042665
 **** Fit       0.044547
 **** Fit       0.044717
 **** Fit       0.042839
 **** Fit       0.038856
 **** Fit       0.033094
 **** Fit       0.026205
 **** Fit       0.018971
 **** Fit       0.012006
 **** Fit       0.035171
 **** Fit       0.039458
 **** Fit       0.039030
 **** Fit       0.040382
 **** Fit       0.039836
 **** Fit       0.037199
 **** Fit       0.032638
 **** Fit       0.026698
 **** Fit       0.020111
 **** Fit       0.031952
 **** Fit       0.036123
 **** Fit       0.034970
 **** Fit       0.035783
 **** Fit       0.034322
 **** Fit       0.030630
 **** Fit       0.025258
 **** Fit       0.019037
 **** Fit       0.032211
 **** Fit       0.030642
 **** Fit       0.030689
 **** Fit       0.027608
 **** Fit       0.022242
 **** Fit       0.024538
 -----------------------------------------------------------------
 Leave Link  602 at Sat Sep 14 23:26:45 2019, MaxMem=  1342177280 cpu:             112.1 elap:               2.4

 Test job not archived.
 1\1\GINC-C506-092\SP\RB3LYP\SVP\C54H83Ca1N15O23\PENGZHI\14-Sep-2019\0\
 \#b3lyp/svp scf=(tight,noincore) Test #IOP(5/87=12) Density=Current Po
 p=(MK,readradii) iop(6/33=2) iop(6/42=6)\\holoCaM_loop3_96.0\\0,1\C,0,
 91.21,59.29,103.617\C,0,92.5,59.77,102.977\O,0,93.16,58.8,102.637\H,0,
 90.411,59.301,102.875\H,0,91.345,58.275,103.99\H,0,90.946,59.95,104.44
 4\N,0,92.76,61.08,102.887\C,0,93.96,61.58,102.257\C,0,95.2,61.29,103.0
 87\O,0,95.14,61.47,104.297\C,0,93.74,63.07,101.977\C,0,94.76,63.78,101
 .097\O,0,94.47,64.35,100.017\O,0,95.91,63.32,101.217\H,0,92.22,61.61,1
 03.557\H,0,94.03,61.1,101.277\H,0,93.6,63.59,102.927\H,0,92.74,63.18,1
 01.567\N,0,96.26,60.69,102.537\C,0,97.39,60.15,103.257\C,0,98.48,61.19
 ,103.477\O,0,99.28,60.97,104.377\C,0,97.84,58.85,102.597\C,0,96.87,57.
 67,102.737\C,0,97.5,56.3,102.517\C,0,98.65,55.9,103.437\N,0,99.15,54.5
 4,103.197\H,0,96.34,60.58,101.537\H,0,97.05,59.95,104.277\H,0,98.76,58
 .57,103.117\H,0,98.07,58.9,101.537\H,0,96.02,57.8,102.067\H,0,96.34,57
 .66,103.697\H,0,97.96,56.29,101.527\H,0,96.72,55.54,102.507\H,0,98.29,
 55.92,104.467\H,0,99.43,56.67,103.427\H,0,100.1,54.49,103.557\H,0,98.5
 1,53.84,103.527\H,0,99.42,54.42,102.227\N,0,98.49,62.32,102.757\C,0,99
 .25,63.49,103.137\C,0,98.34,64.61,103.617\O,0,98.86,65.52,104.247\C,0,
 100.08,63.98,101.957\C,0,99.4,64.23,100.617\O,0,100.15,63.87,99.677\O,
 0,98.19,64.54,100.577\H,0,97.72,62.34,102.107\H,0,99.9,63.2,103.967\H,
 0,100.9,63.28,101.777\H,0,100.44,64.97,102.207\N,0,97.04,64.61,103.287
 \C,0,96.08,65.63,103.647\C,0,96.04,66.81,102.687\O,0,95.49,67.85,103.0
 47\H,0,96.72,63.9,102.647\H,0,96.27,66.02,104.647\H,0,95.09,65.17,103.
 577\N,0,96.45,66.71,101.417\C,0,96.59,67.77,100.427\C,0,95.34,68.13,99
 .627\O,0,95.25,69.24,99.127\C,0,97.83,67.54,99.577\C,0,97.6,66.71,98.3
 17\N,0,98.23,67.08,97.197\O,0,96.86,65.74,98.247\H,0,96.84,65.84,101.0
 87\H,0,96.75,68.62,101.087\H,0,98.72,67.15,100.077\H,0,98.09,68.55,99.
 257\H,0,98.88,67.85,97.237\H,0,97.97,66.63,96.337\N,0,94.32,67.27,99.5
 87\C,0,93.06,67.52,98.907\C,0,92.85,66.92,97.527\O,0,91.98,67.39,96.79
 7\H,0,94.39,66.42,100.117\H,0,92.95,68.58,98.707\H,0,92.27,67.1,99.517
 \N,0,93.67,65.91,97.227\C,0,93.61,65.2,95.967\C,0,93.93,63.76,96.337\O
 ,0,94.7,63.53,97.267\C,0,94.71,65.74,95.057\C,0,94.5,67.14,94.527\C,0,
 95.35,68.21,94.857\C,0,93.5,67.44,93.607\C,0,95.26,69.5,94.327\C,0,93.
 36,68.75,93.117\C,0,94.21,69.83,93.447\O,0,94.18,71.03,92.797\H,0,94.3
 5,65.59,97.907\H,0,92.62,65.33,95.527\H,0,95.02,65.,94.317\H,0,95.55,6
 5.87,95.747\H,0,96.2,68.07,95.507\H,0,92.89,66.7,93.107\H,0,96.04,70.2
 1,94.537\H,0,92.68,69.08,92.347\H,0,93.35,71.04,92.307\N,0,93.3,62.81,
 95.647\C,0,93.31,61.39,95.957\C,0,93.8,60.64,94.737\O,0,93.21,60.79,93
 .667\C,0,91.99,60.84,96.477\C,0,91.44,61.35,97.807\C,0,91.98,59.31,96.
 447\C,0,92.31,61.25,99.047\H,0,92.72,63.08,94.867\H,0,94.07,61.16,96.7
 07\H,0,91.16,61.07,95.797\H,0,90.46,60.88,97.937\H,0,91.2,62.41,97.717
 \H,0,90.99,59.02,96.787\H,0,92.14,58.83,95.477\H,0,92.7,58.96,97.187\H
 ,0,93.06,62.04,99.107\H,0,91.67,61.29,99.937\H,0,92.91,60.35,99.187\N,
 0,94.8,59.77,94.857\C,0,95.33,58.9,93.827\C,0,94.77,57.5,94.027\O,0,94
 .05,57.13,94.947\C,0,96.85,59.04,93.837\O,0,97.42,58.2,94.817\H,0,95.1
 1,59.6,95.807\H,0,95.,59.21,92.827\H,0,97.1,60.09,94.017\H,0,97.19,58.
 72,92.857\H,0,98.36,58.11,94.667\N,0,95.09,56.66,93.037\C,0,94.66,55.2
 8,93.127\C,0,95.44,54.51,94.187\O,0,94.91,53.55,94.747\C,0,94.86,54.54
 ,91.807\H,0,95.51,57.03,92.197\H,0,93.63,55.41,93.457\H,0,94.23,53.66,
 91.957\H,0,94.38,55.03,90.967\H,0,95.91,54.34,91.617\N,0,96.68,54.91,9
 4.497\C,0,97.51,54.45,95.587\C,0,96.91,54.74,96.947\O,0,96.6,53.83,97.
 717\C,0,98.99,54.76,95.357\H,0,97.15,55.57,93.897\H,0,97.48,53.36,95.4
 77\H,0,99.14,55.84,95.367\H,0,99.6,54.4,96.177\H,0,99.32,54.35,94.397\
 N,0,96.5,55.99,97.187\C,0,95.65,56.33,98.307\C,0,94.36,55.54,98.387\O,
 0,94.1,54.85,99.377\C,0,95.3,57.82,98.247\C,0,96.54,58.71,98.357\C,0,9
 6.19,60.17,98.567\O,0,96.03,60.66,99.707\O,0,96.3,60.96,97.607\H,0,96.
 74,56.77,96.587\H,0,96.09,56.08,99.267\H,0,94.7,58.07,99.117\H,0,94.84
 ,58.02,97.277\H,0,97.18,58.5,97.497\H,0,97.15,58.4,99.207\N,0,93.68,55
 .49,97.237\C,0,92.39,54.83,97.247\H,0,91.661,55.45,96.726\H,0,92.471,5
 3.866,96.745\H,0,92.067,54.678,98.277\H,0,94.03,56.06,96.487\Ca,0,96.8
 8,63.1,98.86\O,0,98.92,61.42,99.29\H,0,99.68,61.99,99.28\H,0,99.22,60.
 63,99.73\\Version=ES64L-G16RevA.03\State=1-A\HF=-5333.5644978\RMSD=2.4
 49e-09\Dipole=6.3085441,-13.3202658,-4.0582039\Quadrupole=9.0574751,-2
 2.9129927,13.8555176,-90.8516733,-1.8104874,-94.0781836\PG=C01 [X(C54H
 83Ca1N15O23)]\\@


 The chemist is a guest at the physicist's table and
 frequently dines well.
                   -- Richard Bersohn
 Job cpu time:       0 days  9 hours  7 minutes 20.2 seconds.
 Elapsed time:       0 days  0 hours 11 minutes 32.0 seconds.
 File lengths (MBytes):  RWF=   1517 Int=      0 D2E=      0 Chk=    171 Scr=      1
 Normal termination of Gaussian 16 at Sat Sep 14 23:26:46 2019.
