 Entering Gaussian System, Link 0=g16
 Initial command:
 /home1/apps/gaussian/16rA.03/g16/l1.exe "/scratch/01990/pengzhi/4328646/Gau-312616.inp" -scrdir="/scratch/01990/pengzhi/4328646/"
 Entering Link 1 = /home1/apps/gaussian/16rA.03/g16/l1.exe PID=    312617.
  
 Copyright (c) 1988,1990,1992,1993,1995,1998,2003,2009,2016,
            Gaussian, Inc.  All Rights Reserved.
  
 This is part of the Gaussian(R) 16 program.  It is based on
 the Gaussian(R) 09 system (copyright 2009, Gaussian, Inc.),
 the Gaussian(R) 03 system (copyright 2003, Gaussian, Inc.),
 the Gaussian(R) 98 system (copyright 1998, Gaussian, Inc.),
 the Gaussian(R) 94 system (copyright 1995, Gaussian, Inc.),
 the Gaussian 92(TM) system (copyright 1992, Gaussian, Inc.),
 the Gaussian 90(TM) system (copyright 1990, Gaussian, Inc.),
 the Gaussian 88(TM) system (copyright 1988, Gaussian, Inc.),
 the Gaussian 86(TM) system (copyright 1986, Carnegie Mellon
 University), and the Gaussian 82(TM) system (copyright 1983,
 Carnegie Mellon University). Gaussian is a federally registered
 trademark of Gaussian, Inc.
  
 This software contains proprietary and confidential information,
 including trade secrets, belonging to Gaussian, Inc.
  
 This software is provided under written license and may be
 used, copied, transmitted, or stored only in accord with that
 written license.
  
 The following legend is applicable only to US Government
 contracts under FAR:
  
                    RESTRICTED RIGHTS LEGEND
  
 Use, reproduction and disclosure by the US Government is
 subject to restrictions as set forth in subparagraphs (a)
 and (c) of the Commercial Computer Software - Restricted
 Rights clause in FAR 52.227-19.
  
 Gaussian, Inc.
 340 Quinnipiac St., Bldg. 40, Wallingford CT 06492
  
  
 ---------------------------------------------------------------
 Warning -- This program may not be used in any manner that
 competes with the business of Gaussian, Inc. or will provide
 assistance to any competitor of Gaussian, Inc.  The licensee
 of this program is prohibited from giving any competitor of
 Gaussian, Inc. access to this program.  By using this program,
 the user acknowledges that Gaussian, Inc. is engaged in the
 business of creating and licensing software in the field of
 computational chemistry and represents and warrants to the
 licensee that it is not a competitor of Gaussian, Inc. and that
 it will not use this program in any manner prohibited above.
 ---------------------------------------------------------------
  

 Cite this work as:
 Gaussian 16, Revision A.03,
 M. J. Frisch, G. W. Trucks, H. B. Schlegel, G. E. Scuseria, 
 M. A. Robb, J. R. Cheeseman, G. Scalmani, V. Barone, 
 G. A. Petersson, H. Nakatsuji, X. Li, M. Caricato, A. V. Marenich, 
 J. Bloino, B. G. Janesko, R. Gomperts, B. Mennucci, H. P. Hratchian, 
 J. V. Ortiz, A. F. Izmaylov, J. L. Sonnenberg, D. Williams-Young, 
 F. Ding, F. Lipparini, F. Egidi, J. Goings, B. Peng, A. Petrone, 
 T. Henderson, D. Ranasinghe, V. G. Zakrzewski, J. Gao, N. Rega, 
 G. Zheng, W. Liang, M. Hada, M. Ehara, K. Toyota, R. Fukuda, 
 J. Hasegawa, M. Ishida, T. Nakajima, Y. Honda, O. Kitao, H. Nakai, 
 T. Vreven, K. Throssell, J. A. Montgomery, Jr., J. E. Peralta, 
 F. Ogliaro, M. J. Bearpark, J. J. Heyd, E. N. Brothers, K. N. Kudin, 
 V. N. Staroverov, T. A. Keith, R. Kobayashi, J. Normand, 
 K. Raghavachari, A. P. Rendell, J. C. Burant, S. S. Iyengar, 
 J. Tomasi, M. Cossi, J. M. Millam, M. Klene, C. Adamo, R. Cammi, 
 J. W. Ochterski, R. L. Martin, K. Morokuma, O. Farkas, 
 J. B. Foresman, and D. J. Fox, Gaussian, Inc., Wallingford CT, 2016.
 
 ******************************************
 Gaussian 16:  ES64L-G16RevA.03 25-Dec-2016
                14-Sep-2019 
 ******************************************
 %chk=holoCaM_loop3_100.0.chk
 %nprocshared=48
 Will use up to   48 processors via shared memory.
 %mem=10GB
 %nosave
 ----------------------------------------------------------------------
 #b3lyp/svp scf=(tight,noincore) Test #IOP(5/87=12) Density=Current Pop
 =(MK,readradii) iop(6/33=2) iop(6/42=6)
 ----------------------------------------------------------------------
 1/30=1,38=1,172=1/1;
 2/12=2,17=6,18=5,40=1/2;
 3/5=18,7=101,11=2,25=1,30=1,74=-5/1,2,3;
 4//1;
 5/5=4,32=2,38=5,87=12/2;
 6/7=2,8=2,9=2,10=2,15=8,20=101,22=-1,28=1,33=2,42=6/1,2;
 99/5=1,9=1/99;
 -------------------
 holoCaM_loop3_100.0
 -------------------
 Symbolic Z-matrix:
 Charge =  0 Multiplicity = 1
 C                     84.89     66.93     100.232 
 C                     85.68     68.07     99.602 
 O                     86.51     67.7      98.772 
 H                     83.919    66.849    99.744 
 H                     85.438    65.996    100.108 
 H                     84.747    67.13     101.294 
 N                     85.6      69.35     99.982 
 C                     86.38     70.51     99.572 
 C                     87.62     70.6      100.452 
 O                     87.71     71.23     101.502 
 C                     85.4      71.67     99.712 
 C                     86.09     72.93     99.222 
 O                     85.68     74.04     99.612 
 O                     87.1      72.86     98.482 
 H                     84.79     69.66     100.482 
 H                     86.67     70.35     98.532 
 H                     84.94     71.81     100.682 
 H                     84.58     71.49     99.012 
 N                     88.61     69.74     100.212 
 C                     89.6      69.37     101.212 
 C                     90.62     70.4      101.662 
 O                     91.17     70.28     102.752 
 C                     90.37     68.17     100.652 
 C                     89.46     66.97     100.402 
 C                     90.33     65.74     100.192 
 C                     89.64     64.43     99.822 
 N                     88.37     64.26     100.542 
 H                     88.38     69.08     99.492 
 H                     89.1      69.18     102.162 
 H                     91.16     68.       101.382 
 H                     90.83     68.49     99.722 
 H                     88.83     67.26     99.562 
 H                     88.81     66.87     101.262 
 H                     90.89     65.54     101.112 
 H                     91.08     65.91     99.432 
 H                     90.31     63.6      100.052 
 H                     89.33     64.49     98.782 
 H                     87.71     65.02     100.472 
 H                     87.92     63.47     100.102 
 H                     88.57     64.01     101.502 
 N                     90.78     71.48     100.892 
 C                     91.5      72.69     101.262 
 C                     90.53     73.79     101.682 
 O                     90.93     74.9      102.032 
 C                     92.3      73.1      100.032 
 C                     91.58     73.13     98.692 
 O                     92.3      73.36     97.692 
 O                     90.35     72.97     98.552 
 H                     90.3      71.51     100.012 
 H                     92.08     72.46     102.152 
 H                     93.1      72.36     99.892 
 H                     92.84     74.03     100.202 
 N                     89.21     73.6      101.682 
 C                     88.28     74.67     102.012 
 C                     88.28     75.89     101.102 
 O                     88.03     76.96     101.642 
 H                     88.85     72.7      101.422 
 H                     88.42     74.97     103.042 
 H                     87.28     74.24     101.942 
 N                     88.76     75.77     99.862 
 C                     88.8      76.91     98.972 
 C                     87.45     77.42     98.492 
 O                     87.31     78.52     97.972 
 C                     89.84     76.64     97.882 
 C                     89.56     75.51     96.902 
 N                     90.31     75.42     95.802 
 O                     88.52     74.86     96.932 
 H                     89.04     74.87     99.492 
 H                     89.26     77.67     99.602 
 H                     90.75     76.38     98.432 
 H                     89.97     77.59     97.362 
 H                     90.89     76.17     95.452 
 H                     89.96     74.88     95.022 
 N                     86.37     76.64     98.682 
 C                     84.99     76.98     98.392 
 C                     84.31     76.       97.452 
 O                     83.11     76.16     97.242 
 H                     86.46     75.68     98.972 
 H                     85.01     77.97     97.942 
 H                     84.38     77.24     99.252 
 N                     84.99     75.07     96.782 
 C                     84.56     74.38     95.582 
 C                     85.13     72.99     95.352 
 O                     86.16     72.72     95.972 
 C                     84.74     75.24     94.342 
 C                     85.57     76.5      94.422 
 C                     86.92     76.4      94.772 
 C                     85.       77.78     94.322 
 C                     87.75     77.5      94.972 
 C                     85.84     78.9      94.392 
 C                     87.2      78.77     94.702 
 O                     87.92     79.92     94.842 
 H                     85.81     74.68     97.222 
 H                     83.53     74.08     95.792 
 H                     83.77     75.62     94.012 
 H                     85.16     74.66     93.512 
 H                     87.43     75.44     94.792 
 H                     83.95     77.81     94.072 
 H                     88.78     77.43     95.302 
 H                     85.47     79.9      94.222 
 H                     87.4      80.71     94.662 
 N                     84.56     72.1      94.532 
 C                     84.92     70.72     94.272 
 C                     85.58     70.63     92.902 
 O                     84.98     70.91     91.862 
 C                     83.7      69.81     94.402 
 C                     82.96     70.04     95.712 
 C                     84.15     68.36     94.312 
 C                     83.74     69.76     96.992 
 H                     83.79     72.53     94.032 
 H                     85.72     70.53     94.982 
 H                     83.       69.99     93.582 
 H                     82.09     69.39     95.642 
 H                     82.6      71.07     95.642 
 H                     84.8      68.13     95.152 
 H                     83.23     67.77     94.312 
 H                     84.62     68.2      93.342 
 H                     84.72     70.24     96.952 
 H                     83.1      70.12     97.802 
 H                     83.94     68.7      97.132 
 N                     86.83     70.18     92.932 
 C                     87.51     69.72     91.732 
 C                     87.4      68.24     91.392 
 O                     86.89     67.44     92.172 
 C                     88.99     70.06     91.822 
 O                     89.57     69.56     93.012 
 H                     87.3      70.07     93.822 
 H                     87.1      70.24     90.872 
 H                     89.15     71.12     91.972 
 H                     89.44     69.67     90.902 
 H                     88.99     69.72     93.762 
 N                     87.92     67.79     90.252 
 C                     87.82     66.45     89.702 
 C                     88.41     65.47     90.692 
 O                     87.76     64.43     90.822 
 C                     88.56     66.36     88.372 
 H                     88.34     68.54     89.722 
 H                     86.8      66.1      89.552 
 H                     88.38     65.39     87.892 
 H                     88.06     67.19     87.892 
 H                     89.64     66.5      88.312 
 N                     89.56     65.61     91.352 
 C                     90.06     64.65     92.312 
 C                     89.26     64.68     93.612 
 O                     89.14     63.67     94.312 
 C                     91.49     65.11     92.582 
 H                     90.1      66.47     91.282 
 H                     90.03     63.64     91.912 
 H                     91.52     66.07     93.092 
 H                     91.93     64.41     93.302 
 H                     92.14     65.22     91.712 
 N                     88.6      65.76     94.032 
 C                     87.73     65.84     95.192 
 C                     86.43     65.12     94.862 
 O                     85.87     64.42     95.702 
 C                     87.59     67.32     95.552 
 C                     88.95     67.91     95.912 
 C                     88.91     69.41     96.152 
 O                     89.26     69.92     97.232 
 O                     88.39     70.15     95.282 
 H                     88.71     66.58     93.462 
 H                     88.13     65.25     96.012 
 H                     86.9      67.36     96.402 
 H                     87.2      67.83     94.672 
 H                     89.64     67.66     95.102 
 H                     89.23     67.34     96.802 
 N                     85.96     65.2      93.622 
 C                     84.96     64.31     93.062 
 H                     84.084    64.888    92.767 
 H                     85.371    63.804    92.189 
 H                     84.672    63.57     93.809 
 H                     86.38     65.79     92.912 
 Ca                    88.8      72.31     96.62 
 O                     91.26     72.07     95.68 
 H                     91.82     72.39     96.39 
 H                     91.87     71.7      95.04 
 
 Stoichiometry    C54H83CaN15O23
 Framework group  C1[X(C54H83CaN15O23)]
 Deg. of freedom   522
 Full point group                 C1      NOp   1
 Largest Abelian subgroup         C1      NOp   1
 Largest concise Abelian subgroup C1      NOp   1
                         Standard orientation:                         
 ---------------------------------------------------------------------
 Center     Atomic      Atomic             Coordinates (Angstroms)
 Number     Number       Type             X           Y           Z
 ---------------------------------------------------------------------
      1          6           0        2.088634    3.686218    4.496988
      2          6           0        1.351263    2.973354    3.370619
      3          8           0        2.054484    2.735284    2.389037
      4          1           0        2.376982    2.960819    5.257380
      5          1           0        2.980882    4.169276    4.098759
      6          1           0        1.435369    4.437426    4.941088
      7          7           0        0.036069    2.729778    3.358920
      8          6           0       -0.817413    2.188543    2.309762
      9          6           0       -1.288238    3.334757    1.423975
     10          8           0       -2.320472    3.981788    1.576763
     11          6           0       -1.919907    1.468419    3.078870
     12          6           0       -2.827350    0.786286    2.071377
     13          8           0       -3.995541    0.502077    2.398262
     14          8           0       -2.432397    0.563934    0.902115
     15          1           0       -0.466129    2.724675    4.224928
     16          1           0       -0.209466    1.492349    1.729233
     17          1           0       -2.479054    2.052910    3.798470
     18          1           0       -1.448042    0.661972    3.646133
     19          7           0       -0.409550    3.850465    0.564177
     20          6           0       -0.522798    5.197267    0.025383
     21          6           0       -1.643314    5.514553   -0.948051
     22          8           0       -2.021331    6.673164   -1.088497
     23          6           0        0.802529    5.507471   -0.677311
     24          6           0        1.986126    5.467529    0.286071
     25          6           0        3.182283    6.118460   -0.391717
     26          6           0        4.518316    6.103806    0.345781
     27          7           0        4.346536    6.314934    1.790120
     28          1           0        0.501960    3.440502    0.653515
     29          1           0       -0.777793    5.887640    0.829723
     30          1           0        0.630417    6.473448   -1.149715
     31          1           0        0.932185    4.765295   -1.459145
     32          1           0        2.100272    4.417910    0.554160
     33          1           0        1.690462    5.991071    1.186397
     34          1           0        2.951752    7.172080   -0.583396
     35          1           0        3.370873    5.685519   -1.364340
     36          1           0        5.159740    6.883243   -0.068649
     37          1           0        4.928189    5.098806    0.288517
     38          1           0        3.696359    5.701693    2.258421
     39          1           0        5.248964    6.112865    2.196314
     40          1           0        4.142173    7.292239    1.955080
     41          7           0       -2.265770    4.481498   -1.522721
     42          6           0       -3.512256    4.548558   -2.271838
     43          6           0       -4.686012    4.090601   -1.411679
     44          8           0       -5.834726    4.066547   -1.852674
     45          6           0       -3.328556    3.641900   -3.482303
     46          6           0       -2.758759    2.250475   -3.249567
     47          8           0       -2.516801    1.581493   -4.281662
     48          8           0       -2.555560    1.754390   -2.122310
     49          1           0       -1.900805    3.560852   -1.364885
     50          1           0       -3.702511    5.596855   -2.486958
     51          1           0       -2.602266    4.122351   -4.152280
     52          1           0       -4.235574    3.593156   -4.082588
     53          7           0       -4.518634    3.691173   -0.150353
     54          6           0       -5.625293    3.185079    0.648316
     55          6           0       -6.310865    1.919083    0.154610
     56          8           0       -7.509891    1.834624    0.387425
     57          1           0       -3.597931    3.717593    0.248154
     58          1           0       -6.353196    3.970605    0.801960
     59          1           0       -5.211263    2.942891    1.627971
     60          7           0       -5.649065    1.108253   -0.674231
     61          6           0       -6.271894   -0.093333   -1.185676
     62          6           0       -6.516741   -1.194870   -0.166036
     63          8           0       -7.269279   -2.136355   -0.383503
     64          6           0       -5.541691   -0.513772   -2.463422
     65          6           0       -4.093649   -0.963576   -2.334775
     66          7           0       -3.520641   -1.572212   -3.374882
     67          8           0       -3.527462   -1.045446   -1.249542
     68          1           0       -4.677982    1.274816   -0.907801
     69          1           0       -7.232258    0.283350   -1.534831
     70          1           0       -5.552686    0.382886   -3.091182
     71          1           0       -6.159459   -1.295112   -2.908024
     72          1           0       -4.034410   -1.965569   -4.151228
     73          1           0       -2.689976   -2.125564   -3.212719
     74          7           0       -5.905715   -1.103742    1.029474
     75          6           0       -6.083299   -1.987012    2.166311
     76          6           0       -4.788142   -2.610695    2.656195
     77          8           0       -4.839996   -3.287225    3.680557
     78          1           0       -5.175902   -0.430428    1.196271
     79          1           0       -6.768325   -2.766422    1.840337
     80          1           0       -6.701034   -1.598500    2.970526
     81          7           0       -3.655511   -2.537029    1.957681
     82          6           0       -2.503317   -3.407503    2.083071
     83          6           0       -1.155656   -2.815518    1.704570
     84          8           0       -1.188704   -1.812815    0.989242
     85          6           0       -2.719086   -4.734087    1.373691
     86          6           0       -3.880658   -4.889898    0.420081
     87          6           0       -3.944681   -4.067121   -0.708608
     88          6           0       -4.982594   -5.711536    0.709819
     89          6           0       -5.016635   -4.056353   -1.597259
     90          6           0       -6.014401   -5.813918   -0.233468
     91          6           0       -6.033705   -5.008431   -1.379513
     92          8           0       -7.123843   -5.108354   -2.193218
     93          1           0       -3.501257   -1.710770    1.399468
     94          1           0       -2.330653   -3.480935    3.160009
     95          1           0       -2.913789   -5.518769    2.108922
     96          1           0       -1.828766   -5.033510    0.808558
     97          1           0       -3.093516   -3.466886   -1.020594
     98          1           0       -4.899961   -6.313088    1.602684
     99          1           0       -5.099219   -3.378685   -2.439070
    100          1           0       -6.834131   -6.505188   -0.107020
    101          1           0       -7.751488   -5.775103   -1.895883
    102          7           0        0.005624   -3.336597    2.116037
    103          6           0        1.357306   -2.849897    1.921924
    104          6           0        2.050644   -3.716426    0.878367
    105          8           0        2.263065   -4.917892    1.055441
    106          6           0        2.111163   -2.805569    3.249755
    107          6           0        1.319164   -2.076241    4.325588
    108          6           0        3.449789   -2.115337    3.038184
    109          6           0        0.999983   -0.609298    4.058378
    110          1           0       -0.157545   -4.211413    2.601705
    111          1           0        1.212037   -1.888676    1.437000
    112          1           0        2.314677   -3.818178    3.607531
    113          1           0        1.930325   -2.179943    5.220031
    114          1           0        0.427975   -2.692911    4.470159
    115          1           0        3.281991   -1.083392    2.741649
    116          1           0        3.975914   -2.203674    3.992065
    117          1           0        4.026853   -2.687898    2.312532
    118          1           0        0.590266   -0.486905    3.053613
    119          1           0        0.315018   -0.314910    4.858040
    120          1           0        1.886453    0.020257    4.090476
    121          7           0        2.442449   -3.051512   -0.203427
    122          6           0        3.391050   -3.615273   -1.150174
    123          6           0        4.866982   -3.324106   -0.915768
    124          8           0        5.233711   -2.525838   -0.057411
    125          6           0        3.049593   -3.145074   -2.556026
    126          8           0        2.967052   -1.734324   -2.629989
    127          1           0        2.144589   -2.092919   -0.335634
    128          1           0        3.308745   -4.697385   -1.131185
    129          1           0        2.034408   -3.402206   -2.829853
    130          1           0        3.810119   -3.587634   -3.209279
    131          1           0        2.487960   -1.385186   -1.872973
    132          7           0        5.779534   -3.899940   -1.695618
    133          6           0        7.223935   -3.838515   -1.561335
    134          6           0        7.660215   -2.391647   -1.630869
    135          8           0        8.531548   -2.086767   -0.813050
    136          6           0        7.899580   -4.642678   -2.666516
    137          1           0        5.345784   -4.501464   -2.381059
    138          1           0        7.602043   -4.187927   -0.601988
    139          1           0        8.981478   -4.705517   -2.495493
    140          1           0        7.370080   -5.569103   -2.491392
    141          1           0        7.803245   -4.359517   -3.715391
    142          7           0        7.242660   -1.482376   -2.512103
    143          6           0        7.674252   -0.101461   -2.510726
    144          6           0        7.065569    0.680850   -1.349523
    145          8           0        7.656708    1.640921   -0.846215
    146          6           0        7.144971    0.450964   -3.831366
    147          1           0        6.505402   -1.702294   -3.178577
    148          1           0        8.756538   -0.026579   -2.447095
    149          1           0        6.058332    0.488629   -3.851247
    150          1           0        7.450899    1.501898   -3.894184
    151          1           0        7.436150   -0.085075   -4.736561
    152          7           0        5.910332    0.343538   -0.775024
    153          6           0        5.319251    0.962903    0.397968
    154          6           0        6.108237    0.515516    1.620525
    155          8           0        6.358600    1.304193    2.528549
    156          6           0        3.833891    0.597828    0.403038
    157          6           0        3.147968    1.145984   -0.844493
    158          6           0        1.698471    0.708717   -0.974708
    159          8           0        0.760752    1.524839   -1.034934
    160          8           0        1.423539   -0.512977   -0.892382
    161          1           0        5.431173   -0.432774   -1.195914
    162          1           0        5.482030    2.037090    0.386800
    163          1           0        3.417330    1.040383    1.314533
    164          1           0        3.769502   -0.489569    0.398552
    165          1           0        3.734597    0.824027   -1.708732
    166          1           0        3.261365    2.226784   -0.724444
    167          7           0        6.589159   -0.722645    1.644428
    168          6           0        7.633531   -1.182612    2.540764
    169          1           0        7.246211   -1.986267    3.167348
    170          1           0        8.476805   -1.551910    1.958017
    171          1           0        7.961742   -0.356350    3.171732
    172          1           0        6.378928   -1.407899    0.926912
    173         20           0       -1.105741   -0.145167   -1.194716
    174          8           0       -0.466488    0.061669   -3.752327
    175          1           0       -1.068618    0.724092   -4.096907
    176          1           0        0.151489   -0.097594   -4.467408
 ---------------------------------------------------------------------
 Rotational constants (GHZ):           0.0260421           0.0153378           0.0123849
 Standard basis: SVP (5D, 7F)
 There are  1809 symmetry adapted cartesian basis functions of A   symmetry.
 There are  1717 symmetry adapted basis functions of A   symmetry.
  1717 basis functions,  2922 primitive gaussians,  1809 cartesian basis functions
   358 alpha electrons      358 beta electrons
       nuclear repulsion energy     22130.5889235413 Hartrees.
 NAtoms=  176 NActive=  176 NUniq=  176 SFac= 1.00D+00 NAtFMM=   60 NAOKFM=T Big=T
 Integral buffers will be    131072 words long.
 Raffenetti 2 integral format.
 Two-electron integral symmetry is turned on.
 One-electron integrals computed using PRISM.
 NBasis=  1717 RedAO= T EigKep=  2.65D-04  NBF=  1717
 NBsUse=  1717 1.00D-06 EigRej= -1.00D+00 NBFU=  1717
 ExpMin= 1.98D-02 ExpMax= 3.51D+04 ExpMxC= 5.28D+03 IAcc=3 IRadAn=         5 AccDes= 0.00D+00
 Harris functional with IExCor=  402 and IRadAn=       5 diagonalized for initial guess.
 HarFok:  IExCor=  402 AccDes= 0.00D+00 IRadAn=         5 IDoV= 1 UseB2=F ITyADJ=14
 ICtDFT=  3500011 ScaDFX=  1.000000  1.000000  1.000000  1.000000
 FoFCou: FMM=F IPFlag=           0 FMFlag=      100000 FMFlg1=        2001
         NFxFlg=           0 DoJE=T BraDBF=F KetDBF=T FulRan=T
         wScrn=  0.000000 ICntrl=       500 IOpCl=  0 I1Cent=   200000004 NGrid=           0
         NMat0=    1 NMatS0=      1 NMatT0=    0 NMatD0=    1 NMtDS0=    0 NMtDT0=    0
 Petite list used in FoFCou.
 Requested convergence on RMS density matrix=1.00D-08 within 128 cycles.
 Requested convergence on MAX density matrix=1.00D-06.
 Requested convergence on             energy=1.00D-06.
 No special actions if energy rises.
 EnCoef did     4 forward-backward iterations
 SCF Done:  E(RB3LYP) =  -5333.58112395     A.U. after   19 cycles
            NFock= 19  Conv=0.22D-08     -V/T= 2.0081
 SCF density gives NOpUse=  1 NOpAll=  1.
 Hyperfine terms turned off by default for NAtoms > 100.

 **********************************************************************

            Population analysis using the SCF density.

 **********************************************************************

 Orbital symmetries:
 BldTbl:  Degeneracy threshold= 1.00D-02
       Occupied  (A) (A) (A) (A) (A) (A) (A) (A) (A) (A) (A) (A)
                 (A) (A) (A) (A) (A) (A) (A) (A) (A) (A) (A) (A)
                 (A) (A) (A) (A) (A) (A) (A) (A) (A) (A) (A) (A)
                 (A) (A) (A) (A) (A) (A) (A) (A) (A) (A) (A) (A)
                 (A) (A) (A) (A) (A) (A) (A) (A) (A) (A) (A) (A)
                 (A) (A) (A) (A) (A) (A) (A) (A) (A) (A) (A) (A)
                 (A) (A) (A) (A) (A) (A) (A) (A) (A) (A) (A) (A)
                 (A) (A) (A) (A) (A) (A) (A) (A) (A) (A) (A) (A)
                 (A) (A) (A) (A) (A) (A) (A) (A) (A) (A) (A) (A)
                 (A) (A) (A) (A) (A) (A) (A) (A) (A) (A) (A) (A)
                 (A) (A) (A) (A) (A) (A) (A) (A) (A) (A) (A) (A)
                 (A) (A) (A) (A) (A) (A) (A) (A) (A) (A) (A) (A)
                 (A) (A) (A) (A) (A) (A) (A) (A) (A) (A) (A) (A)
                 (A) (A) (A) (A) (A) (A) (A) (A) (A) (A) (A) (A)
                 (A) (A) (A) (A) (A) (A) (A) (A) (A) (A) (A) (A)
                 (A) (A) (A) (A) (A) (A) (A) (A) (A) (A) (A) (A)
                 (A) (A) (A) (A) (A) (A) (A) (A) (A) (A) (A) (A)
                 (A) (A) (A) (A) (A) (A) (A) (A) (A) (A) (A) (A)
                 (A) (A) (A) (A) (A) (A) (A) (A) (A) (A) (A) (A)
                 (A) (A) (A) (A) (A) (A) (A) (A) (A) (A) (A) (A)
                 (A) (A) (A) (A) (A) (A) (A) (A) (A) (A) (A) (A)
                 (A) (A) (A) (A) (A) (A) (A) (A) (A) (A) (A) (A)
                 (A) (A) (A) (A) (A) (A) (A) (A) (A) (A) (A) (A)
                 (A) (A) (A) (A) (A) (A) (A) (A) (A) (A) (A) (A)
                 (A) (A) (A) (A) (A) (A) (A) (A) (A) (A) (A) (A)
                 (A) (A) (A) (A) (A) (A) (A) (A) (A) (A) (A) (A)
                 (A) (A) (A) (A) (A) (A) (A) (A) (A) (A) (A) (A)
                 (A) (A) (A) (A) (A) (A) (A) (A) (A) (A) (A) (A)
                 (A) (A) (A) (A) (A) (A) (A) (A) (A) (A) (A) (A)
                 (A) (A) (A) (A) (A) (A) (A) (A) (A) (A)
       Virtual   (A) (A) (A) (A) (A) (A) (A) (A) (A) (A) (A) (A)
                 (A) (A) (A) (A) (A) (A) (A) (A) (A) (A) (A) (A)
                 (A) (A) (A) (A) (A) (A) (A) (A) (A) (A) (A) (A)
                 (A) (A) (A) (A) (A) (A) (A) (A) (A) (A) (A) (A)
                 (A) (A) (A) (A) (A) (A) (A) (A) (A) (A) (A) (A)
                 (A) (A) (A) (A) (A) (A) (A) (A) (A) (A) (A) (A)
                 (A) (A) (A) (A) (A) (A) (A) (A) (A) (A) (A) (A)
                 (A) (A) (A) (A) (A) (A) (A) (A) (A) (A) (A) (A)
                 (A) (A) (A) (A) (A) (A) (A) (A) (A) (A) (A) (A)
                 (A) (A) (A) (A) (A) (A) (A) (A) (A) (A) (A) (A)
                 (A) (A) (A) (A) (A) (A) (A) (A) (A) (A) (A) (A)
                 (A) (A) (A) (A) (A) (A) (A) (A) (A) (A) (A) (A)
                 (A) (A) (A) (A) (A) (A) (A) (A) (A) (A) (A) (A)
                 (A) (A) (A) (A) (A) (A) (A) (A) (A) (A) (A) (A)
                 (A) (A) (A) (A) (A) (A) (A) (A) (A) (A) (A) (A)
                 (A) (A) (A) (A) (A) (A) (A) (A) (A) (A) (A) (A)
                 (A) (A) (A) (A) (A) (A) (A) (A) (A) (A) (A) (A)
                 (A) (A) (A) (A) (A) (A) (A) (A) (A) (A) (A) (A)
                 (A) (A) (A) (A) (A) (A) (A) (A) (A) (A) (A) (A)
                 (A) (A) (A) (A) (A) (A) (A) (A) (A) (A) (A) (A)
                 (A) (A) (A) (A) (A) (A) (A) (A) (A) (A) (A) (A)
                 (A) (A) (A) (A) (A) (A) (A) (A) (A) (A) (A) (A)
                 (A) (A) (A) (A) (A) (A) (A) (A) (A) (A) (A) (A)
                 (A) (A) (A) (A) (A) (A) (A) (A) (A) (A) (A) (A)
                 (A) (A) (A) (A) (A) (A) (A) (A) (A) (A) (A) (A)
                 (A) (A) (A) (A) (A) (A) (A) (A) (A) (A) (A) (A)
                 (A) (A) (A) (A) (A) (A) (A) (A) (A) (A) (A) (A)
                 (A) (A) (A) (A) (A) (A) (A) (A) (A) (A) (A) (A)
                 (A) (A) (A) (A) (A) (A) (A) (A) (A) (A) (A) (A)
                 (A) (A) (A) (A) (A) (A) (A) (A) (A) (A) (A) (A)
                 (A) (A) (A) (A) (A) (A) (A) (A) (A) (A) (A) (A)
                 (A) (A) (A) (A) (A) (A) (A) (A) (A) (A) (A) (A)
                 (A) (A) (A) (A) (A) (A) (A) (A) (A) (A) (A) (A)
                 (A) (A) (A) (A) (A) (A) (A) (A) (A) (A) (A) (A)
                 (A) (A) (A) (A) (A) (A) (A) (A) (A) (A) (A) (A)
                 (A) (A) (A) (A) (A) (A) (A) (A) (A) (A) (A) (A)
                 (A) (A) (A) (A) (A) (A) (A) (A) (A) (A) (A) (A)
                 (A) (A) (A) (A) (A) (A) (A) (A) (A) (A) (A) (A)
                 (A) (A) (A) (A) (A) (A) (A) (A) (A) (A) (A) (A)
                 (A) (A) (A) (A) (A) (A) (A) (A) (A) (A) (A) (A)
                 (A) (A) (A) (A) (A) (A) (A) (A) (A) (A) (A) (A)
                 (A) (A) (A) (A) (A) (A) (A) (A) (A) (A) (A) (A)
                 (A) (A) (A) (A) (A) (A) (A) (A) (A) (A) (A) (A)
                 (A) (A) (A) (A) (A) (A) (A) (A) (A) (A) (A) (A)
                 (A) (A) (A) (A) (A) (A) (A) (A) (A) (A) (A) (A)
                 (A) (A) (A) (A) (A) (A) (A) (A) (A) (A) (A) (A)
                 (A) (A) (A) (A) (A) (A) (A) (A) (A) (A) (A) (A)
                 (A) (A) (A) (A) (A) (A) (A) (A) (A) (A) (A) (A)
                 (A) (A) (A) (A) (A) (A) (A) (A) (A) (A) (A) (A)
                 (A) (A) (A) (A) (A) (A) (A) (A) (A) (A) (A) (A)
                 (A) (A) (A) (A) (A) (A) (A) (A) (A) (A) (A) (A)
                 (A) (A) (A) (A) (A) (A) (A) (A) (A) (A) (A) (A)
                 (A) (A) (A) (A) (A) (A) (A) (A) (A) (A) (A) (A)
                 (A) (A) (A) (A) (A) (A) (A) (A) (A) (A) (A) (A)
                 (A) (A) (A) (A) (A) (A) (A) (A) (A) (A) (A) (A)
                 (A) (A) (A) (A) (A) (A) (A) (A) (A) (A) (A) (A)
                 (A) (A) (A) (A) (A) (A) (A) (A) (A) (A) (A) (A)
                 (A) (A) (A) (A) (A) (A) (A) (A) (A) (A) (A) (A)
                 (A) (A) (A) (A) (A) (A) (A) (A) (A) (A) (A) (A)
                 (A) (A) (A) (A) (A) (A) (A) (A) (A) (A) (A) (A)
                 (A) (A) (A) (A) (A) (A) (A) (A) (A) (A) (A) (A)
                 (A) (A) (A) (A) (A) (A) (A) (A) (A) (A) (A) (A)
                 (A) (A) (A) (A) (A) (A) (A) (A) (A) (A) (A) (A)
                 (A) (A) (A) (A) (A) (A) (A) (A) (A) (A) (A) (A)
                 (A) (A) (A) (A) (A) (A) (A) (A) (A) (A) (A) (A)
                 (A) (A) (A) (A) (A) (A) (A) (A) (A) (A) (A) (A)
                 (A) (A) (A) (A) (A) (A) (A) (A) (A) (A) (A) (A)
                 (A) (A) (A) (A) (A) (A) (A) (A) (A) (A) (A) (A)
                 (A) (A) (A) (A) (A) (A) (A) (A) (A) (A) (A) (A)
                 (A) (A) (A) (A) (A) (A) (A) (A) (A) (A) (A) (A)
                 (A) (A) (A) (A) (A) (A) (A) (A) (A) (A) (A) (A)
                 (A) (A) (A) (A) (A) (A) (A) (A) (A) (A) (A) (A)
                 (A) (A) (A) (A) (A) (A) (A) (A) (A) (A) (A) (A)
                 (A) (A) (A) (A) (A) (A) (A) (A) (A) (A) (A) (A)
                 (A) (A) (A) (A) (A) (A) (A) (A) (A) (A) (A) (A)
                 (A) (A) (A) (A) (A) (A) (A) (A) (A) (A) (A) (A)
                 (A) (A) (A) (A) (A) (A) (A) (A) (A) (A) (A) (A)
                 (A) (A) (A) (A) (A) (A) (A) (A) (A) (A) (A) (A)
                 (A) (A) (A) (A) (A) (A) (A) (A) (A) (A) (A) (A)
                 (A) (A) (A) (A) (A) (A) (A) (A) (A) (A) (A) (A)
                 (A) (A) (A) (A) (A) (A) (A) (A) (A) (A) (A) (A)
                 (A) (A) (A) (A) (A) (A) (A) (A) (A) (A) (A) (A)
                 (A) (A) (A) (A) (A) (A) (A) (A) (A) (A) (A) (A)
                 (A) (A) (A) (A) (A) (A) (A) (A) (A) (A) (A) (A)
                 (A) (A) (A) (A) (A) (A) (A) (A) (A) (A) (A) (A)
                 (A) (A) (A) (A) (A) (A) (A) (A) (A) (A) (A) (A)
                 (A) (A) (A) (A) (A) (A) (A) (A) (A) (A) (A) (A)
                 (A) (A) (A) (A) (A) (A) (A) (A) (A) (A) (A) (A)
                 (A) (A) (A) (A) (A) (A) (A) (A) (A) (A) (A) (A)
                 (A) (A) (A) (A) (A) (A) (A) (A) (A) (A) (A) (A)
                 (A) (A) (A) (A) (A) (A) (A) (A) (A) (A) (A) (A)
                 (A) (A) (A) (A) (A) (A) (A) (A) (A) (A) (A) (A)
                 (A) (A) (A) (A) (A) (A) (A) (A) (A) (A) (A) (A)
                 (A) (A) (A) (A) (A) (A) (A) (A) (A) (A) (A) (A)
                 (A) (A) (A) (A) (A) (A) (A) (A) (A) (A) (A) (A)
                 (A) (A) (A) (A) (A) (A) (A) (A) (A) (A) (A) (A)
                 (A) (A) (A) (A) (A) (A) (A) (A) (A) (A) (A) (A)
                 (A) (A) (A) (A) (A) (A) (A) (A) (A) (A) (A) (A)
                 (A) (A) (A) (A) (A) (A) (A) (A) (A) (A) (A) (A)
                 (A) (A) (A) (A) (A) (A) (A) (A) (A) (A) (A) (A)
                 (A) (A) (A) (A) (A) (A) (A) (A) (A) (A) (A) (A)
                 (A) (A) (A) (A) (A) (A) (A) (A) (A) (A) (A) (A)
                 (A) (A) (A) (A) (A) (A) (A) (A) (A) (A) (A) (A)
                 (A) (A) (A) (A) (A) (A) (A) (A) (A) (A) (A) (A)
                 (A) (A) (A) (A) (A) (A) (A) (A) (A) (A) (A) (A)
                 (A) (A) (A) (A) (A) (A) (A) (A) (A) (A) (A) (A)
                 (A) (A) (A) (A) (A) (A) (A) (A) (A) (A) (A) (A)
                 (A) (A) (A) (A) (A) (A) (A) (A) (A) (A) (A) (A)
                 (A) (A) (A) (A) (A) (A) (A) (A) (A) (A) (A) (A)
                 (A) (A) (A) (A) (A) (A) (A) (A) (A) (A) (A) (A)
                 (A) (A) (A) (A) (A) (A) (A) (A) (A) (A) (A) (A)
                 (A) (A) (A) (A) (A) (A) (A) (A) (A) (A) (A) (A)
                 (A) (A) (A) (A) (A) (A) (A) (A) (A) (A) (A) (A)
                 (A) (A) (A)
 The electronic state is 1-A.
 Alpha  occ. eigenvalues -- -145.37325 -19.14228 -19.13869 -19.13602 -19.12918
 Alpha  occ. eigenvalues --  -19.12712 -19.12625 -19.11436 -19.11318 -19.11140
 Alpha  occ. eigenvalues --  -19.11042 -19.10795 -19.10252 -19.09432 -19.07768
 Alpha  occ. eigenvalues --  -19.07611 -19.06905 -19.04616 -19.04586 -19.04286
 Alpha  occ. eigenvalues --  -19.03992 -19.03865 -19.03249 -19.02717 -15.43088
 Alpha  occ. eigenvalues --  -14.57765 -14.40272 -14.38396 -14.38270 -14.37186
 Alpha  occ. eigenvalues --  -14.36841 -14.36063 -14.35687 -14.35567 -14.32693
 Alpha  occ. eigenvalues --  -14.32368 -14.30708 -14.29620 -14.29302 -14.28207
 Alpha  occ. eigenvalues --  -12.56717 -12.56668 -12.56628 -10.34634 -10.32638
 Alpha  occ. eigenvalues --  -10.32072 -10.30554 -10.30268 -10.29955 -10.29927
 Alpha  occ. eigenvalues --  -10.29402 -10.28727 -10.28645 -10.27459 -10.27262
 Alpha  occ. eigenvalues --  -10.26779 -10.26527 -10.26455 -10.26305 -10.25857
 Alpha  occ. eigenvalues --  -10.25261 -10.24726 -10.24299 -10.24191 -10.23956
 Alpha  occ. eigenvalues --  -10.23822 -10.23766 -10.23498 -10.23432 -10.23036
 Alpha  occ. eigenvalues --  -10.22852 -10.22779 -10.22676 -10.22490 -10.22163
 Alpha  occ. eigenvalues --  -10.21954 -10.21669 -10.20248 -10.20238 -10.19970
 Alpha  occ. eigenvalues --  -10.19832 -10.19735 -10.19452 -10.18812 -10.18752
 Alpha  occ. eigenvalues --  -10.18708 -10.18216 -10.17745 -10.17622 -10.17184
 Alpha  occ. eigenvalues --  -10.17161 -10.16896 -10.16855 -10.16671 -10.16576
 Alpha  occ. eigenvalues --  -10.16503 -10.16202  -1.80071  -1.13294  -1.08792
 Alpha  occ. eigenvalues --   -1.07896  -1.07683  -1.07409  -1.06206  -1.06039
 Alpha  occ. eigenvalues --   -1.04916  -1.04597  -1.04485  -1.04072  -1.03754
 Alpha  occ. eigenvalues --   -1.03015  -1.02718  -1.02194  -1.01151  -1.00695
 Alpha  occ. eigenvalues --   -1.00620  -0.98801  -0.98508  -0.98086  -0.97684
 Alpha  occ. eigenvalues --   -0.97095  -0.96992  -0.96235  -0.96140  -0.95072
 Alpha  occ. eigenvalues --   -0.94825  -0.93932  -0.93653  -0.92809  -0.92386
 Alpha  occ. eigenvalues --   -0.91001  -0.90532  -0.89558  -0.89000  -0.88578
 Alpha  occ. eigenvalues --   -0.88379  -0.88026  -0.87355  -0.85344  -0.84751
 Alpha  occ. eigenvalues --   -0.83382  -0.82687  -0.82683  -0.82554  -0.80820
 Alpha  occ. eigenvalues --   -0.79720  -0.79372  -0.78705  -0.77273  -0.77128
 Alpha  occ. eigenvalues --   -0.75679  -0.75535  -0.74801  -0.74615  -0.73679
 Alpha  occ. eigenvalues --   -0.73181  -0.72460  -0.72003  -0.71433  -0.70508
 Alpha  occ. eigenvalues --   -0.70043  -0.69195  -0.68805  -0.68535  -0.67799
 Alpha  occ. eigenvalues --   -0.67514  -0.67100  -0.66908  -0.65231  -0.64987
 Alpha  occ. eigenvalues --   -0.64363  -0.64050  -0.63518  -0.63180  -0.63025
 Alpha  occ. eigenvalues --   -0.62179  -0.61959  -0.61665  -0.60585  -0.59948
 Alpha  occ. eigenvalues --   -0.59906  -0.59679  -0.59361  -0.59079  -0.58279
 Alpha  occ. eigenvalues --   -0.57393  -0.57232  -0.57082  -0.57049  -0.56388
 Alpha  occ. eigenvalues --   -0.56194  -0.55497  -0.55187  -0.54894  -0.54756
 Alpha  occ. eigenvalues --   -0.54345  -0.54285  -0.53950  -0.53415  -0.53334
 Alpha  occ. eigenvalues --   -0.53008  -0.52820  -0.52685  -0.52465  -0.52393
 Alpha  occ. eigenvalues --   -0.52093  -0.51560  -0.51458  -0.51143  -0.50603
 Alpha  occ. eigenvalues --   -0.50281  -0.50119  -0.49995  -0.49753  -0.49555
 Alpha  occ. eigenvalues --   -0.49348  -0.49037  -0.48963  -0.48904  -0.48720
 Alpha  occ. eigenvalues --   -0.48428  -0.48350  -0.47751  -0.47532  -0.47485
 Alpha  occ. eigenvalues --   -0.47313  -0.46819  -0.46649  -0.46187  -0.46026
 Alpha  occ. eigenvalues --   -0.45894  -0.45785  -0.45736  -0.45600  -0.45391
 Alpha  occ. eigenvalues --   -0.45218  -0.45104  -0.44955  -0.44729  -0.44645
 Alpha  occ. eigenvalues --   -0.44323  -0.44132  -0.44079  -0.43981  -0.43599
 Alpha  occ. eigenvalues --   -0.43463  -0.43195  -0.43188  -0.42954  -0.42535
 Alpha  occ. eigenvalues --   -0.42401  -0.42330  -0.42252  -0.42174  -0.41950
 Alpha  occ. eigenvalues --   -0.41868  -0.41642  -0.41503  -0.41349  -0.41240
 Alpha  occ. eigenvalues --   -0.41047  -0.40984  -0.40843  -0.40764  -0.40734
 Alpha  occ. eigenvalues --   -0.40625  -0.40495  -0.40360  -0.40273  -0.40100
 Alpha  occ. eigenvalues --   -0.40043  -0.39921  -0.39751  -0.39665  -0.39437
 Alpha  occ. eigenvalues --   -0.39089  -0.39014  -0.38882  -0.38851  -0.38729
 Alpha  occ. eigenvalues --   -0.38508  -0.38285  -0.38242  -0.38090  -0.37801
 Alpha  occ. eigenvalues --   -0.37771  -0.37719  -0.37644  -0.37433  -0.37065
 Alpha  occ. eigenvalues --   -0.36948  -0.36862  -0.36844  -0.36446  -0.36352
 Alpha  occ. eigenvalues --   -0.35663  -0.35485  -0.35355  -0.35232  -0.35105
 Alpha  occ. eigenvalues --   -0.34839  -0.34334  -0.34265  -0.34156  -0.33957
 Alpha  occ. eigenvalues --   -0.33810  -0.33749  -0.33322  -0.33103  -0.32750
 Alpha  occ. eigenvalues --   -0.32721  -0.32486  -0.31880  -0.31861  -0.31537
 Alpha  occ. eigenvalues --   -0.31186  -0.30905  -0.30655  -0.30449  -0.30298
 Alpha  occ. eigenvalues --   -0.30028  -0.29682  -0.29645  -0.29555  -0.29066
 Alpha  occ. eigenvalues --   -0.28944  -0.28789  -0.28674  -0.27872  -0.27685
 Alpha  occ. eigenvalues --   -0.27349  -0.27021  -0.26881  -0.26682  -0.26558
 Alpha  occ. eigenvalues --   -0.25893  -0.25745  -0.25026  -0.24766  -0.24242
 Alpha  occ. eigenvalues --   -0.23905  -0.23726  -0.23576  -0.23457  -0.23083
 Alpha  occ. eigenvalues --   -0.22617  -0.21917  -0.21694  -0.21647  -0.21291
 Alpha  occ. eigenvalues --   -0.20878  -0.20702  -0.19863  -0.19551  -0.19058
 Alpha  occ. eigenvalues --   -0.18954  -0.18719  -0.18444
 Alpha virt. eigenvalues --   -0.10029  -0.04630  -0.03742  -0.02655  -0.02265
 Alpha virt. eigenvalues --   -0.01611  -0.01144  -0.00566  -0.00324  -0.00272
 Alpha virt. eigenvalues --    0.00068   0.00675   0.00904   0.01023   0.01222
 Alpha virt. eigenvalues --    0.01426   0.01660   0.02239   0.02413   0.02787
 Alpha virt. eigenvalues --    0.02949   0.03587   0.04157   0.04304   0.04694
 Alpha virt. eigenvalues --    0.05022   0.05065   0.05303   0.05568   0.05788
 Alpha virt. eigenvalues --    0.05943   0.06141   0.06334   0.06542   0.06720
 Alpha virt. eigenvalues --    0.06937   0.07093   0.07147   0.07471   0.07606
 Alpha virt. eigenvalues --    0.07821   0.07918   0.08045   0.08428   0.08522
 Alpha virt. eigenvalues --    0.08722   0.08821   0.09102   0.09199   0.09365
 Alpha virt. eigenvalues --    0.09578   0.09882   0.10110   0.10253   0.10334
 Alpha virt. eigenvalues --    0.10608   0.10806   0.10945   0.11120   0.11403
 Alpha virt. eigenvalues --    0.11524   0.11755   0.11973   0.12104   0.12233
 Alpha virt. eigenvalues --    0.12442   0.12514   0.12716   0.12973   0.13152
 Alpha virt. eigenvalues --    0.13436   0.13481   0.13753   0.13979   0.14252
 Alpha virt. eigenvalues --    0.14353   0.14606   0.14741   0.14881   0.15224
 Alpha virt. eigenvalues --    0.15359   0.15460   0.15731   0.15767   0.15791
 Alpha virt. eigenvalues --    0.16040   0.16282   0.16479   0.16612   0.16784
 Alpha virt. eigenvalues --    0.16881   0.17135   0.17194   0.17309   0.17514
 Alpha virt. eigenvalues --    0.17629   0.17924   0.18147   0.18405   0.18523
 Alpha virt. eigenvalues --    0.18800   0.18817   0.19014   0.19117   0.19297
 Alpha virt. eigenvalues --    0.19594   0.19663   0.19774   0.19946   0.20425
 Alpha virt. eigenvalues --    0.20565   0.20638   0.20841   0.21010   0.21245
 Alpha virt. eigenvalues --    0.21502   0.21701   0.22092   0.22161   0.22317
 Alpha virt. eigenvalues --    0.22770   0.22837   0.22878   0.23084   0.23247
 Alpha virt. eigenvalues --    0.23524   0.23681   0.23869   0.24118   0.24280
 Alpha virt. eigenvalues --    0.24544   0.24679   0.24738   0.25167   0.25410
 Alpha virt. eigenvalues --    0.25595   0.25671   0.25852   0.26045   0.26165
 Alpha virt. eigenvalues --    0.26281   0.26607   0.26704   0.26993   0.27268
 Alpha virt. eigenvalues --    0.27635   0.27849   0.27997   0.28488   0.29095
 Alpha virt. eigenvalues --    0.29412   0.29659   0.29826   0.30128   0.30330
 Alpha virt. eigenvalues --    0.30487   0.30857   0.30993   0.31101   0.31332
 Alpha virt. eigenvalues --    0.31575   0.31783   0.31866   0.32029   0.32316
 Alpha virt. eigenvalues --    0.32602   0.32942   0.33181   0.33546   0.33877
 Alpha virt. eigenvalues --    0.34086   0.34343   0.34725   0.34817   0.34899
 Alpha virt. eigenvalues --    0.34995   0.35295   0.35501   0.35610   0.35968
 Alpha virt. eigenvalues --    0.36112   0.36465   0.37073   0.37321   0.37632
 Alpha virt. eigenvalues --    0.38321   0.38447   0.38518   0.38906   0.39162
 Alpha virt. eigenvalues --    0.39371   0.39469   0.39736   0.39870   0.40086
 Alpha virt. eigenvalues --    0.40426   0.40556   0.40980   0.41237   0.41420
 Alpha virt. eigenvalues --    0.41552   0.41824   0.42284   0.42416   0.42595
 Alpha virt. eigenvalues --    0.42931   0.43230   0.43412   0.43686   0.43799
 Alpha virt. eigenvalues --    0.44248   0.44454   0.44600   0.44855   0.45282
 Alpha virt. eigenvalues --    0.45321   0.45436   0.45779   0.45832   0.46041
 Alpha virt. eigenvalues --    0.46177   0.46428   0.46676   0.46924   0.47185
 Alpha virt. eigenvalues --    0.47464   0.47499   0.47602   0.47749   0.48049
 Alpha virt. eigenvalues --    0.48444   0.48490   0.48633   0.48825   0.48986
 Alpha virt. eigenvalues --    0.49403   0.49465   0.49772   0.50049   0.50238
 Alpha virt. eigenvalues --    0.50316   0.50531   0.50881   0.51039   0.51227
 Alpha virt. eigenvalues --    0.51406   0.51559   0.51728   0.52061   0.52335
 Alpha virt. eigenvalues --    0.52570   0.52712   0.52975   0.53266   0.53511
 Alpha virt. eigenvalues --    0.53766   0.53951   0.54058   0.54078   0.54358
 Alpha virt. eigenvalues --    0.54502   0.54701   0.55018   0.55331   0.55389
 Alpha virt. eigenvalues --    0.55552   0.55656   0.55683   0.55992   0.56129
 Alpha virt. eigenvalues --    0.56274   0.56511   0.56603   0.56708   0.57013
 Alpha virt. eigenvalues --    0.57126   0.57174   0.57394   0.57594   0.57818
 Alpha virt. eigenvalues --    0.58108   0.58240   0.58313   0.58432   0.58762
 Alpha virt. eigenvalues --    0.58868   0.59056   0.59280   0.59349   0.59554
 Alpha virt. eigenvalues --    0.59664   0.59742   0.59988   0.60028   0.60315
 Alpha virt. eigenvalues --    0.60353   0.60375   0.60604   0.60684   0.60797
 Alpha virt. eigenvalues --    0.60948   0.61045   0.61082   0.61238   0.61406
 Alpha virt. eigenvalues --    0.61476   0.61540   0.61692   0.61944   0.62157
 Alpha virt. eigenvalues --    0.62216   0.62299   0.62582   0.62750   0.62817
 Alpha virt. eigenvalues --    0.62915   0.63061   0.63334   0.63375   0.63438
 Alpha virt. eigenvalues --    0.63521   0.63618   0.63852   0.63906   0.64060
 Alpha virt. eigenvalues --    0.64147   0.64254   0.64379   0.64399   0.64507
 Alpha virt. eigenvalues --    0.64726   0.64797   0.64852   0.64953   0.65092
 Alpha virt. eigenvalues --    0.65193   0.65354   0.65469   0.65551   0.65686
 Alpha virt. eigenvalues --    0.65791   0.65889   0.65991   0.66086   0.66155
 Alpha virt. eigenvalues --    0.66393   0.66550   0.66679   0.66726   0.66917
 Alpha virt. eigenvalues --    0.66998   0.67134   0.67170   0.67341   0.67503
 Alpha virt. eigenvalues --    0.67531   0.67590   0.67720   0.67861   0.67996
 Alpha virt. eigenvalues --    0.68097   0.68368   0.68534   0.68604   0.68732
 Alpha virt. eigenvalues --    0.68830   0.69001   0.69375   0.69414   0.69506
 Alpha virt. eigenvalues --    0.69716   0.69816   0.69920   0.70050   0.70210
 Alpha virt. eigenvalues --    0.70461   0.70646   0.70731   0.70848   0.71118
 Alpha virt. eigenvalues --    0.71386   0.71532   0.71632   0.71865   0.72052
 Alpha virt. eigenvalues --    0.72310   0.72474   0.72600   0.72687   0.72799
 Alpha virt. eigenvalues --    0.72926   0.73140   0.73192   0.73519   0.73712
 Alpha virt. eigenvalues --    0.73911   0.74296   0.74444   0.74558   0.74773
 Alpha virt. eigenvalues --    0.74802   0.75016   0.75093   0.75131   0.75224
 Alpha virt. eigenvalues --    0.75458   0.75906   0.75969   0.76086   0.76173
 Alpha virt. eigenvalues --    0.76553   0.76774   0.76931   0.77083   0.77220
 Alpha virt. eigenvalues --    0.77414   0.77535   0.77689   0.77970   0.78346
 Alpha virt. eigenvalues --    0.78534   0.78617   0.78857   0.79161   0.79436
 Alpha virt. eigenvalues --    0.79585   0.79760   0.80045   0.80246   0.80708
 Alpha virt. eigenvalues --    0.80809   0.81056   0.81184   0.81306   0.81727
 Alpha virt. eigenvalues --    0.81768   0.81946   0.82202   0.82472   0.82935
 Alpha virt. eigenvalues --    0.83349   0.83637   0.84035   0.84134   0.84483
 Alpha virt. eigenvalues --    0.84906   0.85237   0.85269   0.85534   0.85795
 Alpha virt. eigenvalues --    0.85897   0.86296   0.86463   0.86911   0.87036
 Alpha virt. eigenvalues --    0.87107   0.87869   0.88041   0.88215   0.88571
 Alpha virt. eigenvalues --    0.89133   0.89225   0.89487   0.89612   0.89970
 Alpha virt. eigenvalues --    0.90644   0.90721   0.91029   0.91374   0.91637
 Alpha virt. eigenvalues --    0.91871   0.92353   0.92543   0.93021   0.93396
 Alpha virt. eigenvalues --    0.93613   0.93908   0.94052   0.94358   0.94443
 Alpha virt. eigenvalues --    0.95315   0.95497   0.95713   0.95762   0.96275
 Alpha virt. eigenvalues --    0.96426   0.96547   0.96740   0.97132   0.97248
 Alpha virt. eigenvalues --    0.97414   0.97800   0.97899   0.98530   0.98733
 Alpha virt. eigenvalues --    0.99109   0.99392   0.99612   0.99757   1.00139
 Alpha virt. eigenvalues --    1.00392   1.00569   1.01215   1.01628   1.01892
 Alpha virt. eigenvalues --    1.02035   1.02167   1.02587   1.02974   1.03290
 Alpha virt. eigenvalues --    1.03768   1.04161   1.04226   1.04416   1.04717
 Alpha virt. eigenvalues --    1.04936   1.05282   1.05491   1.05717   1.06324
 Alpha virt. eigenvalues --    1.06535   1.07020   1.07143   1.07452   1.07887
 Alpha virt. eigenvalues --    1.08008   1.08527   1.08621   1.09113   1.09278
 Alpha virt. eigenvalues --    1.09514   1.09747   1.10131   1.10255   1.10769
 Alpha virt. eigenvalues --    1.11087   1.11163   1.11447   1.11787   1.11881
 Alpha virt. eigenvalues --    1.12267   1.12743   1.12994   1.13316   1.13444
 Alpha virt. eigenvalues --    1.13756   1.13960   1.14380   1.14563   1.14689
 Alpha virt. eigenvalues --    1.14951   1.15373   1.15702   1.15986   1.16329
 Alpha virt. eigenvalues --    1.16544   1.16674   1.17239   1.17511   1.17717
 Alpha virt. eigenvalues --    1.17897   1.18151   1.18385   1.18738   1.19000
 Alpha virt. eigenvalues --    1.19128   1.19463   1.19641   1.20002   1.20227
 Alpha virt. eigenvalues --    1.20516   1.20739   1.21063   1.21117   1.21337
 Alpha virt. eigenvalues --    1.21593   1.21822   1.21979   1.22828   1.22875
 Alpha virt. eigenvalues --    1.23314   1.23362   1.23401   1.23696   1.24146
 Alpha virt. eigenvalues --    1.24420   1.24693   1.24940   1.25381   1.25542
 Alpha virt. eigenvalues --    1.25722   1.26025   1.26297   1.26440   1.26834
 Alpha virt. eigenvalues --    1.27121   1.27323   1.27710   1.28187   1.28302
 Alpha virt. eigenvalues --    1.28538   1.28743   1.28820   1.29320   1.29671
 Alpha virt. eigenvalues --    1.29791   1.30141   1.30353   1.30421   1.30600
 Alpha virt. eigenvalues --    1.31062   1.31482   1.31647   1.31973   1.32274
 Alpha virt. eigenvalues --    1.32450   1.32622   1.32696   1.33009   1.33105
 Alpha virt. eigenvalues --    1.33378   1.33890   1.34299   1.34806   1.35328
 Alpha virt. eigenvalues --    1.35346   1.35453   1.35750   1.35811   1.36033
 Alpha virt. eigenvalues --    1.36370   1.36404   1.36929   1.37077   1.37461
 Alpha virt. eigenvalues --    1.37739   1.37807   1.37977   1.38257   1.38656
 Alpha virt. eigenvalues --    1.38848   1.39043   1.39601   1.39739   1.39939
 Alpha virt. eigenvalues --    1.40121   1.40266   1.40633   1.40788   1.41103
 Alpha virt. eigenvalues --    1.41326   1.41777   1.42158   1.42405   1.42782
 Alpha virt. eigenvalues --    1.42902   1.42971   1.43149   1.43368   1.43843
 Alpha virt. eigenvalues --    1.44066   1.44416   1.44531   1.44822   1.45192
 Alpha virt. eigenvalues --    1.45312   1.46059   1.46290   1.46393   1.46942
 Alpha virt. eigenvalues --    1.47105   1.47501   1.47640   1.47909   1.48141
 Alpha virt. eigenvalues --    1.48492   1.48571   1.48777   1.49054   1.49388
 Alpha virt. eigenvalues --    1.49566   1.50041   1.50253   1.50740   1.50991
 Alpha virt. eigenvalues --    1.51223   1.51709   1.51976   1.52333   1.52859
 Alpha virt. eigenvalues --    1.52978   1.53722   1.53895   1.54268   1.54559
 Alpha virt. eigenvalues --    1.54896   1.55253   1.55479   1.56074   1.56562
 Alpha virt. eigenvalues --    1.56745   1.56990   1.57228   1.57701   1.57878
 Alpha virt. eigenvalues --    1.58118   1.58211   1.58444   1.58688   1.59332
 Alpha virt. eigenvalues --    1.59901   1.60233   1.60563   1.60738   1.60988
 Alpha virt. eigenvalues --    1.61358   1.61702   1.61873   1.62023   1.62121
 Alpha virt. eigenvalues --    1.62630   1.62901   1.63286   1.63548   1.63834
 Alpha virt. eigenvalues --    1.64360   1.64428   1.64546   1.64664   1.64923
 Alpha virt. eigenvalues --    1.65026   1.65500   1.65654   1.66237   1.66941
 Alpha virt. eigenvalues --    1.67192   1.67371   1.67648   1.67741   1.68161
 Alpha virt. eigenvalues --    1.68388   1.68546   1.68620   1.68901   1.68961
 Alpha virt. eigenvalues --    1.69194   1.69562   1.69757   1.69946   1.70228
 Alpha virt. eigenvalues --    1.70551   1.70696   1.70808   1.71037   1.71242
 Alpha virt. eigenvalues --    1.71280   1.71716   1.71919   1.72038   1.72241
 Alpha virt. eigenvalues --    1.72288   1.72814   1.73152   1.73486   1.73571
 Alpha virt. eigenvalues --    1.73629   1.73754   1.74066   1.74461   1.74663
 Alpha virt. eigenvalues --    1.74747   1.75046   1.75168   1.75372   1.75686
 Alpha virt. eigenvalues --    1.75865   1.75998   1.76378   1.76437   1.76919
 Alpha virt. eigenvalues --    1.77041   1.77091   1.77225   1.77415   1.77568
 Alpha virt. eigenvalues --    1.77751   1.78028   1.78148   1.78294   1.78350
 Alpha virt. eigenvalues --    1.78813   1.78908   1.79148   1.79358   1.79702
 Alpha virt. eigenvalues --    1.79815   1.79899   1.79947   1.80063   1.80153
 Alpha virt. eigenvalues --    1.80217   1.80308   1.80467   1.80822   1.80878
 Alpha virt. eigenvalues --    1.81039   1.81219   1.81442   1.81698   1.81816
 Alpha virt. eigenvalues --    1.81868   1.82059   1.82259   1.82416   1.82593
 Alpha virt. eigenvalues --    1.82727   1.83134   1.83204   1.83405   1.83441
 Alpha virt. eigenvalues --    1.83728   1.83786   1.83938   1.84009   1.84129
 Alpha virt. eigenvalues --    1.84649   1.85198   1.85272   1.85315   1.85731
 Alpha virt. eigenvalues --    1.85963   1.86239   1.86489   1.86649   1.86750
 Alpha virt. eigenvalues --    1.86882   1.87019   1.87277   1.87623   1.87765
 Alpha virt. eigenvalues --    1.87872   1.88182   1.88253   1.88673   1.88750
 Alpha virt. eigenvalues --    1.89013   1.89158   1.89397   1.89586   1.89752
 Alpha virt. eigenvalues --    1.89946   1.90294   1.90509   1.90627   1.90715
 Alpha virt. eigenvalues --    1.90825   1.91008   1.91381   1.91565   1.92013
 Alpha virt. eigenvalues --    1.92388   1.92477   1.92605   1.93026   1.93137
 Alpha virt. eigenvalues --    1.93311   1.93496   1.93579   1.93704   1.93936
 Alpha virt. eigenvalues --    1.94136   1.94296   1.94508   1.94768   1.94891
 Alpha virt. eigenvalues --    1.95095   1.95226   1.95409   1.95540   1.95747
 Alpha virt. eigenvalues --    1.95794   1.96098   1.96452   1.96604   1.96704
 Alpha virt. eigenvalues --    1.97097   1.97540   1.97577   1.97980   1.98049
 Alpha virt. eigenvalues --    1.98235   1.98312   1.98760   1.99065   1.99287
 Alpha virt. eigenvalues --    1.99485   1.99795   2.00286   2.00605   2.00745
 Alpha virt. eigenvalues --    2.00988   2.01242   2.01444   2.01905   2.02005
 Alpha virt. eigenvalues --    2.02208   2.02418   2.02563   2.02767   2.03426
 Alpha virt. eigenvalues --    2.03481   2.03909   2.04355   2.04440   2.04558
 Alpha virt. eigenvalues --    2.04820   2.05095   2.05867   2.06019   2.06114
 Alpha virt. eigenvalues --    2.06317   2.06490   2.06691   2.06762   2.07264
 Alpha virt. eigenvalues --    2.07467   2.07687   2.07970   2.08354   2.08619
 Alpha virt. eigenvalues --    2.08936   2.09175   2.09386   2.09654   2.09942
 Alpha virt. eigenvalues --    2.10227   2.10472   2.10760   2.11056   2.11124
 Alpha virt. eigenvalues --    2.11590   2.11725   2.12046   2.12195   2.12422
 Alpha virt. eigenvalues --    2.12871   2.13147   2.13241   2.13530   2.13801
 Alpha virt. eigenvalues --    2.14356   2.14690   2.14807   2.14927   2.15277
 Alpha virt. eigenvalues --    2.15523   2.16007   2.16074   2.16809   2.17465
 Alpha virt. eigenvalues --    2.17795   2.17824   2.18019   2.18079   2.18401
 Alpha virt. eigenvalues --    2.18639   2.19086   2.19555   2.20010   2.20206
 Alpha virt. eigenvalues --    2.20434   2.20710   2.20769   2.20958   2.21096
 Alpha virt. eigenvalues --    2.21597   2.21688   2.22043   2.22358   2.22927
 Alpha virt. eigenvalues --    2.23376   2.23889   2.23964   2.24190   2.24345
 Alpha virt. eigenvalues --    2.24576   2.25353   2.25487   2.26150   2.26217
 Alpha virt. eigenvalues --    2.26530   2.26652   2.26942   2.27358   2.27621
 Alpha virt. eigenvalues --    2.28047   2.28151   2.28742   2.29012   2.29098
 Alpha virt. eigenvalues --    2.29393   2.29940   2.30072   2.30721   2.30760
 Alpha virt. eigenvalues --    2.31438   2.31536   2.32232   2.32292   2.32678
 Alpha virt. eigenvalues --    2.32933   2.33240   2.33321   2.33913   2.34078
 Alpha virt. eigenvalues --    2.34397   2.34475   2.35060   2.35744   2.36053
 Alpha virt. eigenvalues --    2.36401   2.36511   2.37041   2.37243   2.37367
 Alpha virt. eigenvalues --    2.37961   2.38433   2.38504   2.39056   2.39086
 Alpha virt. eigenvalues --    2.39234   2.39558   2.39723   2.39854   2.40213
 Alpha virt. eigenvalues --    2.40461   2.40803   2.41094   2.41339   2.41765
 Alpha virt. eigenvalues --    2.41886   2.42272   2.42657   2.42748   2.43159
 Alpha virt. eigenvalues --    2.43250   2.43759   2.43852   2.43995   2.44351
 Alpha virt. eigenvalues --    2.44683   2.44969   2.45395   2.45765   2.45955
 Alpha virt. eigenvalues --    2.46122   2.46564   2.46859   2.47152   2.47561
 Alpha virt. eigenvalues --    2.48229   2.48342   2.48817   2.48912   2.49148
 Alpha virt. eigenvalues --    2.49700   2.50076   2.50342   2.50673   2.50886
 Alpha virt. eigenvalues --    2.51221   2.51505   2.52250   2.52678   2.53066
 Alpha virt. eigenvalues --    2.53463   2.53947   2.54128   2.54222   2.54786
 Alpha virt. eigenvalues --    2.55156   2.55713   2.55843   2.56388   2.56471
 Alpha virt. eigenvalues --    2.56796   2.57143   2.57377   2.58897   2.58997
 Alpha virt. eigenvalues --    2.59129   2.59321   2.59452   2.59735   2.60120
 Alpha virt. eigenvalues --    2.60239   2.60659   2.61052   2.61619   2.61918
 Alpha virt. eigenvalues --    2.62628   2.62952   2.63560   2.63682   2.64001
 Alpha virt. eigenvalues --    2.64148   2.64303   2.64681   2.64820   2.65360
 Alpha virt. eigenvalues --    2.65408   2.65826   2.66071   2.66146   2.66599
 Alpha virt. eigenvalues --    2.66619   2.66699   2.66940   2.67079   2.67516
 Alpha virt. eigenvalues --    2.67605   2.68163   2.68336   2.68550   2.68844
 Alpha virt. eigenvalues --    2.69246   2.69591   2.70465   2.70559   2.70647
 Alpha virt. eigenvalues --    2.70909   2.71176   2.71631   2.71762   2.71804
 Alpha virt. eigenvalues --    2.72120   2.72350   2.72467   2.72648   2.72924
 Alpha virt. eigenvalues --    2.73394   2.73645   2.73721   2.74190   2.74383
 Alpha virt. eigenvalues --    2.74956   2.75190   2.75610   2.75849   2.76021
 Alpha virt. eigenvalues --    2.76496   2.76688   2.77098   2.77221   2.77356
 Alpha virt. eigenvalues --    2.77384   2.77699   2.78033   2.78093   2.78380
 Alpha virt. eigenvalues --    2.78600   2.78891   2.79478   2.79839   2.80194
 Alpha virt. eigenvalues --    2.80455   2.80737   2.81027   2.81178   2.81392
 Alpha virt. eigenvalues --    2.81621   2.82002   2.82457   2.82625   2.82819
 Alpha virt. eigenvalues --    2.83510   2.83818   2.84203   2.84765   2.85217
 Alpha virt. eigenvalues --    2.85401   2.86029   2.86144   2.86305   2.86530
 Alpha virt. eigenvalues --    2.86727   2.87239   2.87252   2.87403   2.87571
 Alpha virt. eigenvalues --    2.87694   2.87970   2.88070   2.88189   2.88599
 Alpha virt. eigenvalues --    2.89238   2.89386   2.89720   2.90179   2.90469
 Alpha virt. eigenvalues --    2.90780   2.90926   2.91221   2.92057   2.92274
 Alpha virt. eigenvalues --    2.92577   2.92775   2.93140   2.93569   2.93873
 Alpha virt. eigenvalues --    2.94227   2.94241   2.94623   2.94901   2.94968
 Alpha virt. eigenvalues --    2.95188   2.95281   2.95536   2.95723   2.96288
 Alpha virt. eigenvalues --    2.96983   2.97214   2.97784   2.98713   2.99243
 Alpha virt. eigenvalues --    2.99689   2.99789   3.00092   3.00340   3.00405
 Alpha virt. eigenvalues --    3.00941   3.01257   3.01497   3.01564   3.02087
 Alpha virt. eigenvalues --    3.02462   3.02470   3.02723   3.02849   3.03461
 Alpha virt. eigenvalues --    3.03575   3.03920   3.04403   3.04672   3.04801
 Alpha virt. eigenvalues --    3.04966   3.05583   3.06148   3.06307   3.06641
 Alpha virt. eigenvalues --    3.07288   3.07756   3.07873   3.08475   3.09166
 Alpha virt. eigenvalues --    3.09646   3.09726   3.09860   3.10445   3.11488
 Alpha virt. eigenvalues --    3.11571   3.11633   3.12262   3.12574   3.12949
 Alpha virt. eigenvalues --    3.13542   3.14031   3.14327   3.14928   3.15026
 Alpha virt. eigenvalues --    3.15250   3.15848   3.16218   3.16850   3.17088
 Alpha virt. eigenvalues --    3.17643   3.18382   3.18544   3.18792   3.18944
 Alpha virt. eigenvalues --    3.19744   3.20470   3.20566   3.20642   3.20831
 Alpha virt. eigenvalues --    3.21176   3.21471   3.21782   3.22353   3.23078
 Alpha virt. eigenvalues --    3.23237   3.23648   3.24320   3.24581   3.25140
 Alpha virt. eigenvalues --    3.25223   3.25822   3.26399   3.26541   3.26921
 Alpha virt. eigenvalues --    3.27005   3.27677   3.28366   3.28763   3.29050
 Alpha virt. eigenvalues --    3.29251   3.30075   3.33741   3.34009   3.34409
 Alpha virt. eigenvalues --    3.36342   3.36385   3.37333   3.38453   3.40684
 Alpha virt. eigenvalues --    3.42017   3.43050   3.45433   3.49835   3.52571
 Alpha virt. eigenvalues --    3.53058   3.54392   3.54806   3.55398   3.56084
 Alpha virt. eigenvalues --    3.56380   3.57030   3.58857   3.59591   3.60612
 Alpha virt. eigenvalues --    3.61513   3.62175   3.63963   3.64686   3.64945
 Alpha virt. eigenvalues --    3.65311   3.65811   3.66171   3.66463   3.67035
 Alpha virt. eigenvalues --    3.67551   3.68523   3.69120   3.69664   3.69725
 Alpha virt. eigenvalues --    3.70149   3.70271   3.70510   3.71348   3.72070
 Alpha virt. eigenvalues --    3.73370   3.73988   3.74549   3.74784   3.75165
 Alpha virt. eigenvalues --    3.77446   3.83039   3.85628   3.88643
          Condensed to atoms (all electrons):
 Mulliken charges:
               1
     1  C    0.070333
     2  C    0.030490
     3  O   -0.321033
     4  H    0.057674
     5  H   -0.013845
     6  H    0.024090
     7  N   -0.097555
     8  C    0.053792
     9  C    0.112231
    10  O   -0.298127
    11  C    0.096546
    12  C    0.135777
    13  O   -0.370718
    14  O   -0.453343
    15  H    0.122465
    16  H    0.026066
    17  H    0.011652
    18  H    0.002372
    19  N   -0.124955
    20  C    0.131846
    21  C    0.046810
    22  O   -0.285948
    23  C   -0.016535
    24  C   -0.022668
    25  C   -0.023879
    26  C    0.054544
    27  N    0.055817
    28  H    0.131510
    29  H    0.008349
    30  H    0.018129
    31  H    0.033415
    32  H    0.052351
    33  H   -0.023396
    34  H    0.024239
    35  H    0.050783
    36  H    0.076368
    37  H    0.086684
    38  H    0.200925
    39  H    0.195011
    40  H    0.189875
    41  N   -0.168888
    42  C    0.179262
    43  C    0.021333
    44  O   -0.293395
    45  C    0.079819
    46  C    0.139735
    47  O   -0.406753
    48  O   -0.460728
    49  H    0.141804
    50  H    0.021811
    51  H    0.006604
    52  H    0.034092
    53  N   -0.151565
    54  C    0.254051
    55  C    0.045589
    56  O   -0.286737
    57  H    0.127408
    58  H    0.007913
    59  H    0.016062
    60  N   -0.180226
    61  C    0.161311
    62  C    0.096753
    63  O   -0.291214
    64  C    0.021805
    65  C    0.071455
    66  N   -0.025569
    67  O   -0.322789
    68  H    0.151301
    69  H    0.020616
    70  H    0.057882
    71  H    0.044186
    72  H    0.131433
    73  H    0.102457
    74  N   -0.181596
    75  C    0.254201
    76  C    0.038288
    77  O   -0.308244
    78  H    0.144739
    79  H    0.022034
    80  H    0.013202
    81  N   -0.148451
    82  C    0.168208
    83  C    0.043326
    84  O   -0.342302
    85  C    0.164880
    86  C   -0.074415
    87  C    0.021170
    88  C    0.026180
    89  C   -0.013954
    90  C   -0.027608
    91  C    0.191600
    92  O   -0.195209
    93  H    0.172015
    94  H    0.002925
    95  H   -0.012428
    96  H    0.002436
    97  H   -0.076883
    98  H   -0.031943
    99  H   -0.082547
   100  H   -0.054777
   101  H    0.172934
   102  N   -0.121214
   103  C    0.159762
   104  C    0.071757
   105  O   -0.280683
   106  C   -0.116725
   107  C    0.063515
   108  C    0.056254
   109  C   -0.042982
   110  H    0.129281
   111  H   -0.003057
   112  H   -0.003760
   113  H   -0.009754
   114  H   -0.011085
   115  H    0.017749
   116  H    0.001197
   117  H    0.026980
   118  H    0.048394
   119  H    0.025146
   120  H    0.022015
   121  N   -0.143855
   122  C    0.064456
   123  C    0.095231
   124  O   -0.281227
   125  C    0.259715
   126  O   -0.359094
   127  H    0.151057
   128  H    0.027132
   129  H    0.008420
   130  H   -0.024794
   131  H    0.173497
   132  N   -0.126169
   133  C    0.136396
   134  C    0.041897
   135  O   -0.278381
   136  C    0.025817
   137  H    0.116245
   138  H    0.026787
   139  H    0.051177
   140  H    0.022803
   141  H    0.022223
   142  N   -0.130913
   143  C    0.122337
   144  C    0.050249
   145  O   -0.292519
   146  C    0.016939
   147  H    0.114665
   148  H    0.030101
   149  H    0.012480
   150  H    0.030465
   151  H    0.028216
   152  N   -0.148548
   153  C    0.144193
   154  C    0.065295
   155  O   -0.299646
   156  C   -0.040859
   157  C    0.093967
   158  C    0.214158
   159  O   -0.389279
   160  O   -0.492954
   161  H    0.110034
   162  H   -0.035635
   163  H    0.046279
   164  H    0.006623
   165  H    0.006762
   166  H   -0.034112
   167  N   -0.164596
   168  C    0.119080
   169  H    0.006996
   170  H    0.031397
   171  H    0.027126
   172  H    0.138686
   173  Ca   1.288229
   174  O   -0.334980
   175  H    0.163639
   176  H    0.171258
 Sum of Mulliken charges =  -0.00000
 Mulliken charges with hydrogens summed into heavy atoms:
               1
     1  C    0.138252
     2  C    0.030490
     3  O   -0.321033
     7  N    0.024911
     8  C    0.079857
     9  C    0.112231
    10  O   -0.298127
    11  C    0.110570
    12  C    0.135777
    13  O   -0.370718
    14  O   -0.453343
    19  N    0.006556
    20  C    0.140195
    21  C    0.046810
    22  O   -0.285948
    23  C    0.035009
    24  C    0.006287
    25  C    0.051142
    26  C    0.217596
    27  N    0.641628
    41  N   -0.027084
    42  C    0.201074
    43  C    0.021333
    44  O   -0.293395
    45  C    0.120514
    46  C    0.139735
    47  O   -0.406753
    48  O   -0.460728
    53  N   -0.024157
    54  C    0.278025
    55  C    0.045589
    56  O   -0.286737
    60  N   -0.028925
    61  C    0.181927
    62  C    0.096753
    63  O   -0.291214
    64  C    0.123873
    65  C    0.071455
    66  N    0.208322
    67  O   -0.322789
    74  N   -0.036857
    75  C    0.289437
    76  C    0.038288
    77  O   -0.308244
    81  N    0.023564
    82  C    0.171133
    83  C    0.043326
    84  O   -0.342302
    85  C    0.154889
    86  C   -0.074415
    87  C   -0.055714
    88  C   -0.005764
    89  C   -0.096501
    90  C   -0.082386
    91  C    0.191600
    92  O   -0.022275
   102  N    0.008067
   103  C    0.156705
   104  C    0.071757
   105  O   -0.280683
   106  C   -0.120484
   107  C    0.042676
   108  C    0.102180
   109  C    0.052574
   121  N    0.007202
   122  C    0.091588
   123  C    0.095231
   124  O   -0.281227
   125  C    0.243342
   126  O   -0.185597
   132  N   -0.009923
   133  C    0.163183
   134  C    0.041897
   135  O   -0.278381
   136  C    0.122020
   142  N   -0.016248
   143  C    0.152438
   144  C    0.050249
   145  O   -0.292519
   146  C    0.088100
   152  N   -0.038514
   153  C    0.108558
   154  C    0.065295
   155  O   -0.299646
   156  C    0.012043
   157  C    0.066617
   158  C    0.214158
   159  O   -0.389279
   160  O   -0.492954
   167  N   -0.025910
   168  C    0.184598
   173  Ca   1.288229
   174  O   -0.000083
 DipInt: DoE/N= T F RetVal/Mat= T F Init=T NMatP=  1 IDeriv=0 Min/MaxMlt=  0  4
 Entering OneElI...
 OneElI was handed  1333951383 working-precision words.
 Multipole integrals L=0 to 4 MinM= 0 MaxM= 0.
 Requested accuracy = 0.1000D-12
 ShPair: Thresh= 1.00D-13 NBox=     0 BxSize= 0.00D+00 RnKept= 2.55D+01
         NSMCal=               327645 NSMKep=              166957
 PrmmSu-InSpLW:  IPartL=    0 NPrtUS=    1 NPrtUL=    1 DoSpLW=F IThBeg=    0 IThEnd=    0 NThAct=    1.
 PrsmSu:  NPrtUS=   1 ThrOK=F IAlg=1 NPAlg=1 LenDen=           0 ISkipM=0 DoSpLW=F IThBeg=    0 IThEnd=    0.
 Prism:   IPart=     0 DynPar=F LinDyn=F Incr=         512.
 PRISM was handed  1323617325 working-precision words and166957 shell-pairs
 IPart=  0 NShTot=      166957 NBatch=         381 AvBLen=       438.2
 PrsmSu-ThDecC:  IPartSL=    0    0 NPrtUSL=    1    1 IThBeg=    0 IThEnd=    0 CPU=   -1 GPU=   -1 NThAct=    1.
 PrSmSu:  NxtVal=            513.
 Electronic moments (au):
       -716.00000000         12.95964753          2.77697413         -0.68229414
     -52147.64708349     -26613.70451238     -11794.94967332         80.79001619
         -2.24308539         66.14708515     -93113.86066108     -35944.37593533
      -6826.53135807      20733.93339553      76366.83705339      45431.72350472
      -7242.60029131       1124.88507387        900.63160292     -25498.20910492
   -7423311.69338888   -2215832.31726570    -467266.32466849     157675.34874285
     349181.21978525    -331838.67336273     -15233.12231924     -28730.90696973
       5501.38717206   -1701236.74876316    -723387.02128648    -320465.99079450
    -177907.87046864     -62951.39122863      23236.12546490
 Electronic spatial extent (au):  <R**2>=          90556.3013
 DipInt: DoE/N= F T RetVal/Mat= T F Init=T NMatP=  1 IDeriv=0 Min/MaxMlt=  0  4
 Nuclear    moments (au):
        716.00000000         -0.00000000         -0.00000000          0.00000000
      51637.45224119      26290.73918452      11407.36150257          0.00000000
         -0.00000000          0.00000000      94138.99405180      36880.27473850
       6785.30587199     -19330.99284493     -76563.90395611     -45897.71491191
       7619.56251606      -1029.74508153       -591.69459723      25682.79396376
    7216375.97775829    2136497.71521399     427873.16852829    -152444.63263455
    -351767.02822907     348502.97306093      22583.74880450      29041.00659376
      -2751.83542845    1665334.80207857     687988.32648315     300321.90274746
     183134.29511300      64754.09659406     -23426.70697697
 Total      moments (au):
         -0.00000000         12.95964753          2.77697413         -0.68229414
       -510.19484230       -322.96532786       -387.58817076         80.79001619
         -2.24308539         66.14708515       1025.13339072        935.89880316
        -41.22548608       1402.94055060       -197.06690272       -465.99140719
        376.96222475         95.13999233        308.93700569        184.58485883
    -206935.71563059     -79334.60205171     -39393.15614020       5230.71610830
      -2585.80844382      16664.29969819       7350.62648526        310.09962403
       2749.55174361     -35901.94668459     -35398.69480334     -20144.08804704
       5226.42464436       1802.70536544       -190.58151207
 Traceless Quadrup. (au):
       -103.27872866         83.95078578         19.32794288         80.79001619
         -2.24308539         66.14708515
 Charge=             -0.0000 electrons
 Dipole moment (field-independent basis, Debye):
    X=             32.9401    Y=              7.0584    Z=             -1.7342  Tot=             33.7325
 Quadrupole moment (field-independent basis, Debye-Ang):
   XX=           -686.2295   YY=           -434.3994   ZZ=           -521.3194
   XY=            108.6653   XZ=             -3.0170   YZ=             88.9701
 Traceless Quadrupole moment (field-independent basis, Debye-Ang):
   XX=           -138.9134   YY=            112.9167   ZZ=             25.9967
   XY=            108.6653   XZ=             -3.0170   YZ=             88.9701
 Octapole moment (field-independent basis, Debye-Ang**2):
  XXX=            729.6505  YYY=            666.1367  ZZZ=            -29.3427  XYY=            998.5590
  XXY=           -140.2646  XXZ=           -331.6747  XZZ=            268.3072  YZZ=             67.7170
  YYZ=            219.8895  XYZ=            131.3804
 Hexadecapole moment (field-independent basis, Debye-Ang**3):
 XXXX=         -77941.9134 YYYY=         -29881.2154 ZZZZ=         -14837.3516 XXXY=           1970.1385
 XXXZ=           -973.9395 YYYX=           6276.5743 YYYZ=           2768.5984 ZZZX=            116.7984
 ZZZY=           1035.6130 XXYY=         -13522.3947 XXZZ=         -13332.8459 YYZZ=          -7587.2295
 XXYZ=           1968.5221 YYXZ=            678.9853 ZZXY=            -71.7821
 N-N= 2.213058892354D+04 E-N=-5.674004259259D+04  KE= 5.290884469506D+03
 Leave Link  601 at Sat Sep 14 22:39:07 2019, MaxMem=  1342177280 cpu:              46.5 elap:               1.2
 FitSet:  NAtFit=   176 NAtPot=   176 NAtFrz=     0 MDM=   180 TotChg=   0.00000
 Merz-Kollman atomic radii used.
 Read replacement radii for each type of atom:
 Rad(20) =   1.700000000000D+00
 Atom Element Radius
    1     6    1.50
    2     6    1.50
    3     8    1.40
    4     1    1.20
    5     1    1.20
    6     1    1.20
    7     7    1.50
    8     6    1.50
    9     6    1.50
   10     8    1.40
   11     6    1.50
   12     6    1.50
   13     8    1.40
   14     8    1.40
   15     1    1.20
   16     1    1.20
   17     1    1.20
   18     1    1.20
   19     7    1.50
   20     6    1.50
   21     6    1.50
   22     8    1.40
   23     6    1.50
   24     6    1.50
   25     6    1.50
   26     6    1.50
   27     7    1.50
   28     1    1.20
   29     1    1.20
   30     1    1.20
   31     1    1.20
   32     1    1.20
   33     1    1.20
   34     1    1.20
   35     1    1.20
   36     1    1.20
   37     1    1.20
   38     1    1.20
   39     1    1.20
   40     1    1.20
   41     7    1.50
   42     6    1.50
   43     6    1.50
   44     8    1.40
   45     6    1.50
   46     6    1.50
   47     8    1.40
   48     8    1.40
   49     1    1.20
   50     1    1.20
   51     1    1.20
   52     1    1.20
   53     7    1.50
   54     6    1.50
   55     6    1.50
   56     8    1.40
   57     1    1.20
   58     1    1.20
   59     1    1.20
   60     7    1.50
   61     6    1.50
   62     6    1.50
   63     8    1.40
   64     6    1.50
   65     6    1.50
   66     7    1.50
   67     8    1.40
   68     1    1.20
   69     1    1.20
   70     1    1.20
   71     1    1.20
   72     1    1.20
   73     1    1.20
   74     7    1.50
   75     6    1.50
   76     6    1.50
   77     8    1.40
   78     1    1.20
   79     1    1.20
   80     1    1.20
   81     7    1.50
   82     6    1.50
   83     6    1.50
   84     8    1.40
   85     6    1.50
   86     6    1.50
   87     6    1.50
   88     6    1.50
   89     6    1.50
   90     6    1.50
   91     6    1.50
   92     8    1.40
   93     1    1.20
   94     1    1.20
   95     1    1.20
   96     1    1.20
   97     1    1.20
   98     1    1.20
   99     1    1.20
  100     1    1.20
  101     1    1.20
  102     7    1.50
  103     6    1.50
  104     6    1.50
  105     8    1.40
  106     6    1.50
  107     6    1.50
  108     6    1.50
  109     6    1.50
  110     1    1.20
  111     1    1.20
  112     1    1.20
  113     1    1.20
  114     1    1.20
  115     1    1.20
  116     1    1.20
  117     1    1.20
  118     1    1.20
  119     1    1.20
  120     1    1.20
  121     7    1.50
  122     6    1.50
  123     6    1.50
  124     8    1.40
  125     6    1.50
  126     8    1.40
  127     1    1.20
  128     1    1.20
  129     1    1.20
  130     1    1.20
  131     1    1.20
  132     7    1.50
  133     6    1.50
  134     6    1.50
  135     8    1.40
  136     6    1.50
  137     1    1.20
  138     1    1.20
  139     1    1.20
  140     1    1.20
  141     1    1.20
  142     7    1.50
  143     6    1.50
  144     6    1.50
  145     8    1.40
  146     6    1.50
  147     1    1.20
  148     1    1.20
  149     1    1.20
  150     1    1.20
  151     1    1.20
  152     7    1.50
  153     6    1.50
  154     6    1.50
  155     8    1.40
  156     6    1.50
  157     6    1.50
  158     6    1.50
  159     8    1.40
  160     8    1.40
  161     1    1.20
  162     1    1.20
[...]
 **** Fit      -0.000804
 **** Fit       0.006266
 **** Fit       0.014329
 **** Fit       0.022859
 **** Fit       0.030849
 **** Fit       0.036856
 **** Fit       0.039480
 **** Fit      -0.018125
 **** Fit      -0.015970
 **** Fit      -0.012408
 **** Fit      -0.007428
 **** Fit      -0.000976
 **** Fit       0.006989
 **** Fit       0.016399
 **** Fit       0.026862
 **** Fit       0.037356
 **** Fit       0.046030
 **** Fit       0.050700
 **** Fit       0.049907
 **** Fit      -0.021016
 **** Fit      -0.020212
 **** Fit      -0.017956
 **** Fit      -0.014250
 **** Fit      -0.009038
 **** Fit      -0.002219
 **** Fit       0.006317
 **** Fit       0.016616
 **** Fit       0.028465
 **** Fit       0.041011
 **** Fit      -0.024019
 **** Fit      -0.023065
 **** Fit      -0.020625
 **** Fit      -0.016636
 **** Fit      -0.011011
 **** Fit      -0.003632
 **** Fit       0.005627
 **** Fit       0.016838
 **** Fit       0.029816
 **** Fit       0.043692
 **** Fit      -0.028155
 **** Fit      -0.027092
 **** Fit      -0.024377
 **** Fit      -0.019903
 **** Fit      -0.013583
 **** Fit      -0.005330
 **** Fit       0.004932
 **** Fit       0.017183
 **** Fit       0.031070
 **** Fit       0.045443
 **** Fit      -0.018063
 **** Fit      -0.008916
 **** Fit       0.002209
 **** Fit       0.015108
 **** Fit       0.029214
 **** Fit       0.029501
 **** Fit       0.026472
 **** Fit       0.029328
 **** Fit       0.032035
 **** Fit       0.026910
 **** Fit       0.028092
 **** Fit       0.028804
 **** Fit       0.028280
 **** Fit       0.025958
 **** Fit       0.021601
 **** Fit       0.015258
 **** Fit       0.025444
 **** Fit       0.024363
 **** Fit       0.021924
 **** Fit       0.017862
 **** Fit       0.012226
 **** Fit       0.022870
 **** Fit       0.020826
 **** Fit       0.017513
 **** Fit       0.012845
 **** Fit       0.007294
 **** Fit       0.018573
 **** Fit       0.015111
 **** Fit       0.010931
 **** Fit       0.012589
 **** Fit       0.004202
 **** Fit       0.008291
 **** Fit       0.003757
 **** Fit       0.009505
 **** Fit       0.007441
 **** Fit       0.006058
 **** Fit       0.002646
 **** Fit       0.000021
 **** Fit      -0.003181
 **** Fit      -0.007069
 **** Fit      -0.011424
 **** Fit      -0.000129
 **** Fit      -0.003339
 **** Fit      -0.007215
 **** Fit      -0.011601
 **** Fit       0.028641
 **** Fit       0.023055
 **** Fit       0.031469
 **** Fit       0.026662
 **** Fit       0.025723
 **** Fit       0.023223
 **** Fit       0.020709
 **** Fit       0.021951
 **** Fit       0.019056
 **** Fit       0.015873
 **** Fit       0.019966
 **** Fit       0.016671
 **** Fit       0.013683
 **** Fit       0.010755
 **** Fit       0.017167
 **** Fit       0.013441
 **** Fit       0.038267
 **** Fit       0.036615
 **** Fit       0.044102
 **** Fit       0.035739
 **** Fit       0.033442
 **** Fit       0.036008
 **** Fit       0.029055
 **** Fit      -0.001446
 **** Fit      -0.000953
 **** Fit      -0.003082
 **** Fit      -0.001963
 **** Fit      -0.000252
 **** Fit      -0.000529
 **** Fit      -0.004457
 **** Fit      -0.002476
 **** Fit       0.000145
 **** Fit      -0.000222
 **** Fit      -0.007818
 **** Fit      -0.005537
 **** Fit      -0.002977
 **** Fit       0.000834
 **** Fit       0.000327
 **** Fit      -0.000079
 **** Fit      -0.011674
 **** Fit      -0.008388
 **** Fit      -0.005032
 **** Fit       0.001375
 **** Fit       0.000875
 **** Fit       0.000401
 **** Fit      -0.000132
 **** Fit      -0.014134
 **** Fit      -0.009702
 **** Fit       0.001686
 **** Fit       0.001192
 **** Fit       0.000739
 **** Fit       0.000301
 **** Fit      -0.000398
 **** Fit       0.001465
 **** Fit       0.000982
 **** Fit       0.000518
 **** Fit       0.000057
 **** Fit      -0.000880
 **** Fit       0.001625
 **** Fit       0.001110
 **** Fit       0.000620
 **** Fit       0.000127
 **** Fit      -0.000376
 **** Fit      -0.001570
 **** Fit      -0.002158
 **** Fit       0.001766
 **** Fit       0.001196
 **** Fit       0.000662
 **** Fit       0.000132
 **** Fit      -0.000415
 **** Fit      -0.000986
 **** Fit      -0.002467
 **** Fit      -0.003158
 **** Fit      -0.003876
 **** Fit       0.001847
 **** Fit       0.001202
 **** Fit       0.000608
 **** Fit       0.000037
 **** Fit      -0.000541
 **** Fit      -0.001149
 **** Fit      -0.001794
 **** Fit      -0.003589
 **** Fit      -0.004401
 **** Fit      -0.005255
 **** Fit       0.002036
 **** Fit       0.001250
 **** Fit       0.000528
 **** Fit      -0.006989
 **** Fit      -0.008138
 **** Fit       0.002711
 **** Fit       0.001665
 **** Fit       0.000648
 **** Fit      -0.010425
 **** Fit      -0.012045
 **** Fit      -0.014160
 **** Fit       0.003838
 **** Fit       0.002525
 **** Fit      -0.013189
 **** Fit      -0.014997
 **** Fit      -0.017357
 **** Fit      -0.020513
 **** Fit      -0.024765
 **** Fit       0.004890
 **** Fit       0.005785
 **** Fit       0.005476
 **** Fit       0.004134
 **** Fit       0.002119
 **** Fit      -0.018967
 **** Fit      -0.021852
 **** Fit      -0.025729
 **** Fit      -0.030761
 **** Fit      -0.024090
 **** Fit      -0.027830
 **** Fit      -0.030222
 **** Fit       0.001048
 **** Fit       0.000957
 **** Fit      -0.000158
 **** Fit      -0.000209
 **** Fit       0.001186
 **** Fit       0.002121
 **** Fit       0.001910
 **** Fit       0.000895
 **** Fit      -0.000470
 **** Fit       0.001397
 **** Fit       0.002609
 **** Fit       0.003029
 **** Fit       0.002935
 **** Fit       0.002497
 **** Fit       0.001798
 **** Fit      -0.002903
 **** Fit      -0.000467
 **** Fit       0.001736
 **** Fit       0.003104
 **** Fit       0.003645
 **** Fit       0.003739
 **** Fit       0.003617
 **** Fit       0.003332
 **** Fit       0.002888
 **** Fit       0.002307
 **** Fit       0.001624
 **** Fit       0.004346
 **** Fit       0.004251
 **** Fit       0.004114
 **** Fit       0.003922
 **** Fit       0.003629
 **** Fit       0.003214
 **** Fit       0.002691
 **** Fit       0.002099
 **** Fit       0.004603
 **** Fit       0.004396
 **** Fit       0.004271
 **** Fit       0.004123
 **** Fit       0.003878
 **** Fit       0.003503
 **** Fit       0.003013
 **** Fit       0.002451
 **** Fit       0.004350
 **** Fit       0.004276
 **** Fit       0.004268
 **** Fit       0.004214
 **** Fit       0.004036
 **** Fit       0.003705
 **** Fit       0.003238
 **** Fit       0.002684
 **** Fit       0.002103
 **** Fit       0.003921
 **** Fit       0.004100
 **** Fit       0.004236
 **** Fit       0.004222
 **** Fit       0.004005
 **** Fit       0.003586
 **** Fit       0.003016
 **** Fit       0.002374
 **** Fit       0.003260
 **** Fit       0.003695
 **** Fit       0.004087
 **** Fit       0.004303
 **** Fit       0.004257
 **** Fit       0.003930
 **** Fit       0.003367
 **** Fit       0.002656
 **** Fit       0.002849
 **** Fit       0.003589
 **** Fit       0.004183
 **** Fit       0.004469
 **** Fit       0.004372
 **** Fit       0.003902
 **** Fit       0.003143
 **** Fit       0.003090
 **** Fit       0.004104
 **** Fit       0.004682
 **** Fit       0.004695
 **** Fit       0.004142
 **** Fit       0.001619
 **** Fit       0.003440
 **** Fit       0.004706
 **** Fit       0.005140
 **** Fit       0.004664
 **** Fit       0.004036
 **** Fit      -0.002866
 **** Fit      -0.000156
 **** Fit      -0.000794
 **** Fit      -0.001442
 **** Fit      -0.002124
 **** Fit      -0.004050
 **** Fit      -0.004937
 **** Fit       0.000454
 **** Fit      -0.000350
 **** Fit      -0.001114
 **** Fit      -0.001838
 **** Fit      -0.002545
 **** Fit      -0.003268
 **** Fit      -0.005641
 **** Fit      -0.006538
 **** Fit      -0.007613
 **** Fit       0.000394
 **** Fit      -0.000695
 **** Fit      -0.001698
 **** Fit      -0.002590
 **** Fit      -0.003386
 **** Fit      -0.004124
 **** Fit      -0.004857
 **** Fit      -0.007841
 **** Fit      -0.008718
 **** Fit      -0.009802
 **** Fit      -0.011185
 **** Fit       0.000644
 **** Fit      -0.000974
 **** Fit      -0.002463
 **** Fit      -0.003731
 **** Fit      -0.004771
 **** Fit      -0.005631
 **** Fit      -0.006377
 **** Fit      -0.007088
 **** Fit      -0.010940
 **** Fit      -0.011763
 **** Fit      -0.012854
 **** Fit      -0.014341
 **** Fit      -0.016367
 **** Fit      -0.000163
 **** Fit      -0.002739
 **** Fit      -0.004961
 **** Fit      -0.006694
 **** Fit      -0.007973
 **** Fit      -0.008908
 **** Fit      -0.009630
 **** Fit      -0.010268
 **** Fit      -0.015381
 **** Fit      -0.016020
 **** Fit      -0.017029
 **** Fit      -0.018590
 **** Fit      -0.020904
 **** Fit      -0.014547
 **** Fit      -0.014946
 **** Fit      -0.024137
 **** Fit      -0.026533
 **** Fit      -0.003058
 **** Fit      -0.002034
 **** Fit      -0.003487
 **** Fit      -0.005006
 **** Fit      -0.004450
 **** Fit      -0.002700
 **** Fit      -0.001751
 **** Fit      -0.001343
 **** Fit      -0.002354
 **** Fit      -0.004060
 **** Fit      -0.006244
 **** Fit      -0.007934
 **** Fit      -0.007934
 **** Fit      -0.006261
 **** Fit      -0.000886
 **** Fit      -0.000967
 **** Fit      -0.001721
 **** Fit      -0.002957
 **** Fit      -0.004839
 **** Fit      -0.007384
 **** Fit      -0.010206
 **** Fit      -0.012363
 **** Fit      -0.012788
 **** Fit      -0.011245
 **** Fit      -0.000524
 **** Fit      -0.000894
 **** Fit      -0.001534
 **** Fit      -0.002523
 **** Fit      -0.004052
 **** Fit      -0.006323
 **** Fit      -0.009459
 **** Fit      -0.013311
 **** Fit      -0.000458
 **** Fit      -0.001125
 **** Fit      -0.001720
 **** Fit      -0.002587
 **** Fit      -0.003908
 **** Fit      -0.005913
 **** Fit      -0.008876
 **** Fit      -0.013045
 **** Fit      -0.000670
 **** Fit      -0.001667
 **** Fit      -0.002245
 **** Fit      -0.003029
 **** Fit      -0.004177
 **** Fit      -0.005897
 **** Fit      -0.008472
 **** Fit      -0.012272
 **** Fit      -0.001180
 **** Fit      -0.002536
 **** Fit      -0.003162
 **** Fit      -0.003973
 **** Fit      -0.005129
 **** Fit      -0.006846
 **** Fit      -0.009435
 **** Fit      -0.013350
 **** Fit      -0.003755
 **** Fit      -0.004452
 **** Fit      -0.005311
 **** Fit      -0.006493
 **** Fit      -0.008206
 **** Fit      -0.010753
 **** Fit      -0.014598
 **** Fit      -0.006172
 **** Fit      -0.007141
 **** Fit      -0.008436
 **** Fit      -0.010273
 **** Fit      -0.012957
 **** Fit      -0.016969
 **** Fit      -0.009597
 **** Fit      -0.011179
 **** Fit      -0.013415
 **** Fit      -0.016666
 **** Fit      -0.014766
 **** Fit      -0.017642
 **** Fit      -0.021798
 **** Fit       0.027685
 **** Fit       0.032850
 **** Fit       0.037308
 **** Fit       0.037049
 **** Fit       0.040914
 **** Fit       0.041681
 **** Fit       0.032593
 **** Fit       0.005354
 **** Fit       0.001975
 **** Fit      -0.001496
 **** Fit      -0.004754
 **** Fit      -0.007828
 **** Fit       0.027761
 **** Fit       0.005397
 **** Fit       0.001876
 **** Fit      -0.001758
 **** Fit      -0.005640
 **** Fit       0.024335
 **** Fit       0.023522
 **** Fit       0.004351
 **** Fit       0.000179
 **** Fit       0.021766
 **** Fit       0.021378
 **** Fit       0.021624
 **** Fit       0.004731
 **** Fit      -0.000483
 **** Fit       0.017163
 **** Fit       0.018181
 **** Fit       0.019423
 **** Fit       0.002908
 **** Fit       0.013055
 **** Fit       0.015683
 **** Fit       0.005182
 **** Fit       0.009927
 **** Fit      -0.008383
 **** Fit      -0.000566
 **** Fit       0.005780
 **** Fit      -0.009132
 **** Fit      -0.001218
 **** Fit      -0.007435
 **** Fit      -0.010384
 **** Fit      -0.009663
 **** Fit      -0.005346
 **** Fit      -0.007101
 **** Fit      -0.004363
 **** Fit      -0.001307
 **** Fit       0.009421
 **** Fit       0.009606
 **** Fit       0.012714
 **** Fit       0.012813
 **** Fit       0.011246
 **** Fit       0.008511
 **** Fit       0.012585
 **** Fit       0.014850
 **** Fit       0.015801
 **** Fit       0.015339
 **** Fit       0.013669
 **** Fit       0.011056
 **** Fit       0.007729
 **** Fit       0.021433
 **** Fit       0.021947
 **** Fit       0.021467
 **** Fit       0.019542
 **** Fit       0.017305
 **** Fit       0.018081
 **** Fit       0.018033
 **** Fit       0.016995
 **** Fit       0.015020
 **** Fit       0.012231
 **** Fit       0.008720
 **** Fit       0.019759
 **** Fit       0.021122
 **** Fit       0.021746
 **** Fit       0.021436
 **** Fit       0.020139
 **** Fit       0.018205
 **** Fit       0.016459
 **** Fit       0.015754
 **** Fit       0.016248
 **** Fit       0.020128
 **** Fit       0.020016
 **** Fit       0.019305
 **** Fit       0.017841
 **** Fit       0.015604
 **** Fit       0.012622
 **** Fit       0.008889
 **** Fit       0.004286
 **** Fit       0.014761
 **** Fit       0.017662
 **** Fit       0.019760
 **** Fit       0.021170
 **** Fit       0.021865
 **** Fit       0.021836
 **** Fit       0.021252
 **** Fit       0.020505
 **** Fit       0.020031
 **** Fit       0.019988
 **** Fit       0.021436
 **** Fit       0.020769
 **** Fit       0.019502
 **** Fit       0.017498
 **** Fit       0.014711
 **** Fit       0.011110
 **** Fit       0.006604
 **** Fit       0.000978
 **** Fit       0.013000
 **** Fit       0.016451
 **** Fit       0.018995
 **** Fit       0.020771
 **** Fit       0.021827
 **** Fit       0.022235
 **** Fit       0.022193
 **** Fit       0.021976
 **** Fit       0.021752
 **** Fit       0.021572
 **** Fit       0.020535
 **** Fit       0.018822
 **** Fit       0.016322
 **** Fit       0.012983
 **** Fit       0.008769
 **** Fit       0.003644
 **** Fit      -0.002264
 **** Fit       0.006636
 **** Fit       0.011478
 **** Fit       0.015288
 **** Fit       0.018162
 **** Fit       0.020206
 **** Fit       0.021494
 **** Fit       0.022134
 **** Fit       0.022292
 **** Fit       0.022107
 **** Fit       0.020770
 **** Fit       0.019388
 **** Fit       0.017118
 **** Fit       0.013905
 **** Fit       0.009796
 **** Fit       0.005031
 **** Fit       0.000308
 **** Fit      -0.002979
 **** Fit      -0.003389
 **** Fit      -0.000766
 **** Fit       0.003704
 **** Fit       0.008596
 **** Fit       0.012971
 **** Fit       0.016452
 **** Fit       0.018971
 **** Fit       0.020566
 **** Fit       0.021333
 **** Fit       0.021389
 **** Fit       0.019169
 **** Fit       0.017257
 **** Fit       0.014000
 **** Fit       0.009783
 **** Fit       0.005725
 **** Fit       0.003743
 **** Fit       0.005107
 **** Fit       0.008907
 **** Fit       0.013213
 **** Fit       0.016711
 **** Fit       0.018903
 **** Fit       0.019710
 **** Fit       0.016830
 **** Fit       0.013935
 **** Fit       0.010151
 **** Fit       0.009884
 **** Fit       0.013495
 **** Fit       0.016645
 **** Fit       0.013753
 -----------------------------------------------------------------
 Leave Link  602 at Sat Sep 14 22:39:09 2019, MaxMem=  1342177280 cpu:             108.5 elap:               2.3

 Test job not archived.
 1\1\GINC-C506-102\SP\RB3LYP\SVP\C54H83Ca1N15O23\PENGZHI\14-Sep-2019\0\
 \#b3lyp/svp scf=(tight,noincore) Test #IOP(5/87=12) Density=Current Po
 p=(MK,readradii) iop(6/33=2) iop(6/42=6)\\holoCaM_loop3_100.0\\0,1\C,0
 ,84.89,66.93,100.232\C,0,85.68,68.07,99.602\O,0,86.51,67.7,98.772\H,0,
 83.919,66.849,99.744\H,0,85.438,65.996,100.108\H,0,84.747,67.13,101.29
 4\N,0,85.6,69.35,99.982\C,0,86.38,70.51,99.572\C,0,87.62,70.6,100.452\
 O,0,87.71,71.23,101.502\C,0,85.4,71.67,99.712\C,0,86.09,72.93,99.222\O
 ,0,85.68,74.04,99.612\O,0,87.1,72.86,98.482\H,0,84.79,69.66,100.482\H,
 0,86.67,70.35,98.532\H,0,84.94,71.81,100.682\H,0,84.58,71.49,99.012\N,
 0,88.61,69.74,100.212\C,0,89.6,69.37,101.212\C,0,90.62,70.4,101.662\O,
 0,91.17,70.28,102.752\C,0,90.37,68.17,100.652\C,0,89.46,66.97,100.402\
 C,0,90.33,65.74,100.192\C,0,89.64,64.43,99.822\N,0,88.37,64.26,100.542
 \H,0,88.38,69.08,99.492\H,0,89.1,69.18,102.162\H,0,91.16,68.,101.382\H
 ,0,90.83,68.49,99.722\H,0,88.83,67.26,99.562\H,0,88.81,66.87,101.262\H
 ,0,90.89,65.54,101.112\H,0,91.08,65.91,99.432\H,0,90.31,63.6,100.052\H
 ,0,89.33,64.49,98.782\H,0,87.71,65.02,100.472\H,0,87.92,63.47,100.102\
 H,0,88.57,64.01,101.502\N,0,90.78,71.48,100.892\C,0,91.5,72.69,101.262
 \C,0,90.53,73.79,101.682\O,0,90.93,74.9,102.032\C,0,92.3,73.1,100.032\
 C,0,91.58,73.13,98.692\O,0,92.3,73.36,97.692\O,0,90.35,72.97,98.552\H,
 0,90.3,71.51,100.012\H,0,92.08,72.46,102.152\H,0,93.1,72.36,99.892\H,0
 ,92.84,74.03,100.202\N,0,89.21,73.6,101.682\C,0,88.28,74.67,102.012\C,
 0,88.28,75.89,101.102\O,0,88.03,76.96,101.642\H,0,88.85,72.7,101.422\H
 ,0,88.42,74.97,103.042\H,0,87.28,74.24,101.942\N,0,88.76,75.77,99.862\
 C,0,88.8,76.91,98.972\C,0,87.45,77.42,98.492\O,0,87.31,78.52,97.972\C,
 0,89.84,76.64,97.882\C,0,89.56,75.51,96.902\N,0,90.31,75.42,95.802\O,0
 ,88.52,74.86,96.932\H,0,89.04,74.87,99.492\H,0,89.26,77.67,99.602\H,0,
 90.75,76.38,98.432\H,0,89.97,77.59,97.362\H,0,90.89,76.17,95.452\H,0,8
 9.96,74.88,95.022\N,0,86.37,76.64,98.682\C,0,84.99,76.98,98.392\C,0,84
 .31,76.,97.452\O,0,83.11,76.16,97.242\H,0,86.46,75.68,98.972\H,0,85.01
 ,77.97,97.942\H,0,84.38,77.24,99.252\N,0,84.99,75.07,96.782\C,0,84.56,
 74.38,95.582\C,0,85.13,72.99,95.352\O,0,86.16,72.72,95.972\C,0,84.74,7
 5.24,94.342\C,0,85.57,76.5,94.422\C,0,86.92,76.4,94.772\C,0,85.,77.78,
 94.322\C,0,87.75,77.5,94.972\C,0,85.84,78.9,94.392\C,0,87.2,78.77,94.7
 02\O,0,87.92,79.92,94.842\H,0,85.81,74.68,97.222\H,0,83.53,74.08,95.79
 2\H,0,83.77,75.62,94.012\H,0,85.16,74.66,93.512\H,0,87.43,75.44,94.792
 \H,0,83.95,77.81,94.072\H,0,88.78,77.43,95.302\H,0,85.47,79.9,94.222\H
 ,0,87.4,80.71,94.662\N,0,84.56,72.1,94.532\C,0,84.92,70.72,94.272\C,0,
 85.58,70.63,92.902\O,0,84.98,70.91,91.862\C,0,83.7,69.81,94.402\C,0,82
 .96,70.04,95.712\C,0,84.15,68.36,94.312\C,0,83.74,69.76,96.992\H,0,83.
 79,72.53,94.032\H,0,85.72,70.53,94.982\H,0,83.,69.99,93.582\H,0,82.09,
 69.39,95.642\H,0,82.6,71.07,95.642\H,0,84.8,68.13,95.152\H,0,83.23,67.
 77,94.312\H,0,84.62,68.2,93.342\H,0,84.72,70.24,96.952\H,0,83.1,70.12,
 97.802\H,0,83.94,68.7,97.132\N,0,86.83,70.18,92.932\C,0,87.51,69.72,91
 .732\C,0,87.4,68.24,91.392\O,0,86.89,67.44,92.172\C,0,88.99,70.06,91.8
 22\O,0,89.57,69.56,93.012\H,0,87.3,70.07,93.822\H,0,87.1,70.24,90.872\
 H,0,89.15,71.12,91.972\H,0,89.44,69.67,90.902\H,0,88.99,69.72,93.762\N
 ,0,87.92,67.79,90.252\C,0,87.82,66.45,89.702\C,0,88.41,65.47,90.692\O,
 0,87.76,64.43,90.822\C,0,88.56,66.36,88.372\H,0,88.34,68.54,89.722\H,0
 ,86.8,66.1,89.552\H,0,88.38,65.39,87.892\H,0,88.06,67.19,87.892\H,0,89
 .64,66.5,88.312\N,0,89.56,65.61,91.352\C,0,90.06,64.65,92.312\C,0,89.2
 6,64.68,93.612\O,0,89.14,63.67,94.312\C,0,91.49,65.11,92.582\H,0,90.1,
 66.47,91.282\H,0,90.03,63.64,91.912\H,0,91.52,66.07,93.092\H,0,91.93,6
 4.41,93.302\H,0,92.14,65.22,91.712\N,0,88.6,65.76,94.032\C,0,87.73,65.
 84,95.192\C,0,86.43,65.12,94.862\O,0,85.87,64.42,95.702\C,0,87.59,67.3
 2,95.552\C,0,88.95,67.91,95.912\C,0,88.91,69.41,96.152\O,0,89.26,69.92
 ,97.232\O,0,88.39,70.15,95.282\H,0,88.71,66.58,93.462\H,0,88.13,65.25,
 96.012\H,0,86.9,67.36,96.402\H,0,87.2,67.83,94.672\H,0,89.64,67.66,95.
 102\H,0,89.23,67.34,96.802\N,0,85.96,65.2,93.622\C,0,84.96,64.31,93.06
 2\H,0,84.084,64.888,92.767\H,0,85.371,63.804,92.189\H,0,84.672,63.57,9
 3.809\H,0,86.38,65.79,92.912\Ca,0,88.8,72.31,96.62\O,0,91.26,72.07,95.
 68\H,0,91.82,72.39,96.39\H,0,91.87,71.7,95.04\\Version=ES64L-G16RevA.0
 3\State=1-A\HF=-5333.5811239\RMSD=2.187e-09\Dipole=1.6682235,-12.63903
 76,-3.6879986\Quadrupole=-16.7427591,0.6741808,16.0685783,-15.9534092,
 -37.9038567,-134.1293941\PG=C01 [X(C54H83Ca1N15O23)]\\@


 THE DIFFERENCE BETWEEN A NOOSE AND A HALO IS ONLY 12 INCHES.
 Job cpu time:       0 days  9 hours 58 minutes 47.9 seconds.
 Elapsed time:       0 days  0 hours 12 minutes 36.7 seconds.
 File lengths (MBytes):  RWF=   1517 Int=      0 D2E=      0 Chk=    171 Scr=      1
 Normal termination of Gaussian 16 at Sat Sep 14 22:39:10 2019.
