 Entering Gaussian System, Link 0=g16
 Initial command:
 /home1/apps/gaussian/16rA.03/g16/l1.exe "/scratch/01990/pengzhi/4328825/Gau-349478.inp" -scrdir="/scratch/01990/pengzhi/4328825/"
 Entering Link 1 = /home1/apps/gaussian/16rA.03/g16/l1.exe PID=    349479.
  
 Copyright (c) 1988,1990,1992,1993,1995,1998,2003,2009,2016,
            Gaussian, Inc.  All Rights Reserved.
  
 This is part of the Gaussian(R) 16 program.  It is based on
 the Gaussian(R) 09 system (copyright 2009, Gaussian, Inc.),
 the Gaussian(R) 03 system (copyright 2003, Gaussian, Inc.),
 the Gaussian(R) 98 system (copyright 1998, Gaussian, Inc.),
 the Gaussian(R) 94 system (copyright 1995, Gaussian, Inc.),
 the Gaussian 92(TM) system (copyright 1992, Gaussian, Inc.),
 the Gaussian 90(TM) system (copyright 1990, Gaussian, Inc.),
 the Gaussian 88(TM) system (copyright 1988, Gaussian, Inc.),
 the Gaussian 86(TM) system (copyright 1986, Carnegie Mellon
 University), and the Gaussian 82(TM) system (copyright 1983,
 Carnegie Mellon University). Gaussian is a federally registered
 trademark of Gaussian, Inc.
  
 This software contains proprietary and confidential information,
 including trade secrets, belonging to Gaussian, Inc.
  
 This software is provided under written license and may be
 used, copied, transmitted, or stored only in accord with that
 written license.
  
 The following legend is applicable only to US Government
 contracts under FAR:
  
                    RESTRICTED RIGHTS LEGEND
  
 Use, reproduction and disclosure by the US Government is
 subject to restrictions as set forth in subparagraphs (a)
 and (c) of the Commercial Computer Software - Restricted
 Rights clause in FAR 52.227-19.
  
 Gaussian, Inc.
 340 Quinnipiac St., Bldg. 40, Wallingford CT 06492
  
  
 ---------------------------------------------------------------
 Warning -- This program may not be used in any manner that
 competes with the business of Gaussian, Inc. or will provide
 assistance to any competitor of Gaussian, Inc.  The licensee
 of this program is prohibited from giving any competitor of
 Gaussian, Inc. access to this program.  By using this program,
 the user acknowledges that Gaussian, Inc. is engaged in the
 business of creating and licensing software in the field of
 computational chemistry and represents and warrants to the
 licensee that it is not a competitor of Gaussian, Inc. and that
 it will not use this program in any manner prohibited above.
 ---------------------------------------------------------------
  

 Cite this work as:
 Gaussian 16, Revision A.03,
 M. J. Frisch, G. W. Trucks, H. B. Schlegel, G. E. Scuseria, 
 M. A. Robb, J. R. Cheeseman, G. Scalmani, V. Barone, 
 G. A. Petersson, H. Nakatsuji, X. Li, M. Caricato, A. V. Marenich, 
 J. Bloino, B. G. Janesko, R. Gomperts, B. Mennucci, H. P. Hratchian, 
 J. V. Ortiz, A. F. Izmaylov, J. L. Sonnenberg, D. Williams-Young, 
 F. Ding, F. Lipparini, F. Egidi, J. Goings, B. Peng, A. Petrone, 
 T. Henderson, D. Ranasinghe, V. G. Zakrzewski, J. Gao, N. Rega, 
 G. Zheng, W. Liang, M. Hada, M. Ehara, K. Toyota, R. Fukuda, 
 J. Hasegawa, M. Ishida, T. Nakajima, Y. Honda, O. Kitao, H. Nakai, 
 T. Vreven, K. Throssell, J. A. Montgomery, Jr., J. E. Peralta, 
 F. Ogliaro, M. J. Bearpark, J. J. Heyd, E. N. Brothers, K. N. Kudin, 
 V. N. Staroverov, T. A. Keith, R. Kobayashi, J. Normand, 
 K. Raghavachari, A. P. Rendell, J. C. Burant, S. S. Iyengar, 
 J. Tomasi, M. Cossi, J. M. Millam, M. Klene, C. Adamo, R. Cammi, 
 J. W. Ochterski, R. L. Martin, K. Morokuma, O. Farkas, 
 J. B. Foresman, and D. J. Fox, Gaussian, Inc., Wallingford CT, 2016.
 
 ******************************************
 Gaussian 16:  ES64L-G16RevA.03 25-Dec-2016
                14-Sep-2019 
 ******************************************
 %chk=holoCaM_loop3_86.0.chk
 %nprocshared=48
 Will use up to   48 processors via shared memory.
 %mem=10GB
 %nosave
 ----------------------------------------------------------------------
 #b3lyp/svp scf=(tight,noincore) Test #IOP(5/87=12) Density=Current Pop
 =(MK,readradii) iop(6/33=2) iop(6/42=6)
 ----------------------------------------------------------------------
 1/30=1,38=1,172=1/1;
 2/12=2,17=6,18=5,40=1/2;
 3/5=18,7=101,11=2,25=1,30=1,74=-5/1,2,3;
 4//1;
 5/5=4,32=2,38=5,87=12/2;
 6/7=2,8=2,9=2,10=2,15=8,20=101,22=-1,28=1,33=2,42=6/1,2;
 99/5=1,9=1/99;
 ------------------
 holoCaM_loop3_86.0
 ------------------
 Symbolic Z-matrix:
 Charge =  0 Multiplicity = 1
 C                     69.9      51.93     90.48 
 C                     70.44     53.2      89.84 
 O                     71.       53.14     88.75 
 H                     68.909    51.715    90.079 
 H                     70.569    51.098    90.259 
 H                     69.833    52.067    91.559 
 N                     70.17     54.34     90.48 
 C                     70.59     55.68     90.11 
 C                     71.95     55.99     90.73 
 O                     72.09     56.32     91.9 
 C                     69.48     56.67     90.44 
 C                     69.8      58.11     90.1 
 O                     70.78     58.31     89.35 
 O                     69.13     59.05     90.59 
 H                     69.6      54.29     91.31 
 H                     70.69     55.7      89.03 
 H                     69.21     56.59     91.49 
 H                     68.53     56.48     89.93 
 N                     73.03     55.76     89.98 
 C                     74.38     55.67     90.5 
 C                     75.1      56.94     90.94 
 O                     76.17     56.81     91.52 
 C                     75.28     54.86     89.57 
 C                     75.03     53.36     89.74 
 C                     75.7      52.52     88.65 
 C                     75.89     51.13     89.26 
 N                     74.67     50.31     89.25 
 H                     72.85     55.5      89.02 
 H                     74.39     55.04     91.39 
 H                     76.32     55.07     89.83 
 H                     75.16     55.14     88.53 
 H                     73.95     53.24     89.74 
 H                     75.51     53.22     90.71 
 H                     76.67     52.96     88.43 
 H                     75.15     52.63     87.72 
 H                     76.23     51.19     90.29 
 H                     76.71     50.67     88.69 
 H                     74.46     50.17     90.23 
 H                     73.87     50.64     88.74 
 H                     74.74     49.34     88.96 
 N                     74.57     58.13     90.66 
 C                     74.94     59.41     91.24 
 C                     73.74     60.08     91.89 
 O                     73.96     61.08     92.57 
 C                     75.52     60.3      90.14 
 C                     74.63     60.65     88.95 
 O                     75.2      61.24     88.01 
 O                     73.42     60.35     89. 
 H                     73.84     58.2      89.97 
 H                     75.64     59.31     92.06 
 H                     76.43     59.83     89.77 
 H                     75.82     61.23     90.62 
 N                     72.49     59.59     91.86 
 C                     71.39     59.97     92.71 
 C                     70.95     61.36     92.27 
 O                     70.54     62.18     93.09 
 H                     72.33     58.77     91.3 
 H                     71.6      59.94     93.78 
 H                     70.62     59.22     92.51 
 N                     71.1      61.73     91. 
 C                     70.63     62.97     90.43 
 C                     69.23     62.91     89.84 
 O                     68.79     63.83     89.15 
 C                     71.65     63.5      89.42 
 C                     71.5      62.99     88. 
 N                     71.57     63.84     86.96 
 O                     71.38     61.79     87.76 
 H                     71.62     61.09     90.42 
 H                     70.66     63.81     91.13 
 H                     72.64     63.2      89.76 
 H                     71.52     64.58     89.33 
 H                     71.39     64.82     87.08 
 H                     71.5      63.51     86.01 
 N                     68.48     61.82     90.03 
 C                     67.05     61.71     89.89 
 C                     66.56     60.82     88.75 
 O                     65.37     60.57     88.62 
 H                     68.92     61.       90.42 
 H                     66.72     62.73     89.73 
 H                     66.51     61.52     90.82 
 N                     67.5      60.31     87.94 
 C                     67.2      59.53     86.76 
 C                     68.31     58.63     86.23 
 O                     69.49     58.89     86.45 
 C                     66.48     60.34     85.69 
 C                     66.72     61.83     85.63 
 C                     65.68     62.71     85.92 
 C                     68.01     62.32     85.39 
 C                     65.92     64.09     85.82 
 C                     68.26     63.7      85.31 
 C                     67.2      64.61     85.54 
 O                     67.36     65.96     85.44 
 H                     68.45     60.61     88.06 
 H                     66.46     58.76     87.01 
 H                     65.43     60.16     85.91 
 H                     66.67     59.95     84.69 
 H                     64.69     62.28     86.03 
 H                     68.79     61.61     85.17 
 H                     65.19     64.87     85.94 
 H                     69.28     64.03     85.22 
 H                     68.13     66.29     84.97 
 N                     67.82     57.63     85.49 
 C                     68.61     56.55     84.92 
 C                     69.06     56.98     83.53 
 O                     68.22     57.18     82.66 
 C                     67.88     55.21     84.96 
 C                     67.41     54.79     86.35 
 C                     68.68     54.04     84.39 
 C                     68.45     54.7      87.46 
 H                     66.82     57.55     85.35 
 H                     69.54     56.43     85.47 
 H                     66.95     55.4      84.43 
 H                     66.91     53.82     86.37 
 H                     66.64     55.51     86.63 
 H                     69.51     53.8      85.05 
 H                     68.18     53.07     84.37 
 H                     69.03     54.23     83.38 
 H                     69.08     55.59     87.42 
 H                     67.92     54.42     88.37 
 H                     69.12     53.87     87.28 
 N                     70.38     57.09     83.37 
 C                     71.       57.11     82.06 
 C                     71.35     55.74     81.5 
 O                     71.13     54.68     82.07 
 C                     72.23     58.01     82.11 
 O                     73.2      57.57     83.03 
 H                     70.95     56.92     84.18 
 H                     70.26     57.47     81.34 
 H                     71.94     59.03     82.38 
 H                     72.79     58.21     81.19 
 H                     72.77     57.6      83.89 
 N                     71.9      55.65     80.28 
 C                     71.92     54.41     79.53 
 C                     73.       53.43     79.97 
 O                     72.84     52.23     79.72 
 C                     72.25     54.77     78.08 
 H                     72.17     56.51     79.83 
 H                     70.93     53.96     79.56 
 H                     73.24     55.23     78.05 
 H                     72.26     53.88     77.45 
 H                     71.54     55.51     77.73 
 N                     74.08     53.9      80.61 
 C                     75.05     53.08     81.3 
 C                     74.66     52.67     82.72 
 O                     75.15     51.64     83.18 
 C                     76.4      53.76     81.17 
 H                     74.28     54.88     80.55 
 H                     75.2      52.17     80.72 
 H                     76.23     54.63     81.8 
 H                     77.16     53.11     81.61 
 H                     76.52     53.93     80.1 
 N                     73.67     53.34     83.33 
 C                     72.96     53.02     84.55 
 C                     71.91     51.98     84.2 
 O                     71.93     50.94     84.86 
 C                     72.34     54.3      85.1 
 C                     73.36     55.24     85.73 
 C                     72.69     56.51     86.25 
 O                     73.01     56.9      87.39 
 O                     71.95     57.16     85.49 
 H                     73.37     54.12     82.77 
 H                     73.66     52.68     85.32 
 H                     71.63     54.05     85.89 
 H                     71.69     54.82     84.4 
 H                     74.02     55.53     84.91 
 H                     73.95     54.78     86.52 
 N                     71.23     52.17     83.07 
 C                     70.38     51.1      82.57 
 H                     69.464    51.526    82.161 
 H                     70.906    50.553    81.788 
 H                     70.132    50.421    83.386 
 H                     71.21     53.04     82.57 
 Ca                    71.94     59.22     87.32 
 O                     71.83     60.16     84.94 
 H                     72.6      60.33     84.41 
 H                     71.09     60.42     84.39 
 
 Stoichiometry    C54H83CaN15O23
 Framework group  C1[X(C54H83CaN15O23)]
 Deg. of freedom   522
 Full point group                 C1      NOp   1
 Largest Abelian subgroup         C1      NOp   1
 Largest concise Abelian subgroup C1      NOp   1
                         Standard orientation:                         
 ---------------------------------------------------------------------
 Center     Atomic      Atomic             Coordinates (Angstroms)
 Number     Number       Type             X           Y           Z
 ---------------------------------------------------------------------
      1          6           0        2.038009    3.982691    5.072164
      2          6           0        1.535416    3.331143    3.792717
      3          8           0        2.333736    2.798519    3.028324
      4          1           0        2.143389    3.223938    5.848242
      5          1           0        3.005873    4.449269    4.887319
      6          1           0        1.325158    4.739403    5.398860
      7          7           0        0.210376    3.294037    3.634626
      8          6           0       -0.528210    2.765260    2.501584
      9          6           0       -0.722455    3.855582    1.451075
     10          8           0       -1.578274    4.725373    1.542926
     11          6           0       -1.805629    2.097155    2.994471
     12          6           0       -2.667987    1.504673    1.900441
     13          8           0       -2.140063    1.367665    0.775530
     14          8           0       -3.867455    1.209551    2.116729
     15          1           0       -0.362777    3.657110    4.380263
     16          1           0        0.070509    1.971010    2.068569
     17          1           0       -2.389050    2.799380    3.584640
     18          1           0       -1.649184    1.266570    3.690426
     19          7           0        0.173745    3.919344    0.463877
     20          6           0        0.347018    5.064496   -0.407676
     21          6           0       -0.690387    5.347507   -1.488692
     22          8           0       -0.597776    6.405905   -2.096488
     23          6           0        1.747994    5.093536   -1.013829
     24          6           0        2.769945    5.611286    0.000543
     25          6           0        4.215975    5.405316   -0.456814
     26          6           0        5.037496    6.458666    0.288743
     27          7           0        5.343610    6.092120    1.679008
     28          1           0        0.848905    3.167719    0.435263
     29          1           0        0.364767    5.979044    0.185945
     30          1           0        1.737027    5.770115   -1.871396
     31          1           0        2.056912    4.125127   -1.389535
     32          1           0        2.557315    5.084865    0.927079
     33          1           0        2.490864    6.666264   -0.005479
     34          1           0        4.263792    5.592524   -1.527126
     35          1           0        4.477129    4.354986   -0.366787
     36          1           0        4.527951    7.417776    0.312650
     37          1           0        5.943759    6.604998   -0.316381
     38          1           0        4.862670    6.792127    2.229268
     39          1           0        5.131829    5.161176    1.991248
     40          1           0        6.287446    6.237690    2.022351
     41          7           0       -1.629725    4.440986   -1.755646
     42          6           0       -2.850643    4.645429   -2.516740
     43          6           0       -4.074449    4.289164   -1.688023
     44          8           0       -5.171065    4.589020   -2.155272
     45          6           0       -2.791937    3.788128   -3.781686
     46          6           0       -2.676147    2.274132   -3.623223
     47          8           0       -2.470038    1.639402   -4.677375
     48          8           0       -2.810674    1.780290   -2.485408
     49          1           0       -1.518438    3.496463   -1.424902
     50          1           0       -3.017306    5.685622   -2.766982
     51          1           0       -1.960679    4.140764   -4.390421
     52          1           0       -3.701932    3.998625   -4.341062
     53          7           0       -4.026805    3.777558   -0.447261
     54          6           0       -5.101500    3.729355    0.511700
     55          6           0       -6.086443    2.676786    0.020491
     56          8           0       -7.296135    2.816355    0.193884
     57          1           0       -3.120471    3.540534   -0.081232
     58          1           0       -5.598638    4.682248    0.698111
     59          1           0       -4.619493    3.427493    1.445482
     60          7           0       -5.646974    1.640430   -0.690236
     61          6           0       -6.451376    0.522684   -1.122648
     62          6           0       -6.482361   -0.651496   -0.157226
     63          8           0       -6.960226   -1.736510   -0.489627
     64          6           0       -6.031758    0.090767   -2.529335
     65          6           0       -4.900880   -0.916673   -2.601300
     66          7           0       -4.988313   -1.981643   -3.418120
     67          8           0       -3.856510   -0.752835   -1.973249
     68          1           0       -4.678446    1.683306   -0.966848
     69          1           0       -7.486495    0.793351   -1.350176
     70          1           0       -5.697345    0.979047   -3.063027
     71          1           0       -6.873397   -0.419789   -3.000903
     72          1           0       -5.879117   -2.320701   -3.732300
     73          1           0       -4.231947   -2.643537   -3.496270
     74          7           0       -5.937607   -0.522357    1.056556
     75          6           0       -6.181809   -1.345106    2.214161
     76          6           0       -4.999370   -2.182566    2.696134
     77          8           0       -5.070039   -2.823115    3.735463
     78          1           0       -5.375973    0.294878    1.243089
     79          1           0       -6.994985   -1.994567    1.911101
     80          1           0       -6.690051   -0.840240    3.038418
     81          7           0       -3.889197   -2.142566    1.943992
     82          6           0       -2.717890   -2.949158    2.205232
     83          6           0       -1.403065   -2.467614    1.603277
     84          8           0       -1.391982   -1.765775    0.595458
     85          6           0       -2.982335   -4.438993    2.032428
     86          6           0       -4.058921   -4.873006    1.066046
     87          6           0       -5.207778   -5.497508    1.545863
     88          6           0       -3.948664   -4.550354   -0.292460
     89          6           0       -6.175732   -5.924719    0.622522
     90          6           0       -4.924623   -4.956753   -1.217470
     91          6           0       -6.070323   -5.648772   -0.755862
     92          8           0       -7.037344   -6.107700   -1.599873
     93          1           0       -3.920938   -1.653200    1.068542
     94          1           0       -2.455727   -2.878386    3.267900
     95          1           0       -3.258391   -4.757867    3.035131
     96          1           0       -2.077404   -4.982407    1.760396
     97          1           0       -5.209501   -5.784225    2.592233
     98          1           0       -3.046152   -4.066690   -0.627782
     99          1           0       -7.065062   -6.483993    0.850563
    100          1           0       -4.846188   -4.604246   -2.230873
    101          1           0       -6.823876   -6.182154   -2.533462
    102          7           0       -0.350756   -2.956078    2.267919
    103          6           0        1.036920   -2.611837    2.000987
    104          6           0        1.579497   -3.604480    0.981296
    105          8           0        1.654413   -4.791625    1.277228
    106          6           0        1.866327   -2.502678    3.277807
    107          6           0        1.310154   -1.523995    4.308462
    108          6           0        3.327972   -2.122161    3.048460
    109          6           0        1.075013   -0.082966    3.872634
    110          1           0       -0.496251   -3.563107    3.065633
    111          1           0        1.098053   -1.653817    1.490829
    112          1           0        1.739024   -3.469268    3.758844
    113          1           0        1.923499   -1.436994    5.207094
    114          1           0        0.370027   -1.959186    4.649741
    115          1           0        3.395775   -1.089807    2.714171
    116          1           0        3.963023   -2.066268    3.934398
    117          1           0        3.825535   -2.789131    2.351121
    118          1           0        0.572750   -0.089606    2.903982
    119          1           0        0.651594    0.442621    4.728130
    120          1           0        2.019334    0.415335    3.698984
    121          7           0        1.955177   -3.072874   -0.183332
    122          6           0        2.826741   -3.772624   -1.106169
    123          6           0        4.312901   -3.551975   -0.870283
    124          8           0        4.778626   -2.859012    0.024034
    125          6           0        2.438548   -3.397283   -2.532292
    126          8           0        2.563169   -2.020194   -2.794962
    127          1           0        1.812248   -2.084677   -0.297071
    128          1           0        2.722288   -4.845683   -0.923867
    129          1           0        1.403423   -3.691299   -2.730962
    130          1           0        2.939155   -3.887305   -3.374475
    131          1           0        1.950373   -1.587761   -2.192565
    132          7           0        5.202626   -4.180619   -1.652712
    133          6           0        6.595210   -4.326027   -1.278459
    134          6           0        7.438350   -3.078302   -1.508018
    135          8           0        8.476759   -2.943270   -0.851075
    136          6           0        7.191501   -5.404295   -2.185529
    137          1           0        4.844068   -4.685041   -2.447693
    138          1           0        6.652704   -4.668069   -0.247342
    139          1           0        7.126104   -5.065701   -3.221713
    140          1           0        8.239534   -5.582262   -1.942518
    141          1           0        6.594516   -6.304795   -2.102400
    142          7           0        7.027101   -2.174772   -2.408799
    143          6           0        7.576824   -0.845591   -2.551917
    144          6           0        7.019244    0.195035   -1.580937
    145          8           0        7.723079    1.165371   -1.305867
    146          6           0        7.494324   -0.471330   -4.019883
    147          1           0        6.342154   -2.454044   -3.084709
    148          1           0        8.653386   -0.904178   -2.395131
    149          1           0        6.416546   -0.370586   -4.124503
    150          1           0        7.985583    0.494431   -4.160133
    151          1           0        7.974774   -1.298986   -4.541759
    152          7           0        5.876927   -0.081937   -0.933250
    153          6           0        5.265654    0.603897    0.185176
    154          6           0        5.978518    0.138123    1.442745
    155          8           0        6.447924    1.020360    2.163103
    156          6           0        3.779178    0.264544    0.208152
    157          6           0        2.984858    0.966771   -0.885847
    158          6           0        1.508329    0.581247   -0.827244
    159          8           0        0.672617    1.501658   -0.919604
    160          8           0        1.196410   -0.622868   -0.804573
    161          1           0        5.479009   -0.943997   -1.265688
    162          1           0        5.315782    1.687920    0.040671
    163          1           0        3.345924    0.591837    1.154656
    164          1           0        3.563054   -0.800789    0.243587
    165          1           0        3.388546    0.576075   -1.822059
    166          1           0        3.087647    2.049876   -0.875027
    167          7           0        6.247973   -1.163665    1.532980
    168          6           0        7.122878   -1.630612    2.597828
    169          1           0        6.747402   -2.577076    2.986463
    170          1           0        8.129235   -1.773732    2.205183
    171          1           0        7.146057   -0.892362    3.399608
    172          1           0        5.826085   -1.862878    0.949531
    173         20           0       -1.427386    0.085117   -1.259602
    174          8           0       -0.910042   -2.147636   -2.402961
    175          1           0       -0.537575   -2.213608   -3.274521
    176          1           0       -1.027719   -3.054019   -2.116044
 ---------------------------------------------------------------------
 Rotational constants (GHZ):           0.0243387           0.0155181           0.0122918
 Standard basis: SVP (5D, 7F)
 There are  1809 symmetry adapted cartesian basis functions of A   symmetry.
 There are  1717 symmetry adapted basis functions of A   symmetry.
  1717 basis functions,  2922 primitive gaussians,  1809 cartesian basis functions
   358 alpha electrons      358 beta electrons
       nuclear repulsion energy     21922.0766158719 Hartrees.
 NAtoms=  176 NActive=  176 NUniq=  176 SFac= 1.00D+00 NAtFMM=   60 NAOKFM=T Big=T
 Integral buffers will be    131072 words long.
 Raffenetti 2 integral format.
 Two-electron integral symmetry is turned on.
 One-electron integrals computed using PRISM.
 NBasis=  1717 RedAO= T EigKep=  2.94D-04  NBF=  1717
 NBsUse=  1717 1.00D-06 EigRej= -1.00D+00 NBFU=  1717
 ExpMin= 1.98D-02 ExpMax= 3.51D+04 ExpMxC= 5.28D+03 IAcc=3 IRadAn=         5 AccDes= 0.00D+00
 Harris functional with IExCor=  402 and IRadAn=       5 diagonalized for initial guess.
 HarFok:  IExCor=  402 AccDes= 0.00D+00 IRadAn=         5 IDoV= 1 UseB2=F ITyADJ=14
 ICtDFT=  3500011 ScaDFX=  1.000000  1.000000  1.000000  1.000000
 FoFCou: FMM=F IPFlag=           0 FMFlag=      100000 FMFlg1=        2001
         NFxFlg=           0 DoJE=T BraDBF=F KetDBF=T FulRan=T
         wScrn=  0.000000 ICntrl=       500 IOpCl=  0 I1Cent=   200000004 NGrid=           0
         NMat0=    1 NMatS0=      1 NMatT0=    0 NMatD0=    1 NMtDS0=    0 NMtDT0=    0
 Petite list used in FoFCou.
 Requested convergence on RMS density matrix=1.00D-08 within 128 cycles.
 Requested convergence on MAX density matrix=1.00D-06.
 Requested convergence on             energy=1.00D-06.
 No special actions if energy rises.
 EnCoef did     3 forward-backward iterations
 SCF Done:  E(RB3LYP) =  -5333.60297331     A.U. after   18 cycles
            NFock= 18  Conv=0.38D-08     -V/T= 2.0081
 SCF density gives NOpUse=  1 NOpAll=  1.
 Hyperfine terms turned off by default for NAtoms > 100.

 **********************************************************************

            Population analysis using the SCF density.

 **********************************************************************

 Orbital symmetries:
 BldTbl:  Degeneracy threshold= 1.00D-02
       Occupied  (A) (A) (A) (A) (A) (A) (A) (A) (A) (A) (A) (A)
                 (A) (A) (A) (A) (A) (A) (A) (A) (A) (A) (A) (A)
                 (A) (A) (A) (A) (A) (A) (A) (A) (A) (A) (A) (A)
                 (A) (A) (A) (A) (A) (A) (A) (A) (A) (A) (A) (A)
                 (A) (A) (A) (A) (A) (A) (A) (A) (A) (A) (A) (A)
                 (A) (A) (A) (A) (A) (A) (A) (A) (A) (A) (A) (A)
                 (A) (A) (A) (A) (A) (A) (A) (A) (A) (A) (A) (A)
                 (A) (A) (A) (A) (A) (A) (A) (A) (A) (A) (A) (A)
                 (A) (A) (A) (A) (A) (A) (A) (A) (A) (A) (A) (A)
                 (A) (A) (A) (A) (A) (A) (A) (A) (A) (A) (A) (A)
                 (A) (A) (A) (A) (A) (A) (A) (A) (A) (A) (A) (A)
                 (A) (A) (A) (A) (A) (A) (A) (A) (A) (A) (A) (A)
                 (A) (A) (A) (A) (A) (A) (A) (A) (A) (A) (A) (A)
                 (A) (A) (A) (A) (A) (A) (A) (A) (A) (A) (A) (A)
                 (A) (A) (A) (A) (A) (A) (A) (A) (A) (A) (A) (A)
                 (A) (A) (A) (A) (A) (A) (A) (A) (A) (A) (A) (A)
                 (A) (A) (A) (A) (A) (A) (A) (A) (A) (A) (A) (A)
                 (A) (A) (A) (A) (A) (A) (A) (A) (A) (A) (A) (A)
                 (A) (A) (A) (A) (A) (A) (A) (A) (A) (A) (A) (A)
                 (A) (A) (A) (A) (A) (A) (A) (A) (A) (A) (A) (A)
                 (A) (A) (A) (A) (A) (A) (A) (A) (A) (A) (A) (A)
                 (A) (A) (A) (A) (A) (A) (A) (A) (A) (A) (A) (A)
                 (A) (A) (A) (A) (A) (A) (A) (A) (A) (A) (A) (A)
                 (A) (A) (A) (A) (A) (A) (A) (A) (A) (A) (A) (A)
                 (A) (A) (A) (A) (A) (A) (A) (A) (A) (A) (A) (A)
                 (A) (A) (A) (A) (A) (A) (A) (A) (A) (A) (A) (A)
                 (A) (A) (A) (A) (A) (A) (A) (A) (A) (A) (A) (A)
                 (A) (A) (A) (A) (A) (A) (A) (A) (A) (A) (A) (A)
                 (A) (A) (A) (A) (A) (A) (A) (A) (A) (A) (A) (A)
                 (A) (A) (A) (A) (A) (A) (A) (A) (A) (A)
       Virtual   (A) (A) (A) (A) (A) (A) (A) (A) (A) (A) (A) (A)
                 (A) (A) (A) (A) (A) (A) (A) (A) (A) (A) (A) (A)
                 (A) (A) (A) (A) (A) (A) (A) (A) (A) (A) (A) (A)
                 (A) (A) (A) (A) (A) (A) (A) (A) (A) (A) (A) (A)
                 (A) (A) (A) (A) (A) (A) (A) (A) (A) (A) (A) (A)
                 (A) (A) (A) (A) (A) (A) (A) (A) (A) (A) (A) (A)
                 (A) (A) (A) (A) (A) (A) (A) (A) (A) (A) (A) (A)
                 (A) (A) (A) (A) (A) (A) (A) (A) (A) (A) (A) (A)
                 (A) (A) (A) (A) (A) (A) (A) (A) (A) (A) (A) (A)
                 (A) (A) (A) (A) (A) (A) (A) (A) (A) (A) (A) (A)
                 (A) (A) (A) (A) (A) (A) (A) (A) (A) (A) (A) (A)
                 (A) (A) (A) (A) (A) (A) (A) (A) (A) (A) (A) (A)
                 (A) (A) (A) (A) (A) (A) (A) (A) (A) (A) (A) (A)
                 (A) (A) (A) (A) (A) (A) (A) (A) (A) (A) (A) (A)
                 (A) (A) (A) (A) (A) (A) (A) (A) (A) (A) (A) (A)
                 (A) (A) (A) (A) (A) (A) (A) (A) (A) (A) (A) (A)
                 (A) (A) (A) (A) (A) (A) (A) (A) (A) (A) (A) (A)
                 (A) (A) (A) (A) (A) (A) (A) (A) (A) (A) (A) (A)
                 (A) (A) (A) (A) (A) (A) (A) (A) (A) (A) (A) (A)
                 (A) (A) (A) (A) (A) (A) (A) (A) (A) (A) (A) (A)
                 (A) (A) (A) (A) (A) (A) (A) (A) (A) (A) (A) (A)
                 (A) (A) (A) (A) (A) (A) (A) (A) (A) (A) (A) (A)
                 (A) (A) (A) (A) (A) (A) (A) (A) (A) (A) (A) (A)
                 (A) (A) (A) (A) (A) (A) (A) (A) (A) (A) (A) (A)
                 (A) (A) (A) (A) (A) (A) (A) (A) (A) (A) (A) (A)
                 (A) (A) (A) (A) (A) (A) (A) (A) (A) (A) (A) (A)
                 (A) (A) (A) (A) (A) (A) (A) (A) (A) (A) (A) (A)
                 (A) (A) (A) (A) (A) (A) (A) (A) (A) (A) (A) (A)
                 (A) (A) (A) (A) (A) (A) (A) (A) (A) (A) (A) (A)
                 (A) (A) (A) (A) (A) (A) (A) (A) (A) (A) (A) (A)
                 (A) (A) (A) (A) (A) (A) (A) (A) (A) (A) (A) (A)
                 (A) (A) (A) (A) (A) (A) (A) (A) (A) (A) (A) (A)
                 (A) (A) (A) (A) (A) (A) (A) (A) (A) (A) (A) (A)
                 (A) (A) (A) (A) (A) (A) (A) (A) (A) (A) (A) (A)
                 (A) (A) (A) (A) (A) (A) (A) (A) (A) (A) (A) (A)
                 (A) (A) (A) (A) (A) (A) (A) (A) (A) (A) (A) (A)
                 (A) (A) (A) (A) (A) (A) (A) (A) (A) (A) (A) (A)
                 (A) (A) (A) (A) (A) (A) (A) (A) (A) (A) (A) (A)
                 (A) (A) (A) (A) (A) (A) (A) (A) (A) (A) (A) (A)
                 (A) (A) (A) (A) (A) (A) (A) (A) (A) (A) (A) (A)
                 (A) (A) (A) (A) (A) (A) (A) (A) (A) (A) (A) (A)
                 (A) (A) (A) (A) (A) (A) (A) (A) (A) (A) (A) (A)
                 (A) (A) (A) (A) (A) (A) (A) (A) (A) (A) (A) (A)
                 (A) (A) (A) (A) (A) (A) (A) (A) (A) (A) (A) (A)
                 (A) (A) (A) (A) (A) (A) (A) (A) (A) (A) (A) (A)
                 (A) (A) (A) (A) (A) (A) (A) (A) (A) (A) (A) (A)
                 (A) (A) (A) (A) (A) (A) (A) (A) (A) (A) (A) (A)
                 (A) (A) (A) (A) (A) (A) (A) (A) (A) (A) (A) (A)
                 (A) (A) (A) (A) (A) (A) (A) (A) (A) (A) (A) (A)
                 (A) (A) (A) (A) (A) (A) (A) (A) (A) (A) (A) (A)
                 (A) (A) (A) (A) (A) (A) (A) (A) (A) (A) (A) (A)
                 (A) (A) (A) (A) (A) (A) (A) (A) (A) (A) (A) (A)
                 (A) (A) (A) (A) (A) (A) (A) (A) (A) (A) (A) (A)
                 (A) (A) (A) (A) (A) (A) (A) (A) (A) (A) (A) (A)
                 (A) (A) (A) (A) (A) (A) (A) (A) (A) (A) (A) (A)
                 (A) (A) (A) (A) (A) (A) (A) (A) (A) (A) (A) (A)
                 (A) (A) (A) (A) (A) (A) (A) (A) (A) (A) (A) (A)
                 (A) (A) (A) (A) (A) (A) (A) (A) (A) (A) (A) (A)
                 (A) (A) (A) (A) (A) (A) (A) (A) (A) (A) (A) (A)
                 (A) (A) (A) (A) (A) (A) (A) (A) (A) (A) (A) (A)
                 (A) (A) (A) (A) (A) (A) (A) (A) (A) (A) (A) (A)
                 (A) (A) (A) (A) (A) (A) (A) (A) (A) (A) (A) (A)
                 (A) (A) (A) (A) (A) (A) (A) (A) (A) (A) (A) (A)
                 (A) (A) (A) (A) (A) (A) (A) (A) (A) (A) (A) (A)
                 (A) (A) (A) (A) (A) (A) (A) (A) (A) (A) (A) (A)
                 (A) (A) (A) (A) (A) (A) (A) (A) (A) (A) (A) (A)
                 (A) (A) (A) (A) (A) (A) (A) (A) (A) (A) (A) (A)
                 (A) (A) (A) (A) (A) (A) (A) (A) (A) (A) (A) (A)
                 (A) (A) (A) (A) (A) (A) (A) (A) (A) (A) (A) (A)
                 (A) (A) (A) (A) (A) (A) (A) (A) (A) (A) (A) (A)
                 (A) (A) (A) (A) (A) (A) (A) (A) (A) (A) (A) (A)
                 (A) (A) (A) (A) (A) (A) (A) (A) (A) (A) (A) (A)
                 (A) (A) (A) (A) (A) (A) (A) (A) (A) (A) (A) (A)
                 (A) (A) (A) (A) (A) (A) (A) (A) (A) (A) (A) (A)
                 (A) (A) (A) (A) (A) (A) (A) (A) (A) (A) (A) (A)
                 (A) (A) (A) (A) (A) (A) (A) (A) (A) (A) (A) (A)
                 (A) (A) (A) (A) (A) (A) (A) (A) (A) (A) (A) (A)
                 (A) (A) (A) (A) (A) (A) (A) (A) (A) (A) (A) (A)
                 (A) (A) (A) (A) (A) (A) (A) (A) (A) (A) (A) (A)
                 (A) (A) (A) (A) (A) (A) (A) (A) (A) (A) (A) (A)
                 (A) (A) (A) (A) (A) (A) (A) (A) (A) (A) (A) (A)
                 (A) (A) (A) (A) (A) (A) (A) (A) (A) (A) (A) (A)
                 (A) (A) (A) (A) (A) (A) (A) (A) (A) (A) (A) (A)
                 (A) (A) (A) (A) (A) (A) (A) (A) (A) (A) (A) (A)
                 (A) (A) (A) (A) (A) (A) (A) (A) (A) (A) (A) (A)
                 (A) (A) (A) (A) (A) (A) (A) (A) (A) (A) (A) (A)
                 (A) (A) (A) (A) (A) (A) (A) (A) (A) (A) (A) (A)
                 (A) (A) (A) (A) (A) (A) (A) (A) (A) (A) (A) (A)
                 (A) (A) (A) (A) (A) (A) (A) (A) (A) (A) (A) (A)
                 (A) (A) (A) (A) (A) (A) (A) (A) (A) (A) (A) (A)
                 (A) (A) (A) (A) (A) (A) (A) (A) (A) (A) (A) (A)
                 (A) (A) (A) (A) (A) (A) (A) (A) (A) (A) (A) (A)
                 (A) (A) (A) (A) (A) (A) (A) (A) (A) (A) (A) (A)
                 (A) (A) (A) (A) (A) (A) (A) (A) (A) (A) (A) (A)
                 (A) (A) (A) (A) (A) (A) (A) (A) (A) (A) (A) (A)
                 (A) (A) (A) (A) (A) (A) (A) (A) (A) (A) (A) (A)
                 (A) (A) (A) (A) (A) (A) (A) (A) (A) (A) (A) (A)
                 (A) (A) (A) (A) (A) (A) (A) (A) (A) (A) (A) (A)
                 (A) (A) (A) (A) (A) (A) (A) (A) (A) (A) (A) (A)
                 (A) (A) (A) (A) (A) (A) (A) (A) (A) (A) (A) (A)
                 (A) (A) (A) (A) (A) (A) (A) (A) (A) (A) (A) (A)
                 (A) (A) (A) (A) (A) (A) (A) (A) (A) (A) (A) (A)
                 (A) (A) (A) (A) (A) (A) (A) (A) (A) (A) (A) (A)
                 (A) (A) (A) (A) (A) (A) (A) (A) (A) (A) (A) (A)
                 (A) (A) (A) (A) (A) (A) (A) (A) (A) (A) (A) (A)
                 (A) (A) (A) (A) (A) (A) (A) (A) (A) (A) (A) (A)
                 (A) (A) (A) (A) (A) (A) (A) (A) (A) (A) (A) (A)
                 (A) (A) (A) (A) (A) (A) (A) (A) (A) (A) (A) (A)
                 (A) (A) (A) (A) (A) (A) (A) (A) (A) (A) (A) (A)
                 (A) (A) (A) (A) (A) (A) (A) (A) (A) (A) (A) (A)
                 (A) (A) (A) (A) (A) (A) (A) (A) (A) (A) (A) (A)
                 (A) (A) (A) (A) (A) (A) (A) (A) (A) (A) (A) (A)
                 (A) (A) (A) (A) (A) (A) (A) (A) (A) (A) (A) (A)
                 (A) (A) (A)
 The electronic state is 1-A.
 Alpha  occ. eigenvalues -- -145.36645 -19.19693 -19.15423 -19.15122 -19.15071
 Alpha  occ. eigenvalues --  -19.13604 -19.12351 -19.11713 -19.11620 -19.11155
 Alpha  occ. eigenvalues --  -19.10955 -19.09736 -19.09631 -19.08699 -19.08527
 Alpha  occ. eigenvalues --  -19.06960 -19.06750 -19.05802 -19.05725 -19.04327
 Alpha  occ. eigenvalues --  -19.03945 -19.03945 -19.03087 -19.01371 -15.42442
 Alpha  occ. eigenvalues --  -14.57930 -14.40042 -14.38217 -14.38074 -14.37261
 Alpha  occ. eigenvalues --  -14.36085 -14.35962 -14.34864 -14.34488 -14.33580
 Alpha  occ. eigenvalues --  -14.32967 -14.32121 -14.30527 -14.29832 -14.29577
 Alpha  occ. eigenvalues --  -12.56062 -12.56015 -12.55991 -10.34735 -10.33213
 Alpha  occ. eigenvalues --  -10.31430 -10.30704 -10.30501 -10.30305 -10.29178
 Alpha  occ. eigenvalues --  -10.28706 -10.28425 -10.27490 -10.27332 -10.27107
 Alpha  occ. eigenvalues --  -10.27049 -10.26891 -10.26803 -10.25941 -10.25671
 Alpha  occ. eigenvalues --  -10.24675 -10.24532 -10.24424 -10.24159 -10.24135
 Alpha  occ. eigenvalues --  -10.23794 -10.23210 -10.23020 -10.22944 -10.22936
 Alpha  occ. eigenvalues --  -10.22921 -10.22511 -10.22315 -10.22018 -10.21983
 Alpha  occ. eigenvalues --  -10.20988 -10.20761 -10.20486 -10.20443 -10.20362
 Alpha  occ. eigenvalues --  -10.19798 -10.19643 -10.19059 -10.19059 -10.18673
 Alpha  occ. eigenvalues --  -10.18401 -10.18285 -10.18186 -10.17939 -10.17910
 Alpha  occ. eigenvalues --  -10.17783 -10.17776 -10.17706 -10.17598 -10.17382
 Alpha  occ. eigenvalues --  -10.17369 -10.13360  -1.79409  -1.13304  -1.08849
 Alpha  occ. eigenvalues --   -1.07986  -1.07308  -1.07098  -1.05928  -1.05591
 Alpha  occ. eigenvalues --   -1.05403  -1.04529  -1.04431  -1.04389  -1.03616
 Alpha  occ. eigenvalues --   -1.03471  -1.02738  -1.02248  -1.02182  -1.01113
 Alpha  occ. eigenvalues --   -1.00179  -1.00014  -0.99417  -0.98773  -0.97816
 Alpha  occ. eigenvalues --   -0.97278  -0.97059  -0.96862  -0.96303  -0.95253
 Alpha  occ. eigenvalues --   -0.94932  -0.93902  -0.93875  -0.92962  -0.91514
 Alpha  occ. eigenvalues --   -0.90272  -0.90223  -0.89411  -0.89312  -0.89201
 Alpha  occ. eigenvalues --   -0.88589  -0.87808  -0.87647  -0.86856  -0.85741
 Alpha  occ. eigenvalues --   -0.83648  -0.83165  -0.82458  -0.81816  -0.80841
 Alpha  occ. eigenvalues --   -0.79359  -0.78912  -0.78488  -0.77932  -0.76292
 Alpha  occ. eigenvalues --   -0.75650  -0.74931  -0.74129  -0.73906  -0.73661
 Alpha  occ. eigenvalues --   -0.73001  -0.72846  -0.72205  -0.71034  -0.70310
 Alpha  occ. eigenvalues --   -0.69647  -0.69518  -0.68943  -0.68497  -0.68218
 Alpha  occ. eigenvalues --   -0.68084  -0.66395  -0.65856  -0.65477  -0.65298
 Alpha  occ. eigenvalues --   -0.64517  -0.63611  -0.63059  -0.62804  -0.62285
 Alpha  occ. eigenvalues --   -0.62129  -0.61853  -0.61779  -0.61372  -0.61196
 Alpha  occ. eigenvalues --   -0.60666  -0.59725  -0.59112  -0.58647  -0.58610
 Alpha  occ. eigenvalues --   -0.58449  -0.58312  -0.58218  -0.57774  -0.56542
 Alpha  occ. eigenvalues --   -0.56407  -0.55945  -0.55751  -0.55105  -0.54804
 Alpha  occ. eigenvalues --   -0.54453  -0.54268  -0.54214  -0.54069  -0.53925
 Alpha  occ. eigenvalues --   -0.53554  -0.53402  -0.52925  -0.52344  -0.52108
 Alpha  occ. eigenvalues --   -0.51845  -0.51623  -0.51124  -0.50997  -0.50711
 Alpha  occ. eigenvalues --   -0.50521  -0.50408  -0.50064  -0.49644  -0.49543
 Alpha  occ. eigenvalues --   -0.49129  -0.49106  -0.48864  -0.48705  -0.48460
 Alpha  occ. eigenvalues --   -0.48144  -0.47692  -0.47591  -0.47443  -0.47259
 Alpha  occ. eigenvalues --   -0.47165  -0.46738  -0.46709  -0.46508  -0.46379
 Alpha  occ. eigenvalues --   -0.46231  -0.45890  -0.45805  -0.45473  -0.45454
 Alpha  occ. eigenvalues --   -0.45220  -0.45017  -0.44847  -0.44549  -0.44486
 Alpha  occ. eigenvalues --   -0.44344  -0.44216  -0.43688  -0.43655  -0.43599
 Alpha  occ. eigenvalues --   -0.43557  -0.43400  -0.43324  -0.43083  -0.42980
 Alpha  occ. eigenvalues --   -0.42921  -0.42899  -0.42779  -0.42310  -0.42047
 Alpha  occ. eigenvalues --   -0.41836  -0.41758  -0.41712  -0.41604  -0.41443
 Alpha  occ. eigenvalues --   -0.41332  -0.41242  -0.41199  -0.40828  -0.40670
 Alpha  occ. eigenvalues --   -0.40623  -0.40525  -0.40307  -0.39873  -0.39864
 Alpha  occ. eigenvalues --   -0.39777  -0.39568  -0.39444  -0.39405  -0.39189
 Alpha  occ. eigenvalues --   -0.39159  -0.38982  -0.38858  -0.38619  -0.38474
 Alpha  occ. eigenvalues --   -0.38333  -0.38282  -0.38100  -0.37966  -0.37872
 Alpha  occ. eigenvalues --   -0.37785  -0.37669  -0.37560  -0.37318  -0.37269
 Alpha  occ. eigenvalues --   -0.37158  -0.36839  -0.36440  -0.36340  -0.36193
 Alpha  occ. eigenvalues --   -0.36131  -0.35969  -0.35757  -0.35437  -0.35236
 Alpha  occ. eigenvalues --   -0.35156  -0.35034  -0.34952  -0.34709  -0.34636
 Alpha  occ. eigenvalues --   -0.33981  -0.33725  -0.33540  -0.33210  -0.32882
 Alpha  occ. eigenvalues --   -0.32754  -0.32359  -0.32266  -0.32127  -0.32046
 Alpha  occ. eigenvalues --   -0.31639  -0.31620  -0.31531  -0.30962  -0.30756
 Alpha  occ. eigenvalues --   -0.30209  -0.30082  -0.29842  -0.29655  -0.29508
 Alpha  occ. eigenvalues --   -0.28896  -0.28118  -0.28090  -0.27756  -0.27713
 Alpha  occ. eigenvalues --   -0.27460  -0.27376  -0.26924  -0.26565  -0.25985
 Alpha  occ. eigenvalues --   -0.25220  -0.25108  -0.24731  -0.24490  -0.24485
 Alpha  occ. eigenvalues --   -0.24397  -0.23716  -0.23630  -0.23468  -0.23425
 Alpha  occ. eigenvalues --   -0.22862  -0.22622  -0.22559  -0.21846  -0.21209
 Alpha  occ. eigenvalues --   -0.21110  -0.20940  -0.20481  -0.20124  -0.19543
 Alpha  occ. eigenvalues --   -0.19304  -0.18393  -0.17672
 Alpha virt. eigenvalues --   -0.09901  -0.05526  -0.03700  -0.03431  -0.02365
 Alpha virt. eigenvalues --   -0.01131  -0.00819  -0.00716  -0.00429  -0.00280
 Alpha virt. eigenvalues --    0.00066   0.00252   0.00418   0.01215   0.01400
 Alpha virt. eigenvalues --    0.01896   0.02072   0.02234   0.02950   0.03024
 Alpha virt. eigenvalues --    0.03248   0.03565   0.03754   0.04215   0.04376
 Alpha virt. eigenvalues --    0.04616   0.04868   0.05046   0.05084   0.05360
 Alpha virt. eigenvalues --    0.05589   0.05716   0.06019   0.06157   0.06624
 Alpha virt. eigenvalues --    0.06820   0.07103   0.07298   0.07620   0.07824
 Alpha virt. eigenvalues --    0.07942   0.08022   0.08323   0.08369   0.08532
 Alpha virt. eigenvalues --    0.08994   0.09142   0.09251   0.09498   0.09642
 Alpha virt. eigenvalues --    0.09839   0.10089   0.10147   0.10263   0.10461
 Alpha virt. eigenvalues --    0.10559   0.10835   0.11046   0.11164   0.11411
 Alpha virt. eigenvalues --    0.11570   0.11704   0.11851   0.11976   0.12277
 Alpha virt. eigenvalues --    0.12400   0.12453   0.12637   0.12768   0.13011
 Alpha virt. eigenvalues --    0.13184   0.13414   0.13640   0.13881   0.13977
 Alpha virt. eigenvalues --    0.14077   0.14242   0.14362   0.14725   0.14855
 Alpha virt. eigenvalues --    0.14960   0.15127   0.15266   0.15450   0.15641
 Alpha virt. eigenvalues --    0.15955   0.16117   0.16273   0.16557   0.16679
 Alpha virt. eigenvalues --    0.16741   0.16908   0.17048   0.17319   0.17484
 Alpha virt. eigenvalues --    0.17692   0.17784   0.18033   0.18353   0.18424
 Alpha virt. eigenvalues --    0.18601   0.18639   0.18677   0.18985   0.19100
 Alpha virt. eigenvalues --    0.19204   0.19450   0.19708   0.20022   0.20146
 Alpha virt. eigenvalues --    0.20380   0.20536   0.20672   0.20764   0.21045
 Alpha virt. eigenvalues --    0.21265   0.21602   0.21718   0.22182   0.22293
 Alpha virt. eigenvalues --    0.22389   0.22507   0.22902   0.23111   0.23186
 Alpha virt. eigenvalues --    0.23353   0.23613   0.23797   0.23905   0.24352
 Alpha virt. eigenvalues --    0.24501   0.24626   0.24714   0.24811   0.25221
 Alpha virt. eigenvalues --    0.25249   0.25437   0.25757   0.25969   0.26172
 Alpha virt. eigenvalues --    0.26586   0.26823   0.26893   0.27180   0.27323
 Alpha virt. eigenvalues --    0.27642   0.28056   0.28268   0.28434   0.28767
 Alpha virt. eigenvalues --    0.28889   0.29042   0.29345   0.29577   0.29776
 Alpha virt. eigenvalues --    0.30065   0.30333   0.30453   0.30925   0.31349
 Alpha virt. eigenvalues --    0.31599   0.31827   0.31909   0.32221   0.32492
 Alpha virt. eigenvalues --    0.32719   0.33009   0.33152   0.33419   0.33780
 Alpha virt. eigenvalues --    0.34231   0.34261   0.34376   0.34641   0.35045
 Alpha virt. eigenvalues --    0.35090   0.35451   0.35657   0.35845   0.36232
 Alpha virt. eigenvalues --    0.36620   0.36786   0.37424   0.37553   0.37740
 Alpha virt. eigenvalues --    0.38240   0.38518   0.38760   0.39006   0.39467
 Alpha virt. eigenvalues --    0.39793   0.39876   0.40176   0.40739   0.40926
 Alpha virt. eigenvalues --    0.41106   0.41263   0.41448   0.41599   0.41622
 Alpha virt. eigenvalues --    0.41754   0.42200   0.42383   0.42595   0.42758
 Alpha virt. eigenvalues --    0.43058   0.43220   0.43442   0.43669   0.43883
 Alpha virt. eigenvalues --    0.44070   0.44272   0.44413   0.44472   0.44671
 Alpha virt. eigenvalues --    0.44777   0.44912   0.45223   0.45508   0.45927
 Alpha virt. eigenvalues --    0.46061   0.46111   0.46452   0.46492   0.46626
 Alpha virt. eigenvalues --    0.46815   0.47059   0.47224   0.47591   0.47744
 Alpha virt. eigenvalues --    0.47878   0.47960   0.48133   0.48404   0.48666
 Alpha virt. eigenvalues --    0.48722   0.48981   0.49344   0.49468   0.49561
 Alpha virt. eigenvalues --    0.49696   0.49870   0.50041   0.50376   0.50514
 Alpha virt. eigenvalues --    0.50892   0.51073   0.51247   0.51452   0.51946
 Alpha virt. eigenvalues --    0.52094   0.52302   0.52558   0.52672   0.52886
 Alpha virt. eigenvalues --    0.53194   0.53292   0.53451   0.53633   0.53936
 Alpha virt. eigenvalues --    0.54071   0.54285   0.54511   0.54574   0.54664
 Alpha virt. eigenvalues --    0.54722   0.55039   0.55207   0.55336   0.55470
 Alpha virt. eigenvalues --    0.55743   0.55842   0.56027   0.56293   0.56415
 Alpha virt. eigenvalues --    0.56605   0.56840   0.56942   0.57325   0.57392
 Alpha virt. eigenvalues --    0.57528   0.57812   0.57898   0.58097   0.58287
 Alpha virt. eigenvalues --    0.58554   0.58657   0.58908   0.59023   0.59076
 Alpha virt. eigenvalues --    0.59280   0.59351   0.59547   0.59607   0.59900
 Alpha virt. eigenvalues --    0.59984   0.60153   0.60265   0.60429   0.60638
 Alpha virt. eigenvalues --    0.60739   0.60786   0.60972   0.61085   0.61158
 Alpha virt. eigenvalues --    0.61432   0.61601   0.61773   0.62022   0.62234
 Alpha virt. eigenvalues --    0.62296   0.62304   0.62364   0.62509   0.62954
 Alpha virt. eigenvalues --    0.63020   0.63050   0.63229   0.63383   0.63482
 Alpha virt. eigenvalues --    0.63543   0.63685   0.63861   0.63908   0.64079
 Alpha virt. eigenvalues --    0.64094   0.64193   0.64452   0.64581   0.64643
 Alpha virt. eigenvalues --    0.64763   0.64814   0.64935   0.65045   0.65105
 Alpha virt. eigenvalues --    0.65275   0.65389   0.65491   0.65528   0.65617
 Alpha virt. eigenvalues --    0.65688   0.65832   0.65952   0.66077   0.66177
 Alpha virt. eigenvalues --    0.66299   0.66380   0.66482   0.66616   0.66627
 Alpha virt. eigenvalues --    0.66690   0.66947   0.67098   0.67192   0.67368
 Alpha virt. eigenvalues --    0.67503   0.67584   0.67712   0.67904   0.68001
 Alpha virt. eigenvalues --    0.68162   0.68280   0.68617   0.68646   0.68723
 Alpha virt. eigenvalues --    0.68802   0.69001   0.69186   0.69338   0.69453
 Alpha virt. eigenvalues --    0.69597   0.69636   0.69812   0.69970   0.70124
 Alpha virt. eigenvalues --    0.70234   0.70493   0.70595   0.70721   0.70878
 Alpha virt. eigenvalues --    0.70974   0.71078   0.71234   0.71297   0.71429
 Alpha virt. eigenvalues --    0.71569   0.71688   0.71906   0.72047   0.72240
 Alpha virt. eigenvalues --    0.72535   0.72693   0.72807   0.73003   0.73330
 Alpha virt. eigenvalues --    0.73443   0.73669   0.73764   0.73813   0.74068
 Alpha virt. eigenvalues --    0.74238   0.74496   0.74576   0.74825   0.74938
 Alpha virt. eigenvalues --    0.75219   0.75340   0.75550   0.75687   0.75892
 Alpha virt. eigenvalues --    0.76225   0.76268   0.76568   0.76601   0.77013
 Alpha virt. eigenvalues --    0.77120   0.77270   0.77847   0.78043   0.78149
 Alpha virt. eigenvalues --    0.78436   0.78566   0.78839   0.79159   0.79454
 Alpha virt. eigenvalues --    0.79711   0.79757   0.79931   0.80169   0.80380
 Alpha virt. eigenvalues --    0.80785   0.80932   0.81004   0.81434   0.81598
 Alpha virt. eigenvalues --    0.81851   0.82236   0.82350   0.82649   0.82894
 Alpha virt. eigenvalues --    0.83169   0.83262   0.83735   0.84089   0.84281
 Alpha virt. eigenvalues --    0.84378   0.84493   0.84926   0.85328   0.85528
 Alpha virt. eigenvalues --    0.85676   0.86078   0.86281   0.86692   0.86979
 Alpha virt. eigenvalues --    0.87215   0.87381   0.87643   0.87776   0.88249
 Alpha virt. eigenvalues --    0.88360   0.88638   0.88908   0.89327   0.89521
 Alpha virt. eigenvalues --    0.89963   0.90441   0.90636   0.90697   0.91007
 Alpha virt. eigenvalues --    0.91253   0.91479   0.91704   0.92141   0.92233
 Alpha virt. eigenvalues --    0.92725   0.92979   0.93234   0.93713   0.94139
 Alpha virt. eigenvalues --    0.94375   0.94721   0.95070   0.95252   0.95455
 Alpha virt. eigenvalues --    0.95754   0.96138   0.96184   0.96396   0.96629
 Alpha virt. eigenvalues --    0.97027   0.97344   0.97719   0.97920   0.98157
 Alpha virt. eigenvalues --    0.98202   0.98535   0.98745   0.99291   0.99426
 Alpha virt. eigenvalues --    0.99576   0.99885   1.00203   1.00691   1.00811
 Alpha virt. eigenvalues --    1.01359   1.01488   1.01694   1.01911   1.02526
 Alpha virt. eigenvalues --    1.02632   1.03193   1.03424   1.03493   1.03863
 Alpha virt. eigenvalues --    1.04009   1.04533   1.04731   1.05341   1.05574
 Alpha virt. eigenvalues --    1.05709   1.05862   1.06174   1.06649   1.06978
 Alpha virt. eigenvalues --    1.07305   1.07450   1.07690   1.07805   1.08110
 Alpha virt. eigenvalues --    1.08454   1.08835   1.09195   1.09263   1.09453
 Alpha virt. eigenvalues --    1.10038   1.10266   1.10565   1.11013   1.11064
 Alpha virt. eigenvalues --    1.11415   1.11624   1.11862   1.12058   1.12658
 Alpha virt. eigenvalues --    1.12706   1.12936   1.13264   1.13336   1.13681
 Alpha virt. eigenvalues --    1.13786   1.14048   1.14107   1.14553   1.14831
 Alpha virt. eigenvalues --    1.15279   1.15662   1.15965   1.16114   1.16214
 Alpha virt. eigenvalues --    1.16566   1.16831   1.16933   1.17109   1.17529
 Alpha virt. eigenvalues --    1.18115   1.18244   1.18588   1.18720   1.18801
 Alpha virt. eigenvalues --    1.19199   1.19445   1.19750   1.19901   1.20242
 Alpha virt. eigenvalues --    1.20344   1.20659   1.20989   1.21260   1.21439
 Alpha virt. eigenvalues --    1.21497   1.21816   1.22149   1.22510   1.22621
 Alpha virt. eigenvalues --    1.23131   1.23409   1.23488   1.23927   1.24261
 Alpha virt. eigenvalues --    1.24571   1.24905   1.25175   1.25262   1.25809
 Alpha virt. eigenvalues --    1.26052   1.26255   1.26563   1.26727   1.26865
 Alpha virt. eigenvalues --    1.26997   1.27145   1.27506   1.27948   1.28250
 Alpha virt. eigenvalues --    1.28434   1.28560   1.28975   1.29125   1.29406
 Alpha virt. eigenvalues --    1.29839   1.29854   1.30436   1.30760   1.30889
 Alpha virt. eigenvalues --    1.31228   1.31481   1.31597   1.31807   1.32014
 Alpha virt. eigenvalues --    1.32298   1.32649   1.32787   1.33363   1.33853
 Alpha virt. eigenvalues --    1.33991   1.34518   1.34605   1.35252   1.35319
 Alpha virt. eigenvalues --    1.35515   1.35970   1.36028   1.36162   1.36540
 Alpha virt. eigenvalues --    1.36949   1.37139   1.37376   1.37748   1.37849
 Alpha virt. eigenvalues --    1.38329   1.38490   1.38909   1.39204   1.39473
 Alpha virt. eigenvalues --    1.39626   1.39832   1.40275   1.40790   1.41000
 Alpha virt. eigenvalues --    1.41277   1.41894   1.42121   1.42178   1.42411
 Alpha virt. eigenvalues --    1.42651   1.42936   1.43310   1.43425   1.43574
 Alpha virt. eigenvalues --    1.43583   1.43902   1.44055   1.44447   1.44743
 Alpha virt. eigenvalues --    1.44951   1.45333   1.46059   1.46535   1.46763
 Alpha virt. eigenvalues --    1.46858   1.46975   1.47400   1.47459   1.47832
 Alpha virt. eigenvalues --    1.48131   1.48300   1.48418   1.48577   1.48972
 Alpha virt. eigenvalues --    1.49101   1.49382   1.49782   1.50312   1.50393
 Alpha virt. eigenvalues --    1.51412   1.51539   1.51742   1.51895   1.52418
 Alpha virt. eigenvalues --    1.52704   1.53082   1.53480   1.53684   1.53989
 Alpha virt. eigenvalues --    1.54045   1.54351   1.54512   1.54901   1.55099
 Alpha virt. eigenvalues --    1.55529   1.55953   1.56375   1.56798   1.56930
 Alpha virt. eigenvalues --    1.57023   1.57241   1.57622   1.57706   1.58246
 Alpha virt. eigenvalues --    1.59122   1.59330   1.59507   1.59837   1.60147
 Alpha virt. eigenvalues --    1.60255   1.60751   1.60841   1.61247   1.61554
 Alpha virt. eigenvalues --    1.61662   1.62400   1.62609   1.62932   1.63038
 Alpha virt. eigenvalues --    1.63269   1.63586   1.63928   1.64341   1.64459
 Alpha virt. eigenvalues --    1.64528   1.64874   1.65117   1.65265   1.65921
 Alpha virt. eigenvalues --    1.66224   1.66664   1.66823   1.67029   1.67191
 Alpha virt. eigenvalues --    1.67526   1.67805   1.68227   1.68321   1.69116
 Alpha virt. eigenvalues --    1.69273   1.69516   1.69559   1.69890   1.70586
 Alpha virt. eigenvalues --    1.70647   1.70815   1.71040   1.71412   1.71763
 Alpha virt. eigenvalues --    1.71940   1.72273   1.72382   1.72654   1.72759
 Alpha virt. eigenvalues --    1.73089   1.73250   1.73763   1.73831   1.74017
 Alpha virt. eigenvalues --    1.74284   1.74485   1.74521   1.74603   1.74777
 Alpha virt. eigenvalues --    1.75028   1.75275   1.75303   1.75486   1.75552
 Alpha virt. eigenvalues --    1.75672   1.75824   1.75973   1.76194   1.76654
 Alpha virt. eigenvalues --    1.76679   1.76767   1.77191   1.77281   1.77495
 Alpha virt. eigenvalues --    1.77638   1.77803   1.77831   1.78063   1.78259
 Alpha virt. eigenvalues --    1.78577   1.78755   1.78965   1.79104   1.79406
 Alpha virt. eigenvalues --    1.79467   1.79792   1.79972   1.80252   1.80295
 Alpha virt. eigenvalues --    1.80350   1.80801   1.80911   1.81173   1.81362
 Alpha virt. eigenvalues --    1.81411   1.81519   1.81678   1.81900   1.82061
 Alpha virt. eigenvalues --    1.82124   1.82248   1.82468   1.82702   1.82817
 Alpha virt. eigenvalues --    1.83160   1.83429   1.83564   1.83756   1.84041
 Alpha virt. eigenvalues --    1.84239   1.84439   1.84679   1.84721   1.84923
 Alpha virt. eigenvalues --    1.85027   1.85234   1.85541   1.85794   1.86014
 Alpha virt. eigenvalues --    1.86218   1.86529   1.86788   1.87034   1.87387
 Alpha virt. eigenvalues --    1.87458   1.87510   1.87679   1.87893   1.88058
 Alpha virt. eigenvalues --    1.88371   1.88481   1.88551   1.88764   1.89138
 Alpha virt. eigenvalues --    1.89259   1.89435   1.89659   1.89822   1.90085
 Alpha virt. eigenvalues --    1.90317   1.90464   1.90764   1.90979   1.91053
 Alpha virt. eigenvalues --    1.91137   1.91458   1.91597   1.91992   1.92163
 Alpha virt. eigenvalues --    1.92318   1.92454   1.92798   1.92897   1.93041
 Alpha virt. eigenvalues --    1.93262   1.93309   1.93368   1.93863   1.93929
 Alpha virt. eigenvalues --    1.94238   1.94340   1.94617   1.94756   1.94944
 Alpha virt. eigenvalues --    1.95287   1.95380   1.95489   1.95711   1.95856
 Alpha virt. eigenvalues --    1.96225   1.96388   1.96592   1.96720   1.96801
 Alpha virt. eigenvalues --    1.96928   1.97137   1.97436   1.97473   1.97799
 Alpha virt. eigenvalues --    1.98014   1.98305   1.98519   1.98737   1.99110
 Alpha virt. eigenvalues --    1.99297   1.99772   1.99910   1.99995   2.00162
 Alpha virt. eigenvalues --    2.00662   2.00999   2.01040   2.01282   2.01391
 Alpha virt. eigenvalues --    2.01651   2.02053   2.02521   2.02792   2.02992
 Alpha virt. eigenvalues --    2.03227   2.03390   2.03595   2.04107   2.04444
 Alpha virt. eigenvalues --    2.04615   2.04899   2.04958   2.05227   2.05549
 Alpha virt. eigenvalues --    2.05887   2.06055   2.06342   2.06414   2.06782
 Alpha virt. eigenvalues --    2.07057   2.07229   2.07607   2.07763   2.08069
 Alpha virt. eigenvalues --    2.08567   2.09198   2.09349   2.09615   2.09727
 Alpha virt. eigenvalues --    2.10040   2.10193   2.10357   2.11030   2.11107
 Alpha virt. eigenvalues --    2.11339   2.11846   2.12005   2.12182   2.12518
 Alpha virt. eigenvalues --    2.13005   2.13266   2.13451   2.13564   2.13738
 Alpha virt. eigenvalues --    2.14082   2.14258   2.14446   2.14918   2.15005
 Alpha virt. eigenvalues --    2.15150   2.15433   2.15583   2.15902   2.16089
 Alpha virt. eigenvalues --    2.16453   2.16744   2.17175   2.17679   2.18265
 Alpha virt. eigenvalues --    2.18383   2.18597   2.18797   2.19103   2.19336
 Alpha virt. eigenvalues --    2.19890   2.19904   2.20108   2.20730   2.20847
 Alpha virt. eigenvalues --    2.21069   2.21484   2.21932   2.22165   2.22528
 Alpha virt. eigenvalues --    2.22639   2.22703   2.23291   2.23435   2.23533
 Alpha virt. eigenvalues --    2.23681   2.24120   2.24698   2.25055   2.25367
 Alpha virt. eigenvalues --    2.25642   2.25926   2.26617   2.26993   2.27333
 Alpha virt. eigenvalues --    2.27676   2.27810   2.27943   2.28442   2.28529
 Alpha virt. eigenvalues --    2.29217   2.29350   2.29868   2.30058   2.30158
 Alpha virt. eigenvalues --    2.30676   2.30771   2.31118   2.31523   2.31729
 Alpha virt. eigenvalues --    2.32207   2.32263   2.32661   2.33229   2.33461
 Alpha virt. eigenvalues --    2.33896   2.34435   2.34820   2.35081   2.35882
 Alpha virt. eigenvalues --    2.35939   2.36064   2.36329   2.36613   2.36812
 Alpha virt. eigenvalues --    2.37379   2.37476   2.37611   2.37816   2.38197
 Alpha virt. eigenvalues --    2.38320   2.38752   2.38973   2.39322   2.39639
 Alpha virt. eigenvalues --    2.40011   2.40276   2.40612   2.40931   2.41274
 Alpha virt. eigenvalues --    2.41576   2.41911   2.42265   2.42312   2.42838
 Alpha virt. eigenvalues --    2.42967   2.43667   2.43689   2.44508   2.44836
 Alpha virt. eigenvalues --    2.44935   2.45101   2.45435   2.46038   2.46936
 Alpha virt. eigenvalues --    2.47251   2.47600   2.48331   2.48546   2.48651
 Alpha virt. eigenvalues --    2.48913   2.49248   2.49606   2.49741   2.50123
 Alpha virt. eigenvalues --    2.50227   2.50919   2.51197   2.51643   2.51888
 Alpha virt. eigenvalues --    2.52045   2.52373   2.52925   2.53559   2.53622
 Alpha virt. eigenvalues --    2.53848   2.54190   2.54297   2.54516   2.55128
 Alpha virt. eigenvalues --    2.55764   2.56263   2.56596   2.56988   2.57222
 Alpha virt. eigenvalues --    2.57531   2.58224   2.58473   2.58630   2.59194
 Alpha virt. eigenvalues --    2.59318   2.59534   2.59870   2.60269   2.60442
 Alpha virt. eigenvalues --    2.60762   2.60908   2.61229   2.61881   2.61979
 Alpha virt. eigenvalues --    2.62290   2.62550   2.62933   2.63239   2.63355
 Alpha virt. eigenvalues --    2.63407   2.63698   2.63982   2.64183   2.64651
 Alpha virt. eigenvalues --    2.64806   2.65056   2.65278   2.65852   2.66031
 Alpha virt. eigenvalues --    2.66278   2.66670   2.66884   2.67162   2.67400
 Alpha virt. eigenvalues --    2.67603   2.67714   2.67925   2.68128   2.68209
 Alpha virt. eigenvalues --    2.68670   2.68878   2.68996   2.69223   2.69453
 Alpha virt. eigenvalues --    2.70002   2.70352   2.70430   2.70671   2.71149
 Alpha virt. eigenvalues --    2.71637   2.71808   2.72231   2.72535   2.72683
 Alpha virt. eigenvalues --    2.73464   2.73852   2.73952   2.74089   2.74209
 Alpha virt. eigenvalues --    2.74336   2.74732   2.74912   2.75276   2.75421
 Alpha virt. eigenvalues --    2.75580   2.75783   2.76037   2.76083   2.76612
 Alpha virt. eigenvalues --    2.76740   2.76817   2.76965   2.77255   2.77552
 Alpha virt. eigenvalues --    2.77644   2.78192   2.78862   2.79236   2.79359
 Alpha virt. eigenvalues --    2.79734   2.80058   2.80520   2.81036   2.81275
 Alpha virt. eigenvalues --    2.81831   2.81933   2.82120   2.82475   2.82763
 Alpha virt. eigenvalues --    2.83081   2.83343   2.83507   2.83917   2.84089
 Alpha virt. eigenvalues --    2.84424   2.84600   2.84925   2.85237   2.85676
 Alpha virt. eigenvalues --    2.86031   2.86201   2.86437   2.86638   2.87075
 Alpha virt. eigenvalues --    2.87775   2.88008   2.88111   2.88458   2.88695
 Alpha virt. eigenvalues --    2.88766   2.88938   2.89306   2.89495   2.90072
 Alpha virt. eigenvalues --    2.90600   2.90891   2.91263   2.91402   2.91627
 Alpha virt. eigenvalues --    2.92426   2.92496   2.92833   2.93085   2.93276
 Alpha virt. eigenvalues --    2.93559   2.93995   2.94159   2.94212   2.94502
 Alpha virt. eigenvalues --    2.94521   2.94771   2.95497   2.96004   2.96315
 Alpha virt. eigenvalues --    2.96470   2.96689   2.96901   2.97388   2.97813
 Alpha virt. eigenvalues --    2.98005   2.98395   2.98698   2.98841   2.99000
 Alpha virt. eigenvalues --    2.99272   3.00110   3.00575   3.00708   3.00757
 Alpha virt. eigenvalues --    3.01092   3.01440   3.01649   3.02225   3.02313
 Alpha virt. eigenvalues --    3.02850   3.02883   3.02986   3.03763   3.03803
 Alpha virt. eigenvalues --    3.04376   3.04468   3.04610   3.05549   3.05760
 Alpha virt. eigenvalues --    3.06063   3.07119   3.07987   3.08423   3.09044
 Alpha virt. eigenvalues --    3.09109   3.09825   3.09909   3.10749   3.10984
 Alpha virt. eigenvalues --    3.11856   3.12936   3.13321   3.13886   3.14237
 Alpha virt. eigenvalues --    3.14336   3.14858   3.15431   3.16040   3.16447
 Alpha virt. eigenvalues --    3.16678   3.16784   3.17155   3.17378   3.17587
 Alpha virt. eigenvalues --    3.17897   3.18035   3.18296   3.18467   3.18929
 Alpha virt. eigenvalues --    3.19355   3.19395   3.19862   3.20517   3.21146
 Alpha virt. eigenvalues --    3.21897   3.22577   3.22646   3.22775   3.23271
 Alpha virt. eigenvalues --    3.23888   3.24124   3.24445   3.24790   3.25153
 Alpha virt. eigenvalues --    3.25531   3.26231   3.27039   3.27711   3.28101
 Alpha virt. eigenvalues --    3.28304   3.28880   3.29017   3.29910   3.30081
 Alpha virt. eigenvalues --    3.30166   3.31091   3.32184   3.32881   3.34017
 Alpha virt. eigenvalues --    3.35549   3.36580   3.36828   3.39084   3.39348
 Alpha virt. eigenvalues --    3.39663   3.39715   3.45243   3.48451   3.49359
 Alpha virt. eigenvalues --    3.50236   3.50492   3.51546   3.52105   3.54227
 Alpha virt. eigenvalues --    3.56360   3.56669   3.57303   3.58184   3.59555
 Alpha virt. eigenvalues --    3.60804   3.61133   3.62839   3.64136   3.65496
 Alpha virt. eigenvalues --    3.65523   3.66722   3.66868   3.67273   3.67877
 Alpha virt. eigenvalues --    3.68689   3.68918   3.69509   3.69738   3.70217
 Alpha virt. eigenvalues --    3.70395   3.70622   3.71218   3.71684   3.72006
 Alpha virt. eigenvalues --    3.72537   3.73476   3.74454   3.74811   3.77117
 Alpha virt. eigenvalues --    3.78241   3.78994   3.79417   3.84742
          Condensed to atoms (all electrons):
 Mulliken charges:
               1
     1  C    0.063254
     2  C    0.024230
     3  O   -0.308630
     4  H    0.053670
     5  H   -0.009210
     6  H    0.013340
     7  N   -0.119167
     8  C    0.141326
     9  C    0.060721
    10  O   -0.282783
    11  C    0.051759
    12  C    0.138771
    13  O   -0.476809
    14  O   -0.363538
    15  H    0.121874
    16  H   -0.006529
    17  H    0.000590
    18  H    0.017095
    19  N   -0.114253
    20  C    0.150873
    21  C    0.068069
    22  O   -0.294645
    23  C   -0.003286
    24  C   -0.059501
    25  C   -0.014656
    26  C    0.038241
    27  N    0.083198
    28  H    0.142370
    29  H   -0.006075
    30  H    0.022473
    31  H    0.013056
    32  H    0.010183
    33  H    0.015405
    34  H    0.045019
    35  H    0.062289
    36  H    0.064695
    37  H    0.079635
    38  H    0.188026
    39  H    0.206338
    40  H    0.185132
    41  N   -0.137328
    42  C    0.156618
    43  C    0.045796
    44  O   -0.292975
    45  C    0.062220
    46  C    0.106902
    47  O   -0.365225
    48  O   -0.481688
    49  H    0.137082
    50  H    0.017759
    51  H    0.003250
    52  H    0.022206
    53  N   -0.177284
    54  C    0.265651
    55  C    0.014804
    56  O   -0.290827
    57  H    0.129976
    58  H    0.009753
    59  H    0.025878
    60  N   -0.160300
    61  C    0.169200
    62  C    0.041509
    63  O   -0.301833
    64  C    0.079570
    65  C    0.075447
    66  N   -0.046796
    67  O   -0.347188
    68  H    0.153860
    69  H    0.035835
    70  H    0.075457
    71  H   -0.009907
    72  H    0.123508
    73  H    0.116907
    74  N   -0.175001
    75  C    0.233886
    76  C    0.056527
    77  O   -0.292204
    78  H    0.145718
    79  H    0.020975
    80  H    0.026007
    81  N   -0.113420
    82  C    0.091712
    83  C    0.154892
    84  O   -0.347699
    85  C    0.135239
    86  C   -0.069222
    87  C    0.043581
    88  C    0.017869
    89  C   -0.006059
    90  C   -0.022816
    91  C    0.177493
    92  O   -0.210844
    93  H    0.137090
    94  H    0.000302
    95  H   -0.001166
    96  H    0.002265
    97  H   -0.015087
    98  H   -0.081072
    99  H   -0.027892
   100  H   -0.091792
   101  H    0.176148
   102  N   -0.128018
   103  C    0.120254
   104  C    0.062245
   105  O   -0.277178
   106  C   -0.054366
   107  C    0.033883
   108  C    0.058069
   109  C   -0.045655
   110  H    0.144187
   111  H   -0.005885
   112  H   -0.012680
   113  H   -0.006922
   114  H   -0.027910
   115  H   -0.004403
   116  H   -0.001917
   117  H    0.026030
   118  H    0.051336
   119  H    0.009855
   120  H    0.026830
   121  N   -0.147130
   122  C    0.110471
   123  C    0.124692
   124  O   -0.284906
   125  C    0.231790
   126  O   -0.334500
   127  H    0.157577
   128  H    0.031979
   129  H   -0.044618
   130  H   -0.004947
   131  H    0.163788
   132  N   -0.145036
   133  C    0.077502
   134  C    0.077988
   135  O   -0.263439
   136  C    0.038773
   137  H    0.113979
   138  H    0.032538
   139  H   -0.000010
   140  H    0.052709
   141  H    0.024936
   142  N   -0.152959
   143  C    0.077261
   144  C    0.070430
   145  O   -0.285461
   146  C    0.029148
   147  H    0.106515
   148  H    0.032809
   149  H    0.008065
   150  H    0.041694
   151  H    0.030449
   152  N   -0.144334
   153  C    0.183682
   154  C    0.092941
   155  O   -0.296311
   156  C   -0.087238
   157  C    0.133733
   158  C    0.157394
   159  O   -0.404156
   160  O   -0.438801
   161  H    0.118066
   162  H   -0.038029
   163  H    0.027301
   164  H    0.003012
   165  H    0.003467
   166  H   -0.033228
   167  N   -0.174647
   168  C    0.126680
   169  H    0.008592
   170  H    0.033476
   171  H    0.027683
   172  H    0.132974
   173  Ca   1.300229
   174  O   -0.286311
   175  H    0.191302
   176  H    0.196860
 Sum of Mulliken charges =  -0.00000
 Mulliken charges with hydrogens summed into heavy atoms:
               1
     1  C    0.121055
     2  C    0.024230
     3  O   -0.308630
     7  N    0.002707
     8  C    0.134797
     9  C    0.060721
    10  O   -0.282783
    11  C    0.069444
    12  C    0.138771
    13  O   -0.476809
    14  O   -0.363538
    19  N    0.028117
    20  C    0.144798
    21  C    0.068069
    22  O   -0.294645
    23  C    0.032242
    24  C   -0.033914
    25  C    0.092653
    26  C    0.182572
    27  N    0.662694
    41  N   -0.000246
    42  C    0.174377
    43  C    0.045796
    44  O   -0.292975
    45  C    0.087676
    46  C    0.106902
    47  O   -0.365225
    48  O   -0.481688
    53  N   -0.047307
    54  C    0.301282
    55  C    0.014804
    56  O   -0.290827
    60  N   -0.006440
    61  C    0.205035
    62  C    0.041509
    63  O   -0.301833
    64  C    0.145119
    65  C    0.075447
    66  N    0.193620
    67  O   -0.347188
    74  N   -0.029283
    75  C    0.280868
    76  C    0.056527
    77  O   -0.292204
    81  N    0.023671
    82  C    0.092014
    83  C    0.154892
    84  O   -0.347699
    85  C    0.136338
    86  C   -0.069222
    87  C    0.028493
    88  C   -0.063203
    89  C   -0.033951
    90  C   -0.114608
    91  C    0.177493
    92  O   -0.034696
   102  N    0.016170
   103  C    0.114369
   104  C    0.062245
   105  O   -0.277178
   106  C   -0.067046
   107  C   -0.000949
   108  C    0.077779
   109  C    0.042366
   121  N    0.010447
   122  C    0.142450
   123  C    0.124692
   124  O   -0.284906
   125  C    0.182225
   126  O   -0.170712
   132  N   -0.031058
   133  C    0.110039
   134  C    0.077988
   135  O   -0.263439
   136  C    0.116409
   142  N   -0.046444
   143  C    0.110070
   144  C    0.070430
   145  O   -0.285461
   146  C    0.109357
   152  N   -0.026268
   153  C    0.145653
   154  C    0.092941
   155  O   -0.296311
   156  C   -0.056925
   157  C    0.103972
   158  C    0.157394
   159  O   -0.404156
   160  O   -0.438801
   167  N   -0.041673
   168  C    0.196431
   173  Ca   1.300229
   174  O    0.101851
 DipInt: DoE/N= T F RetVal/Mat= T F Init=T NMatP=  1 IDeriv=0 Min/MaxMlt=  0  4
 Entering OneElI...
 OneElI was handed  1333951383 working-precision words.
 Multipole integrals L=0 to 4 MinM= 0 MaxM= 0.
 Requested accuracy = 0.1000D-12
 ShPair: Thresh= 1.00D-13 NBox=     0 BxSize= 0.00D+00 RnKept= 2.55D+01
         NSMCal=               327645 NSMKep=              164734
 PrmmSu-InSpLW:  IPartL=    0 NPrtUS=    1 NPrtUL=    1 DoSpLW=F IThBeg=    0 IThEnd=    0 NThAct=    1.
 PrsmSu:  NPrtUS=   1 ThrOK=F IAlg=1 NPAlg=1 LenDen=           0 ISkipM=0 DoSpLW=F IThBeg=    0 IThEnd=    0.
 Prism:   IPart=     0 DynPar=F LinDyn=F Incr=         512.
 PRISM was handed  1323713945 working-precision words and164734 shell-pairs
 IPart=  0 NShTot=      164734 NBatch=         378 AvBLen=       435.8
 PrsmSu-ThDecC:  IPartSL=    0    0 NPrtUSL=    1    1 IThBeg=    0 IThEnd=    0 CPU=   -1 GPU=   -1 NThAct=    1.
 PrSmSu:  NxtVal=            513.
 Electronic moments (au):
       -716.00000000         12.12580025          0.70957992          1.06500491
     -50813.80416619     -28550.03978320     -12424.61318659        103.77685689
         10.59521638         88.03163852     -75132.06328741     -25859.66654101
      -9806.19031625      11593.63593720      81555.31328170      42673.32408757
      -3724.39383995      -5724.53618648       5026.30173903     -31567.76524282
   -6990470.69101893   -2410934.76679084    -527596.74523670     164263.58281857
     358173.23281989    -481046.45714066       -547.16550725     -54170.12056365
     -21786.21608358   -1935287.78363899    -728944.98012535    -396269.71937743
    -156803.74899365     -33674.56649671      24732.09727495
 Electronic spatial extent (au):  <R**2>=          91788.4571
 DipInt: DoE/N= F T RetVal/Mat= T F Init=T NMatP=  1 IDeriv=0 Min/MaxMlt=  0  4
 Nuclear    moments (au):
        716.00000000         -0.00000000         -0.00000000          0.00000000
      50335.97792819      28215.66815021      12025.61369729          0.00000000
          0.00000000         -0.00000000      75997.12278311      26667.49893113
       9991.79895721      -9902.44271720     -81212.17563708     -42956.62529226
       4014.96988628       5596.15577402      -4756.06474270      31710.23994819
    6789919.75879853    2322349.99227460     484144.82687414    -153613.34464814
    -355992.11566155     496445.82720677      10141.68579839      55039.88766377
      26083.90159713    1899170.95087575     695238.09875550     375332.26387398
     163707.79504792      36619.80451962     -23046.59389250
 Total      moments (au):
         -0.00000000         12.12580025          0.70957992          1.06500491
       -477.82623800       -334.37163299       -398.99948930        103.77685689
         10.59521638         88.03163852        865.05949571        807.83239012
        185.60864096       1691.19322000        343.13764462       -283.30120469
        290.57604633       -128.38041247        270.23699633        142.47470537
    -200550.93222041     -88584.77451624     -43451.91836256      10650.23817043
       2181.11715834      15399.37006611       9594.52029114        869.76710012
       4297.68551355     -36116.83276324     -33706.88136985     -20937.45550345
       6904.04605427       2945.23802292       1685.50338246
 Traceless Quadrup. (au):
        -74.09378457         69.36082044          4.73296413        103.77685689
         10.59521638         88.03163852
 Charge=             -0.0000 electrons
 Dipole moment (field-independent basis, Debye):
    X=             30.8207    Y=              1.8036    Z=              2.7070  Tot=             30.9919
 Quadrupole moment (field-independent basis, Debye-Ang):
   XX=           -642.6927   YY=           -449.7413   ZZ=           -536.6680
   XY=            139.5834   XZ=             14.2509   YZ=            118.4056
 Traceless Quadrupole moment (field-independent basis, Debye-Ang):
   XX=            -99.6587   YY=             93.2927   ZZ=              6.3660
   XY=            139.5834   XZ=             14.2509   YZ=            118.4056
 Octapole moment (field-independent basis, Debye-Ang**2):
  XXX=            615.7160  YYY=            574.9840  ZZZ=            132.1091  XYY=           1203.7262
  XXY=            244.2322  XXZ=           -201.6429  XZZ=            206.8208  YZZ=            -91.3762
  YYZ=            192.3443  XYZ=            101.4080
 Hexadecapole moment (field-independent basis, Debye-Ang**3):
 XXXX=         -75537.0978 YYYY=         -33365.2739 ZZZZ=         -16366.0760 XXXY=           4011.3904
 XXXZ=            821.5133 YYYX=           5800.1412 YYYZ=           3613.7564 ZZZX=            327.5960
 ZZZY=           1618.7144 XXYY=         -13603.3311 XXZZ=         -12695.6278 YYZZ=          -7886.0497
 XXYZ=           2600.3948 YYXZ=           1109.3179 ZZXY=            634.8414
 N-N= 2.192207661587D+04 E-N=-5.632220572337D+04  KE= 5.290557958029D+03
 Leave Link  601 at Sat Sep 14 23:26:27 2019, MaxMem=  1342177280 cpu:              44.4 elap:               1.2
 FitSet:  NAtFit=   176 NAtPot=   176 NAtFrz=     0 MDM=   180 TotChg=   0.00000
 Merz-Kollman atomic radii used.
 Read replacement radii for each type of atom:
 Rad(20) =   1.700000000000D+00
 Atom Element Radius
    1     6    1.50
    2     6    1.50
    3     8    1.40
    4     1    1.20
    5     1    1.20
    6     1    1.20
    7     7    1.50
    8     6    1.50
    9     6    1.50
   10     8    1.40
   11     6    1.50
   12     6    1.50
   13     8    1.40
   14     8    1.40
   15     1    1.20
   16     1    1.20
   17     1    1.20
   18     1    1.20
   19     7    1.50
   20     6    1.50
   21     6    1.50
   22     8    1.40
   23     6    1.50
   24     6    1.50
   25     6    1.50
   26     6    1.50
   27     7    1.50
   28     1    1.20
   29     1    1.20
   30     1    1.20
   31     1    1.20
   32     1    1.20
   33     1    1.20
   34     1    1.20
   35     1    1.20
   36     1    1.20
   37     1    1.20
   38     1    1.20
   39     1    1.20
   40     1    1.20
   41     7    1.50
   42     6    1.50
   43     6    1.50
   44     8    1.40
   45     6    1.50
   46     6    1.50
   47     8    1.40
   48     8    1.40
   49     1    1.20
   50     1    1.20
   51     1    1.20
   52     1    1.20
   53     7    1.50
   54     6    1.50
   55     6    1.50
   56     8    1.40
   57     1    1.20
   58     1    1.20
   59     1    1.20
   60     7    1.50
   61     6    1.50
   62     6    1.50
   63     8    1.40
   64     6    1.50
   65     6    1.50
   66     7    1.50
   67     8    1.40
   68     1    1.20
   69     1    1.20
   70     1    1.20
   71     1    1.20
   72     1    1.20
   73     1    1.20
   74     7    1.50
   75     6    1.50
   76     6    1.50
   77     8    1.40
   78     1    1.20
   79     1    1.20
   80     1    1.20
   81     7    1.50
   82     6    1.50
   83     6    1.50
   84     8    1.40
   85     6    1.50
   86     6    1.50
   87     6    1.50
   88     6    1.50
   89     6    1.50
   90     6    1.50
   91     6    1.50
   92     8    1.40
   93     1    1.20
   94     1    1.20
   95     1    1.20
   96     1    1.20
   97     1    1.20
   98     1    1.20
   99     1    1.20
  100     1    1.20
  101     1    1.20
  102     7    1.50
  103     6    1.50
  104     6    1.50
  105     8    1.40
  106     6    1.50
  107     6    1.50
  108     6    1.50
  109     6    1.50
  110     1    1.20
  111     1    1.20
  112     1    1.20
  113     1    1.20
  114     1    1.20
  115     1    1.20
  116     1    1.20
  117     1    1.20
  118     1    1.20
  119     1    1.20
  120     1    1.20
  121     7    1.50
  122     6    1.50
  123     6    1.50
  124     8    1.40
  125     6    1.50
  126     8    1.40
  127     1    1.20
  128     1    1.20
  129     1    1.20
  130     1    1.20
  131     1    1.20
  132     7    1.50
  133     6    1.50
  134     6    1.50
  135     8    1.40
  136     6    1.50
  137     1    1.20
  138     1    1.20
  139     1    1.20
  140     1    1.20
  141     1    1.20
  142     7    1.50
  143     6    1.50
  144     6    1.50
  145     8    1.40
  146     6    1.50
  147     1    1.20
  148     1    1.20
  149     1    1.20
  150     1    1.20
  151     1    1.20
  152     7    1.50
  153     6    1.50
  154     6    1.50
  155     8    1.40
  156     6    1.50
  157     6    1.50
  158     6    1.50
  159     8    1.40
  160     8    1.40
  161     1    1.20
  162     1    1.20
  163     1    1.20
  164     1    1.20
  165     1    1.20
  166     1    1.20
  167     7    1.50
  168     6    1.50
  169     1    1.20
  170     1    1.20
  171     1    1.20
  172     1    1.20
  173    20    1.70
  174     8    1.40
[...]
 **** Fit       0.013351
 **** Fit       0.010884
 **** Fit       0.005513
 **** Fit      -0.001296
 **** Fit      -0.007261
 **** Fit      -0.010408
 **** Fit      -0.010401
 **** Fit      -0.008516
 **** Fit      -0.006251
 **** Fit      -0.013362
 **** Fit      -0.012179
 **** Fit      -0.009603
 **** Fit      -0.005755
 **** Fit      -0.000764
 **** Fit       0.005139
 **** Fit       0.011503
 **** Fit       0.017525
 **** Fit       0.022004
 **** Fit       0.023519
 **** Fit       0.020938
 **** Fit       0.014100
 **** Fit       0.004230
 **** Fit      -0.014805
 **** Fit      -0.013512
 **** Fit      -0.010940
 **** Fit      -0.007114
 **** Fit      -0.002044
 **** Fit       0.004225
 **** Fit       0.011532
 **** Fit       0.019467
 **** Fit       0.027212
 **** Fit       0.033431
 **** Fit       0.036368
 **** Fit       0.034306
 **** Fit       0.026478
 **** Fit      -0.016322
 **** Fit      -0.014955
 **** Fit      -0.012368
 **** Fit      -0.008533
 **** Fit      -0.003392
 **** Fit       0.003120
 **** Fit       0.011019
 **** Fit       0.020181
 **** Fit       0.030169
 **** Fit       0.040028
 **** Fit      -0.017999
 **** Fit      -0.016554
 **** Fit      -0.013843
 **** Fit      -0.009799
 **** Fit      -0.004314
 **** Fit       0.002750
 **** Fit       0.011524
 **** Fit       0.022051
 **** Fit       0.034112
 **** Fit       0.046972
 **** Fit      -0.018196
 **** Fit      -0.020001
 **** Fit      -0.018573
 **** Fit      -0.015853
 **** Fit      -0.011750
 **** Fit      -0.006129
 **** Fit       0.001181
 **** Fit       0.010375
 **** Fit       0.021606
 **** Fit       0.034842
 **** Fit      -0.020173
 **** Fit      -0.022574
 **** Fit      -0.021209
 **** Fit      -0.018480
 **** Fit      -0.014271
 **** Fit      -0.008435
 **** Fit      -0.000794
 **** Fit       0.008849
 **** Fit       0.020656
 **** Fit       0.034617
 **** Fit      -0.022640
 **** Fit      -0.026061
 **** Fit      -0.024846
 **** Fit      -0.022109
 **** Fit      -0.017710
 **** Fit      -0.011509
 **** Fit      -0.003364
 **** Fit       0.006856
 **** Fit       0.019207
 **** Fit       0.033513
 **** Fit      -0.025892
 **** Fit      -0.027542
 **** Fit      -0.023018
 **** Fit      -0.016501
 **** Fit      -0.007964
 **** Fit       0.002564
 **** Fit       0.014931
 **** Fit       0.028705
 **** Fit      -0.030308
 **** Fit      -0.000578
 **** Fit       0.012661
 **** Fit       0.026355
 **** Fit       0.022194
 **** Fit       0.021689
 **** Fit       0.025174
 **** Fit       0.018670
 **** Fit       0.020530
 **** Fit       0.022078
 **** Fit       0.018219
 **** Fit       0.018043
 **** Fit       0.016633
 **** Fit       0.013713
 **** Fit      -0.001899
 **** Fit       0.014596
 **** Fit       0.012423
 **** Fit       0.008908
 **** Fit       0.004412
 **** Fit      -0.000089
 **** Fit       0.009889
 **** Fit       0.006513
 **** Fit       0.002932
 **** Fit       0.000572
 **** Fit      -0.002808
 **** Fit       0.001290
 **** Fit      -0.002262
 **** Fit      -0.003691
 **** Fit      -0.000260
 **** Fit       0.004044
 **** Fit       0.001983
 **** Fit       0.000731
 **** Fit       0.004858
 **** Fit       0.003970
 **** Fit      -0.017246
 **** Fit      -0.006296
 **** Fit      -0.010814
 **** Fit      -0.015723
 **** Fit      -0.020329
 **** Fit      -0.007243
 **** Fit      -0.012311
 **** Fit      -0.017435
 **** Fit      -0.006377
 **** Fit      -0.012156
 **** Fit      -0.016330
 **** Fit      -0.009716
 **** Fit       0.035581
 **** Fit       0.028408
 **** Fit       0.022711
 **** Fit       0.018250
 **** Fit       0.017356
 **** Fit       0.017120
 **** Fit       0.016652
 **** Fit       0.017387
 **** Fit       0.015942
 **** Fit       0.014737
 **** Fit       0.012998
 **** Fit       0.010402
 **** Fit       0.015022
 **** Fit       0.013221
 **** Fit       0.011088
 **** Fit       0.008417
 **** Fit       0.005673
 **** Fit       0.003768
 **** Fit       0.003286
 **** Fit       0.003438
 **** Fit       0.014696
 **** Fit       0.013567
 **** Fit       0.011544
 **** Fit       0.009008
 **** Fit       0.006341
 **** Fit       0.004464
 **** Fit       0.003303
 **** Fit       0.010667
 **** Fit       0.009673
 **** Fit       0.006916
 **** Fit       0.004687
 **** Fit       0.007257
 **** Fit       0.007250
 **** Fit       0.027334
 **** Fit       0.027633
 **** Fit       0.022203
 **** Fit       0.005974
 **** Fit       0.005645
 **** Fit       0.006486
 **** Fit       0.006395
 **** Fit       0.006086
 **** Fit       0.005645
 **** Fit       0.005204
 **** Fit       0.006774
 **** Fit       0.007174
 **** Fit       0.007104
 **** Fit       0.006163
 **** Fit       0.005639
 **** Fit       0.005130
 **** Fit       0.004688
 **** Fit       0.003665
 **** Fit       0.005725
 **** Fit       0.005110
 **** Fit       0.004565
 **** Fit       0.004087
 **** Fit       0.002882
 **** Fit       0.002403
 **** Fit       0.005671
 **** Fit       0.004980
 **** Fit       0.004376
 **** Fit       0.003845
 **** Fit       0.003356
 **** Fit       0.002005
 **** Fit       0.001405
 **** Fit       0.004980
 **** Fit       0.004251
 **** Fit       0.003631
 **** Fit       0.003080
 **** Fit       0.002552
 **** Fit       0.001056
 **** Fit       0.000358
 **** Fit      -0.000488
 **** Fit       0.004941
 **** Fit       0.004068
 **** Fit       0.003347
 **** Fit       0.002743
 **** Fit       0.002199
 **** Fit       0.001655
 **** Fit       0.000049
 **** Fit      -0.000741
 **** Fit      -0.001734
 **** Fit      -0.003014
 **** Fit       0.003938
 **** Fit       0.003043
 **** Fit       0.002332
 **** Fit       0.001755
 **** Fit       0.001234
 **** Fit       0.000690
 **** Fit      -0.002982
 **** Fit      -0.004414
 **** Fit      -0.006323
 **** Fit       0.003775
 **** Fit       0.002643
 **** Fit       0.001761
 **** Fit       0.001103
 **** Fit      -0.008024
 **** Fit      -0.010919
 **** Fit      -0.015095
 **** Fit       0.002335
 **** Fit       0.001113
 **** Fit      -0.013514
 **** Fit       0.002779
 **** Fit       0.000840
 **** Fit      -0.016119
 **** Fit       0.001214
 **** Fit      -0.001353
 **** Fit       0.002920
 **** Fit      -0.001192
 **** Fit      -0.027426
 **** Fit       0.007055
 **** Fit       0.006998
 **** Fit       0.006619
 **** Fit       0.007724
 **** Fit       0.007550
 **** Fit       0.007285
 **** Fit       0.007010
 **** Fit       0.006626
 **** Fit       0.007640
 **** Fit       0.007415
 **** Fit       0.007260
 **** Fit       0.007005
 **** Fit       0.006613
 **** Fit       0.006157
 **** Fit       0.007383
 **** Fit       0.007395
 **** Fit       0.007325
 **** Fit       0.007078
 **** Fit       0.006658
 **** Fit       0.006141
 **** Fit       0.007003
 **** Fit       0.007238
 **** Fit       0.007444
 **** Fit       0.007468
 **** Fit       0.007246
 **** Fit       0.006796
 **** Fit       0.006196
 **** Fit       0.005563
 **** Fit       0.006686
 **** Fit       0.007216
 **** Fit       0.007580
 **** Fit       0.007678
 **** Fit       0.007468
 **** Fit       0.006976
 **** Fit       0.006283
 **** Fit       0.005506
 **** Fit       0.006068
 **** Fit       0.006937
 **** Fit       0.007623
 **** Fit       0.007984
 **** Fit       0.007944
 **** Fit       0.007505
 **** Fit       0.006739
 **** Fit       0.005772
 **** Fit       0.004759
 **** Fit       0.006672
 **** Fit       0.007686
 **** Fit       0.008363
 **** Fit       0.008561
 **** Fit       0.008238
 **** Fit       0.007446
 **** Fit       0.006308
 **** Fit       0.004993
 **** Fit       0.007474
 **** Fit       0.008647
 **** Fit       0.009330
 **** Fit       0.009360
 **** Fit       0.008718
 **** Fit       0.007496
 **** Fit       0.005871
 **** Fit       0.004074
 **** Fit       0.007739
 **** Fit       0.009400
 **** Fit       0.010507
 **** Fit       0.010718
 **** Fit       0.009942
 **** Fit       0.008285
 **** Fit       0.005995
 **** Fit       0.003414
 **** Fit       0.009451
 **** Fit       0.011633
 **** Fit       0.012661
 **** Fit       0.012171
 **** Fit       0.010175
 **** Fit       0.007014
 **** Fit      -0.000446
 **** Fit      -0.001158
 **** Fit       0.000659
 **** Fit       0.000124
 **** Fit      -0.001586
 **** Fit      -0.002223
 **** Fit      -0.003132
 **** Fit      -0.004460
 **** Fit       0.000404
 **** Fit      -0.000203
 **** Fit      -0.000675
 **** Fit      -0.001104
 **** Fit      -0.002996
 **** Fit      -0.003566
 **** Fit      -0.004435
 **** Fit      -0.005761
 **** Fit      -0.007774
 **** Fit      -0.000609
 **** Fit      -0.001380
 **** Fit      -0.001902
 **** Fit      -0.002275
 **** Fit      -0.002603
 **** Fit      -0.004825
 **** Fit      -0.005277
 **** Fit      -0.006048
 **** Fit      -0.007285
 **** Fit      -0.009197
 **** Fit      -0.012113
 **** Fit      -0.002025
 **** Fit      -0.003098
 **** Fit      -0.003776
 **** Fit      -0.004165
 **** Fit      -0.004388
 **** Fit      -0.004568
 **** Fit      -0.007248
 **** Fit      -0.007532
 **** Fit      -0.008177
 **** Fit      -0.009329
 **** Fit      -0.011176
 **** Fit      -0.013994
 **** Fit      -0.003692
 **** Fit      -0.005417
 **** Fit      -0.006500
 **** Fit      -0.007058
 **** Fit      -0.007250
 **** Fit      -0.007244
 **** Fit      -0.007196
 **** Fit      -0.010491
 **** Fit      -0.010513
 **** Fit      -0.011009
 **** Fit      -0.012141
 **** Fit      -0.014098
 **** Fit      -0.017130
 **** Fit      -0.007765
 **** Fit      -0.010089
 **** Fit      -0.011349
 **** Fit      -0.011771
 **** Fit      -0.011642
 **** Fit      -0.011237
 **** Fit      -0.010788
 **** Fit      -0.014859
 **** Fit      -0.014406
 **** Fit      -0.014632
 **** Fit      -0.015718
 **** Fit      -0.017846
 **** Fit      -0.021191
 **** Fit      -0.017008
 **** Fit      -0.015799
 **** Fit      -0.019463
 **** Fit      -0.019132
 **** Fit      -0.019960
 **** Fit      -0.022071
 **** Fit      -0.025437
 **** Fit      -0.024536
 **** Fit      -0.024980
 **** Fit      -0.027076
 **** Fit       0.004882
 **** Fit       0.004623
 **** Fit       0.004140
 **** Fit       0.004246
 **** Fit       0.005017
 **** Fit       0.005418
 **** Fit       0.005165
 **** Fit       0.004210
 **** Fit       0.003636
 **** Fit       0.003081
 **** Fit       0.002773
 **** Fit       0.003054
 **** Fit       0.003978
 **** Fit       0.005068
 **** Fit       0.005733
 **** Fit       0.005847
 **** Fit       0.005635
 **** Fit       0.005247
 **** Fit       0.004753
 **** Fit       0.003623
 **** Fit       0.003015
 **** Fit       0.002327
 **** Fit       0.001577
 **** Fit       0.000914
 **** Fit       0.000630
 **** Fit       0.001015
 **** Fit       0.002117
 **** Fit       0.003639
 **** Fit       0.005095
 **** Fit       0.006043
 **** Fit       0.006347
 **** Fit       0.004732
 **** Fit       0.004187
 **** Fit       0.002846
 **** Fit       0.002157
 **** Fit       0.001355
 **** Fit       0.000388
 **** Fit      -0.000727
 **** Fit      -0.001841
 **** Fit      -0.002641
 **** Fit      -0.002745
 **** Fit      -0.001909
 **** Fit      -0.000212
 **** Fit       0.001981
 **** Fit       0.004208
 **** Fit       0.003485
 **** Fit       0.001869
 **** Fit       0.001052
 **** Fit       0.000091
 **** Fit      -0.001106
 **** Fit      -0.002602
 **** Fit      -0.004370
 **** Fit      -0.006207
 **** Fit      -0.007689
 **** Fit      -0.007522
 **** Fit      -0.005471
 **** Fit      -0.002518
 **** Fit       0.000780
 **** Fit      -0.000277
 **** Fit      -0.001412
 **** Fit      -0.002836
 **** Fit      -0.004672
 **** Fit      -0.007010
 **** Fit      -0.009818
 **** Fit      -0.005169
 **** Fit      -0.003333
 **** Fit      -0.005162
 **** Fit      -0.007586
 **** Fit      -0.010817
 **** Fit      -0.007787
 **** Fit      -0.010848
 **** Fit      -0.014836
 **** Fit       0.013042
 **** Fit       0.006790
 **** Fit      -0.000343
 **** Fit      -0.008331
 **** Fit       0.009816
 **** Fit       0.001540
 **** Fit      -0.007594
 **** Fit       0.003836
 **** Fit      -0.006952
 **** Fit       0.043687
 **** Fit       0.045675
 **** Fit      -0.009557
 **** Fit       0.048996
 **** Fit       0.049727
 **** Fit       0.011536
 **** Fit       0.007778
 **** Fit       0.000796
 **** Fit       0.041816
 **** Fit       0.043488
 **** Fit       0.044869
 **** Fit       0.045934
 **** Fit       0.046710
 **** Fit       0.013330
 **** Fit       0.011432
 **** Fit       0.007089
 **** Fit      -0.000055
 **** Fit      -0.012735
 **** Fit      -0.002129
 **** Fit       0.033587
 **** Fit       0.037004
 **** Fit       0.039437
 **** Fit       0.041262
 **** Fit       0.042579
 **** Fit       0.043388
 **** Fit       0.043568
 **** Fit       0.019827
 **** Fit       0.016767
 **** Fit       0.013673
 **** Fit       0.009184
 **** Fit       0.002809
 **** Fit      -0.004640
 **** Fit      -0.010607
 **** Fit      -0.011902
 **** Fit      -0.007611
 **** Fit       0.000438
 **** Fit       0.009945
 **** Fit       0.019036
 **** Fit       0.026328
 **** Fit       0.031497
 **** Fit       0.035042
 **** Fit       0.037490
 **** Fit       0.039096
 **** Fit       0.039891
 **** Fit       0.039706
 **** Fit       0.038166
 **** Fit       0.034835
 **** Fit       0.029775
 **** Fit       0.025506
 **** Fit       0.021061
 **** Fit       0.016828
 **** Fit       0.011976
 **** Fit       0.006207
 **** Fit       0.000835
 **** Fit      -0.001435
 **** Fit       0.001158
 **** Fit       0.007632
 **** Fit       0.015599
 **** Fit       0.022949
 **** Fit       0.028594
 **** Fit       0.032480
 **** Fit       0.034909
 **** Fit       0.036029
 **** Fit       0.035729
 **** Fit       0.033752
 **** Fit       0.030091
 **** Fit       0.025126
 **** Fit       0.020151
 **** Fit       0.014825
 **** Fit       0.009825
 **** Fit       0.007773
 **** Fit       0.010813
 **** Fit       0.017360
 **** Fit       0.024086
 **** Fit       0.028958
 **** Fit       0.031505
 **** Fit       0.031644
 **** Fit       0.029327
 **** Fit       0.023739
 **** Fit       0.018186
 **** Fit       0.015428
 **** Fit       0.019531
 **** Fit       0.025381
 **** Fit       0.027075
 **** Fit       0.021764
 **** Fit       0.022494
 **** Fit       0.025182
 **** Fit       0.024540
 **** Fit       0.028255
 **** Fit       0.028985
 **** Fit       0.029444
 **** Fit       0.030840
 **** Fit       0.032451
 **** Fit       0.033853
 **** Fit       0.032718
 **** Fit       0.034701
 **** Fit       0.036573
 **** Fit       0.033858
 **** Fit       0.035559
 **** Fit       0.037462
 **** Fit       0.039482
 **** Fit       0.037025
 **** Fit       0.037938
 **** Fit       0.039470
 **** Fit       0.041376
 **** Fit       0.043641
 **** Fit       0.041957
 **** Fit       0.040451
 **** Fit       0.040416
 **** Fit       0.041351
 **** Fit       0.042924
 **** Fit       0.044990
 **** Fit       0.043110
 **** Fit       0.042751
 **** Fit       0.043515
 **** Fit       0.045088
 **** Fit       0.047305
 **** Fit       0.044403
 **** Fit       0.045292
 **** Fit       0.047029
 **** Fit       0.049510
 -----------------------------------------------------------------
 Leave Link  602 at Sat Sep 14 23:26:30 2019, MaxMem=  1342177280 cpu:             122.0 elap:               2.6

 Test job not archived.
 1\1\GINC-C506-074\SP\RB3LYP\SVP\C54H83Ca1N15O23\PENGZHI\14-Sep-2019\0\
 \#b3lyp/svp scf=(tight,noincore) Test #IOP(5/87=12) Density=Current Po
 p=(MK,readradii) iop(6/33=2) iop(6/42=6)\\holoCaM_loop3_86.0\\0,1\C,0,
 69.9,51.93,90.48\C,0,70.44,53.2,89.84\O,0,71.,53.14,88.75\H,0,68.909,5
 1.715,90.079\H,0,70.569,51.098,90.259\H,0,69.833,52.067,91.559\N,0,70.
 17,54.34,90.48\C,0,70.59,55.68,90.11\C,0,71.95,55.99,90.73\O,0,72.09,5
 6.32,91.9\C,0,69.48,56.67,90.44\C,0,69.8,58.11,90.1\O,0,70.78,58.31,89
 .35\O,0,69.13,59.05,90.59\H,0,69.6,54.29,91.31\H,0,70.69,55.7,89.03\H,
 0,69.21,56.59,91.49\H,0,68.53,56.48,89.93\N,0,73.03,55.76,89.98\C,0,74
 .38,55.67,90.5\C,0,75.1,56.94,90.94\O,0,76.17,56.81,91.52\C,0,75.28,54
 .86,89.57\C,0,75.03,53.36,89.74\C,0,75.7,52.52,88.65\C,0,75.89,51.13,8
 9.26\N,0,74.67,50.31,89.25\H,0,72.85,55.5,89.02\H,0,74.39,55.04,91.39\
 H,0,76.32,55.07,89.83\H,0,75.16,55.14,88.53\H,0,73.95,53.24,89.74\H,0,
 75.51,53.22,90.71\H,0,76.67,52.96,88.43\H,0,75.15,52.63,87.72\H,0,76.2
 3,51.19,90.29\H,0,76.71,50.67,88.69\H,0,74.46,50.17,90.23\H,0,73.87,50
 .64,88.74\H,0,74.74,49.34,88.96\N,0,74.57,58.13,90.66\C,0,74.94,59.41,
 91.24\C,0,73.74,60.08,91.89\O,0,73.96,61.08,92.57\C,0,75.52,60.3,90.14
 \C,0,74.63,60.65,88.95\O,0,75.2,61.24,88.01\O,0,73.42,60.35,89.\H,0,73
 .84,58.2,89.97\H,0,75.64,59.31,92.06\H,0,76.43,59.83,89.77\H,0,75.82,6
 1.23,90.62\N,0,72.49,59.59,91.86\C,0,71.39,59.97,92.71\C,0,70.95,61.36
 ,92.27\O,0,70.54,62.18,93.09\H,0,72.33,58.77,91.3\H,0,71.6,59.94,93.78
 \H,0,70.62,59.22,92.51\N,0,71.1,61.73,91.\C,0,70.63,62.97,90.43\C,0,69
 .23,62.91,89.84\O,0,68.79,63.83,89.15\C,0,71.65,63.5,89.42\C,0,71.5,62
 .99,88.\N,0,71.57,63.84,86.96\O,0,71.38,61.79,87.76\H,0,71.62,61.09,90
 .42\H,0,70.66,63.81,91.13\H,0,72.64,63.2,89.76\H,0,71.52,64.58,89.33\H
 ,0,71.39,64.82,87.08\H,0,71.5,63.51,86.01\N,0,68.48,61.82,90.03\C,0,67
 .05,61.71,89.89\C,0,66.56,60.82,88.75\O,0,65.37,60.57,88.62\H,0,68.92,
 61.,90.42\H,0,66.72,62.73,89.73\H,0,66.51,61.52,90.82\N,0,67.5,60.31,8
 7.94\C,0,67.2,59.53,86.76\C,0,68.31,58.63,86.23\O,0,69.49,58.89,86.45\
 C,0,66.48,60.34,85.69\C,0,66.72,61.83,85.63\C,0,65.68,62.71,85.92\C,0,
 68.01,62.32,85.39\C,0,65.92,64.09,85.82\C,0,68.26,63.7,85.31\C,0,67.2,
 64.61,85.54\O,0,67.36,65.96,85.44\H,0,68.45,60.61,88.06\H,0,66.46,58.7
 6,87.01\H,0,65.43,60.16,85.91\H,0,66.67,59.95,84.69\H,0,64.69,62.28,86
 .03\H,0,68.79,61.61,85.17\H,0,65.19,64.87,85.94\H,0,69.28,64.03,85.22\
 H,0,68.13,66.29,84.97\N,0,67.82,57.63,85.49\C,0,68.61,56.55,84.92\C,0,
 69.06,56.98,83.53\O,0,68.22,57.18,82.66\C,0,67.88,55.21,84.96\C,0,67.4
 1,54.79,86.35\C,0,68.68,54.04,84.39\C,0,68.45,54.7,87.46\H,0,66.82,57.
 55,85.35\H,0,69.54,56.43,85.47\H,0,66.95,55.4,84.43\H,0,66.91,53.82,86
 .37\H,0,66.64,55.51,86.63\H,0,69.51,53.8,85.05\H,0,68.18,53.07,84.37\H
 ,0,69.03,54.23,83.38\H,0,69.08,55.59,87.42\H,0,67.92,54.42,88.37\H,0,6
 9.12,53.87,87.28\N,0,70.38,57.09,83.37\C,0,71.,57.11,82.06\C,0,71.35,5
 5.74,81.5\O,0,71.13,54.68,82.07\C,0,72.23,58.01,82.11\O,0,73.2,57.57,8
 3.03\H,0,70.95,56.92,84.18\H,0,70.26,57.47,81.34\H,0,71.94,59.03,82.38
 \H,0,72.79,58.21,81.19\H,0,72.77,57.6,83.89\N,0,71.9,55.65,80.28\C,0,7
 1.92,54.41,79.53\C,0,73.,53.43,79.97\O,0,72.84,52.23,79.72\C,0,72.25,5
 4.77,78.08\H,0,72.17,56.51,79.83\H,0,70.93,53.96,79.56\H,0,73.24,55.23
 ,78.05\H,0,72.26,53.88,77.45\H,0,71.54,55.51,77.73\N,0,74.08,53.9,80.6
 1\C,0,75.05,53.08,81.3\C,0,74.66,52.67,82.72\O,0,75.15,51.64,83.18\C,0
 ,76.4,53.76,81.17\H,0,74.28,54.88,80.55\H,0,75.2,52.17,80.72\H,0,76.23
 ,54.63,81.8\H,0,77.16,53.11,81.61\H,0,76.52,53.93,80.1\N,0,73.67,53.34
 ,83.33\C,0,72.96,53.02,84.55\C,0,71.91,51.98,84.2\O,0,71.93,50.94,84.8
 6\C,0,72.34,54.3,85.1\C,0,73.36,55.24,85.73\C,0,72.69,56.51,86.25\O,0,
 73.01,56.9,87.39\O,0,71.95,57.16,85.49\H,0,73.37,54.12,82.77\H,0,73.66
 ,52.68,85.32\H,0,71.63,54.05,85.89\H,0,71.69,54.82,84.4\H,0,74.02,55.5
 3,84.91\H,0,73.95,54.78,86.52\N,0,71.23,52.17,83.07\C,0,70.38,51.1,82.
 57\H,0,69.464,51.526,82.161\H,0,70.906,50.553,81.788\H,0,70.132,50.421
 ,83.386\H,0,71.21,53.04,82.57\Ca,0,71.94,59.22,87.32\O,0,71.83,60.16,8
 4.94\H,0,72.6,60.33,84.41\H,0,71.09,60.42,84.39\\Version=ES64L-G16RevA
 .03\State=1-A\HF=-5333.6029733\RMSD=3.810e-09\Dipole=2.9713613,-10.366
 562,-5.6901824\Quadrupole=-31.7626151,58.9414422,-27.1788271,-41.21749
 03,-2.656181,-139.5575539\PG=C01 [X(C54H83Ca1N15O23)]\\@


 We find comfort among those who agree with us -- growth among those who don't.
 -- Frank A. Clark
 Job cpu time:       0 days  9 hours 11 minutes 23.3 seconds.
 Elapsed time:       0 days  0 hours 11 minutes 36.9 seconds.
 File lengths (MBytes):  RWF=   1517 Int=      0 D2E=      0 Chk=    171 Scr=      1
 Normal termination of Gaussian 16 at Sat Sep 14 23:26:31 2019.
