 Entering Gaussian System, Link 0=g16
 Initial command:
 /home1/apps/gaussian/16rA.03/g16/l1.exe "/scratch/01990/pengzhi/4345551/Gau-4375.inp" -scrdir="/scratch/01990/pengzhi/4345551/"
 Entering Link 1 = /home1/apps/gaussian/16rA.03/g16/l1.exe PID=      4376.
  
 Copyright (c) 1988,1990,1992,1993,1995,1998,2003,2009,2016,
            Gaussian, Inc.  All Rights Reserved.
  
 This is part of the Gaussian(R) 16 program.  It is based on
 the Gaussian(R) 09 system (copyright 2009, Gaussian, Inc.),
 the Gaussian(R) 03 system (copyright 2003, Gaussian, Inc.),
 the Gaussian(R) 98 system (copyright 1998, Gaussian, Inc.),
 the Gaussian(R) 94 system (copyright 1995, Gaussian, Inc.),
 the Gaussian 92(TM) system (copyright 1992, Gaussian, Inc.),
 the Gaussian 90(TM) system (copyright 1990, Gaussian, Inc.),
 the Gaussian 88(TM) system (copyright 1988, Gaussian, Inc.),
 the Gaussian 86(TM) system (copyright 1986, Carnegie Mellon
 University), and the Gaussian 82(TM) system (copyright 1983,
 Carnegie Mellon University). Gaussian is a federally registered
 trademark of Gaussian, Inc.
  
 This software contains proprietary and confidential information,
 including trade secrets, belonging to Gaussian, Inc.
  
 This software is provided under written license and may be
 used, copied, transmitted, or stored only in accord with that
 written license.
  
 The following legend is applicable only to US Government
 contracts under FAR:
  
                    RESTRICTED RIGHTS LEGEND
  
 Use, reproduction and disclosure by the US Government is
 subject to restrictions as set forth in subparagraphs (a)
 and (c) of the Commercial Computer Software - Restricted
 Rights clause in FAR 52.227-19.
  
 Gaussian, Inc.
 340 Quinnipiac St., Bldg. 40, Wallingford CT 06492
  
  
 ---------------------------------------------------------------
 Warning -- This program may not be used in any manner that
 competes with the business of Gaussian, Inc. or will provide
 assistance to any competitor of Gaussian, Inc.  The licensee
 of this program is prohibited from giving any competitor of
 Gaussian, Inc. access to this program.  By using this program,
 the user acknowledges that Gaussian, Inc. is engaged in the
 business of creating and licensing software in the field of
 computational chemistry and represents and warrants to the
 licensee that it is not a competitor of Gaussian, Inc. and that
 it will not use this program in any manner prohibited above.
 ---------------------------------------------------------------
  

 Cite this work as:
 Gaussian 16, Revision A.03,
 M. J. Frisch, G. W. Trucks, H. B. Schlegel, G. E. Scuseria, 
 M. A. Robb, J. R. Cheeseman, G. Scalmani, V. Barone, 
 G. A. Petersson, H. Nakatsuji, X. Li, M. Caricato, A. V. Marenich, 
 J. Bloino, B. G. Janesko, R. Gomperts, B. Mennucci, H. P. Hratchian, 
 J. V. Ortiz, A. F. Izmaylov, J. L. Sonnenberg, D. Williams-Young, 
 F. Ding, F. Lipparini, F. Egidi, J. Goings, B. Peng, A. Petrone, 
 T. Henderson, D. Ranasinghe, V. G. Zakrzewski, J. Gao, N. Rega, 
 G. Zheng, W. Liang, M. Hada, M. Ehara, K. Toyota, R. Fukuda, 
 J. Hasegawa, M. Ishida, T. Nakajima, Y. Honda, O. Kitao, H. Nakai, 
 T. Vreven, K. Throssell, J. A. Montgomery, Jr., J. E. Peralta, 
 F. Ogliaro, M. J. Bearpark, J. J. Heyd, E. N. Brothers, K. N. Kudin, 
 V. N. Staroverov, T. A. Keith, R. Kobayashi, J. Normand, 
 K. Raghavachari, A. P. Rendell, J. C. Burant, S. S. Iyengar, 
 J. Tomasi, M. Cossi, J. M. Millam, M. Klene, C. Adamo, R. Cammi, 
 J. W. Ochterski, R. L. Martin, K. Morokuma, O. Farkas, 
 J. B. Foresman, and D. J. Fox, Gaussian, Inc., Wallingford CT, 2016.
 
 ******************************************
 Gaussian 16:  ES64L-G16RevA.03 25-Dec-2016
                17-Sep-2019 
 ******************************************
 %chk=Ng-293_loop3_73.0.chk
 %nprocshared=48
 Will use up to   48 processors via shared memory.
 %mem=10GB
 %nosave
 ----------------------------------------------------------------------
 #b3lyp/svp scf=(tight,noincore) Test #IOP(5/87=12) Density=Current Pop
 =(MK,readradii) iop(6/33=2) iop(6/42=6)
 ----------------------------------------------------------------------
 1/30=1,38=1,172=1/1;
 2/12=2,17=6,18=5,40=1/2;
 3/5=18,7=101,11=2,25=1,30=1,74=-5/1,2,3;
 4//1;
 5/5=4,32=2,38=5,87=12/2;
 6/7=2,8=2,9=2,10=2,15=8,20=101,22=-1,28=1,33=2,42=6/1,2;
 99/5=1,9=1/99;
 -----------------
 Ng-293_loop3_73.0
 -----------------
 Symbolic Z-matrix:
 Charge =  0 Multiplicity = 1
 C                     66.36     22.41     4.55 
 C                     66.78     22.87     3.16 
 O                     66.17     22.3      2.26 
 H                     65.331    22.051    4.518 
 H                     67.015    21.604    4.88 
 H                     66.431    23.245    5.247 
 N                     67.57     23.92     2.95 
 C                     67.98     24.52     1.7 
 C                     67.29     25.85     1.44 
 O                     66.59     26.32     2.33 
 C                     69.5      24.67     1.67 
 C                     70.14     25.49     2.78 
 O                     71.36     25.42     3.04 
 O                     69.42     26.27     3.45 
 H                     67.85     24.45     3.77 
 H                     67.7      23.86     0.87 
 H                     69.79     25.12     0.72 
 H                     69.97     23.69     1.65 
 N                     67.52     26.3      0.21 
 C                     67.03     27.47    -0.5 
 C                     67.39     28.86     0. 
 O                     67.63     29.74    -0.82 
 C                     65.56     27.27    -0.85 
 C                     64.99     28.45    -1.63 
 C                     63.6      28.11    -2.17 
 C                     63.01     29.21    -3.05 
 N                     61.55     29.13    -3.19 
 H                     68.14     25.69    -0.31 
 H                     67.53     27.44    -1.47 
 H                     64.99     27.12     0.06 
 H                     65.44     26.32    -1.38 
 H                     65.66     28.62    -2.47 
 H                     64.81     29.24    -0.9 
 H                     62.9      27.98    -1.34 
 H                     63.76     27.29    -2.86 
 H                     63.47     29.16    -4.04 
 H                     63.31     30.14    -2.59 
 H                     61.04     29.31    -2.34 
 H                     61.27     29.85    -3.85 
 H                     61.35     28.27    -3.68 
 N                     67.48     29.12     1.31 
 C                     67.54     30.43     1.93 
 C                     68.27     30.5      3.26 
 O                     68.22     29.57     4.06 
 C                     66.12     30.98     1.9 
 C                     66.19     32.35     2.56 
 O                     66.5      33.35     1.87 
 O                     66.15     32.39     3.81 
 H                     67.23     28.41     1.98 
 H                     68.14     31.12     1.34 
 H                     65.45     30.32     2.45 
 H                     65.78     31.05     0.86 
 N                     69.09     31.56     3.35 
 C                     70.02     31.76     4.44 
 C                     69.33     32.2      5.72 
 O                     68.17     31.93     6.02 
 H                     69.06     32.29     2.65 
 H                     70.73     32.53     4.15 
 H                     70.59     30.85     4.6 
 N                     70.13     32.71     6.66 
 C                     69.71     32.77     8.05 
 C                     69.31     34.15     8.57 
 O                     68.27     34.26     9.22 
 C                     70.79     32.15     8.93 
 C                     71.13     30.68     8.7 
 N                     71.94     30.12     9.59 
 O                     70.54     29.97     7.89 
 H                     71.12     32.82     6.48 
 H                     68.8      32.18     8.18 
 H                     70.38     32.22     9.94 
 H                     71.71     32.73     8.86 
 H                     72.42     30.8      10.17 
 H                     72.43     29.29     9.3 
 N                     70.01     35.22     8.2 
 C                     69.74     36.55     8.7 
 C                     69.97     36.76     10.19 
 O                     70.63     35.94     10.82 
 H                     70.78     35.13     7.55 
 H                     68.71     36.8      8.44 
 H                     70.4      37.18     8.1 
 N                     69.31     37.76     10.78 
 C                     69.18     37.99     12.2 
 C                     68.49     36.9      13.01 
 O                     68.56     36.86     14.24 
 C                     70.51     38.4      12.84 
 C                     71.36     39.53     12.33 
 C                     72.49     39.79     13.11 
 C                     71.1      40.33     11.21 
 C                     73.39     40.81     12.76 
 C                     71.98     41.37     10.87 
 C                     73.14     41.61     11.63 
 O                     73.98     42.65     11.34 
 H                     68.66     38.21     10.16 
 H                     68.53     38.87     12.23 
 H                     71.14     37.52     12.96 
 H                     70.25     38.74     13.84 
 H                     72.78     39.23     13.99 
 H                     70.26     40.12     10.56 
 H                     74.27     40.99     13.36 
 H                     71.82     42.       10.01 
 H                     74.08     42.83     10.41 
 N                     67.91     35.94     12.29 
 C                     67.07     34.84     12.72 
 C                     65.73     35.27     13.32 
 O                     64.71     34.71     12.93 
 C                     67.83     33.76     13.49 
 C                     69.16     33.46     12.81 
 C                     66.85     32.62     13.69 
 C                     69.98     32.27     13.3 
 H                     67.94     36.14     11.3 
 H                     66.78     34.31     11.81 
 H                     68.07     34.19     14.46 
 H                     69.7      34.4      12.9 
 H                     69.11     33.34     11.73 
 H                     67.41     31.76     14.05 
 H                     66.03     32.86     14.37 
 H                     66.41     32.35     12.73 
 H                     69.52     31.38     12.86 
 H                     71.02     32.43     13. 
 H                     70.       32.27     14.39 
 N                     65.66     36.24     14.22 
 C                     64.55     37.11     14.57 
 C                     63.34     36.51     15.26 
 O                     62.31     37.17     15.31 
 C                     65.12     38.34     15.27 
 O                     66.27     38.95     14.73 
 H                     66.57     36.66     14.39 
 H                     64.15     37.46     13.62 
 H                     65.37     38.       16.27 
 H                     64.41     39.17     15.28 
 H                     65.99     39.44     13.96 
 N                     63.35     35.28     15.78 
 C                     62.19     34.48     16.12 
 C                     61.3      34.23     14.91 
 O                     60.08     34.32     14.99 
 C                     61.6      34.87     17.47 
 H                     64.21     34.77     15.95 
 H                     62.6      33.47     16.22 
 H                     61.32     35.92     17.53 
 H                     60.74     34.22     17.67 
 H                     62.38     34.68     18.21 
 N                     61.89     34.02     13.73 
 C                     61.17     33.78     12.5 
 C                     61.25     32.38     11.9 
 O                     62.14     31.6      12.22 
 C                     61.55     34.97     11.62 
 H                     62.89     34.02     13.56 
 H                     60.14     33.89     12.83 
 H                     61.05     35.89     11.95 
 H                     62.63     35.06     11.6 
 H                     61.15     34.75     10.63 
 N                     60.38     32.07     10.94 
 C                     60.13     30.72     10.47 
 C                     59.71     29.65     11.47 
 O                     59.87     28.47     11.16 
 C                     61.23     30.26     9.51 
 C                     61.37     31.37     8.46 
 C                     62.22     30.83     7.31 
 O                     63.46     30.97     7.4 
 O                     61.63     30.2      6.41 
 H                     59.72     32.77     10.63 
 H                     59.22     30.83     9.87 
 H                     60.92     29.39     8.94 
 H                     62.1      29.97     10.09 
 H                     61.97     32.15     8.92 
 H                     60.41     31.66     8.04 
 N                     59.       29.96     12.55 
 C                     58.69     29.18     13.73 
 H                     57.663    28.82     13.668 
 H                     59.369    28.33     13.793 
 H                     58.803    29.802    14.618 
 H                     58.55     30.86     12.5 
 Ca                    65.46     32.06     6.3 
 O                     66.31     29.6      6.64 
 H                     67.18     29.23     6.53 
 H                     65.76     29.11     6.03 
 
 Stoichiometry    C54H83CaN15O23
 Framework group  C1[X(C54H83CaN15O23)]
 Deg. of freedom   522
 Full point group                 C1      NOp   1
 Largest Abelian subgroup         C1      NOp   1
 Largest concise Abelian subgroup C1      NOp   1
                         Standard orientation:                         
 ---------------------------------------------------------------------
 Center     Atomic      Atomic             Coordinates (Angstroms)
 Number     Number       Type             X           Y           Z
 ---------------------------------------------------------------------
      1          6           0       -8.913512    2.584059    4.953993
      2          6           0       -9.727716    1.649948    4.068212
      3          8           0      -10.793199    2.139288    3.704491
      4          1           0       -9.166849    3.618420    4.720189
      5          1           0       -9.140619    2.382951    6.000673
      6          1           0       -7.850696    2.421818    4.774616
      7          7           0       -9.244720    0.512723    3.574113
      8          6           0       -9.862608   -0.422505    2.660788
      9          6           0       -9.259700   -0.357206    1.266213
     10          8           0       -8.273895    0.351692    1.096944
     11          6           0       -9.782263   -1.836807    3.232710
     12          6           0       -8.397460   -2.382124    3.547430
     13          8           0       -8.224873   -3.368364    4.294721
     14          8           0       -7.396037   -1.828746    3.031073
     15          1           0       -8.269641    0.308416    3.772053
     16          1           0      -10.925165   -0.174680    2.549183
     17          1           0      -10.255705   -2.526224    2.532955
     18          1           0      -10.394128   -1.911077    4.128145
     19          7           0       -9.955036   -1.073092    0.387400
     20          6           0       -9.804288   -1.256974   -1.046672
     21          6           0       -8.555216   -1.930463   -1.592504
     22          8           0       -8.663068   -2.691705   -2.548160
     23          6           0      -10.215320    0.022316   -1.766303
     24          6           0      -10.114448   -0.113924   -3.281876
     25          6           0      -10.760770    1.089951   -3.969083
     26          6           0      -10.788102    0.971522   -5.491491
     27          7           0      -10.959545    2.258998   -6.177502
     28          1           0      -10.734599   -1.555369    0.819361
     29          1           0      -10.585650   -1.967704   -1.322599
     30          1           0       -9.592142    0.842416   -1.427797
     31          1           0      -11.216864    0.316792   -1.437679
     32          1           0      -10.669226   -1.010159   -3.550921
     33          1           0       -9.055105   -0.027405   -3.526226
     34          1           0      -10.189659    1.995755   -3.747383
     35          1           0      -11.807007    1.043332   -3.691026
     36          1           0      -11.597843    0.297807   -5.782399
     37          1           0       -9.852701    0.504084   -5.761726
     38          1           0      -10.181342    2.890900   -6.077007
     39          1           0      -11.043002    2.063064   -7.171003
     40          1           0      -11.875017    2.603949   -5.927261
     41          7           0       -7.359461   -1.729699   -1.025348
     42          6           0       -6.066884   -2.073542   -1.586700
     43          6           0       -4.966450   -2.368667   -0.582387
     44          8           0       -4.903485   -1.764324    0.484480
     45          6           0       -5.765411   -1.014999   -2.639507
     46          6           0       -4.404398   -1.377733   -3.216974
     47          8           0       -4.335438   -2.206981   -4.154947
     48          8           0       -3.391795   -0.999954   -2.586405
     49          1           0       -7.266249   -1.062974   -0.275489
     50          1           0       -6.106255   -3.021691   -2.119301
     51          1           0       -5.739872   -0.026683   -2.181709
     52          1           0       -6.547691   -1.034069   -3.407475
     53          7           0       -4.239864   -3.450598   -0.907350
     54          6           0       -3.248028   -4.038461   -0.033464
     55          6           0       -1.972111   -3.216543    0.034250
     56          8           0       -1.909499   -2.002710   -0.142355
     57          1           0       -4.346815   -3.883914   -1.815424
     58          1           0       -3.000320   -5.027455   -0.409805
     59          1           0       -3.673905   -4.175333    0.955725
     60          7           0       -0.910190   -3.842105    0.548738
     61          6           0        0.222296   -3.093475    1.067513
     62          6           0        1.474935   -3.081572    0.192554
     63          8           0        2.047869   -2.010230   -0.007877
     64          6           0        0.547377   -3.582180    2.474883
     65          6           0       -0.531514   -3.425903    3.543046
     66          7           0       -0.163977   -3.692956    4.790203
     67          8           0       -1.611359   -2.878753    3.336016
     68          1           0       -0.977215   -4.813409    0.825643
     69          1           0       -0.043371   -2.036387    1.138829
     70          1           0        1.385579   -2.954377    2.785339
     71          1           0        0.854449   -4.627487    2.447691
     72          1           0        0.714745   -4.197134    4.843600
     73          1           0       -0.897373   -3.915519    5.442657
     74          7           0        1.842926   -4.191491   -0.443419
     75          6           0        3.050194   -4.283109   -1.234565
     76          6           0        4.358809   -4.137728   -0.470699
     77          8           0        4.360399   -4.252740    0.750641
     78          1           0        1.280057   -5.029766   -0.380388
     79          1           0        2.989314   -3.530104   -2.022142
     80          1           0        2.966674   -5.266086   -1.702839
     81          7           0        5.432114   -3.739015   -1.158263
     82          6           0        6.694715   -3.300462   -0.610806
     83          6           0        6.662494   -2.066831    0.282176
     84          8           0        7.611202   -1.764079    1.008601
     85          6           0        7.462474   -4.447411    0.053765
     86          6           0        7.757694   -5.752100   -0.631896
     87          6           0        8.542734   -6.627694    0.123053
     88          6           0        7.359618   -6.125541   -1.921887
     89          6           0        8.897549   -7.892002   -0.375478
     90          6           0        7.734421   -7.376338   -2.438248
     91          6           0        8.491646   -8.277191   -1.666319
     92          8           0        8.905665   -9.478144   -2.173862
     93          1           0        5.212042   -3.498071   -2.108481
     94          1           0        7.251828   -3.027536   -1.512436
     95          1           0        7.023813   -4.659768    1.027511
     96          1           0        8.459239   -4.052213    0.236734
     97          1           0        8.898170   -6.434990    1.127359
     98          1           0        6.710318   -5.488703   -2.509294
     99          1           0        9.489271   -8.567983    0.224285
    100          1           0        7.438694   -7.703960   -3.421767
    101          1           0        8.281244   -9.896520   -2.758978
    102          7           0        5.500877   -1.413739    0.304905
    103          6           0        5.160839   -0.151460    0.930626
    104          6           0        5.887683    1.058372    0.340282
    105          8           0        5.228299    2.054331    0.058539
    106          6           0        5.114800   -0.222771    2.456960
    107          6           0        4.404187   -1.492890    2.907655
    108          6           0        4.567277    1.112735    2.922408
    109          6           0        4.069891   -1.658190    4.387358
    110          1           0        4.840689   -1.794084   -0.358788
    111          1           0        4.114512    0.036078    0.679372
    112          1           0        6.146961   -0.313047    2.788462
    113          1           0        5.055064   -2.282920    2.539536
    114          1           0        3.476319   -1.713588    2.384534
    115          1           0        4.330074    1.023959    3.980072
    116          1           0        5.245278    1.950543    2.746928
    117          1           0        3.639344    1.326719    2.392077
    118          1           0        3.173498   -1.056975    4.567138
    119          1           0        3.938983   -2.726031    4.586806
    120          1           0        4.931974   -1.365148    4.986891
    121          7           0        7.192515    1.031305    0.111199
    122          6           0        7.992840    1.808283   -0.820082
    123          6           0        8.161456    3.295523   -0.575365
    124          8           0        8.596662    3.990685   -1.484400
    125          6           0        9.303823    1.062076   -1.048771
    126          8           0        9.259457   -0.332577   -1.246695
    127          1           0        7.591355    0.120406    0.322362
    128          1           0        7.452627    1.768382   -1.764316
    129          1           0        9.888485    1.246113   -0.153003
    130          1           0        9.814033    1.400511   -1.953342
    131          1           0        8.948239   -0.477840   -2.137448
    132          7           0        7.819869    3.873649    0.578969
    133          6           0        7.589708    5.287937    0.798094
    134          6           0        6.472699    5.823829   -0.087237
    135          8           0        6.581210    6.899893   -0.664482
    136          6           0        8.891180    6.058688    0.984673
    137          1           0        7.649070    3.338957    1.423678
    138          1           0        7.053887    5.311965    1.752305
    139          1           0        9.579053    5.950366    0.148254
    140          1           0        8.644544    7.112658    1.159081
    141          1           0        9.366332    5.643571    1.875745
    142          7           0        5.415830    5.037351   -0.308776
    143          6           0        4.290498    5.412736   -1.134375
    144          6           0        2.959777    5.669836   -0.434745
    145          8           0        2.742571    5.247538    0.695470
    146          6           0        4.326074    4.399260   -2.277398
    147          1           0        5.289464    4.099239    0.055748
    148          1           0        4.610471    6.383928   -1.503568
    149          1           0        5.146106    4.610023   -2.976273
    150          1           0        4.374054    3.400650   -1.858618
    151          1           0        3.405345    4.551268   -2.841003
    152          7           0        2.003893    6.280630   -1.133185
    153          6           0        0.803914    6.850546   -0.549109
    154          6           0        0.936355    7.891024    0.555954
    155          8           0       -0.029744    8.081180    1.293920
    156          6           0       -0.227898    5.762266   -0.242171
    157          6           0       -0.377651    4.942359   -1.530396
    158          6           0       -1.610689    4.050841   -1.384061
    159          8           0       -1.443832    2.923424   -0.867932
    160          8           0       -2.712735    4.543790   -1.696302
    161          1           0        2.181895    6.529699   -2.096502
    162          1           0        0.389453    7.449774   -1.367245
    163          1           0       -1.213638    6.185830   -0.078430
    164          1           0        0.060250    5.257125    0.673910
    165          1           0        0.468357    4.261535   -1.557783
    166          1           0       -0.540005    5.573194   -2.400907
    167          7           0        1.974390    8.720072    0.597957
    168          6           0        2.427557    9.610579    1.646068
    169          1           0        2.149901   10.634962    1.397634
    170          1           0        1.962580    9.327674    2.590139
    171          1           0        3.511372    9.541417    1.739655
    172          1           0        2.482097    8.785123   -0.269800
    173         20           0       -1.630367    0.441674   -1.319841
    174          8           0       -2.860377    0.659911    0.988654
    175          1           0       -3.166815   -0.013462    1.587457
    176          1           0       -3.647091    1.150037    0.752946
 ---------------------------------------------------------------------
 Rotational constants (GHZ):           0.0176619           0.0081657           0.0065294
 Standard basis: SVP (5D, 7F)
 There are  1809 symmetry adapted cartesian basis functions of A   symmetry.
 There are  1717 symmetry adapted basis functions of A   symmetry.
  1717 basis functions,  2922 primitive gaussians,  1809 cartesian basis functions
   358 alpha electrons      358 beta electrons
       nuclear repulsion energy     18453.8780754820 Hartrees.
 NAtoms=  176 NActive=  176 NUniq=  176 SFac= 1.00D+00 NAtFMM=   60 NAOKFM=T Big=T
 Integral buffers will be    131072 words long.
 Raffenetti 2 integral format.
 Two-electron integral symmetry is turned on.
 One-electron integrals computed using PRISM.
 NBasis=  1717 RedAO= T EigKep=  2.73D-04  NBF=  1717
 NBsUse=  1717 1.00D-06 EigRej= -1.00D+00 NBFU=  1717
 ExpMin= 1.98D-02 ExpMax= 3.51D+04 ExpMxC= 5.28D+03 IAcc=3 IRadAn=         5 AccDes= 0.00D+00
 Harris functional with IExCor=  402 and IRadAn=       5 diagonalized for initial guess.
 HarFok:  IExCor=  402 AccDes= 0.00D+00 IRadAn=         5 IDoV= 1 UseB2=F ITyADJ=14
 ICtDFT=  3500011 ScaDFX=  1.000000  1.000000  1.000000  1.000000
 FoFCou: FMM=F IPFlag=           0 FMFlag=      100000 FMFlg1=        2001
         NFxFlg=           0 DoJE=T BraDBF=F KetDBF=T FulRan=T
         wScrn=  0.000000 ICntrl=       500 IOpCl=  0 I1Cent=   200000004 NGrid=           0
         NMat0=    1 NMatS0=      1 NMatT0=    0 NMatD0=    1 NMtDS0=    0 NMtDT0=    0
 Petite list used in FoFCou.
 Requested convergence on RMS density matrix=1.00D-08 within 128 cycles.
 Requested convergence on MAX density matrix=1.00D-06.
 Requested convergence on             energy=1.00D-06.
 No special actions if energy rises.
 EnCoef did     2 forward-backward iterations
 EnCoef did     3 forward-backward iterations
 EnCoef did     3 forward-backward iterations
 EnCoef did     4 forward-backward iterations
 EnCoef did     2 forward-backward iterations
 EnCoef did   100 forward-backward iterations
 EnCoef did    67 forward-backward iterations
 Rare condition: small coef for last iteration:  0.000D+00
 Rare condition: small coef for last iteration:  0.000D+00
 EnCoef did   100 forward-backward iterations
 EnCoef did   100 forward-backward iterations
 Rare condition: small coef for last iteration:  0.187D-14
 EnCoef did   100 forward-backward iterations
 Restarting incremental Fock formation.
 EnCoef did   100 forward-backward iterations
 Rare condition: small coef for last iteration: -0.140D-14
 EnCoef did   100 forward-backward iterations
 EnCoef did   100 forward-backward iterations
 Rare condition: small coef for last iteration:  0.204D-15
 EnCoef did   100 forward-backward iterations
 EnCoef did   100 forward-backward iterations
 Rare condition: small coef for last iteration:  0.303D-15
 EnCoef did   100 forward-backward iterations
 EnCoef did   100 forward-backward iterations
 Rare condition: small coef for last iteration: -0.205D-15
 EnCoef did   100 forward-backward iterations
 EnCoef did   100 forward-backward iterations
 EnCoef did   100 forward-backward iterations
 EnCoef did   100 forward-backward iterations
 Rare condition: small coef for last iteration: -0.158D-14
 EnCoef did   100 forward-backward iterations
 Rare condition: small coef for last iteration:  0.000D+00
 EnCoef did   100 forward-backward iterations
 EnCoef did    68 forward-backward iterations
 EnCoef did    45 forward-backward iterations
 Restarting incremental Fock formation.
 SCF Done:  E(RB3LYP) =  -5333.33398563     A.U. after   44 cycles
            NFock= 44  Conv=0.13D-08     -V/T= 2.0081
 SCF density gives NOpUse=  1 NOpAll=  1.
 Hyperfine terms turned off by default for NAtoms > 100.

 **********************************************************************

            Population analysis using the SCF density.

 **********************************************************************

 Orbital symmetries:
 BldTbl:  Degeneracy threshold= 1.00D-02
       Occupied  (A) (A) (A) (A) (A) (A) (A) (A) (A) (A) (A) (A)
                 (A) (A) (A) (A) (A) (A) (A) (A) (A) (A) (A) (A)
                 (A) (A) (A) (A) (A) (A) (A) (A) (A) (A) (A) (A)
                 (A) (A) (A) (A) (A) (A) (A) (A) (A) (A) (A) (A)
                 (A) (A) (A) (A) (A) (A) (A) (A) (A) (A) (A) (A)
                 (A) (A) (A) (A) (A) (A) (A) (A) (A) (A) (A) (A)
                 (A) (A) (A) (A) (A) (A) (A) (A) (A) (A) (A) (A)
                 (A) (A) (A) (A) (A) (A) (A) (A) (A) (A) (A) (A)
                 (A) (A) (A) (A) (A) (A) (A) (A) (A) (A) (A) (A)
                 (A) (A) (A) (A) (A) (A) (A) (A) (A) (A) (A) (A)
                 (A) (A) (A) (A) (A) (A) (A) (A) (A) (A) (A) (A)
                 (A) (A) (A) (A) (A) (A) (A) (A) (A) (A) (A) (A)
                 (A) (A) (A) (A) (A) (A) (A) (A) (A) (A) (A) (A)
                 (A) (A) (A) (A) (A) (A) (A) (A) (A) (A) (A) (A)
                 (A) (A) (A) (A) (A) (A) (A) (A) (A) (A) (A) (A)
                 (A) (A) (A) (A) (A) (A) (A) (A) (A) (A) (A) (A)
                 (A) (A) (A) (A) (A) (A) (A) (A) (A) (A) (A) (A)
                 (A) (A) (A) (A) (A) (A) (A) (A) (A) (A) (A) (A)
                 (A) (A) (A) (A) (A) (A) (A) (A) (A) (A) (A) (A)
                 (A) (A) (A) (A) (A) (A) (A) (A) (A) (A) (A) (A)
                 (A) (A) (A) (A) (A) (A) (A) (A) (A) (A) (A) (A)
                 (A) (A) (A) (A) (A) (A) (A) (A) (A) (A) (A) (A)
                 (A) (A) (A) (A) (A) (A) (A) (A) (A) (A) (A) (A)
                 (A) (A) (A) (A) (A) (A) (A) (A) (A) (A) (A) (A)
                 (A) (A) (A) (A) (A) (A) (A) (A) (A) (A) (A) (A)
                 (A) (A) (A) (A) (A) (A) (A) (A) (A) (A) (A) (A)
                 (A) (A) (A) (A) (A) (A) (A) (A) (A) (A) (A) (A)
                 (A) (A) (A) (A) (A) (A) (A) (A) (A) (A) (A) (A)
                 (A) (A) (A) (A) (A) (A) (A) (A) (A) (A) (A) (A)
                 (A) (A) (A) (A) (A) (A) (A) (A) (A) (A)
       Virtual   (A) (A) (A) (A) (A) (A) (A) (A) (A) (A) (A) (A)
                 (A) (A) (A) (A) (A) (A) (A) (A) (A) (A) (A) (A)
                 (A) (A) (A) (A) (A) (A) (A) (A) (A) (A) (A) (A)
                 (A) (A) (A) (A) (A) (A) (A) (A) (A) (A) (A) (A)
                 (A) (A) (A) (A) (A) (A) (A) (A) (A) (A) (A) (A)
                 (A) (A) (A) (A) (A) (A) (A) (A) (A) (A) (A) (A)
                 (A) (A) (A) (A) (A) (A) (A) (A) (A) (A) (A) (A)
                 (A) (A) (A) (A) (A) (A) (A) (A) (A) (A) (A) (A)
                 (A) (A) (A) (A) (A) (A) (A) (A) (A) (A) (A) (A)
                 (A) (A) (A) (A) (A) (A) (A) (A) (A) (A) (A) (A)
                 (A) (A) (A) (A) (A) (A) (A) (A) (A) (A) (A) (A)
                 (A) (A) (A) (A) (A) (A) (A) (A) (A) (A) (A) (A)
                 (A) (A) (A) (A) (A) (A) (A) (A) (A) (A) (A) (A)
                 (A) (A) (A) (A) (A) (A) (A) (A) (A) (A) (A) (A)
                 (A) (A) (A) (A) (A) (A) (A) (A) (A) (A) (A) (A)
                 (A) (A) (A) (A) (A) (A) (A) (A) (A) (A) (A) (A)
                 (A) (A) (A) (A) (A) (A) (A) (A) (A) (A) (A) (A)
                 (A) (A) (A) (A) (A) (A) (A) (A) (A) (A) (A) (A)
                 (A) (A) (A) (A) (A) (A) (A) (A) (A) (A) (A) (A)
                 (A) (A) (A) (A) (A) (A) (A) (A) (A) (A) (A) (A)
                 (A) (A) (A) (A) (A) (A) (A) (A) (A) (A) (A) (A)
                 (A) (A) (A) (A) (A) (A) (A) (A) (A) (A) (A) (A)
                 (A) (A) (A) (A) (A) (A) (A) (A) (A) (A) (A) (A)
                 (A) (A) (A) (A) (A) (A) (A) (A) (A) (A) (A) (A)
                 (A) (A) (A) (A) (A) (A) (A) (A) (A) (A) (A) (A)
                 (A) (A) (A) (A) (A) (A) (A) (A) (A) (A) (A) (A)
                 (A) (A) (A) (A) (A) (A) (A) (A) (A) (A) (A) (A)
                 (A) (A) (A) (A) (A) (A) (A) (A) (A) (A) (A) (A)
                 (A) (A) (A) (A) (A) (A) (A) (A) (A) (A) (A) (A)
                 (A) (A) (A) (A) (A) (A) (A) (A) (A) (A) (A) (A)
                 (A) (A) (A) (A) (A) (A) (A) (A) (A) (A) (A) (A)
                 (A) (A) (A) (A) (A) (A) (A) (A) (A) (A) (A) (A)
                 (A) (A) (A) (A) (A) (A) (A) (A) (A) (A) (A) (A)
                 (A) (A) (A) (A) (A) (A) (A) (A) (A) (A) (A) (A)
                 (A) (A) (A) (A) (A) (A) (A) (A) (A) (A) (A) (A)
                 (A) (A) (A) (A) (A) (A) (A) (A) (A) (A) (A) (A)
                 (A) (A) (A) (A) (A) (A) (A) (A) (A) (A) (A) (A)
                 (A) (A) (A) (A) (A) (A) (A) (A) (A) (A) (A) (A)
                 (A) (A) (A) (A) (A) (A) (A) (A) (A) (A) (A) (A)
                 (A) (A) (A) (A) (A) (A) (A) (A) (A) (A) (A) (A)
                 (A) (A) (A) (A) (A) (A) (A) (A) (A) (A) (A) (A)
                 (A) (A) (A) (A) (A) (A) (A) (A) (A) (A) (A) (A)
                 (A) (A) (A) (A) (A) (A) (A) (A) (A) (A) (A) (A)
                 (A) (A) (A) (A) (A) (A) (A) (A) (A) (A) (A) (A)
                 (A) (A) (A) (A) (A) (A) (A) (A) (A) (A) (A) (A)
                 (A) (A) (A) (A) (A) (A) (A) (A) (A) (A) (A) (A)
                 (A) (A) (A) (A) (A) (A) (A) (A) (A) (A) (A) (A)
                 (A) (A) (A) (A) (A) (A) (A) (A) (A) (A) (A) (A)
                 (A) (A) (A) (A) (A) (A) (A) (A) (A) (A) (A) (A)
                 (A) (A) (A) (A) (A) (A) (A) (A) (A) (A) (A) (A)
                 (A) (A) (A) (A) (A) (A) (A) (A) (A) (A) (A) (A)
                 (A) (A) (A) (A) (A) (A) (A) (A) (A) (A) (A) (A)
                 (A) (A) (A) (A) (A) (A) (A) (A) (A) (A) (A) (A)
                 (A) (A) (A) (A) (A) (A) (A) (A) (A) (A) (A) (A)
                 (A) (A) (A) (A) (A) (A) (A) (A) (A) (A) (A) (A)
                 (A) (A) (A) (A) (A) (A) (A) (A) (A) (A) (A) (A)
                 (A) (A) (A) (A) (A) (A) (A) (A) (A) (A) (A) (A)
                 (A) (A) (A) (A) (A) (A) (A) (A) (A) (A) (A) (A)
                 (A) (A) (A) (A) (A) (A) (A) (A) (A) (A) (A) (A)
                 (A) (A) (A) (A) (A) (A) (A) (A) (A) (A) (A) (A)
                 (A) (A) (A) (A) (A) (A) (A) (A) (A) (A) (A) (A)
                 (A) (A) (A) (A) (A) (A) (A) (A) (A) (A) (A) (A)
                 (A) (A) (A) (A) (A) (A) (A) (A) (A) (A) (A) (A)
                 (A) (A) (A) (A) (A) (A) (A) (A) (A) (A) (A) (A)
                 (A) (A) (A) (A) (A) (A) (A) (A) (A) (A) (A) (A)
                 (A) (A) (A) (A) (A) (A) (A) (A) (A) (A) (A) (A)
                 (A) (A) (A) (A) (A) (A) (A) (A) (A) (A) (A) (A)
                 (A) (A) (A) (A) (A) (A) (A) (A) (A) (A) (A) (A)
                 (A) (A) (A) (A) (A) (A) (A) (A) (A) (A) (A) (A)
                 (A) (A) (A) (A) (A) (A) (A) (A) (A) (A) (A) (A)
                 (A) (A) (A) (A) (A) (A) (A) (A) (A) (A) (A) (A)
                 (A) (A) (A) (A) (A) (A) (A) (A) (A) (A) (A) (A)
                 (A) (A) (A) (A) (A) (A) (A) (A) (A) (A) (A) (A)
                 (A) (A) (A) (A) (A) (A) (A) (A) (A) (A) (A) (A)
                 (A) (A) (A) (A) (A) (A) (A) (A) (A) (A) (A) (A)
                 (A) (A) (A) (A) (A) (A) (A) (A) (A) (A) (A) (A)
                 (A) (A) (A) (A) (A) (A) (A) (A) (A) (A) (A) (A)
                 (A) (A) (A) (A) (A) (A) (A) (A) (A) (A) (A) (A)
                 (A) (A) (A) (A) (A) (A) (A) (A) (A) (A) (A) (A)
                 (A) (A) (A) (A) (A) (A) (A) (A) (A) (A) (A) (A)
                 (A) (A) (A) (A) (A) (A) (A) (A) (A) (A) (A) (A)
                 (A) (A) (A) (A) (A) (A) (A) (A) (A) (A) (A) (A)
                 (A) (A) (A) (A) (A) (A) (A) (A) (A) (A) (A) (A)
                 (A) (A) (A) (A) (A) (A) (A) (A) (A) (A) (A) (A)
                 (A) (A) (A) (A) (A) (A) (A) (A) (A) (A) (A) (A)
                 (A) (A) (A) (A) (A) (A) (A) (A) (A) (A) (A) (A)
                 (A) (A) (A) (A) (A) (A) (A) (A) (A) (A) (A) (A)
                 (A) (A) (A) (A) (A) (A) (A) (A) (A) (A) (A) (A)
                 (A) (A) (A) (A) (A) (A) (A) (A) (A) (A) (A) (A)
                 (A) (A) (A) (A) (A) (A) (A) (A) (A) (A) (A) (A)
                 (A) (A) (A) (A) (A) (A) (A) (A) (A) (A) (A) (A)
                 (A) (A) (A) (A) (A) (A) (A) (A) (A) (A) (A) (A)
                 (A) (A) (A) (A) (A) (A) (A) (A) (A) (A) (A) (A)
                 (A) (A) (A) (A) (A) (A) (A) (A) (A) (A) (A) (A)
                 (A) (A) (A) (A) (A) (A) (A) (A) (A) (A) (A) (A)
                 (A) (A) (A) (A) (A) (A) (A) (A) (A) (A) (A) (A)
                 (A) (A) (A) (A) (A) (A) (A) (A) (A) (A) (A) (A)
                 (A) (A) (A) (A) (A) (A) (A) (A) (A) (A) (A) (A)
                 (A) (A) (A) (A) (A) (A) (A) (A) (A) (A) (A) (A)
                 (A) (A) (A) (A) (A) (A) (A) (A) (A) (A) (A) (A)
                 (A) (A) (A) (A) (A) (A) (A) (A) (A) (A) (A) (A)
                 (A) (A) (A) (A) (A) (A) (A) (A) (A) (A) (A) (A)
                 (A) (A) (A) (A) (A) (A) (A) (A) (A) (A) (A) (A)
                 (A) (A) (A) (A) (A) (A) (A) (A) (A) (A) (A) (A)
                 (A) (A) (A) (A) (A) (A) (A) (A) (A) (A) (A) (A)
                 (A) (A) (A) (A) (A) (A) (A) (A) (A) (A) (A) (A)
                 (A) (A) (A) (A) (A) (A) (A) (A) (A) (A) (A) (A)
                 (A) (A) (A) (A) (A) (A) (A) (A) (A) (A) (A) (A)
                 (A) (A) (A) (A) (A) (A) (A) (A) (A) (A) (A) (A)
                 (A) (A) (A) (A) (A) (A) (A) (A) (A) (A) (A) (A)
                 (A) (A) (A) (A) (A) (A) (A) (A) (A) (A) (A) (A)
                 (A) (A) (A) (A) (A) (A) (A) (A) (A) (A) (A) (A)
                 (A) (A) (A) (A) (A) (A) (A) (A) (A) (A) (A) (A)
                 (A) (A) (A)
 The electronic state is 1-A.
 Alpha  occ. eigenvalues -- -145.45806 -19.16919 -19.15903 -19.14514 -19.14418
 Alpha  occ. eigenvalues --  -19.14139 -19.13814 -19.12268 -19.11283 -19.11138
 Alpha  occ. eigenvalues --  -19.09624 -19.07935 -19.07708 -19.07533 -19.07400
 Alpha  occ. eigenvalues --  -19.06192 -19.06064 -19.05421 -19.05036 -19.02478
 Alpha  occ. eigenvalues --  -19.02381 -19.01478 -18.96374 -18.95978 -15.51647
 Alpha  occ. eigenvalues --  -14.56703 -14.40814 -14.40458 -14.39765 -14.37769
 Alpha  occ. eigenvalues --  -14.36908 -14.36477 -14.35634 -14.34869 -14.34164
 Alpha  occ. eigenvalues --  -14.33659 -14.32796 -14.32460 -14.32426 -14.28965
 Alpha  occ. eigenvalues --  -12.65272 -12.65241 -12.65156 -10.33113 -10.32839
 Alpha  occ. eigenvalues --  -10.32780 -10.32356 -10.31043 -10.30432 -10.29925
 Alpha  occ. eigenvalues --  -10.28953 -10.28422 -10.27297 -10.27159 -10.26735
 Alpha  occ. eigenvalues --  -10.26597 -10.26505 -10.26470 -10.26144 -10.25972
 Alpha  occ. eigenvalues --  -10.25573 -10.25375 -10.24976 -10.24924 -10.24641
 Alpha  occ. eigenvalues --  -10.24473 -10.23770 -10.23265 -10.23240 -10.22920
 Alpha  occ. eigenvalues --  -10.22376 -10.22135 -10.21981 -10.21109 -10.21100
 Alpha  occ. eigenvalues --  -10.21072 -10.20925 -10.20664 -10.20600 -10.20595
 Alpha  occ. eigenvalues --  -10.20518 -10.20323 -10.20180 -10.20042 -10.19512
 Alpha  occ. eigenvalues --  -10.18301 -10.18042 -10.17795 -10.17516 -10.17417
 Alpha  occ. eigenvalues --  -10.17242 -10.16111 -10.15718 -10.14244 -10.13991
 Alpha  occ. eigenvalues --  -10.13623 -10.12247  -1.88123  -1.15708  -1.15485
 Alpha  occ. eigenvalues --   -1.14774  -1.12207  -1.07971  -1.07137  -1.06599
 Alpha  occ. eigenvalues --   -1.05564  -1.05472  -1.04630  -1.04181  -1.04136
 Alpha  occ. eigenvalues --   -1.03143  -1.01277  -1.01162  -1.00490  -1.00417
 Alpha  occ. eigenvalues --   -1.00362  -0.99256  -0.99040  -0.98303  -0.97571
 Alpha  occ. eigenvalues --   -0.97460  -0.97076  -0.95913  -0.95798  -0.94661
 Alpha  occ. eigenvalues --   -0.93643  -0.92364  -0.92207  -0.91545  -0.91043
 Alpha  occ. eigenvalues --   -0.90914  -0.90863  -0.89568  -0.89317  -0.88901
 Alpha  occ. eigenvalues --   -0.88113  -0.87734  -0.87587  -0.86501  -0.85695
 Alpha  occ. eigenvalues --   -0.83222  -0.82695  -0.81373  -0.80964  -0.80251
 Alpha  occ. eigenvalues --   -0.79057  -0.78036  -0.77181  -0.77042  -0.76010
 Alpha  occ. eigenvalues --   -0.75704  -0.75607  -0.75544  -0.74465  -0.73808
 Alpha  occ. eigenvalues --   -0.73566  -0.72774  -0.72029  -0.71050  -0.70754
 Alpha  occ. eigenvalues --   -0.70562  -0.70195  -0.68233  -0.67251  -0.67166
 Alpha  occ. eigenvalues --   -0.67084  -0.66523  -0.65699  -0.65194  -0.64612
 Alpha  occ. eigenvalues --   -0.64501  -0.63770  -0.63596  -0.63243  -0.62953
 Alpha  occ. eigenvalues --   -0.61992  -0.61916  -0.61096  -0.60570  -0.60511
 Alpha  occ. eigenvalues --   -0.60160  -0.60069  -0.59903  -0.59497  -0.58982
 Alpha  occ. eigenvalues --   -0.58573  -0.57891  -0.57361  -0.57026  -0.56772
 Alpha  occ. eigenvalues --   -0.56458  -0.56319  -0.56294  -0.56114  -0.55786
 Alpha  occ. eigenvalues --   -0.55573  -0.54903  -0.54803  -0.54525  -0.54098
 Alpha  occ. eigenvalues --   -0.53711  -0.53626  -0.53300  -0.52975  -0.52778
 Alpha  occ. eigenvalues --   -0.52616  -0.51673  -0.51470  -0.50945  -0.50366
 Alpha  occ. eigenvalues --   -0.50294  -0.50040  -0.49973  -0.49376  -0.49247
 Alpha  occ. eigenvalues --   -0.48896  -0.48825  -0.48669  -0.48093  -0.47991
 Alpha  occ. eigenvalues --   -0.47883  -0.47554  -0.46971  -0.46646  -0.46451
 Alpha  occ. eigenvalues --   -0.46320  -0.46145  -0.46105  -0.46028  -0.45857
 Alpha  occ. eigenvalues --   -0.45745  -0.45195  -0.45097  -0.44959  -0.44868
 Alpha  occ. eigenvalues --   -0.44733  -0.44488  -0.44288  -0.44213  -0.44016
 Alpha  occ. eigenvalues --   -0.43903  -0.43836  -0.43725  -0.43697  -0.43608
 Alpha  occ. eigenvalues --   -0.43237  -0.42808  -0.42725  -0.42599  -0.42439
 Alpha  occ. eigenvalues --   -0.42190  -0.42065  -0.41998  -0.41482  -0.41402
 Alpha  occ. eigenvalues --   -0.41307  -0.41069  -0.40943  -0.40852  -0.40749
 Alpha  occ. eigenvalues --   -0.40511  -0.40329  -0.40156  -0.40123  -0.39870
 Alpha  occ. eigenvalues --   -0.39758  -0.39683  -0.39594  -0.39414  -0.39403
 Alpha  occ. eigenvalues --   -0.39249  -0.39128  -0.39040  -0.39036  -0.38830
 Alpha  occ. eigenvalues --   -0.38743  -0.38620  -0.38602  -0.38411  -0.38243
 Alpha  occ. eigenvalues --   -0.37631  -0.37469  -0.37413  -0.37090  -0.36979
 Alpha  occ. eigenvalues --   -0.36858  -0.36840  -0.36658  -0.36515  -0.36371
 Alpha  occ. eigenvalues --   -0.36291  -0.35715  -0.35410  -0.35265  -0.35197
 Alpha  occ. eigenvalues --   -0.34993  -0.34686  -0.34656  -0.34620  -0.34501
 Alpha  occ. eigenvalues --   -0.34431  -0.34138  -0.34111  -0.33409  -0.33363
 Alpha  occ. eigenvalues --   -0.33266  -0.33101  -0.32782  -0.32661  -0.32636
 Alpha  occ. eigenvalues --   -0.32485  -0.32348  -0.32135  -0.31911  -0.31832
 Alpha  occ. eigenvalues --   -0.31355  -0.31267  -0.30683  -0.30584  -0.30422
 Alpha  occ. eigenvalues --   -0.29774  -0.29575  -0.29421  -0.29219  -0.28790
 Alpha  occ. eigenvalues --   -0.28434  -0.27576  -0.27477  -0.27128  -0.26773
 Alpha  occ. eigenvalues --   -0.26655  -0.26469  -0.25833  -0.25347  -0.25332
 Alpha  occ. eigenvalues --   -0.25305  -0.25176  -0.24288  -0.23957  -0.23822
 Alpha  occ. eigenvalues --   -0.23371  -0.23015  -0.22982  -0.22612  -0.22508
 Alpha  occ. eigenvalues --   -0.21662  -0.21534  -0.21490  -0.21375  -0.21025
 Alpha  occ. eigenvalues --   -0.20779  -0.19691  -0.18513  -0.18299  -0.17549
 Alpha  occ. eigenvalues --   -0.14221  -0.13452  -0.10621
 Alpha virt. eigenvalues --   -0.09707  -0.07224  -0.03643  -0.03493  -0.03134
 Alpha virt. eigenvalues --   -0.03101  -0.03050  -0.02209  -0.02059  -0.01188
 Alpha virt. eigenvalues --   -0.01106  -0.00616  -0.00344  -0.00270   0.00034
 Alpha virt. eigenvalues --    0.00896   0.01618   0.02081   0.02208   0.02398
 Alpha virt. eigenvalues --    0.02621   0.02947   0.03147   0.03439   0.03543
 Alpha virt. eigenvalues --    0.03711   0.03928   0.03949   0.04057   0.05008
 Alpha virt. eigenvalues --    0.05129   0.05282   0.05579   0.05894   0.06176
 Alpha virt. eigenvalues --    0.06262   0.06439   0.06726   0.06993   0.07164
 Alpha virt. eigenvalues --    0.07537   0.07677   0.07731   0.07819   0.08363
 Alpha virt. eigenvalues --    0.08449   0.08698   0.08801   0.08972   0.09055
 Alpha virt. eigenvalues --    0.09242   0.09481   0.09682   0.09806   0.10248
 Alpha virt. eigenvalues --    0.10522   0.10589   0.10846   0.11085   0.11280
 Alpha virt. eigenvalues --    0.11321   0.11593   0.11661   0.11721   0.11965
 Alpha virt. eigenvalues --    0.11992   0.12264   0.12466   0.12610   0.12727
 Alpha virt. eigenvalues --    0.12888   0.13228   0.13304   0.13463   0.13606
 Alpha virt. eigenvalues --    0.13653   0.13958   0.14011   0.14121   0.14256
 Alpha virt. eigenvalues --    0.14434   0.14597   0.14824   0.14837   0.14962
 Alpha virt. eigenvalues --    0.15104   0.15305   0.15474   0.15621   0.15773
 Alpha virt. eigenvalues --    0.15978   0.16158   0.16174   0.16417   0.16471
 Alpha virt. eigenvalues --    0.16617   0.16824   0.16918   0.17063   0.17336
 Alpha virt. eigenvalues --    0.17480   0.17847   0.17930   0.18173   0.18311
 Alpha virt. eigenvalues --    0.18533   0.18712   0.18795   0.18958   0.19088
 Alpha virt. eigenvalues --    0.19220   0.19300   0.19488   0.19741   0.20052
 Alpha virt. eigenvalues --    0.20150   0.20280   0.20347   0.20692   0.20737
 Alpha virt. eigenvalues --    0.21036   0.21280   0.21615   0.21778   0.22026
 Alpha virt. eigenvalues --    0.22101   0.22479   0.22842   0.22950   0.23072
 Alpha virt. eigenvalues --    0.23308   0.23459   0.23708   0.23917   0.24161
 Alpha virt. eigenvalues --    0.24272   0.24475   0.24828   0.24920   0.25130
 Alpha virt. eigenvalues --    0.25336   0.25499   0.25968   0.26405   0.26494
 Alpha virt. eigenvalues --    0.26722   0.26941   0.27115   0.27171   0.27260
 Alpha virt. eigenvalues --    0.27428   0.27840   0.28303   0.28490   0.29085
 Alpha virt. eigenvalues --    0.29430   0.29682   0.29852   0.29977   0.30269
 Alpha virt. eigenvalues --    0.30408   0.30616   0.31001   0.31702   0.31791
 Alpha virt. eigenvalues --    0.31856   0.32004   0.32261   0.32619   0.32647
 Alpha virt. eigenvalues --    0.32746   0.32918   0.33442   0.34025   0.34193
 Alpha virt. eigenvalues --    0.34357   0.34422   0.34664   0.35017   0.35096
 Alpha virt. eigenvalues --    0.35409   0.35678   0.36379   0.36517   0.36912
 Alpha virt. eigenvalues --    0.37575   0.37710   0.38258   0.38317   0.38783
 Alpha virt. eigenvalues --    0.38872   0.39496   0.39737   0.39945   0.40174
 Alpha virt. eigenvalues --    0.40248   0.40325   0.40503   0.40670   0.40807
 Alpha virt. eigenvalues --    0.41140   0.41305   0.41511   0.41642   0.41796
 Alpha virt. eigenvalues --    0.42116   0.42142   0.42340   0.42717   0.42976
 Alpha virt. eigenvalues --    0.43110   0.43283   0.43453   0.43626   0.44097
 Alpha virt. eigenvalues --    0.44356   0.44468   0.44583   0.44613   0.44843
 Alpha virt. eigenvalues --    0.45118   0.45251   0.45354   0.45613   0.45829
 Alpha virt. eigenvalues --    0.46365   0.46590   0.46714   0.46798   0.46939
 Alpha virt. eigenvalues --    0.47117   0.47311   0.47365   0.47684   0.47923
 Alpha virt. eigenvalues --    0.48067   0.48183   0.48327   0.48485   0.48539
 Alpha virt. eigenvalues --    0.48797   0.49362   0.49999   0.50099   0.50184
 Alpha virt. eigenvalues --    0.50413   0.50554   0.50799   0.51080   0.51149
 Alpha virt. eigenvalues --    0.51350   0.51481   0.51784   0.51886   0.52076
 Alpha virt. eigenvalues --    0.52216   0.52265   0.52826   0.53031   0.53150
 Alpha virt. eigenvalues --    0.53272   0.53329   0.53723   0.54111   0.54395
 Alpha virt. eigenvalues --    0.54461   0.54721   0.54845   0.54873   0.55129
 Alpha virt. eigenvalues --    0.55208   0.55437   0.55487   0.55745   0.55933
 Alpha virt. eigenvalues --    0.56051   0.56300   0.56619   0.56748   0.56910
 Alpha virt. eigenvalues --    0.57074   0.57142   0.57332   0.57465   0.57674
 Alpha virt. eigenvalues --    0.57772   0.58237   0.58299   0.58475   0.58834
 Alpha virt. eigenvalues --    0.58905   0.59101   0.59184   0.59431   0.59566
 Alpha virt. eigenvalues --    0.59682   0.59744   0.59802   0.59961   0.60005
 Alpha virt. eigenvalues --    0.60237   0.60496   0.60607   0.60684   0.60940
 Alpha virt. eigenvalues --    0.61019   0.61086   0.61239   0.61405   0.61551
 Alpha virt. eigenvalues --    0.61575   0.61743   0.61825   0.61946   0.61988
 Alpha virt. eigenvalues --    0.62184   0.62362   0.62455   0.62607   0.62815
 Alpha virt. eigenvalues --    0.62895   0.63003   0.63139   0.63292   0.63403
 Alpha virt. eigenvalues --    0.63527   0.63715   0.63757   0.63939   0.64089
 Alpha virt. eigenvalues --    0.64173   0.64341   0.64503   0.64616   0.64708
 Alpha virt. eigenvalues --    0.64827   0.64895   0.65003   0.65249   0.65268
 Alpha virt. eigenvalues --    0.65323   0.65443   0.65687   0.65720   0.65862
 Alpha virt. eigenvalues --    0.65942   0.66156   0.66216   0.66380   0.66436
 Alpha virt. eigenvalues --    0.66506   0.66567   0.66607   0.66756   0.66913
 Alpha virt. eigenvalues --    0.67068   0.67130   0.67157   0.67355   0.67437
 Alpha virt. eigenvalues --    0.67545   0.67619   0.67822   0.67981   0.68104
 Alpha virt. eigenvalues --    0.68187   0.68217   0.68363   0.68372   0.68487
 Alpha virt. eigenvalues --    0.68555   0.68743   0.68864   0.68912   0.69023
 Alpha virt. eigenvalues --    0.69159   0.69271   0.69332   0.69464   0.69694
 Alpha virt. eigenvalues --    0.69726   0.69905   0.70029   0.70184   0.70268
 Alpha virt. eigenvalues --    0.70348   0.70479   0.70607   0.70703   0.70753
 Alpha virt. eigenvalues --    0.70828   0.71042   0.71223   0.71337   0.71387
 Alpha virt. eigenvalues --    0.71611   0.71672   0.71845   0.71865   0.71905
 Alpha virt. eigenvalues --    0.71999   0.72207   0.72354   0.72508   0.72567
 Alpha virt. eigenvalues --    0.72630   0.72643   0.72833   0.72934   0.73125
 Alpha virt. eigenvalues --    0.73330   0.73417   0.73602   0.73763   0.73837
 Alpha virt. eigenvalues --    0.74057   0.74383   0.74395   0.74668   0.74808
 Alpha virt. eigenvalues --    0.75026   0.75420   0.75750   0.75846   0.75958
 Alpha virt. eigenvalues --    0.76653   0.77085   0.77204   0.77425   0.77765
 Alpha virt. eigenvalues --    0.78002   0.78092   0.78128   0.78261   0.78468
 Alpha virt. eigenvalues --    0.78850   0.79409   0.79818   0.79985   0.80250
 Alpha virt. eigenvalues --    0.80448   0.80784   0.80983   0.81190   0.81241
 Alpha virt. eigenvalues --    0.81510   0.81753   0.82017   0.82260   0.82433
 Alpha virt. eigenvalues --    0.82794   0.83508   0.83528   0.83592   0.83665
 Alpha virt. eigenvalues --    0.83970   0.84548   0.84764   0.85143   0.85682
 Alpha virt. eigenvalues --    0.85922   0.86228   0.86635   0.86910   0.87136
 Alpha virt. eigenvalues --    0.87353   0.87614   0.87723   0.88246   0.88324
 Alpha virt. eigenvalues --    0.88661   0.89600   0.89651   0.89866   0.90055
 Alpha virt. eigenvalues --    0.90328   0.90892   0.91060   0.91259   0.91406
 Alpha virt. eigenvalues --    0.91728   0.92022   0.92255   0.92312   0.92581
 Alpha virt. eigenvalues --    0.92766   0.93032   0.93246   0.93753   0.94425
 Alpha virt. eigenvalues --    0.94864   0.95099   0.95234   0.95486   0.96151
 Alpha virt. eigenvalues --    0.96261   0.96628   0.97083   0.97222   0.97685
 Alpha virt. eigenvalues --    0.98024   0.98087   0.98310   0.98648   0.98693
 Alpha virt. eigenvalues --    0.99078   0.99374   0.99664   1.00028   1.00528
 Alpha virt. eigenvalues --    1.00779   1.01194   1.01450   1.01701   1.01975
 Alpha virt. eigenvalues --    1.02109   1.02421   1.02807   1.03164   1.03256
 Alpha virt. eigenvalues --    1.03485   1.03734   1.04014   1.04301   1.04392
 Alpha virt. eigenvalues --    1.04653   1.05182   1.05480   1.05652   1.06044
 Alpha virt. eigenvalues --    1.06411   1.06531   1.06922   1.07199   1.07703
 Alpha virt. eigenvalues --    1.07861   1.08016   1.08249   1.08497   1.08583
 Alpha virt. eigenvalues --    1.08817   1.09434   1.09552   1.10056   1.10392
 Alpha virt. eigenvalues --    1.10651   1.10717   1.11184   1.11605   1.11691
 Alpha virt. eigenvalues --    1.12315   1.12368   1.12519   1.12657   1.12912
 Alpha virt. eigenvalues --    1.13233   1.13509   1.13694   1.13874   1.14275
 Alpha virt. eigenvalues --    1.14484   1.14817   1.15140   1.15402   1.15658
 Alpha virt. eigenvalues --    1.15901   1.16085   1.16285   1.16619   1.16847
 Alpha virt. eigenvalues --    1.17121   1.17217   1.17453   1.18027   1.18100
 Alpha virt. eigenvalues --    1.18417   1.18864   1.19129   1.19259   1.19326
 Alpha virt. eigenvalues --    1.19514   1.19712   1.20094   1.20593   1.20943
 Alpha virt. eigenvalues --    1.21041   1.21594   1.21785   1.21871   1.21982
 Alpha virt. eigenvalues --    1.22123   1.22277   1.22365   1.22540   1.23103
 Alpha virt. eigenvalues --    1.23389   1.23709   1.24126   1.24265   1.24417
 Alpha virt. eigenvalues --    1.24662   1.24972   1.25285   1.25337   1.25641
 Alpha virt. eigenvalues --    1.25916   1.26298   1.26398   1.26529   1.26856
 Alpha virt. eigenvalues --    1.26983   1.27101   1.27469   1.27689   1.27754
 Alpha virt. eigenvalues --    1.28213   1.28498   1.28614   1.29058   1.29508
 Alpha virt. eigenvalues --    1.29598   1.29876   1.30081   1.30418   1.30892
 Alpha virt. eigenvalues --    1.31048   1.31462   1.31545   1.31769   1.32103
 Alpha virt. eigenvalues --    1.32907   1.33022   1.33346   1.33475   1.33808
 Alpha virt. eigenvalues --    1.34232   1.34593   1.34677   1.34869   1.35101
 Alpha virt. eigenvalues --    1.36004   1.36143   1.36373   1.36655   1.36752
 Alpha virt. eigenvalues --    1.37025   1.37139   1.37416   1.37732   1.38192
 Alpha virt. eigenvalues --    1.38366   1.38463   1.38948   1.39109   1.39334
 Alpha virt. eigenvalues --    1.39799   1.40543   1.40982   1.41192   1.41287
 Alpha virt. eigenvalues --    1.41481   1.41679   1.41949   1.42116   1.42367
 Alpha virt. eigenvalues --    1.42454   1.42840   1.43340   1.43398   1.43724
 Alpha virt. eigenvalues --    1.44221   1.44855   1.45048   1.45145   1.45501
 Alpha virt. eigenvalues --    1.46016   1.46247   1.46479   1.46741   1.46896
 Alpha virt. eigenvalues --    1.47425   1.47844   1.48593   1.48876   1.49309
 Alpha virt. eigenvalues --    1.49624   1.49921   1.50316   1.51033   1.51231
 Alpha virt. eigenvalues --    1.51438   1.51656   1.51816   1.51893   1.52108
 Alpha virt. eigenvalues --    1.52212   1.52529   1.52798   1.53822   1.54139
 Alpha virt. eigenvalues --    1.54463   1.54759   1.54977   1.55431   1.55912
 Alpha virt. eigenvalues --    1.56018   1.56096   1.56284   1.56603   1.56744
 Alpha virt. eigenvalues --    1.57046   1.57492   1.57530   1.57842   1.58408
 Alpha virt. eigenvalues --    1.58653   1.59345   1.60113   1.60182   1.61100
 Alpha virt. eigenvalues --    1.61499   1.61716   1.61932   1.62466   1.62553
 Alpha virt. eigenvalues --    1.62840   1.63083   1.63157   1.63412   1.63865
 Alpha virt. eigenvalues --    1.64016   1.64235   1.64716   1.65091   1.65259
 Alpha virt. eigenvalues --    1.65566   1.65682   1.65863   1.66206   1.66472
 Alpha virt. eigenvalues --    1.66630   1.67285   1.67478   1.67544   1.67905
 Alpha virt. eigenvalues --    1.68226   1.68756   1.68963   1.69141   1.69220
 Alpha virt. eigenvalues --    1.69809   1.69956   1.70109   1.70137   1.70229
 Alpha virt. eigenvalues --    1.70630   1.71289   1.71571   1.71838   1.71941
 Alpha virt. eigenvalues --    1.72050   1.72152   1.72592   1.72829   1.72985
 Alpha virt. eigenvalues --    1.73295   1.73359   1.73429   1.73785   1.74057
 Alpha virt. eigenvalues --    1.74084   1.74189   1.74391   1.74904   1.75081
 Alpha virt. eigenvalues --    1.75090   1.75289   1.75421   1.75531   1.75651
 Alpha virt. eigenvalues --    1.75689   1.76305   1.76660   1.76728   1.77107
 Alpha virt. eigenvalues --    1.77254   1.77309   1.77411   1.77833   1.77899
 Alpha virt. eigenvalues --    1.78094   1.78273   1.78392   1.78497   1.78649
 Alpha virt. eigenvalues --    1.78839   1.78995   1.79062   1.79176   1.79195
 Alpha virt. eigenvalues --    1.79380   1.79501   1.79820   1.79910   1.80114
 Alpha virt. eigenvalues --    1.80450   1.80633   1.80675   1.80770   1.81037
 Alpha virt. eigenvalues --    1.81382   1.81439   1.81756   1.81931   1.82105
 Alpha virt. eigenvalues --    1.82186   1.82261   1.82435   1.82528   1.82716
 Alpha virt. eigenvalues --    1.82745   1.83013   1.83256   1.83445   1.83667
 Alpha virt. eigenvalues --    1.83733   1.83907   1.84649   1.84693   1.84826
 Alpha virt. eigenvalues --    1.84936   1.85194   1.85265   1.85480   1.85547
 Alpha virt. eigenvalues --    1.85907   1.86003   1.86089   1.86584   1.86766
 Alpha virt. eigenvalues --    1.86872   1.87288   1.87308   1.87438   1.87565
 Alpha virt. eigenvalues --    1.87695   1.88171   1.88554   1.88616   1.88686
 Alpha virt. eigenvalues --    1.88948   1.89171   1.89293   1.89649   1.89671
 Alpha virt. eigenvalues --    1.90065   1.90155   1.90281   1.90652   1.90810
 Alpha virt. eigenvalues --    1.91077   1.91326   1.91551   1.91656   1.91752
 Alpha virt. eigenvalues --    1.91968   1.92059   1.92238   1.92454   1.92777
 Alpha virt. eigenvalues --    1.92891   1.93270   1.93357   1.93882   1.94111
 Alpha virt. eigenvalues --    1.94244   1.94659   1.94990   1.95321   1.95485
 Alpha virt. eigenvalues --    1.95708   1.95907   1.95926   1.96259   1.96384
 Alpha virt. eigenvalues --    1.96623   1.96813   1.96955   1.97067   1.97244
 Alpha virt. eigenvalues --    1.97993   1.98128   1.98247   1.98347   1.98599
 Alpha virt. eigenvalues --    1.98764   1.98953   1.99472   1.99521   1.99708
 Alpha virt. eigenvalues --    1.99811   2.00164   2.00390   2.00573   2.00715
 Alpha virt. eigenvalues --    2.00746   2.01044   2.01197   2.01513   2.01677
 Alpha virt. eigenvalues --    2.01766   2.01965   2.02420   2.02580   2.02789
 Alpha virt. eigenvalues --    2.02947   2.03024   2.03081   2.03623   2.03888
 Alpha virt. eigenvalues --    2.04277   2.04721   2.05102   2.05282   2.05547
 Alpha virt. eigenvalues --    2.05664   2.05754   2.05937   2.06315   2.06805
 Alpha virt. eigenvalues --    2.07063   2.07298   2.07412   2.07736   2.08177
 Alpha virt. eigenvalues --    2.08655   2.09007   2.09151   2.09649   2.09762
 Alpha virt. eigenvalues --    2.10057   2.10116   2.10395   2.10532   2.10573
 Alpha virt. eigenvalues --    2.10866   2.11330   2.11435   2.11845   2.12023
 Alpha virt. eigenvalues --    2.12094   2.12144   2.12543   2.13192   2.13825
 Alpha virt. eigenvalues --    2.14328   2.14463   2.14510   2.14710   2.15365
 Alpha virt. eigenvalues --    2.15600   2.15874   2.16007   2.16127   2.16331
 Alpha virt. eigenvalues --    2.16740   2.16851   2.17392   2.17447   2.17598
 Alpha virt. eigenvalues --    2.18119   2.18235   2.18367   2.19048   2.19276
 Alpha virt. eigenvalues --    2.19292   2.19426   2.19769   2.20191   2.20466
 Alpha virt. eigenvalues --    2.20795   2.20958   2.21410   2.22184   2.22400
 Alpha virt. eigenvalues --    2.22490   2.22570   2.22918   2.23733   2.23778
 Alpha virt. eigenvalues --    2.23932   2.24025   2.24744   2.25056   2.25616
 Alpha virt. eigenvalues --    2.26129   2.26466   2.26789   2.27023   2.27229
 Alpha virt. eigenvalues --    2.28085   2.28203   2.28602   2.28684   2.28879
 Alpha virt. eigenvalues --    2.28999   2.29356   2.29439   2.29741   2.30131
 Alpha virt. eigenvalues --    2.30472   2.31364   2.31433   2.31578   2.32066
 Alpha virt. eigenvalues --    2.32122   2.32524   2.32535   2.32989   2.33014
 Alpha virt. eigenvalues --    2.33112   2.33359   2.33728   2.33998   2.34125
 Alpha virt. eigenvalues --    2.34405   2.35055   2.35206   2.35561   2.36351
 Alpha virt. eigenvalues --    2.36441   2.37016   2.37233   2.37775   2.38358
 Alpha virt. eigenvalues --    2.38768   2.39014   2.39112   2.39476   2.39631
 Alpha virt. eigenvalues --    2.39794   2.40324   2.41420   2.41710   2.42091
 Alpha virt. eigenvalues --    2.42691   2.43300   2.43376   2.43529   2.43790
 Alpha virt. eigenvalues --    2.43959   2.44158   2.44287   2.45689   2.46002
 Alpha virt. eigenvalues --    2.46261   2.46389   2.46716   2.47242   2.47771
 Alpha virt. eigenvalues --    2.47830   2.48063   2.48339   2.48555   2.48823
 Alpha virt. eigenvalues --    2.49048   2.49337   2.49990   2.50244   2.50548
 Alpha virt. eigenvalues --    2.50982   2.51132   2.51503   2.52060   2.52288
 Alpha virt. eigenvalues --    2.52562   2.53506   2.53863   2.54069   2.54177
 Alpha virt. eigenvalues --    2.54493   2.54587   2.54794   2.55374   2.55954
 Alpha virt. eigenvalues --    2.56181   2.56779   2.57316   2.57536   2.57891
 Alpha virt. eigenvalues --    2.58156   2.58300   2.58831   2.59237   2.59358
 Alpha virt. eigenvalues --    2.59661   2.60006   2.60049   2.60070   2.60608
 Alpha virt. eigenvalues --    2.60757   2.61070   2.61420   2.61928   2.61976
 Alpha virt. eigenvalues --    2.62104   2.62395   2.62964   2.63326   2.63619
 Alpha virt. eigenvalues --    2.63832   2.63938   2.64298   2.64429   2.64900
 Alpha virt. eigenvalues --    2.65562   2.65945   2.66116   2.66500   2.67107
 Alpha virt. eigenvalues --    2.67338   2.67536   2.67966   2.68557   2.69105
 Alpha virt. eigenvalues --    2.69929   2.70183   2.70252   2.70292   2.70929
 Alpha virt. eigenvalues --    2.71581   2.71625   2.71921   2.71930   2.72363
 Alpha virt. eigenvalues --    2.72464   2.72739   2.73111   2.73186   2.73360
 Alpha virt. eigenvalues --    2.73392   2.73772   2.73816   2.74101   2.74590
 Alpha virt. eigenvalues --    2.74654   2.74850   2.75257   2.75431   2.76457
 Alpha virt. eigenvalues --    2.76498   2.76865   2.76966   2.77335   2.77560
 Alpha virt. eigenvalues --    2.77601   2.77814   2.78182   2.78797   2.79010
 Alpha virt. eigenvalues --    2.79212   2.79359   2.79490   2.79663   2.80211
 Alpha virt. eigenvalues --    2.80457   2.80694   2.81102   2.81508   2.81563
 Alpha virt. eigenvalues --    2.81884   2.81961   2.82226   2.82513   2.82566
 Alpha virt. eigenvalues --    2.82840   2.83364   2.83699   2.83929   2.83975
 Alpha virt. eigenvalues --    2.84298   2.84791   2.84897   2.85128   2.85347
 Alpha virt. eigenvalues --    2.85707   2.85837   2.86292   2.86518   2.87184
 Alpha virt. eigenvalues --    2.87306   2.87617   2.88034   2.88427   2.88479
 Alpha virt. eigenvalues --    2.88903   2.89835   2.89887   2.90461   2.90747
 Alpha virt. eigenvalues --    2.91099   2.91267   2.91528   2.91677   2.92704
 Alpha virt. eigenvalues --    2.92936   2.93160   2.93477   2.93770   2.94015
 Alpha virt. eigenvalues --    2.94198   2.94392   2.94784   2.94905   2.94969
 Alpha virt. eigenvalues --    2.95177   2.95795   2.96013   2.96178   2.96538
 Alpha virt. eigenvalues --    2.96781   2.97006   2.97068   2.97246   2.97402
 Alpha virt. eigenvalues --    2.97762   2.97996   2.98286   2.98509   2.99094
 Alpha virt. eigenvalues --    2.99330   2.99504   2.99876   2.99951   3.00175
 Alpha virt. eigenvalues --    3.00616   3.00919   3.01036   3.01698   3.01739
 Alpha virt. eigenvalues --    3.01841   3.02383   3.02755   3.02975   3.03080
 Alpha virt. eigenvalues --    3.03457   3.04305   3.05494   3.05900   3.06106
 Alpha virt. eigenvalues --    3.06914   3.07394   3.07736   3.08690   3.09401
 Alpha virt. eigenvalues --    3.10000   3.10079   3.10209   3.10442   3.10669
 Alpha virt. eigenvalues --    3.11044   3.11598   3.11868   3.12254   3.12529
 Alpha virt. eigenvalues --    3.12873   3.13050   3.13189   3.14132   3.14163
 Alpha virt. eigenvalues --    3.14627   3.15152   3.15465   3.15488   3.15933
 Alpha virt. eigenvalues --    3.15968   3.16501   3.16561   3.17727   3.17814
 Alpha virt. eigenvalues --    3.18258   3.18952   3.19141   3.19170   3.19327
 Alpha virt. eigenvalues --    3.20184   3.20784   3.20944   3.20998   3.21111
 Alpha virt. eigenvalues --    3.21543   3.21714   3.22119   3.22183   3.22261
 Alpha virt. eigenvalues --    3.23138   3.23436   3.24377   3.24569   3.26035
 Alpha virt. eigenvalues --    3.26585   3.26811   3.27517   3.28229   3.28358
 Alpha virt. eigenvalues --    3.31027   3.31760   3.31800   3.32187   3.32397
 Alpha virt. eigenvalues --    3.32796   3.34513   3.36106   3.36619   3.38751
 Alpha virt. eigenvalues --    3.39193   3.39216   3.46094   3.46686   3.49496
 Alpha virt. eigenvalues --    3.50583   3.52404   3.52985   3.53591   3.54843
 Alpha virt. eigenvalues --    3.55470   3.55565   3.56513   3.57741   3.58094
 Alpha virt. eigenvalues --    3.58772   3.59855   3.60218   3.60793   3.60860
 Alpha virt. eigenvalues --    3.62537   3.64025   3.64367   3.64951   3.65338
 Alpha virt. eigenvalues --    3.67629   3.68266   3.68271   3.68795   3.68989
 Alpha virt. eigenvalues --    3.69578   3.69729   3.70848   3.70927   3.72591
 Alpha virt. eigenvalues --    3.73233   3.74002   3.75781   3.75934   3.76100
 Alpha virt. eigenvalues --    3.76185   3.76543   3.79752   3.82888
          Condensed to atoms (all electrons):
 Mulliken charges:
               1
     1  C    0.064696
     2  C   -0.005978
     3  O   -0.325997
     4  H    0.023341
     5  H    0.024280
     6  H    0.003377
     7  N   -0.095952
     8  C    0.122709
     9  C    0.088229
    10  O   -0.269373
    11  C    0.055468
    12  C    0.015928
    13  O   -0.346883
    14  O   -0.361004
    15  H    0.129165
    16  H   -0.012845
    17  H   -0.034889
    18  H   -0.008604
    19  N   -0.116783
    20  C    0.145699
    21  C    0.059652
    22  O   -0.299801
    23  C    0.005211
    24  C    0.029547
    25  C   -0.028003
    26  C    0.022775
    27  N    0.133296
    28  H    0.124311
    29  H   -0.003487
    30  H    0.019891
    31  H   -0.004474
    32  H    0.019013
    33  H    0.037329
    34  H    0.020087
    35  H    0.015949
    36  H    0.059932
    37  H    0.063372
    38  H    0.159036
    39  H    0.136506
    40  H    0.146445
    41  N   -0.093601
    42  C    0.055635
    43  C    0.117649
    44  O   -0.246627
    45  C    0.135627
    46  C    0.053816
    47  O   -0.356817
    48  O   -0.490264
    49  H    0.140196
    50  H   -0.007216
    51  H   -0.025049
    52  H   -0.003974
    53  N   -0.157682
    54  C    0.181945
    55  C    0.134890
    56  O   -0.341375
    57  H    0.139969
    58  H    0.001732
    59  H    0.083980
    60  N   -0.125140
    61  C    0.110934
    62  C    0.088637
    63  O   -0.286557
    64  C   -0.004435
    65  C    0.009109
    66  N   -0.018314
    67  O   -0.235478
    68  H    0.118125
    69  H    0.016208
    70  H    0.064056
    71  H    0.011078
    72  H    0.111806
    73  H    0.145650
    74  N   -0.116011
    75  C    0.186709
    76  C    0.043457
    77  O   -0.250752
    78  H    0.114547
    79  H    0.016456
    80  H    0.034262
    81  N   -0.154971
    82  C    0.140611
    83  C    0.078223
    84  O   -0.286588
    85  C    0.101717
    86  C    0.017084
    87  C   -0.025574
    88  C   -0.001828
    89  C   -0.025962
    90  C   -0.029830
    91  C    0.174654
    92  O   -0.219755
    93  H    0.123099
    94  H    0.000017
    95  H    0.033030
    96  H    0.040469
    97  H   -0.020133
    98  H   -0.070829
    99  H   -0.023008
   100  H   -0.050943
   101  H    0.177372
   102  N   -0.098828
   103  C    0.133906
   104  C    0.034583
   105  O   -0.277952
   106  C   -0.111443
   107  C    0.004949
   108  C    0.095652
   109  C    0.040563
   110  H    0.112815
   111  H    0.013578
   112  H   -0.005680
   113  H    0.008238
   114  H   -0.023957
   115  H    0.003871
   116  H    0.010437
   117  H    0.014592
   118  H    0.029983
   119  H    0.000238
   120  H    0.007432
   121  N   -0.105012
   122  C    0.088413
   123  C    0.078094
   124  O   -0.269128
   125  C    0.219099
   126  O   -0.297877
   127  H    0.138857
   128  H    0.002634
   129  H    0.010419
   130  H    0.024816
   131  H    0.157235
   132  N   -0.133545
   133  C    0.057517
   134  C    0.066633
   135  O   -0.269484
   136  C    0.102519
   137  H    0.121772
   138  H    0.009431
   139  H    0.038918
   140  H    0.021511
   141  H   -0.013211
   142  N   -0.158749
   143  C    0.073104
   144  C    0.083863
   145  O   -0.259304
   146  C    0.057267
   147  H    0.126645
   148  H   -0.000543
   149  H    0.027871
   150  H    0.021772
   151  H   -0.025049
   152  N   -0.135119
   153  C    0.058923
   154  C    0.070073
   155  O   -0.267966
   156  C    0.048778
   157  C    0.105159
   158  C    0.077961
   159  O   -0.507556
   160  O   -0.346292
   161  H    0.113494
   162  H    0.005592
   163  H    0.016885
   164  H    0.025203
   165  H   -0.045706
   166  H   -0.031022
   167  N   -0.139788
   168  C    0.135565
   169  H    0.016128
   170  H    0.042670
   171  H    0.022854
   172  H    0.100505
   173  Ca   1.417645
   174  O   -0.319137
   175  H    0.203733
   176  H    0.196750
 Sum of Mulliken charges =  -0.00000
 Mulliken charges with hydrogens summed into heavy atoms:
               1
     1  C    0.115694
     2  C   -0.005978
     3  O   -0.325997
     7  N    0.033213
     8  C    0.109864
     9  C    0.088229
    10  O   -0.269373
    11  C    0.011975
    12  C    0.015928
    13  O   -0.346883
    14  O   -0.361004
    19  N    0.007528
    20  C    0.142212
    21  C    0.059652
    22  O   -0.299801
    23  C    0.020629
    24  C    0.085889
    25  C    0.008033
    26  C    0.146079
    27  N    0.575283
    41  N    0.046595
    42  C    0.048419
    43  C    0.117649
    44  O   -0.246627
    45  C    0.106604
    46  C    0.053816
    47  O   -0.356817
    48  O   -0.490264
    53  N   -0.017713
    54  C    0.267657
    55  C    0.134890
    56  O   -0.341375
    60  N   -0.007016
    61  C    0.127143
    62  C    0.088637
    63  O   -0.286557
    64  C    0.070699
    65  C    0.009109
    66  N    0.239142
    67  O   -0.235478
    74  N   -0.001465
    75  C    0.237427
    76  C    0.043457
    77  O   -0.250752
    81  N   -0.031872
    82  C    0.140628
    83  C    0.078223
    84  O   -0.286588
    85  C    0.175217
    86  C    0.017084
    87  C   -0.045706
    88  C   -0.072656
    89  C   -0.048970
    90  C   -0.080774
    91  C    0.174654
    92  O   -0.042383
   102  N    0.013987
   103  C    0.147484
   104  C    0.034583
   105  O   -0.277952
   106  C   -0.117123
   107  C   -0.010769
   108  C    0.124551
   109  C    0.078216
   121  N    0.033844
   122  C    0.091047
   123  C    0.078094
   124  O   -0.269128
   125  C    0.254333
   126  O   -0.140643
   132  N   -0.011773
   133  C    0.066947
   134  C    0.066633
   135  O   -0.269484
   136  C    0.149738
   142  N   -0.032104
   143  C    0.072561
   144  C    0.083863
   145  O   -0.259304
   146  C    0.081861
   152  N   -0.021625
   153  C    0.064514
   154  C    0.070073
   155  O   -0.267966
   156  C    0.090866
   157  C    0.028431
   158  C    0.077961
   159  O   -0.507556
   160  O   -0.346292
   167  N   -0.039283
   168  C    0.217217
   173  Ca   1.417645
   174  O    0.081345
 DipInt: DoE/N= T F RetVal/Mat= T F Init=T NMatP=  1 IDeriv=0 Min/MaxMlt=  0  4
 Entering OneElI...
 OneElI was handed  1333951383 working-precision words.
 Multipole integrals L=0 to 4 MinM= 0 MaxM= 0.
 Requested accuracy = 0.1000D-12
 ShPair: Thresh= 1.00D-13 NBox=     0 BxSize= 0.00D+00 RnKept= 2.74D+01
         NSMCal=               327645 NSMKep=              114530
 PrmmSu-InSpLW:  IPartL=    0 NPrtUS=    1 NPrtUL=    1 DoSpLW=F IThBeg=    0 IThEnd=    0 NThAct=    1.
 PrsmSu:  NPrtUS=   1 ThrOK=F IAlg=1 NPAlg=1 LenDen=           0 ISkipM=0 DoSpLW=F IThBeg=    0 IThEnd=    0.
 Prism:   IPart=     0 DynPar=F LinDyn=F Incr=         512.
 PRISM was handed  1325649557 working-precision words and114530 shell-pairs
 IPart=  0 NShTot=      114530 NBatch=         273 AvBLen=       419.5
 PrsmSu-ThDecC:  IPartSL=    0    0 NPrtUSL=    1    1 IThBeg=    0 IThEnd=    0 CPU=   -1 GPU=   -1 NThAct=    1.
 PrSmSu:  NxtVal=            513.
 Electronic moments (au):
       -716.00000000         -0.30177218         -3.32624390        -11.81474892
    -106262.60497189     -42547.34954675     -13289.92113392        -99.83093166
        225.81046799        -28.88411293     333971.50643469     -81823.21366793
      -4213.07063571    -276404.69420636      95611.03532778      49136.34117998
     113575.52547970       9151.24510099      13375.01289327     -32425.17817932
  -28218894.56012087   -6784100.34792145    -808632.30505445    1197492.03199447
      31186.19689532    1036803.11235419    -555106.63217554    -267798.34076640
     114732.26577799   -5117295.20908709   -2902646.77351289    -460657.24717323
    -261049.66966883     455101.76435261     212489.20864723
 Electronic spatial extent (au):  <R**2>=         162099.8757
 DipInt: DoE/N= F T RetVal/Mat= T F Init=T NMatP=  1 IDeriv=0 Min/MaxMlt=  0  4
 Nuclear    moments (au):
        716.00000000         -0.00000000          0.00000000          0.00000000
     105933.97953317      42126.09027967      12945.16677543         -0.00000000
         -0.00000000         -0.00000000    -338476.05067590      80983.76086498
       3072.93720701     276563.06953457     -94324.67758408     -53901.68486747
    -114699.42512026      -8640.27568560     -13729.66371868      33376.89663174
   27927966.90672044    6644565.38128602     776498.92333012   -1223274.45675570
      71799.10891605   -1039917.25990622     556242.60756855     294312.09947414
    -120433.67485843    5020726.28861162    2866690.50415071     431356.10381672
     250206.24910845    -449515.43083060    -226159.32423823
 Total      moments (au):
         -0.00000000         -0.30177218         -3.32624390        -11.81474892
       -328.62543872       -421.25926708       -344.75435849        -99.83093166
        225.81046799        -28.88411293      -4504.54424121       -839.45280295
      -1140.13342870        158.37532821       1286.35774369      -4765.34368749
      -1123.89964056        510.96941539       -354.65082540        951.71845242
    -290927.65340042    -139534.96663543     -32133.38172433     -25782.42476123
     102985.30581136      -3114.14755203       1135.97539301      26513.75870774
      -5701.40908044     -96568.92047548     -35956.26936218     -29301.14335651
     -10843.42056038       5586.33352201     -13670.11559100
 Traceless Quadrup. (au):
         36.25424938        -56.37957898         20.12532961        -99.83093166
        225.81046799        -28.88411293
 Charge=             -0.0000 electrons
 Dipole moment (field-independent basis, Debye):
    X=             -0.7670    Y=             -8.4545    Z=            -30.0301  Tot=             31.2069
 Quadrupole moment (field-independent basis, Debye-Ang):
   XX=           -442.0125   YY=           -566.6081   ZZ=           -463.7064
   XY=           -134.2760   XZ=            303.7228   YZ=            -38.8501
 Traceless Quadrupole moment (field-independent basis, Debye-Ang):
   XX=             48.7632   YY=            -75.8325   ZZ=             27.0693
   XY=           -134.2760   XZ=            303.7228   YZ=            -38.8501
 Octapole moment (field-independent basis, Debye-Ang**2):
  XXX=          -3206.1610  YYY=           -597.4902  ZZZ=           -811.5030  XYY=            112.7255
  XXY=            915.5799  XXZ=          -3391.7880  XZZ=           -799.9485  YZZ=            363.6883
  YYZ=           -252.4268  XYZ=            677.3965
 Hexadecapole moment (field-independent basis, Debye-Ang**3):
 XXXX=        -109577.3047 YYYY=         -52555.5594 ZZZZ=         -12102.9724 XXXY=          -9710.8975
 XXXZ=          38789.2045 YYYX=          -1172.9373 YYYZ=            427.8628 ZZZX=           9986.3529
 ZZZY=          -2147.4241 XXYY=         -36372.4861 XXZZ=         -13542.8552 YYZZ=         -11036.2156
 XXYZ=          -4084.1521 YYXZ=           2104.0811 ZZXY=          -5148.8210
 N-N= 1.845387807548D+04 E-N=-4.938660407822D+04  KE= 5.290436937155D+03
 Leave Link  601 at Tue Sep 17 18:49:40 2019, MaxMem=  1342177280 cpu:              40.9 elap:               1.0
 FitSet:  NAtFit=   176 NAtPot=   176 NAtFrz=     0 MDM=   180 TotChg=   0.00000
 Merz-Kollman atomic radii used.
 Read replacement radii for each type of atom:
 Rad(20) =   1.700000000000D+00
 Atom Element Radius
    1     6    1.50
    2     6    1.50
    3     8    1.40
    4     1    1.20
    5     1    1.20
    6     1    1.20
    7     7    1.50
    8     6    1.50
    9     6    1.50
   10     8    1.40
   11     6    1.50
   12     6    1.50
   13     8    1.40
   14     8    1.40
   15     1    1.20
   16     1    1.20
   17     1    1.20
   18     1    1.20
   19     7    1.50
   20     6    1.50
   21     6    1.50
   22     8    1.40
   23     6    1.50
   24     6    1.50
   25     6    1.50
   26     6    1.50
   27     7    1.50
   28     1    1.20
   29     1    1.20
   30     1    1.20
   31     1    1.20
   32     1    1.20
   33     1    1.20
   34     1    1.20
   35     1    1.20
   36     1    1.20
   37     1    1.20
   38     1    1.20
   39     1    1.20
   40     1    1.20
   41     7    1.50
   42     6    1.50
   43     6    1.50
   44     8    1.40
   45     6    1.50
   46     6    1.50
   47     8    1.40
   48     8    1.40
   49     1    1.20
   50     1    1.20
   51     1    1.20
   52     1    1.20
   53     7    1.50
   54     6    1.50
   55     6    1.50
   56     8    1.40
   57     1    1.20
   58     1    1.20
   59     1    1.20
   60     7    1.50
   61     6    1.50
   62     6    1.50
   63     8    1.40
   64     6    1.50
   65     6    1.50
   66     7    1.50
   67     8    1.40
   68     1    1.20
   69     1    1.20
   70     1    1.20
   71     1    1.20
   72     1    1.20
   73     1    1.20
   74     7    1.50
   75     6    1.50
   76     6    1.50
   77     8    1.40
   78     1    1.20
   79     1    1.20
   80     1    1.20
   81     7    1.50
   82     6    1.50
   83     6    1.50
   84     8    1.40
   85     6    1.50
   86     6    1.50
   87     6    1.50
   88     6    1.50
   89     6    1.50
   90     6    1.50
   91     6    1.50
   92     8    1.40
   93     1    1.20
[...]
 **** Fit      -0.027307
 **** Fit      -0.027689
 **** Fit      -0.026635
 **** Fit      -0.024551
 **** Fit      -0.021913
 **** Fit      -0.019099
 **** Fit      -0.016426
 **** Fit      -0.014163
 **** Fit      -0.011451
 **** Fit      -0.013097
 **** Fit      -0.015289
 **** Fit      -0.018022
 **** Fit      -0.021245
 **** Fit      -0.024800
 **** Fit      -0.028343
 **** Fit      -0.031326
 **** Fit      -0.033131
 **** Fit      -0.033370
 **** Fit      -0.032131
 **** Fit      -0.029877
 **** Fit      -0.027096
 **** Fit      -0.024080
 **** Fit      -0.020992
 **** Fit      -0.018011
 **** Fit      -0.015339
 **** Fit      -0.013130
 **** Fit      -0.014640
 **** Fit      -0.017424
 **** Fit      -0.020781
 **** Fit      -0.024698
 **** Fit      -0.029049
 **** Fit      -0.033499
 **** Fit      -0.037455
 **** Fit      -0.040154
 **** Fit      -0.040983
 **** Fit      -0.039877
 **** Fit      -0.037371
 **** Fit      -0.034209
 **** Fit      -0.030875
 **** Fit      -0.027489
 **** Fit      -0.024035
 **** Fit      -0.020596
 **** Fit      -0.017372
 **** Fit      -0.016766
 **** Fit      -0.020160
 **** Fit      -0.024218
 **** Fit      -0.028974
 **** Fit      -0.034351
 **** Fit      -0.040040
 **** Fit      -0.039049
 **** Fit      -0.035254
 **** Fit      -0.031616
 **** Fit      -0.027877
 **** Fit      -0.024002
 **** Fit      -0.027247
 **** Fit      -0.033239
 **** Fit      -0.040291
 **** Fit      -0.042262
 **** Fit      -0.038239
 **** Fit      -0.034280
 **** Fit      -0.038227
 **** Fit      -0.009029
 **** Fit      -0.008478
 **** Fit      -0.007688
 **** Fit      -0.007204
 **** Fit      -0.011240
 **** Fit      -0.009642
 **** Fit      -0.008082
 **** Fit      -0.007330
 **** Fit      -0.006797
 **** Fit      -0.006458
 **** Fit      -0.014757
 **** Fit      -0.012412
 **** Fit      -0.010515
 **** Fit      -0.009109
 **** Fit      -0.007969
 **** Fit      -0.007210
 **** Fit      -0.006611
 **** Fit      -0.006171
 **** Fit      -0.005884
 **** Fit      -0.017170
 **** Fit      -0.014215
 **** Fit      -0.011857
 **** Fit      -0.010150
 **** Fit      -0.008916
 **** Fit      -0.008266
 **** Fit      -0.007448
 **** Fit      -0.006740
 **** Fit      -0.006168
 **** Fit      -0.005743
 **** Fit      -0.005456
 **** Fit      -0.020219
 **** Fit      -0.016555
 **** Fit      -0.013666
 **** Fit      -0.011645
 **** Fit      -0.010250
 **** Fit      -0.009183
 **** Fit      -0.009099
 **** Fit      -0.008073
 **** Fit      -0.007144
 **** Fit      -0.006366
 **** Fit      -0.005762
 **** Fit      -0.005325
 **** Fit      -0.021005
 **** Fit      -0.016965
 **** Fit      -0.014188
 **** Fit      -0.012444
 **** Fit      -0.011227
 **** Fit      -0.010157
 **** Fit      -0.010566
 **** Fit      -0.009178
 **** Fit      -0.007916
 **** Fit      -0.006851
 **** Fit      -0.006008
 **** Fit      -0.005374
 **** Fit      -0.004909
 **** Fit      -0.021464
 **** Fit      -0.017755
 **** Fit      -0.015589
 **** Fit      -0.014311
 **** Fit      -0.013210
 **** Fit      -0.011956
 **** Fit      -0.012665
 **** Fit      -0.010689
 **** Fit      -0.008941
 **** Fit      -0.007493
 **** Fit      -0.006350
 **** Fit      -0.005480
 **** Fit      -0.004826
 **** Fit      -0.022592
 **** Fit      -0.018559
 **** Fit      -0.017723
 **** Fit      -0.016473
 **** Fit      -0.014692
 **** Fit      -0.015158
 **** Fit      -0.012309
 **** Fit      -0.009900
 **** Fit      -0.007974
 **** Fit      -0.006489
 **** Fit      -0.005367
 **** Fit      -0.004515
 **** Fit      -0.020961
 **** Fit      -0.018219
 **** Fit      -0.017435
 **** Fit      -0.013601
 **** Fit      -0.010487
 **** Fit      -0.008077
 **** Fit      -0.006258
 **** Fit      -0.004893
 **** Fit      -0.021722
 **** Fit      -0.018552
 **** Fit      -0.014043
 **** Fit      -0.010431
 **** Fit      -0.007666
 **** Fit      -0.005584
 **** Fit      -0.017548
 **** Fit      -0.012754
 **** Fit      -0.008888
 **** Fit      -0.005932
 **** Fit      -0.013851
 **** Fit      -0.009591
 **** Fit      -0.005924
 **** Fit      -0.013608
 **** Fit      -0.013249
 **** Fit      -0.007119
 **** Fit      -0.002394
 **** Fit       0.000959
 **** Fit      -0.010407
 **** Fit      -0.005053
 **** Fit      -0.000838
 **** Fit       0.002159
 **** Fit       0.004059
 **** Fit       0.005009
 **** Fit       0.005118
 **** Fit      -0.009764
 **** Fit      -0.005996
 **** Fit      -0.001995
 **** Fit       0.001333
 **** Fit       0.003737
 **** Fit       0.005222
 **** Fit       0.005864
 **** Fit       0.005747
 **** Fit       0.004948
 **** Fit      -0.002770
 **** Fit      -0.000775
 **** Fit       0.001913
 **** Fit       0.004272
 **** Fit       0.005919
 **** Fit       0.006780
 **** Fit       0.006899
 **** Fit       0.006387
 **** Fit       0.005421
 **** Fit       0.003685
 **** Fit       0.004186
 **** Fit       0.005646
 **** Fit       0.007058
 **** Fit       0.007974
 **** Fit       0.008289
 **** Fit       0.008085
 **** Fit       0.007595
 **** Fit       0.007206
 **** Fit       0.009208
 **** Fit       0.008561
 **** Fit       0.009066
 **** Fit       0.009694
 **** Fit       0.010019
 **** Fit       0.010069
 **** Fit       0.010202
 **** Fit       0.011036
 **** Fit       0.013720
 **** Fit       0.012141
 **** Fit       0.012047
 **** Fit       0.012346
 **** Fit       0.013077
 **** Fit       0.015092
 **** Fit       0.017139
 **** Fit       0.015123
 **** Fit       0.016045
 **** Fit       0.006820
 **** Fit      -0.000847
 **** Fit       0.012206
 **** Fit       0.005283
 **** Fit      -0.003777
 **** Fit      -0.014852
 **** Fit       0.015366
 **** Fit       0.009718
 **** Fit       0.001613
 **** Fit      -0.008880
 **** Fit       0.016751
 **** Fit       0.012714
 **** Fit       0.005491
 **** Fit      -0.004633
 **** Fit       0.015081
 **** Fit       0.008939
 **** Fit      -0.000488
 **** Fit       0.017463
 **** Fit       0.012380
 **** Fit       0.003904
 **** Fit       0.020349
 **** Fit       0.015700
 **** Fit       0.007678
 **** Fit      -0.003205
 **** Fit       0.024215
 **** Fit       0.019833
 **** Fit       0.012429
 **** Fit       0.002447
 **** Fit       0.028962
 **** Fit       0.024545
 **** Fit       0.017554
 **** Fit       0.008330
 **** Fit       0.034266
 **** Fit       0.029792
 **** Fit       0.023244
 **** Fit       0.014845
 **** Fit      -0.015949
 **** Fit       0.042143
 **** Fit       0.039415
 **** Fit       0.034666
 **** Fit       0.028174
 **** Fit      -0.022716
 **** Fit       0.047251
 **** Fit       0.043986
 **** Fit       0.039138
 **** Fit       0.032825
 **** Fit       0.025096
 **** Fit       0.048853
 **** Fit       0.051078
 **** Fit       0.047541
 **** Fit       0.042669
 **** Fit       0.036508
 **** Fit       0.029074
 **** Fit      -0.016183
 **** Fit       0.035231
 **** Fit       0.043176
 **** Fit       0.048714
 **** Fit       0.051997
 **** Fit       0.053559
 **** Fit       0.054195
 **** Fit       0.054448
 **** Fit       0.054273
 **** Fit       0.053271
 **** Fit       0.053489
 **** Fit       0.049995
 **** Fit       0.045322
 **** Fit       0.039507
 **** Fit       0.032573
 **** Fit      -0.020722
 **** Fit      -0.013752
 **** Fit       0.014718
 **** Fit       0.027987
 **** Fit       0.038240
 **** Fit       0.045869
 **** Fit       0.051175
 **** Fit       0.054526
 **** Fit       0.056385
 **** Fit       0.057149
 **** Fit       0.056974
 **** Fit       0.055795
 **** Fit       0.054501
 **** Fit       0.051125
 **** Fit       0.046565
 **** Fit       0.040888
 **** Fit       0.034174
 **** Fit       0.026575
 **** Fit      -0.015988
 **** Fit      -0.010896
 **** Fit      -0.009204
 **** Fit       0.026879
 **** Fit       0.037989
 **** Fit       0.046111
 **** Fit       0.051723
 **** Fit       0.055254
 **** Fit       0.057096
 **** Fit       0.057517
 **** Fit       0.056641
 **** Fit       0.054191
 **** Fit       0.051130
 **** Fit       0.046835
 **** Fit       0.041436
 **** Fit       0.035092
 **** Fit       0.028062
 **** Fit      -0.009412
 **** Fit      -0.006706
 **** Fit      -0.006465
 **** Fit       0.026272
 **** Fit       0.037739
 **** Fit       0.045945
 **** Fit       0.051460
 **** Fit       0.054738
 **** Fit       0.056136
 **** Fit       0.055901
 **** Fit       0.052641
 **** Fit       0.050049
 **** Fit       0.046140
 **** Fit       0.041122
 **** Fit       0.035244
 **** Fit       0.028826
 **** Fit       0.022222
 **** Fit      -0.001744
 **** Fit      -0.001675
 **** Fit      -0.001432
 **** Fit      -0.002747
 **** Fit       0.026289
 **** Fit       0.037524
 **** Fit       0.045361
 **** Fit       0.050385
 **** Fit       0.053052
 **** Fit       0.053714
 **** Fit       0.049907
 **** Fit       0.047809
 **** Fit       0.044193
 **** Fit       0.039390
 **** Fit       0.033775
 **** Fit       0.027754
 **** Fit       0.021722
 **** Fit       0.016086
 **** Fit       0.011367
 **** Fit       0.008019
 **** Fit       0.005841
 **** Fit       0.003719
 **** Fit       0.000087
 **** Fit       0.024656
 **** Fit       0.036015
 **** Fit       0.043668
 **** Fit       0.048217
 **** Fit       0.050159
 **** Fit       0.046017
 **** Fit       0.044508
 **** Fit       0.041203
 **** Fit       0.036613
 **** Fit       0.031273
 **** Fit       0.025725
 **** Fit       0.020483
 **** Fit       0.015951
 **** Fit       0.012094
 **** Fit       0.008099
 **** Fit       0.002587
 **** Fit       0.023799
 **** Fit       0.034675
 **** Fit       0.041633
 **** Fit       0.045230
 **** Fit       0.040975
 **** Fit       0.039991
 **** Fit       0.036630
 **** Fit       0.031796
 **** Fit       0.026350
 **** Fit       0.020936
 **** Fit       0.015617
 **** Fit       0.009549
 **** Fit       0.021558
 **** Fit       0.032421
 **** Fit       0.038713
 **** Fit       0.034776
 **** Fit       0.034166
 **** Fit       0.030132
 **** Fit       0.024329
 **** Fit       0.017613
 **** Fit       0.009564
 **** Fit       0.020147
 **** Fit       0.030340
 **** Fit       0.027436
 **** Fit       0.026002
 **** Fit       0.018587
 **** Fit       0.009765
 **** Fit       0.008713
 **** Fit       0.019409
 **** Fit       0.019029
 **** Fit      -0.032333
 **** Fit      -0.032979
 **** Fit      -0.029571
 **** Fit      -0.031714
 **** Fit      -0.033729
 **** Fit      -0.034470
 **** Fit      -0.034250
 **** Fit      -0.027938
 **** Fit      -0.030598
 **** Fit      -0.033557
 **** Fit      -0.035676
 **** Fit      -0.036445
 **** Fit      -0.036058
 **** Fit      -0.035238
 **** Fit      -0.034867
 **** Fit      -0.026987
 **** Fit      -0.025564
 **** Fit      -0.028848
 **** Fit      -0.032608
 **** Fit      -0.035893
 **** Fit      -0.038062
 **** Fit      -0.038855
 **** Fit      -0.038406
 **** Fit      -0.037174
 **** Fit      -0.035829
 **** Fit      -0.035098
 **** Fit      -0.035555
 **** Fit      -0.023895
 **** Fit      -0.022301
 **** Fit      -0.026452
 **** Fit      -0.031151
 **** Fit      -0.035556
 **** Fit      -0.039002
 **** Fit      -0.041079
 **** Fit      -0.041673
 **** Fit      -0.040943
 **** Fit      -0.039277
 **** Fit      -0.037235
 **** Fit      -0.035484
 **** Fit      -0.034691
 **** Fit      -0.035398
 **** Fit      -0.037863
 **** Fit      -0.019666
 **** Fit      -0.018029
 **** Fit      -0.023244
 **** Fit      -0.029080
 **** Fit      -0.034755
 **** Fit      -0.039551
 **** Fit      -0.042946
 **** Fit      -0.044690
 **** Fit      -0.044796
 **** Fit      -0.043491
 **** Fit      -0.041172
 **** Fit      -0.038377
 **** Fit      -0.035755
 **** Fit      -0.012875
 **** Fit      -0.014241
 **** Fit      -0.012533
 **** Fit      -0.018784
 **** Fit      -0.025815
 **** Fit      -0.032907
 **** Fit      -0.039279
 **** Fit      -0.044263
 **** Fit      -0.047460
 **** Fit      -0.048769
 **** Fit      -0.048324
 **** Fit      -0.046407
 **** Fit      -0.043409
 **** Fit      -0.039826
 **** Fit      -0.007634
 **** Fit      -0.005310
 **** Fit      -0.012728
 **** Fit      -0.021293
 **** Fit      -0.030278
 **** Fit      -0.038736
 **** Fit      -0.045741
 **** Fit      -0.050648
 **** Fit      -0.053221
 **** Fit      -0.053597
 **** Fit      -0.052109
 **** Fit      -0.049142
 **** Fit      -0.045103
 **** Fit       0.000591
 **** Fit      -0.015398
 **** Fit      -0.027480
 **** Fit      -0.054792
 **** Fit      -0.049814
 **** Fit      -0.037115
 **** Fit      -0.034399
 **** Fit      -0.033554
 **** Fit      -0.036079
 **** Fit      -0.040571
 **** Fit      -0.042487
 **** Fit      -0.039248
 **** Fit      -0.032002
 **** Fit      -0.030928
 **** Fit      -0.031874
 **** Fit      -0.033291
 **** Fit      -0.035559
 **** Fit      -0.039699
 **** Fit      -0.045065
 **** Fit      -0.048897
 **** Fit      -0.049427
 **** Fit      -0.029440
 **** Fit      -0.028921
 **** Fit      -0.035165
 **** Fit      -0.038552
 **** Fit      -0.044105
 **** Fit      -0.050754
 **** Fit      -0.056141
 **** Fit      -0.058219
 **** Fit      -0.057444
 **** Fit      -0.026287
 **** Fit      -0.038829
 **** Fit      -0.045046
 **** Fit      -0.053262
 **** Fit      -0.061674
 **** Fit      -0.067518
 **** Fit      -0.068930
 **** Fit      -0.066816
 **** Fit      -0.040869
 **** Fit      -0.049110
 **** Fit      -0.059653
 **** Fit      -0.070679
 **** Fit      -0.043071
 **** Fit      -0.053443
 **** Fit      -0.066147
 **** Fit      -0.056140
 **** Fit      -0.034394
 **** Fit      -0.036367
 **** Fit      -0.034927
 **** Fit      -0.034195
 **** Fit      -0.035095
 **** Fit      -0.037794
 **** Fit      -0.042010
 **** Fit      -0.046754
 **** Fit      -0.038547
 **** Fit      -0.036014
 **** Fit      -0.034579
 **** Fit      -0.034705
 **** Fit      -0.036758
 **** Fit      -0.040866
 **** Fit      -0.046710
 **** Fit      -0.053383
 **** Fit      -0.040842
 **** Fit      -0.037722
 **** Fit      -0.035507
 **** Fit      -0.034678
 **** Fit      -0.035685
 **** Fit      -0.038858
 **** Fit      -0.044257
 **** Fit      -0.051429
 **** Fit      -0.046192
 **** Fit      -0.041980
 **** Fit      -0.038328
 **** Fit      -0.035781
 **** Fit      -0.034902
 **** Fit      -0.036194
 **** Fit      -0.040020
 **** Fit      -0.046414
 **** Fit      -0.053847
 **** Fit      -0.048581
 **** Fit      -0.043474
 **** Fit      -0.039060
 **** Fit      -0.035990
 **** Fit      -0.034850
 **** Fit      -0.036106
 **** Fit      -0.040067
 **** Fit      -0.049689
 **** Fit      -0.043323
 **** Fit      -0.038209
 **** Fit      -0.035019
 **** Fit      -0.034211
 **** Fit      -0.036072
 **** Fit      -0.040633
 **** Fit      -0.044520
 **** Fit      -0.037838
 **** Fit      -0.033711
 **** Fit      -0.032393
 **** Fit      -0.033896
 **** Fit      -0.037860
 **** Fit      -0.041133
 **** Fit      -0.033949
 **** Fit      -0.030032
 **** Fit      -0.029144
 **** Fit      -0.030726
 **** Fit      -0.033684
 **** Fit      -0.034721
 **** Fit      -0.028146
 **** Fit      -0.024832
 **** Fit      -0.024027
 **** Fit      -0.028103
 **** Fit      -0.021794
 **** Fit      -0.027614
 **** Fit      -0.019258
 -----------------------------------------------------------------
 Leave Link  602 at Tue Sep 17 18:49:43 2019, MaxMem=  1342177280 cpu:             131.3 elap:               2.8

 Test job not archived.
 1\1\GINC-C477-074\SP\RB3LYP\SVP\C54H83Ca1N15O23\PENGZHI\17-Sep-2019\0\
 \#b3lyp/svp scf=(tight,noincore) Test #IOP(5/87=12) Density=Current Po
 p=(MK,readradii) iop(6/33=2) iop(6/42=6)\\Ng-293_loop3_73.0\\0,1\C,0,6
 6.36,22.41,4.55\C,0,66.78,22.87,3.16\O,0,66.17,22.3,2.26\H,0,65.331,22
 .051,4.518\H,0,67.015,21.604,4.88\H,0,66.431,23.245,5.247\N,0,67.57,23
 .92,2.95\C,0,67.98,24.52,1.7\C,0,67.29,25.85,1.44\O,0,66.59,26.32,2.33
 \C,0,69.5,24.67,1.67\C,0,70.14,25.49,2.78\O,0,71.36,25.42,3.04\O,0,69.
 42,26.27,3.45\H,0,67.85,24.45,3.77\H,0,67.7,23.86,0.87\H,0,69.79,25.12
 ,0.72\H,0,69.97,23.69,1.65\N,0,67.52,26.3,0.21\C,0,67.03,27.47,-0.5\C,
 0,67.39,28.86,0.\O,0,67.63,29.74,-0.82\C,0,65.56,27.27,-0.85\C,0,64.99
 ,28.45,-1.63\C,0,63.6,28.11,-2.17\C,0,63.01,29.21,-3.05\N,0,61.55,29.1
 3,-3.19\H,0,68.14,25.69,-0.31\H,0,67.53,27.44,-1.47\H,0,64.99,27.12,0.
 06\H,0,65.44,26.32,-1.38\H,0,65.66,28.62,-2.47\H,0,64.81,29.24,-0.9\H,
 0,62.9,27.98,-1.34\H,0,63.76,27.29,-2.86\H,0,63.47,29.16,-4.04\H,0,63.
 31,30.14,-2.59\H,0,61.04,29.31,-2.34\H,0,61.27,29.85,-3.85\H,0,61.35,2
 8.27,-3.68\N,0,67.48,29.12,1.31\C,0,67.54,30.43,1.93\C,0,68.27,30.5,3.
 26\O,0,68.22,29.57,4.06\C,0,66.12,30.98,1.9\C,0,66.19,32.35,2.56\O,0,6
 6.5,33.35,1.87\O,0,66.15,32.39,3.81\H,0,67.23,28.41,1.98\H,0,68.14,31.
 12,1.34\H,0,65.45,30.32,2.45\H,0,65.78,31.05,0.86\N,0,69.09,31.56,3.35
 \C,0,70.02,31.76,4.44\C,0,69.33,32.2,5.72\O,0,68.17,31.93,6.02\H,0,69.
 06,32.29,2.65\H,0,70.73,32.53,4.15\H,0,70.59,30.85,4.6\N,0,70.13,32.71
 ,6.66\C,0,69.71,32.77,8.05\C,0,69.31,34.15,8.57\O,0,68.27,34.26,9.22\C
 ,0,70.79,32.15,8.93\C,0,71.13,30.68,8.7\N,0,71.94,30.12,9.59\O,0,70.54
 ,29.97,7.89\H,0,71.12,32.82,6.48\H,0,68.8,32.18,8.18\H,0,70.38,32.22,9
 .94\H,0,71.71,32.73,8.86\H,0,72.42,30.8,10.17\H,0,72.43,29.29,9.3\N,0,
 70.01,35.22,8.2\C,0,69.74,36.55,8.7\C,0,69.97,36.76,10.19\O,0,70.63,35
 .94,10.82\H,0,70.78,35.13,7.55\H,0,68.71,36.8,8.44\H,0,70.4,37.18,8.1\
 N,0,69.31,37.76,10.78\C,0,69.18,37.99,12.2\C,0,68.49,36.9,13.01\O,0,68
 .56,36.86,14.24\C,0,70.51,38.4,12.84\C,0,71.36,39.53,12.33\C,0,72.49,3
 9.79,13.11\C,0,71.1,40.33,11.21\C,0,73.39,40.81,12.76\C,0,71.98,41.37,
 10.87\C,0,73.14,41.61,11.63\O,0,73.98,42.65,11.34\H,0,68.66,38.21,10.1
 6\H,0,68.53,38.87,12.23\H,0,71.14,37.52,12.96\H,0,70.25,38.74,13.84\H,
 0,72.78,39.23,13.99\H,0,70.26,40.12,10.56\H,0,74.27,40.99,13.36\H,0,71
 .82,42.,10.01\H,0,74.08,42.83,10.41\N,0,67.91,35.94,12.29\C,0,67.07,34
 .84,12.72\C,0,65.73,35.27,13.32\O,0,64.71,34.71,12.93\C,0,67.83,33.76,
 13.49\C,0,69.16,33.46,12.81\C,0,66.85,32.62,13.69\C,0,69.98,32.27,13.3
 \H,0,67.94,36.14,11.3\H,0,66.78,34.31,11.81\H,0,68.07,34.19,14.46\H,0,
 69.7,34.4,12.9\H,0,69.11,33.34,11.73\H,0,67.41,31.76,14.05\H,0,66.03,3
 2.86,14.37\H,0,66.41,32.35,12.73\H,0,69.52,31.38,12.86\H,0,71.02,32.43
 ,13.\H,0,70.,32.27,14.39\N,0,65.66,36.24,14.22\C,0,64.55,37.11,14.57\C
 ,0,63.34,36.51,15.26\O,0,62.31,37.17,15.31\C,0,65.12,38.34,15.27\O,0,6
 6.27,38.95,14.73\H,0,66.57,36.66,14.39\H,0,64.15,37.46,13.62\H,0,65.37
 ,38.,16.27\H,0,64.41,39.17,15.28\H,0,65.99,39.44,13.96\N,0,63.35,35.28
 ,15.78\C,0,62.19,34.48,16.12\C,0,61.3,34.23,14.91\O,0,60.08,34.32,14.9
 9\C,0,61.6,34.87,17.47\H,0,64.21,34.77,15.95\H,0,62.6,33.47,16.22\H,0,
 61.32,35.92,17.53\H,0,60.74,34.22,17.67\H,0,62.38,34.68,18.21\N,0,61.8
 9,34.02,13.73\C,0,61.17,33.78,12.5\C,0,61.25,32.38,11.9\O,0,62.14,31.6
 ,12.22\C,0,61.55,34.97,11.62\H,0,62.89,34.02,13.56\H,0,60.14,33.89,12.
 83\H,0,61.05,35.89,11.95\H,0,62.63,35.06,11.6\H,0,61.15,34.75,10.63\N,
 0,60.38,32.07,10.94\C,0,60.13,30.72,10.47\C,0,59.71,29.65,11.47\O,0,59
 .87,28.47,11.16\C,0,61.23,30.26,9.51\C,0,61.37,31.37,8.46\C,0,62.22,30
 .83,7.31\O,0,63.46,30.97,7.4\O,0,61.63,30.2,6.41\H,0,59.72,32.77,10.63
 \H,0,59.22,30.83,9.87\H,0,60.92,29.39,8.94\H,0,62.1,29.97,10.09\H,0,61
 .97,32.15,8.92\H,0,60.41,31.66,8.04\N,0,59.,29.96,12.55\C,0,58.69,29.1
 8,13.73\H,0,57.663,28.82,13.668\H,0,59.369,28.33,13.793\H,0,58.803,29.
 802,14.618\H,0,58.55,30.86,12.5\Ca,0,65.46,32.06,6.3\O,0,66.31,29.6,6.
 64\H,0,67.18,29.23,6.53\H,0,65.76,29.11,6.03\\Version=ES64L-G16RevA.03
 \State=1-A\HF=-5333.3339856\RMSD=1.290e-09\Dipole=-2.4379603,9.3403618
 ,-7.5866493\Quadrupole=-13.8624127,-149.6154196,163.4778322,78.8429488
 ,182.1865724,-13.4452172\PG=C01 [X(C54H83Ca1N15O23)]\\@


 DIATOMIC MOLECULES ARE PECULIAR BECAUSE THEY ONLY HAVE TWO ENDS,
 AND THESE ENDS ARE VERY CLOSE TOGETHER.
 KLAUS RUEDENBERG, REV.MOD.PHYS. PG 176, 32, (1960)
 Job cpu time:       0 days 12 hours 12 minutes  1.9 seconds.
 Elapsed time:       0 days  0 hours 15 minutes 27.9 seconds.
 File lengths (MBytes):  RWF=   1517 Int=      0 D2E=      0 Chk=    171 Scr=      1
 Normal termination of Gaussian 16 at Tue Sep 17 18:49:45 2019.
