 Entering Gaussian System, Link 0=g16
 Initial command:
 /home1/apps/gaussian/16rA.03/g16/l1.exe "/scratch/01990/pengzhi/4350473/Gau-155669.inp" -scrdir="/scratch/01990/pengzhi/4350473/"
 Entering Link 1 = /home1/apps/gaussian/16rA.03/g16/l1.exe PID=    155670.
  
 Copyright (c) 1988,1990,1992,1993,1995,1998,2003,2009,2016,
            Gaussian, Inc.  All Rights Reserved.
  
 This is part of the Gaussian(R) 16 program.  It is based on
 the Gaussian(R) 09 system (copyright 2009, Gaussian, Inc.),
 the Gaussian(R) 03 system (copyright 2003, Gaussian, Inc.),
 the Gaussian(R) 98 system (copyright 1998, Gaussian, Inc.),
 the Gaussian(R) 94 system (copyright 1995, Gaussian, Inc.),
 the Gaussian 92(TM) system (copyright 1992, Gaussian, Inc.),
 the Gaussian 90(TM) system (copyright 1990, Gaussian, Inc.),
 the Gaussian 88(TM) system (copyright 1988, Gaussian, Inc.),
 the Gaussian 86(TM) system (copyright 1986, Carnegie Mellon
 University), and the Gaussian 82(TM) system (copyright 1983,
 Carnegie Mellon University). Gaussian is a federally registered
 trademark of Gaussian, Inc.
  
 This software contains proprietary and confidential information,
 including trade secrets, belonging to Gaussian, Inc.
  
 This software is provided under written license and may be
 used, copied, transmitted, or stored only in accord with that
 written license.
  
 The following legend is applicable only to US Government
 contracts under FAR:
  
                    RESTRICTED RIGHTS LEGEND
  
 Use, reproduction and disclosure by the US Government is
 subject to restrictions as set forth in subparagraphs (a)
 and (c) of the Commercial Computer Software - Restricted
 Rights clause in FAR 52.227-19.
  
 Gaussian, Inc.
 340 Quinnipiac St., Bldg. 40, Wallingford CT 06492
  
  
 ---------------------------------------------------------------
 Warning -- This program may not be used in any manner that
 competes with the business of Gaussian, Inc. or will provide
 assistance to any competitor of Gaussian, Inc.  The licensee
 of this program is prohibited from giving any competitor of
 Gaussian, Inc. access to this program.  By using this program,
 the user acknowledges that Gaussian, Inc. is engaged in the
 business of creating and licensing software in the field of
 computational chemistry and represents and warrants to the
 licensee that it is not a competitor of Gaussian, Inc. and that
 it will not use this program in any manner prohibited above.
 ---------------------------------------------------------------
  

 Cite this work as:
 Gaussian 16, Revision A.03,
 M. J. Frisch, G. W. Trucks, H. B. Schlegel, G. E. Scuseria, 
 M. A. Robb, J. R. Cheeseman, G. Scalmani, V. Barone, 
 G. A. Petersson, H. Nakatsuji, X. Li, M. Caricato, A. V. Marenich, 
 J. Bloino, B. G. Janesko, R. Gomperts, B. Mennucci, H. P. Hratchian, 
 J. V. Ortiz, A. F. Izmaylov, J. L. Sonnenberg, D. Williams-Young, 
 F. Ding, F. Lipparini, F. Egidi, J. Goings, B. Peng, A. Petrone, 
 T. Henderson, D. Ranasinghe, V. G. Zakrzewski, J. Gao, N. Rega, 
 G. Zheng, W. Liang, M. Hada, M. Ehara, K. Toyota, R. Fukuda, 
 J. Hasegawa, M. Ishida, T. Nakajima, Y. Honda, O. Kitao, H. Nakai, 
 T. Vreven, K. Throssell, J. A. Montgomery, Jr., J. E. Peralta, 
 F. Ogliaro, M. J. Bearpark, J. J. Heyd, E. N. Brothers, K. N. Kudin, 
 V. N. Staroverov, T. A. Keith, R. Kobayashi, J. Normand, 
 K. Raghavachari, A. P. Rendell, J. C. Burant, S. S. Iyengar, 
 J. Tomasi, M. Cossi, J. M. Millam, M. Klene, C. Adamo, R. Cammi, 
 J. W. Ochterski, R. L. Martin, K. Morokuma, O. Farkas, 
 J. B. Foresman, and D. J. Fox, Gaussian, Inc., Wallingford CT, 2016.
 
 ******************************************
 Gaussian 16:  ES64L-G16RevA.03 25-Dec-2016
                17-Sep-2019 
 ******************************************
 %chk=Ng-295_loop3_13.0.chk
 %nprocshared=48
 Will use up to   48 processors via shared memory.
 %mem=10GB
 %nosave
 ----------------------------------------------------------------------
 #b3lyp/svp scf=(tight,noincore) Test #IOP(5/87=12) Density=Current Pop
 =(MK,readradii) iop(6/33=2) iop(6/42=6)
 ----------------------------------------------------------------------
 1/30=1,38=1,172=1/1;
 2/12=2,17=6,18=5,40=1/2;
 3/5=18,7=101,11=2,25=1,30=1,74=-5/1,2,3;
 4//1;
 5/5=4,32=2,38=5,87=12/2;
 6/7=2,8=2,9=2,10=2,15=8,20=101,22=-1,28=1,33=2,42=6/1,2;
 99/5=1,9=1/99;
 -----------------
 Ng-295_loop3_13.0
 -----------------
 Symbolic Z-matrix:
 Charge =  0 Multiplicity = 1
 C                     13.889    73.51     40.8 
 C                     14.569    72.16     40.59 
 O                     14.639    71.34     41.51 
 H                     12.921    73.358    41.277 
 H                     14.513    74.137    41.437 
 H                     13.746    73.999    39.836 
 N                     15.239    72.07     39.44 
 C                     16.309    71.12     39.23 
 C                     17.649    71.41     39.89 
 O                     18.279    72.43     39.62 
 C                     16.439    70.91     37.73 
 C                     17.419    69.84     37.25 
 O                     18.179    70.1      36.3 
 O                     17.389    68.73     37.83 
 H                     15.069    72.76     38.72 
 H                     15.939    70.15     39.56 
 H                     16.719    71.88     37.32 
 H                     15.459    70.62     37.36 
 N                     18.169    70.42     40.63 
 C                     19.459    70.47     41.28 
 C                     20.669    70.56     40.35 
 O                     21.649    71.14     40.8 
 C                     19.689    69.29     42.22 
 C                     19.799    67.98     41.45 
 C                     19.659    66.88     42.5 
 C                     19.039    65.61     41.94 
 N                     19.809    65.05     40.81 
 H                     17.469    69.75     40.89 
 H                     19.399    71.44     41.77 
 H                     18.809    69.36     42.87 
 H                     20.539    69.41     42.9 
 H                     20.789    67.89     41. 
 H                     19.019    67.89     40.69 
 H                     18.919    67.18     43.26 
 H                     20.599    66.68     43.02 
 H                     17.989    65.76     41.68 
 H                     18.889    64.81     42.67 
 H                     20.689    64.75     41.2 
 H                     19.349    64.24     40.4 
 H                     19.969    65.7      40.06 
 N                     20.629    69.99     39.14 
 C                     21.839    69.86     38.36 
 C                     21.999    70.64     37.06 
 O                     23.079    70.57     36.49 
 C                     22.239    68.4      38.13 
 C                     21.039    67.79     37.42 
 O                     20.789    68.12     36.24 
 O                     20.259    66.98     37.95 
 H                     19.719    69.68     38.84 
 H                     22.699    70.2      38.94 
 H                     22.319    67.95     39.12 
 H                     23.039    68.31     37.39 
 N                     20.939    71.32     36.63 
 C                     20.979    72.22     35.49 
 C                     20.789    71.56     34.14 
 O                     20.779    72.21     33.09 
 H                     20.059    71.06     37.05 
 H                     21.999    72.59     35.52 
 H                     20.179    72.96     35.56 
 N                     20.549    70.25     34.12 
 C                     20.199    69.46     32.95 
 C                     18.769    68.96     33.04 
 O                     18.459    68.24     33.98 
 C                     21.169    68.29     32.85 
 C                     21.149    67.55     31.52 
 N                     22.199    67.64     30.7 
 O                     20.149    66.92     31.19 
 H                     20.529    69.75     35. 
 H                     20.259    69.99     32. 
 H                     20.969    67.49     33.56 
 H                     22.159    68.71     33.02 
 H                     22.989    68.11     31.12 
 H                     22.139    67.08     29.86 
 N                     17.919    69.11     32.02 
 C                     16.569    68.57     32.03 
 C                     16.369    67.06     32. 
 O                     15.229    66.62     31.93 
 H                     18.269    69.44     31.13 
 H                     16.019    68.89     31.14 
 H                     16.099    69.11     32.85 
 N                     17.389    66.21     32.08 
 C                     17.279    64.76     32.14 
 C                     16.949    64.34     33.56 
 O                     17.359    65.       34.52 
 C                     18.569    64.14     31.61 
 C                     18.639    62.64     31.77 
 C                     19.449    62.14     32.8 
 C                     18.079    61.78     30.82 
 C                     19.609    60.76     32.93 
 C                     18.309    60.4      30.9 
 C                     19.079    59.88     31.96 
 O                     19.239    58.56     32.26 
 H                     18.309    66.62     31.98 
 H                     16.469    64.41     31.5 
 H                     19.359    64.73     32.07 
 H                     18.519    64.42     30.55 
 H                     19.869    62.78     33.56 
 H                     17.469    62.17     30.02 
 H                     20.259    60.34     33.69 
 H                     17.849    59.68     30.24 
 H                     18.779    57.97     31.66 
 N                     16.179    63.27     33.73 
 C                     15.789    62.48     34.88 
 C                     16.969    61.7      35.45 
 O                     18.039    62.27     35.64 
 C                     14.889    63.28     35.82 
 C                     15.069    62.84     37.27 
 C                     13.459    63.15     35.33 
 C                     14.059    63.45     38.23 
 H                     15.769    62.94     32.86 
 H                     15.159    61.76     34.35 
 H                     15.159    64.33     35.79 
 H                     16.109    63.11     37.49 
 H                     14.879    61.77     37.26 
 H                     13.329    63.29     34.26 
 H                     12.989    62.17     35.48 
 H                     12.979    63.98     35.85 
 H                     13.079    63.05     37.96 
 H                     14.329    63.08     39.22 
 H                     14.179    64.53     38.23 
 N                     16.719    60.42     35.73 
 C                     17.689    59.51     36.3 
 C                     17.409    58.04     36.02 
 O                     18.329    57.26     36.22 
 C                     17.599    59.73     37.81 
 O                     16.269    59.79     38.29 
 H                     15.749    60.15     35.78 
 H                     18.709    59.73     35.99 
 H                     18.059    60.66     38.12 
 H                     18.179    58.9      38.21 
 H                     16.299    60.12     39.19 
 N                     16.179    57.67     35.67 
 C                     15.919    56.32     35.22 
 C                     16.129    55.25     36.28 
 O                     16.909    54.33     36.05 
 C                     16.549    56.       33.87 
 H                     15.479    58.36     35.42 
 H                     14.879    56.18     34.9 
 H                     16.499    56.78     33.11 
 H                     17.589    55.67     33.92 
 H                     16.029    55.13     33.46 
 N                     15.359    55.12     37.36 
 C                     14.789    56.24     38.08 
 C                     13.429    55.88     38.65 
 O                     13.119    54.7      38.78 
 C                     15.769    56.75     39.13 
 H                     15.299    54.22     37.83 
 H                     14.589    56.99     37.31 
 H                     15.809    56.02     39.94 
 H                     16.779    56.76     38.73 
 H                     15.459    57.71     39.56 
 N                     12.439    56.76     38.81 
 C                     12.519    58.17     38.49 
 C                     11.469    58.62     37.49 
 O                     11.849    59.29     36.53 
 C                     12.489    58.9      39.83 
 C                     12.639    60.41     39.67 
 C                     12.489    61.08     41.03 
 O                     11.369    61.39     41.5 
 O                     13.449    61.33     41.78 
 H                     11.619    56.43     39.3 
 H                     13.499    58.43     38.08 
 H                     13.319    58.54     40.45 
 H                     11.639    58.57     40.42 
 H                     11.819    60.79     39.05 
 H                     13.519    60.65     39.08 
 N                     10.219    58.18     37.59 
 C                     9.089     58.42     36.72 
 H                     8.285     58.885    37.29 
 H                     9.389     59.083    35.908 
 H                     8.74      57.473    36.307 
 H                     9.999     57.54     38.34 
 Ca                    18.29     66.92     36.16 
 O                     16.6      66.24     38.01 
 H                     16.65     67.11     38.42 
 H                     16.32     65.66     38.72 
 
 Stoichiometry    C54H83CaN15O23
 Framework group  C1[X(C54H83CaN15O23)]
 Deg. of freedom   522
 Full point group                 C1      NOp   1
 Largest Abelian subgroup         C1      NOp   1
 Largest concise Abelian subgroup C1      NOp   1
                         Standard orientation:                         
 ---------------------------------------------------------------------
 Center     Atomic      Atomic             Coordinates (Angstroms)
 Number     Number       Type             X           Y           Z
 ---------------------------------------------------------------------
      1          6           0        7.165918   -6.394008    3.922432
      2          6           0        6.141530   -5.740183    2.999316
      3          8           0        5.424300   -6.427711    2.266796
      4          1           0        6.691642   -7.206433    4.472601
      5          1           0        7.990266   -6.790120    3.329288
      6          1           0        7.546827   -5.652989    4.625755
      7          7           0        6.266228   -4.414862    2.912859
      8          6           0        5.754339   -3.651899    1.796008
      9          6           0        6.519407   -3.724518    0.482730
     10          8           0        7.689514   -3.355744    0.411634
     11          6           0        5.565622   -2.221374    2.274531
     12          6           0        4.902606   -1.237228    1.311429
     13          8           0        5.391464   -0.101051    1.177947
     14          8           0        3.870075   -1.622022    0.715430
     15          1           0        6.831598   -3.931378    3.598424
     16          1           0        4.725060   -3.972756    1.640010
     17          1           0        6.560787   -1.866195    2.540793
     18          1           0        4.936235   -2.259080    3.159885
     19          7           0        5.798932   -4.039586   -0.603432
     20          6           0        6.321752   -4.091881   -1.949918
     21          6           0        6.812545   -2.762984   -2.524598
     22          8           0        7.714896   -2.836099   -3.349047
     23          6           0        5.325724   -4.682264   -2.944038
     24          6           0        4.121262   -3.768506   -3.132233
     25          6           0        3.071078   -4.622960   -3.838719
     26          6           0        1.649512   -4.208076   -3.495321
     27          7           0        1.371297   -2.795896   -3.829604
     28          1           0        4.930583   -4.475574   -0.353663
     29          1           0        7.219168   -4.687490   -1.793411
     30          1           0        5.094631   -5.643221   -2.469742
     31          1           0        5.758053   -4.954616   -3.912654
     32          1           0        4.378014   -2.938681   -3.792664
     33          1           0        3.739807   -3.399058   -2.177194
     34          1           0        3.107524   -5.655195   -3.453542
     35          1           0        3.232391   -4.670993   -4.918382
     36          1           0        1.409061   -4.432921   -2.454059
     37          1           0        0.867717   -4.819383   -3.954123
     38          1           0        1.414471   -2.738725   -4.835271
     39          1           0        0.440273   -2.510758   -3.533477
     40          1           0        2.016018   -2.142306   -3.420024
     41          7           0        6.234529   -1.615742   -2.149988
     42          6           0        6.523701   -0.392124   -2.863107
     43          6           0        7.275616    0.738308   -2.169746
     44          8           0        7.579987    1.710869   -2.846269
     45          6           0        5.296353    0.177540   -3.579767
     46          6           0        4.280919    0.396495   -2.467493
     47          8           0        4.469615    1.308304   -1.632749
     48          8           0        3.260302   -0.296755   -2.315353
     49          1           0        5.613195   -1.684447   -1.360417
     50          1           0        7.162506   -0.599958   -3.723532
     51          1           0        4.930117   -0.618384   -4.228903
     52          1           0        5.477950    1.188665   -3.954397
     53          7           0        7.522283    0.590932   -0.870387
     54          6           0        8.347711    1.511364   -0.107055
     55          6           0        7.628595    2.733880    0.424477
     56          8           0        8.205022    3.586107    1.107515
     57          1           0        6.976978   -0.119030   -0.404559
     58          1           0        9.057265    1.860593   -0.850541
     59          1           0        8.755940    1.015131    0.775896
     60          7           0        6.318939    2.827481    0.200555
     61          6           0        5.426084    3.838878    0.744048
     62          6           0        4.452228    3.228076    1.734768
     63          8           0        3.693633    2.350502    1.344258
     64          6           0        4.675935    4.490761   -0.410129
     65          6           0        3.943133    5.777016   -0.055939
     66          7           0        4.379809    6.940254   -0.545011
     67          8           0        2.990063    5.740646    0.716158
     68          1           0        5.867546    2.095376   -0.333362
     69          1           0        5.917929    4.646565    1.285092
     70          1           0        3.875820    3.876552   -0.818374
     71          1           0        5.425138    4.694935   -1.173285
     72          1           0        5.110984    6.829539   -1.233869
     73          1           0        3.813594    7.745282   -0.312352
     74          7           0        4.263306    3.769750    2.941539
     75          6           0        3.278496    3.269615    3.887169
     76          6           0        1.796000    3.415746    3.568027
     77          8           0        0.977298    3.061760    4.406192
     78          1           0        4.673132    4.671435    3.147714
     79          1           0        3.358550    3.796890    4.842455
     80          1           0        3.636813    2.263969    4.099741
     81          7           0        1.367230    3.883787    2.399098
     82          6           0       -0.024846    3.978556    1.985161
     83          6           0       -0.497898    2.620986    1.500471
     84          8           0        0.289447    1.840817    0.955749
     85          6           0       -0.158434    5.076665    0.933632
     86          6           0       -1.530540    5.163425    0.308894
     87          6           0       -1.682541    4.643040   -0.984588
     88          6           0       -2.557855    5.898826    0.908485
     89          6           0       -2.911286    4.778230   -1.631741
     90          6           0       -3.762973    6.108176    0.224700
     91          6           0       -3.947120    5.546814   -1.055091
     92          8           0       -5.115418    5.521171   -1.756820
     93          1           0        2.075179    4.302729    1.809357
     94          1           0       -0.656744    4.262531    2.826744
     95          1           0        0.685871    4.913895    0.266957
     96          1           0        0.057871    5.970840    1.532099
     97          1           0       -0.915495    4.049471   -1.456730
     98          1           0       -2.431445    6.310772    1.897687
     99          1           0       -3.052514    4.422959   -2.646797
    100          1           0       -4.616399    6.605911    0.660042
    101          1           0       -5.845856    5.947535   -1.304742
    102          7           0       -1.767145    2.290344    1.715849
    103          6           0       -2.614173    1.200036    1.277133
    104          6           0       -2.907903    1.285114   -0.216917
    105          8           0       -1.989582    1.484581   -1.006093
    106          6           0       -2.162975   -0.127877    1.882664
    107          6           0       -2.472356   -1.296799    0.951854
    108          6           0       -2.806226   -0.267088    3.249685
    109          6           0       -2.237285   -2.663109    1.577744
    110          1           0       -2.243903    2.945337    2.330329
    111          1           0       -3.524760    1.509963    1.797688
    112          1           0       -1.086803   -0.129120    2.017392
    113          1           0       -1.844173   -1.096552    0.075391
    114          1           0       -3.539763   -1.223523    0.761140
    115          1           0       -2.749439    0.621465    3.873103
    116          1           0       -3.885110   -0.466586    3.252783
    117          1           0       -2.188344   -1.046219    3.697878
    118          1           0       -2.966835   -2.775922    2.382933
    119          1           0       -2.461145   -3.390445    0.796226
    120          1           0       -1.185718   -2.757965    1.834665
    121          7           0       -4.185328    1.100900   -0.553890
    122          6           0       -4.675260    1.115751   -1.915377
    123          6           0       -6.155347    1.447791   -2.044961
    124          8           0       -6.551226    1.756841   -3.159666
    125          6           0       -4.462701   -0.308402   -2.428411
    126          8           0       -4.867752   -1.303113   -1.506791
    127          1           0       -4.781598    0.687227    0.145851
    128          1           0       -4.114626    1.790674   -2.559635
    129          1           0       -3.422173   -0.519775   -2.641067
    130          1           0       -5.021159   -0.314334   -3.362965
    131          1           0       -4.525511   -2.143718   -1.816716
    132          7           0       -6.947954    1.298474   -0.985820
    133          6           0       -8.313228    1.775538   -1.018008
    134          6           0       -9.210517    1.054196   -2.011556
    135          8           0       -9.798151    1.710031   -2.867282
    136          6           0       -8.422797    3.294771   -1.059548
    137          1           0       -6.559112    1.138289   -0.062921
    138          1           0       -8.822565    1.647714   -0.054766
    139          1           0       -7.731667    3.852224   -0.427025
    140          1           0       -8.359484    3.728329   -2.060058
    141          1           0       -9.431230    3.562911   -0.733107
    142          7           0       -9.578136   -0.220438   -1.883624
    143          6           0       -8.716226   -1.255809   -1.351819
    144          6           0       -9.521955   -2.287556   -0.583445
    145          8           0      -10.731215   -2.375436   -0.771512
    146          6           0       -7.863727   -1.858754   -2.462091
    147          1           0      -10.428031   -0.547084   -2.336923
    148          1           0       -8.106784   -0.747967   -0.599437
    149          1           0       -8.510417   -2.472028   -3.091604
    150          1           0       -7.505148   -1.078936   -3.128052
    151          1           0       -7.066215   -2.503474   -2.073619
    152          7           0       -9.048267   -2.962789    0.465259
    153          6           0       -7.710968   -2.831050    1.004868
    154          6           0       -7.690345   -2.431116    2.469323
    155          8           0       -6.954052   -1.499632    2.793528
    156          6           0       -7.005051   -4.145825    0.684794
    157          6           0       -5.545276   -4.142077    1.128915
    158          6           0       -4.937612   -5.516873    0.880560
    159          8           0       -5.034627   -6.448476    1.713690
    160          8           0       -4.342872   -5.823658   -0.167660
    161          1           0       -9.635786   -3.701215    0.827126
    162          1           0       -7.129801   -2.088325    0.451060
    163          1           0       -7.029771   -4.308180   -0.399609
    164          1           0       -7.600662   -4.986647    1.027964
    165          1           0       -5.498314   -3.978232    2.211573
    166          1           0       -5.023055   -3.276650    0.730894
    167          7           0       -8.543809   -2.983807    3.325028
    168          6           0       -8.744467   -2.705920    4.729989
    169          1           0       -8.581597   -3.616267    5.306429
    170          1           0       -8.039363   -1.939905    5.053968
    171          1           0       -9.764022   -2.353355    4.889314
    172          1           0       -9.200551   -3.663789    2.968917
    173         20           0        2.456877    0.497927    0.094553
    174          8           0        1.267881   -1.778993    0.472605
    175          1           0        2.108977   -2.243359    0.539093
    176          1           0        0.644788   -2.456130    0.204013
 ---------------------------------------------------------------------
 Rotational constants (GHZ):           0.0235666           0.0103225           0.0086342
 Standard basis: SVP (5D, 7F)
 There are  1809 symmetry adapted cartesian basis functions of A   symmetry.
 There are  1717 symmetry adapted basis functions of A   symmetry.
  1717 basis functions,  2922 primitive gaussians,  1809 cartesian basis functions
   358 alpha electrons      358 beta electrons
       nuclear repulsion energy     20155.1000425997 Hartrees.
 NAtoms=  176 NActive=  176 NUniq=  176 SFac= 1.00D+00 NAtFMM=   60 NAOKFM=T Big=T
 Integral buffers will be    131072 words long.
 Raffenetti 2 integral format.
 Two-electron integral symmetry is turned on.
 One-electron integrals computed using PRISM.
 NBasis=  1717 RedAO= T EigKep=  2.71D-04  NBF=  1717
 NBsUse=  1717 1.00D-06 EigRej= -1.00D+00 NBFU=  1717
 ExpMin= 1.98D-02 ExpMax= 3.51D+04 ExpMxC= 5.28D+03 IAcc=3 IRadAn=         5 AccDes= 0.00D+00
 Harris functional with IExCor=  402 and IRadAn=       5 diagonalized for initial guess.
 HarFok:  IExCor=  402 AccDes= 0.00D+00 IRadAn=         5 IDoV= 1 UseB2=F ITyADJ=14
 ICtDFT=  3500011 ScaDFX=  1.000000  1.000000  1.000000  1.000000
 FoFCou: FMM=F IPFlag=           0 FMFlag=      100000 FMFlg1=        2001
         NFxFlg=           0 DoJE=T BraDBF=F KetDBF=T FulRan=T
         wScrn=  0.000000 ICntrl=       500 IOpCl=  0 I1Cent=   200000004 NGrid=           0
         NMat0=    1 NMatS0=      1 NMatT0=    0 NMatD0=    1 NMtDS0=    0 NMtDT0=    0
 Petite list used in FoFCou.
 Requested convergence on RMS density matrix=1.00D-08 within 128 cycles.
 Requested convergence on MAX density matrix=1.00D-06.
 Requested convergence on             energy=1.00D-06.
 No special actions if energy rises.
 EnCoef did     2 forward-backward iterations
 EnCoef did     2 forward-backward iterations
 Rare condition: small coef for last iteration:  0.000D+00
 Rare condition: small coef for last iteration:  0.000D+00
 EnCoef did    23 forward-backward iterations
 Restarting incremental Fock formation.
 SCF Done:  E(RB3LYP) =  -5333.46589879     A.U. after   28 cycles
            NFock= 28  Conv=0.22D-08     -V/T= 2.0081
 SCF density gives NOpUse=  1 NOpAll=  1.
 Hyperfine terms turned off by default for NAtoms > 100.

 **********************************************************************

            Population analysis using the SCF density.

 **********************************************************************

 Orbital symmetries:
 BldTbl:  Degeneracy threshold= 1.00D-02
       Occupied  (A) (A) (A) (A) (A) (A) (A) (A) (A) (A) (A) (A)
                 (A) (A) (A) (A) (A) (A) (A) (A) (A) (A) (A) (A)
                 (A) (A) (A) (A) (A) (A) (A) (A) (A) (A) (A) (A)
                 (A) (A) (A) (A) (A) (A) (A) (A) (A) (A) (A) (A)
                 (A) (A) (A) (A) (A) (A) (A) (A) (A) (A) (A) (A)
                 (A) (A) (A) (A) (A) (A) (A) (A) (A) (A) (A) (A)
                 (A) (A) (A) (A) (A) (A) (A) (A) (A) (A) (A) (A)
                 (A) (A) (A) (A) (A) (A) (A) (A) (A) (A) (A) (A)
                 (A) (A) (A) (A) (A) (A) (A) (A) (A) (A) (A) (A)
                 (A) (A) (A) (A) (A) (A) (A) (A) (A) (A) (A) (A)
                 (A) (A) (A) (A) (A) (A) (A) (A) (A) (A) (A) (A)
                 (A) (A) (A) (A) (A) (A) (A) (A) (A) (A) (A) (A)
                 (A) (A) (A) (A) (A) (A) (A) (A) (A) (A) (A) (A)
                 (A) (A) (A) (A) (A) (A) (A) (A) (A) (A) (A) (A)
                 (A) (A) (A) (A) (A) (A) (A) (A) (A) (A) (A) (A)
                 (A) (A) (A) (A) (A) (A) (A) (A) (A) (A) (A) (A)
                 (A) (A) (A) (A) (A) (A) (A) (A) (A) (A) (A) (A)
                 (A) (A) (A) (A) (A) (A) (A) (A) (A) (A) (A) (A)
                 (A) (A) (A) (A) (A) (A) (A) (A) (A) (A) (A) (A)
                 (A) (A) (A) (A) (A) (A) (A) (A) (A) (A) (A) (A)
                 (A) (A) (A) (A) (A) (A) (A) (A) (A) (A) (A) (A)
                 (A) (A) (A) (A) (A) (A) (A) (A) (A) (A) (A) (A)
                 (A) (A) (A) (A) (A) (A) (A) (A) (A) (A) (A) (A)
                 (A) (A) (A) (A) (A) (A) (A) (A) (A) (A) (A) (A)
                 (A) (A) (A) (A) (A) (A) (A) (A) (A) (A) (A) (A)
                 (A) (A) (A) (A) (A) (A) (A) (A) (A) (A) (A) (A)
                 (A) (A) (A) (A) (A) (A) (A) (A) (A) (A) (A) (A)
                 (A) (A) (A) (A) (A) (A) (A) (A) (A) (A) (A) (A)
                 (A) (A) (A) (A) (A) (A) (A) (A) (A) (A) (A) (A)
                 (A) (A) (A) (A) (A) (A) (A) (A) (A) (A)
       Virtual   (A) (A) (A) (A) (A) (A) (A) (A) (A) (A) (A) (A)
                 (A) (A) (A) (A) (A) (A) (A) (A) (A) (A) (A) (A)
                 (A) (A) (A) (A) (A) (A) (A) (A) (A) (A) (A) (A)
                 (A) (A) (A) (A) (A) (A) (A) (A) (A) (A) (A) (A)
                 (A) (A) (A) (A) (A) (A) (A) (A) (A) (A) (A) (A)
                 (A) (A) (A) (A) (A) (A) (A) (A) (A) (A) (A) (A)
                 (A) (A) (A) (A) (A) (A) (A) (A) (A) (A) (A) (A)
                 (A) (A) (A) (A) (A) (A) (A) (A) (A) (A) (A) (A)
                 (A) (A) (A) (A) (A) (A) (A) (A) (A) (A) (A) (A)
                 (A) (A) (A) (A) (A) (A) (A) (A) (A) (A) (A) (A)
                 (A) (A) (A) (A) (A) (A) (A) (A) (A) (A) (A) (A)
                 (A) (A) (A) (A) (A) (A) (A) (A) (A) (A) (A) (A)
                 (A) (A) (A) (A) (A) (A) (A) (A) (A) (A) (A) (A)
                 (A) (A) (A) (A) (A) (A) (A) (A) (A) (A) (A) (A)
                 (A) (A) (A) (A) (A) (A) (A) (A) (A) (A) (A) (A)
                 (A) (A) (A) (A) (A) (A) (A) (A) (A) (A) (A) (A)
                 (A) (A) (A) (A) (A) (A) (A) (A) (A) (A) (A) (A)
                 (A) (A) (A) (A) (A) (A) (A) (A) (A) (A) (A) (A)
                 (A) (A) (A) (A) (A) (A) (A) (A) (A) (A) (A) (A)
                 (A) (A) (A) (A) (A) (A) (A) (A) (A) (A) (A) (A)
                 (A) (A) (A) (A) (A) (A) (A) (A) (A) (A) (A) (A)
                 (A) (A) (A) (A) (A) (A) (A) (A) (A) (A) (A) (A)
                 (A) (A) (A) (A) (A) (A) (A) (A) (A) (A) (A) (A)
                 (A) (A) (A) (A) (A) (A) (A) (A) (A) (A) (A) (A)
                 (A) (A) (A) (A) (A) (A) (A) (A) (A) (A) (A) (A)
                 (A) (A) (A) (A) (A) (A) (A) (A) (A) (A) (A) (A)
                 (A) (A) (A) (A) (A) (A) (A) (A) (A) (A) (A) (A)
                 (A) (A) (A) (A) (A) (A) (A) (A) (A) (A) (A) (A)
                 (A) (A) (A) (A) (A) (A) (A) (A) (A) (A) (A) (A)
                 (A) (A) (A) (A) (A) (A) (A) (A) (A) (A) (A) (A)
                 (A) (A) (A) (A) (A) (A) (A) (A) (A) (A) (A) (A)
                 (A) (A) (A) (A) (A) (A) (A) (A) (A) (A) (A) (A)
                 (A) (A) (A) (A) (A) (A) (A) (A) (A) (A) (A) (A)
                 (A) (A) (A) (A) (A) (A) (A) (A) (A) (A) (A) (A)
                 (A) (A) (A) (A) (A) (A) (A) (A) (A) (A) (A) (A)
                 (A) (A) (A) (A) (A) (A) (A) (A) (A) (A) (A) (A)
                 (A) (A) (A) (A) (A) (A) (A) (A) (A) (A) (A) (A)
                 (A) (A) (A) (A) (A) (A) (A) (A) (A) (A) (A) (A)
                 (A) (A) (A) (A) (A) (A) (A) (A) (A) (A) (A) (A)
                 (A) (A) (A) (A) (A) (A) (A) (A) (A) (A) (A) (A)
                 (A) (A) (A) (A) (A) (A) (A) (A) (A) (A) (A) (A)
                 (A) (A) (A) (A) (A) (A) (A) (A) (A) (A) (A) (A)
                 (A) (A) (A) (A) (A) (A) (A) (A) (A) (A) (A) (A)
                 (A) (A) (A) (A) (A) (A) (A) (A) (A) (A) (A) (A)
                 (A) (A) (A) (A) (A) (A) (A) (A) (A) (A) (A) (A)
                 (A) (A) (A) (A) (A) (A) (A) (A) (A) (A) (A) (A)
                 (A) (A) (A) (A) (A) (A) (A) (A) (A) (A) (A) (A)
                 (A) (A) (A) (A) (A) (A) (A) (A) (A) (A) (A) (A)
                 (A) (A) (A) (A) (A) (A) (A) (A) (A) (A) (A) (A)
                 (A) (A) (A) (A) (A) (A) (A) (A) (A) (A) (A) (A)
                 (A) (A) (A) (A) (A) (A) (A) (A) (A) (A) (A) (A)
                 (A) (A) (A) (A) (A) (A) (A) (A) (A) (A) (A) (A)
                 (A) (A) (A) (A) (A) (A) (A) (A) (A) (A) (A) (A)
                 (A) (A) (A) (A) (A) (A) (A) (A) (A) (A) (A) (A)
                 (A) (A) (A) (A) (A) (A) (A) (A) (A) (A) (A) (A)
                 (A) (A) (A) (A) (A) (A) (A) (A) (A) (A) (A) (A)
                 (A) (A) (A) (A) (A) (A) (A) (A) (A) (A) (A) (A)
                 (A) (A) (A) (A) (A) (A) (A) (A) (A) (A) (A) (A)
                 (A) (A) (A) (A) (A) (A) (A) (A) (A) (A) (A) (A)
                 (A) (A) (A) (A) (A) (A) (A) (A) (A) (A) (A) (A)
                 (A) (A) (A) (A) (A) (A) (A) (A) (A) (A) (A) (A)
                 (A) (A) (A) (A) (A) (A) (A) (A) (A) (A) (A) (A)
                 (A) (A) (A) (A) (A) (A) (A) (A) (A) (A) (A) (A)
                 (A) (A) (A) (A) (A) (A) (A) (A) (A) (A) (A) (A)
                 (A) (A) (A) (A) (A) (A) (A) (A) (A) (A) (A) (A)
                 (A) (A) (A) (A) (A) (A) (A) (A) (A) (A) (A) (A)
                 (A) (A) (A) (A) (A) (A) (A) (A) (A) (A) (A) (A)
                 (A) (A) (A) (A) (A) (A) (A) (A) (A) (A) (A) (A)
                 (A) (A) (A) (A) (A) (A) (A) (A) (A) (A) (A) (A)
                 (A) (A) (A) (A) (A) (A) (A) (A) (A) (A) (A) (A)
                 (A) (A) (A) (A) (A) (A) (A) (A) (A) (A) (A) (A)
                 (A) (A) (A) (A) (A) (A) (A) (A) (A) (A) (A) (A)
                 (A) (A) (A) (A) (A) (A) (A) (A) (A) (A) (A) (A)
                 (A) (A) (A) (A) (A) (A) (A) (A) (A) (A) (A) (A)
                 (A) (A) (A) (A) (A) (A) (A) (A) (A) (A) (A) (A)
                 (A) (A) (A) (A) (A) (A) (A) (A) (A) (A) (A) (A)
                 (A) (A) (A) (A) (A) (A) (A) (A) (A) (A) (A) (A)
                 (A) (A) (A) (A) (A) (A) (A) (A) (A) (A) (A) (A)
                 (A) (A) (A) (A) (A) (A) (A) (A) (A) (A) (A) (A)
                 (A) (A) (A) (A) (A) (A) (A) (A) (A) (A) (A) (A)
                 (A) (A) (A) (A) (A) (A) (A) (A) (A) (A) (A) (A)
                 (A) (A) (A) (A) (A) (A) (A) (A) (A) (A) (A) (A)
                 (A) (A) (A) (A) (A) (A) (A) (A) (A) (A) (A) (A)
                 (A) (A) (A) (A) (A) (A) (A) (A) (A) (A) (A) (A)
                 (A) (A) (A) (A) (A) (A) (A) (A) (A) (A) (A) (A)
                 (A) (A) (A) (A) (A) (A) (A) (A) (A) (A) (A) (A)
                 (A) (A) (A) (A) (A) (A) (A) (A) (A) (A) (A) (A)
                 (A) (A) (A) (A) (A) (A) (A) (A) (A) (A) (A) (A)
                 (A) (A) (A) (A) (A) (A) (A) (A) (A) (A) (A) (A)
                 (A) (A) (A) (A) (A) (A) (A) (A) (A) (A) (A) (A)
                 (A) (A) (A) (A) (A) (A) (A) (A) (A) (A) (A) (A)
                 (A) (A) (A) (A) (A) (A) (A) (A) (A) (A) (A) (A)
                 (A) (A) (A) (A) (A) (A) (A) (A) (A) (A) (A) (A)
                 (A) (A) (A) (A) (A) (A) (A) (A) (A) (A) (A) (A)
                 (A) (A) (A) (A) (A) (A) (A) (A) (A) (A) (A) (A)
                 (A) (A) (A) (A) (A) (A) (A) (A) (A) (A) (A) (A)
                 (A) (A) (A) (A) (A) (A) (A) (A) (A) (A) (A) (A)
                 (A) (A) (A) (A) (A) (A) (A) (A) (A) (A) (A) (A)
                 (A) (A) (A) (A) (A) (A) (A) (A) (A) (A) (A) (A)
                 (A) (A) (A) (A) (A) (A) (A) (A) (A) (A) (A) (A)
                 (A) (A) (A) (A) (A) (A) (A) (A) (A) (A) (A) (A)
                 (A) (A) (A) (A) (A) (A) (A) (A) (A) (A) (A) (A)
                 (A) (A) (A) (A) (A) (A) (A) (A) (A) (A) (A) (A)
                 (A) (A) (A) (A) (A) (A) (A) (A) (A) (A) (A) (A)
                 (A) (A) (A) (A) (A) (A) (A) (A) (A) (A) (A) (A)
                 (A) (A) (A) (A) (A) (A) (A) (A) (A) (A) (A) (A)
                 (A) (A) (A) (A) (A) (A) (A) (A) (A) (A) (A) (A)
                 (A) (A) (A) (A) (A) (A) (A) (A) (A) (A) (A) (A)
                 (A) (A) (A) (A) (A) (A) (A) (A) (A) (A) (A) (A)
                 (A) (A) (A) (A) (A) (A) (A) (A) (A) (A) (A) (A)
                 (A) (A) (A) (A) (A) (A) (A) (A) (A) (A) (A) (A)
                 (A) (A) (A) (A) (A) (A) (A) (A) (A) (A) (A) (A)
                 (A) (A) (A) (A) (A) (A) (A) (A) (A) (A) (A) (A)
                 (A) (A) (A)
 The electronic state is 1-A.
 Alpha  occ. eigenvalues -- -145.43934 -19.19968 -19.18129 -19.15956 -19.15021
 Alpha  occ. eigenvalues --  -19.14392 -19.13909 -19.12387 -19.12025 -19.11831
 Alpha  occ. eigenvalues --  -19.11514 -19.11226 -19.10706 -19.10695 -19.10195
 Alpha  occ. eigenvalues --  -19.10129 -19.09653 -19.09310 -19.08832 -19.08667
 Alpha  occ. eigenvalues --  -19.08309 -19.07751 -18.96372 -18.95712 -15.49741
 Alpha  occ. eigenvalues --  -14.54974 -14.40163 -14.39487 -14.39006 -14.38581
 Alpha  occ. eigenvalues --  -14.38218 -14.38096 -14.37400 -14.36838 -14.36438
 Alpha  occ. eigenvalues --  -14.35709 -14.35106 -14.35103 -14.34879 -14.33622
 Alpha  occ. eigenvalues --  -12.63362 -12.63308 -12.63291 -10.33419 -10.33034
 Alpha  occ. eigenvalues --  -10.32394 -10.32278 -10.30975 -10.30200 -10.30131
 Alpha  occ. eigenvalues --  -10.29995 -10.29712 -10.29621 -10.29583 -10.29084
 Alpha  occ. eigenvalues --  -10.28075 -10.27884 -10.27785 -10.27577 -10.27391
 Alpha  occ. eigenvalues --  -10.27159 -10.27011 -10.26774 -10.26418 -10.25993
 Alpha  occ. eigenvalues --  -10.25721 -10.25607 -10.25581 -10.25479 -10.25087
 Alpha  occ. eigenvalues --  -10.24770 -10.24767 -10.24093 -10.23977 -10.23212
 Alpha  occ. eigenvalues --  -10.22914 -10.22775 -10.22354 -10.22039 -10.21671
 Alpha  occ. eigenvalues --  -10.21638 -10.21281 -10.21209 -10.20798 -10.20674
 Alpha  occ. eigenvalues --  -10.20368 -10.20210 -10.20202 -10.19684 -10.18684
 Alpha  occ. eigenvalues --  -10.18459 -10.18354 -10.18103 -10.17387 -10.16331
 Alpha  occ. eigenvalues --  -10.16231 -10.13039  -1.86414  -1.14091  -1.13777
 Alpha  occ. eigenvalues --   -1.13538  -1.10527  -1.08332  -1.06903  -1.06798
 Alpha  occ. eigenvalues --   -1.06624  -1.06586  -1.06093  -1.05632  -1.05343
 Alpha  occ. eigenvalues --   -1.04871  -1.04693  -1.04270  -1.03878  -1.03713
 Alpha  occ. eigenvalues --   -1.02696  -1.02643  -1.02567  -1.01798  -1.01645
 Alpha  occ. eigenvalues --   -1.01203  -0.96249  -0.95935  -0.95896  -0.95524
 Alpha  occ. eigenvalues --   -0.95211  -0.95140  -0.94370  -0.94280  -0.93967
 Alpha  occ. eigenvalues --   -0.93607  -0.93456  -0.92634  -0.92321  -0.91555
 Alpha  occ. eigenvalues --   -0.91414  -0.91149  -0.90687  -0.88429  -0.86992
 Alpha  occ. eigenvalues --   -0.83884  -0.83097  -0.81687  -0.81005  -0.80271
 Alpha  occ. eigenvalues --   -0.80128  -0.79801  -0.79738  -0.77448  -0.77106
 Alpha  occ. eigenvalues --   -0.77033  -0.76634  -0.76296  -0.76083  -0.75746
 Alpha  occ. eigenvalues --   -0.74235  -0.73973  -0.73272  -0.71921  -0.71812
 Alpha  occ. eigenvalues --   -0.71074  -0.70179  -0.69972  -0.68254  -0.68122
 Alpha  occ. eigenvalues --   -0.67902  -0.67529  -0.67193  -0.67063  -0.66117
 Alpha  occ. eigenvalues --   -0.65733  -0.65516  -0.64672  -0.64399  -0.63836
 Alpha  occ. eigenvalues --   -0.63255  -0.62518  -0.62005  -0.61917  -0.61460
 Alpha  occ. eigenvalues --   -0.61045  -0.60796  -0.60454  -0.60242  -0.59917
 Alpha  occ. eigenvalues --   -0.59899  -0.59842  -0.59810  -0.59410  -0.59194
 Alpha  occ. eigenvalues --   -0.58835  -0.58380  -0.58351  -0.57953  -0.57274
 Alpha  occ. eigenvalues --   -0.57151  -0.56767  -0.56418  -0.55869  -0.55809
 Alpha  occ. eigenvalues --   -0.54987  -0.54627  -0.54073  -0.53475  -0.53253
 Alpha  occ. eigenvalues --   -0.53133  -0.52918  -0.52776  -0.52459  -0.52151
 Alpha  occ. eigenvalues --   -0.52024  -0.51523  -0.51151  -0.50993  -0.50854
 Alpha  occ. eigenvalues --   -0.50795  -0.50755  -0.50518  -0.49978  -0.49427
 Alpha  occ. eigenvalues --   -0.49140  -0.49096  -0.48889  -0.48596  -0.48416
 Alpha  occ. eigenvalues --   -0.48316  -0.48183  -0.47982  -0.47792  -0.47505
 Alpha  occ. eigenvalues --   -0.47285  -0.47125  -0.46915  -0.46849  -0.46729
 Alpha  occ. eigenvalues --   -0.46344  -0.46279  -0.46105  -0.46031  -0.45913
 Alpha  occ. eigenvalues --   -0.45697  -0.45616  -0.45417  -0.45324  -0.45160
 Alpha  occ. eigenvalues --   -0.45126  -0.44904  -0.44812  -0.44770  -0.44626
 Alpha  occ. eigenvalues --   -0.44513  -0.44430  -0.44226  -0.43649  -0.43365
 Alpha  occ. eigenvalues --   -0.43298  -0.43236  -0.43087  -0.43039  -0.42873
 Alpha  occ. eigenvalues --   -0.42766  -0.42606  -0.42387  -0.42099  -0.41985
 Alpha  occ. eigenvalues --   -0.41886  -0.41805  -0.41639  -0.41578  -0.41502
 Alpha  occ. eigenvalues --   -0.41443  -0.40954  -0.40884  -0.40665  -0.40618
 Alpha  occ. eigenvalues --   -0.40556  -0.40483  -0.40233  -0.40179  -0.40052
 Alpha  occ. eigenvalues --   -0.39750  -0.39298  -0.39281  -0.39177  -0.39023
 Alpha  occ. eigenvalues --   -0.39007  -0.38897  -0.38685  -0.38595  -0.38175
 Alpha  occ. eigenvalues --   -0.38099  -0.37982  -0.37912  -0.37870  -0.37772
 Alpha  occ. eigenvalues --   -0.37542  -0.37430  -0.37396  -0.37159  -0.36909
 Alpha  occ. eigenvalues --   -0.36847  -0.36612  -0.36258  -0.36165  -0.35940
 Alpha  occ. eigenvalues --   -0.35918  -0.35838  -0.35159  -0.35050  -0.34899
 Alpha  occ. eigenvalues --   -0.34822  -0.34524  -0.34172  -0.32855  -0.32623
 Alpha  occ. eigenvalues --   -0.32042  -0.31510  -0.31333  -0.31321  -0.30760
 Alpha  occ. eigenvalues --   -0.30238  -0.30190  -0.29943  -0.29845  -0.29702
 Alpha  occ. eigenvalues --   -0.29486  -0.29255  -0.28970  -0.28741  -0.28303
 Alpha  occ. eigenvalues --   -0.28197  -0.28140  -0.27854  -0.27711  -0.27523
 Alpha  occ. eigenvalues --   -0.27511  -0.27310  -0.27110  -0.26707  -0.26502
 Alpha  occ. eigenvalues --   -0.26423  -0.26345  -0.26242  -0.26044  -0.25781
 Alpha  occ. eigenvalues --   -0.25692  -0.25394  -0.25352  -0.24720  -0.24504
 Alpha  occ. eigenvalues --   -0.24177  -0.24117  -0.23866  -0.23300  -0.23001
 Alpha  occ. eigenvalues --   -0.15015  -0.13308  -0.10021
 Alpha virt. eigenvalues --   -0.08573  -0.04423  -0.03767  -0.03732  -0.02963
 Alpha virt. eigenvalues --   -0.02209  -0.01944  -0.01556  -0.01401  -0.00968
 Alpha virt. eigenvalues --   -0.00770  -0.00713  -0.00062   0.00242   0.00305
 Alpha virt. eigenvalues --    0.00692   0.00782   0.01176   0.01354   0.01560
 Alpha virt. eigenvalues --    0.01607   0.01919   0.02041   0.02174   0.02229
 Alpha virt. eigenvalues --    0.02483   0.02589   0.02962   0.03007   0.03162
 Alpha virt. eigenvalues --    0.03519   0.03732   0.03923   0.04028   0.04338
 Alpha virt. eigenvalues --    0.04524   0.04851   0.05160   0.05605   0.06000
 Alpha virt. eigenvalues --    0.06070   0.06312   0.06757   0.06867   0.07041
 Alpha virt. eigenvalues --    0.07565   0.07686   0.07865   0.08080   0.08330
 Alpha virt. eigenvalues --    0.08606   0.08722   0.09057   0.09113   0.09155
 Alpha virt. eigenvalues --    0.09447   0.09749   0.09872   0.09976   0.10375
 Alpha virt. eigenvalues --    0.10405   0.10775   0.10966   0.11043   0.11169
 Alpha virt. eigenvalues --    0.11672   0.11795   0.12044   0.12198   0.12284
 Alpha virt. eigenvalues --    0.12372   0.12572   0.12634   0.12820   0.12979
 Alpha virt. eigenvalues --    0.13023   0.13199   0.13311   0.13491   0.13589
 Alpha virt. eigenvalues --    0.13680   0.13709   0.13886   0.14028   0.14283
 Alpha virt. eigenvalues --    0.14358   0.14510   0.14606   0.14667   0.14823
 Alpha virt. eigenvalues --    0.14969   0.15010   0.15055   0.15225   0.15370
 Alpha virt. eigenvalues --    0.15525   0.15657   0.15858   0.15948   0.16294
 Alpha virt. eigenvalues --    0.16345   0.16559   0.16794   0.16943   0.17061
 Alpha virt. eigenvalues --    0.17213   0.17553   0.17601   0.18003   0.18142
 Alpha virt. eigenvalues --    0.18328   0.18530   0.18739   0.18770   0.19036
 Alpha virt. eigenvalues --    0.19164   0.19391   0.19431   0.19727   0.19765
 Alpha virt. eigenvalues --    0.19909   0.20187   0.20465   0.20498   0.20950
 Alpha virt. eigenvalues --    0.21205   0.21432   0.21643   0.21777   0.21900
 Alpha virt. eigenvalues --    0.22063   0.22255   0.22502   0.22539   0.22623
 Alpha virt. eigenvalues --    0.22965   0.23092   0.23235   0.23362   0.23850
 Alpha virt. eigenvalues --    0.23956   0.24115   0.24706   0.25039   0.25289
 Alpha virt. eigenvalues --    0.25363   0.25456   0.25750   0.26083   0.26117
 Alpha virt. eigenvalues --    0.26218   0.26454   0.26945   0.27148   0.27465
 Alpha virt. eigenvalues --    0.27745   0.27944   0.28218   0.28439   0.28885
 Alpha virt. eigenvalues --    0.29096   0.29250   0.29381   0.29670   0.29892
 Alpha virt. eigenvalues --    0.30473   0.30721   0.30940   0.31316   0.31381
 Alpha virt. eigenvalues --    0.31724   0.32070   0.32246   0.32388   0.32943
 Alpha virt. eigenvalues --    0.33212   0.33419   0.33541   0.33849   0.34504
 Alpha virt. eigenvalues --    0.34544   0.34960   0.35164   0.35523   0.35797
 Alpha virt. eigenvalues --    0.35845   0.36293   0.36582   0.36916   0.37065
 Alpha virt. eigenvalues --    0.37333   0.37584   0.37995   0.38145   0.38505
 Alpha virt. eigenvalues --    0.39111   0.39462   0.39824   0.39914   0.40072
 Alpha virt. eigenvalues --    0.40293   0.40425   0.40819   0.41062   0.41257
 Alpha virt. eigenvalues --    0.41331   0.41375   0.41681   0.41840   0.41905
 Alpha virt. eigenvalues --    0.42184   0.42295   0.42380   0.42791   0.43079
 Alpha virt. eigenvalues --    0.43373   0.43482   0.43584   0.44050   0.44237
 Alpha virt. eigenvalues --    0.44446   0.44657   0.44909   0.45013   0.45241
 Alpha virt. eigenvalues --    0.45435   0.45593   0.45801   0.45955   0.46318
 Alpha virt. eigenvalues --    0.46634   0.46739   0.46841   0.47161   0.47261
 Alpha virt. eigenvalues --    0.47342   0.47613   0.47644   0.48075   0.48357
 Alpha virt. eigenvalues --    0.48547   0.48640   0.48849   0.48987   0.49171
 Alpha virt. eigenvalues --    0.49417   0.49503   0.49585   0.49859   0.49993
 Alpha virt. eigenvalues --    0.50084   0.50360   0.50666   0.50822   0.50850
 Alpha virt. eigenvalues --    0.51006   0.51316   0.51394   0.51491   0.51702
 Alpha virt. eigenvalues --    0.51950   0.52080   0.52288   0.52425   0.52768
 Alpha virt. eigenvalues --    0.52960   0.53165   0.53287   0.53545   0.53949
 Alpha virt. eigenvalues --    0.54101   0.54206   0.54553   0.54770   0.54852
 Alpha virt. eigenvalues --    0.55154   0.55243   0.55402   0.55576   0.55833
 Alpha virt. eigenvalues --    0.56092   0.56266   0.56408   0.56496   0.56839
 Alpha virt. eigenvalues --    0.56969   0.57135   0.57367   0.57594   0.57740
 Alpha virt. eigenvalues --    0.57951   0.58011   0.58045   0.58220   0.58317
 Alpha virt. eigenvalues --    0.58627   0.58766   0.58969   0.59213   0.59258
 Alpha virt. eigenvalues --    0.59545   0.59643   0.59891   0.60028   0.60179
 Alpha virt. eigenvalues --    0.60499   0.60634   0.60721   0.60814   0.60863
 Alpha virt. eigenvalues --    0.61020   0.61363   0.61423   0.61448   0.61697
 Alpha virt. eigenvalues --    0.61819   0.61956   0.62011   0.62258   0.62427
 Alpha virt. eigenvalues --    0.62580   0.62707   0.62751   0.62767   0.62928
 Alpha virt. eigenvalues --    0.62988   0.63141   0.63278   0.63356   0.63463
 Alpha virt. eigenvalues --    0.63523   0.63661   0.63724   0.63837   0.63887
 Alpha virt. eigenvalues --    0.63958   0.64077   0.64320   0.64364   0.64465
 Alpha virt. eigenvalues --    0.64474   0.64624   0.64836   0.64894   0.65000
 Alpha virt. eigenvalues --    0.65045   0.65141   0.65208   0.65399   0.65437
 Alpha virt. eigenvalues --    0.65487   0.65587   0.65652   0.65777   0.65844
 Alpha virt. eigenvalues --    0.66068   0.66199   0.66234   0.66317   0.66329
 Alpha virt. eigenvalues --    0.66450   0.66510   0.66719   0.66808   0.66924
 Alpha virt. eigenvalues --    0.67034   0.67112   0.67209   0.67352   0.67431
 Alpha virt. eigenvalues --    0.67522   0.67590   0.67752   0.67863   0.68006
 Alpha virt. eigenvalues --    0.68116   0.68425   0.68459   0.68504   0.68635
 Alpha virt. eigenvalues --    0.68814   0.68851   0.68941   0.69093   0.69220
 Alpha virt. eigenvalues --    0.69543   0.69697   0.69791   0.69880   0.70160
 Alpha virt. eigenvalues --    0.70322   0.70448   0.70665   0.70868   0.70992
 Alpha virt. eigenvalues --    0.71322   0.71515   0.71677   0.71764   0.71865
 Alpha virt. eigenvalues --    0.72094   0.72139   0.72493   0.72659   0.72822
 Alpha virt. eigenvalues --    0.72868   0.72983   0.73361   0.73470   0.73737
 Alpha virt. eigenvalues --    0.73800   0.74001   0.74386   0.74555   0.74637
 Alpha virt. eigenvalues --    0.74776   0.74857   0.75295   0.75653   0.75841
 Alpha virt. eigenvalues --    0.75896   0.76156   0.76298   0.76605   0.76746
 Alpha virt. eigenvalues --    0.76926   0.77234   0.77439   0.77475   0.77696
 Alpha virt. eigenvalues --    0.78071   0.78317   0.78638   0.78949   0.79001
 Alpha virt. eigenvalues --    0.79311   0.79507   0.79698   0.79924   0.79997
 Alpha virt. eigenvalues --    0.80190   0.80459   0.81133   0.81354   0.81448
 Alpha virt. eigenvalues --    0.81790   0.82130   0.82312   0.82810   0.82888
 Alpha virt. eigenvalues --    0.83189   0.83309   0.83567   0.83676   0.83877
 Alpha virt. eigenvalues --    0.84176   0.84337   0.84545   0.84641   0.85226
 Alpha virt. eigenvalues --    0.85671   0.85930   0.86419   0.86886   0.87058
 Alpha virt. eigenvalues --    0.87287   0.87669   0.87985   0.88079   0.88286
 Alpha virt. eigenvalues --    0.88771   0.88825   0.89294   0.89578   0.89767
 Alpha virt. eigenvalues --    0.89864   0.90107   0.90268   0.90578   0.90699
 Alpha virt. eigenvalues --    0.91310   0.91497   0.91587   0.91772   0.92023
 Alpha virt. eigenvalues --    0.92286   0.92552   0.93240   0.93652   0.93906
 Alpha virt. eigenvalues --    0.94023   0.94138   0.94593   0.94972   0.95098
 Alpha virt. eigenvalues --    0.95336   0.95810   0.95871   0.96611   0.97021
 Alpha virt. eigenvalues --    0.97144   0.97565   0.97685   0.97925   0.98130
 Alpha virt. eigenvalues --    0.98310   0.98461   0.98657   0.99095   0.99283
 Alpha virt. eigenvalues --    0.99695   0.99996   1.00085   1.00174   1.00451
 Alpha virt. eigenvalues --    1.01325   1.01653   1.01666   1.01720   1.01873
 Alpha virt. eigenvalues --    1.02237   1.02731   1.03105   1.03369   1.03547
 Alpha virt. eigenvalues --    1.04239   1.04506   1.04615   1.05081   1.05469
 Alpha virt. eigenvalues --    1.05582   1.05809   1.06027   1.06415   1.06498
 Alpha virt. eigenvalues --    1.06817   1.07353   1.07404   1.07755   1.07974
 Alpha virt. eigenvalues --    1.08204   1.08623   1.09383   1.09497   1.09916
 Alpha virt. eigenvalues --    1.10158   1.10241   1.10720   1.10896   1.11132
 Alpha virt. eigenvalues --    1.11526   1.11887   1.12218   1.12430   1.12595
 Alpha virt. eigenvalues --    1.12838   1.12932   1.13308   1.13490   1.13661
 Alpha virt. eigenvalues --    1.13728   1.13989   1.14108   1.14324   1.14669
 Alpha virt. eigenvalues --    1.14821   1.14915   1.15285   1.15657   1.16049
 Alpha virt. eigenvalues --    1.16389   1.16560   1.16650   1.16761   1.16905
 Alpha virt. eigenvalues --    1.17274   1.17428   1.17700   1.18306   1.18517
 Alpha virt. eigenvalues --    1.18660   1.18836   1.19049   1.19351   1.20311
 Alpha virt. eigenvalues --    1.20540   1.20879   1.21079   1.21500   1.21618
 Alpha virt. eigenvalues --    1.21907   1.22053   1.22419   1.22565   1.22736
 Alpha virt. eigenvalues --    1.23197   1.23266   1.23647   1.23928   1.24203
 Alpha virt. eigenvalues --    1.24419   1.24682   1.25095   1.25223   1.25625
 Alpha virt. eigenvalues --    1.25785   1.25904   1.26042   1.26244   1.26534
 Alpha virt. eigenvalues --    1.26715   1.26811   1.27391   1.27743   1.28101
 Alpha virt. eigenvalues --    1.28395   1.28520   1.29040   1.29514   1.29727
 Alpha virt. eigenvalues --    1.29865   1.30328   1.30444   1.30741   1.31095
 Alpha virt. eigenvalues --    1.31305   1.31687   1.32368   1.32506   1.32638
 Alpha virt. eigenvalues --    1.32762   1.32889   1.33457   1.33724   1.34014
 Alpha virt. eigenvalues --    1.34135   1.34293   1.34395   1.34551   1.35064
 Alpha virt. eigenvalues --    1.35260   1.35438   1.35663   1.36065   1.36118
 Alpha virt. eigenvalues --    1.36204   1.36569   1.36800   1.37274   1.37643
 Alpha virt. eigenvalues --    1.37887   1.38162   1.38723   1.38929   1.39368
 Alpha virt. eigenvalues --    1.39484   1.39757   1.40059   1.40420   1.40621
 Alpha virt. eigenvalues --    1.41404   1.41788   1.42198   1.42495   1.42563
 Alpha virt. eigenvalues --    1.42973   1.43145   1.43450   1.43973   1.44405
 Alpha virt. eigenvalues --    1.44709   1.44829   1.44884   1.45029   1.45301
 Alpha virt. eigenvalues --    1.45376   1.45563   1.46097   1.46713   1.47163
 Alpha virt. eigenvalues --    1.47481   1.47727   1.47922   1.48433   1.48461
 Alpha virt. eigenvalues --    1.48624   1.48916   1.49353   1.50002   1.50087
 Alpha virt. eigenvalues --    1.50242   1.50437   1.50863   1.50958   1.51064
 Alpha virt. eigenvalues --    1.51244   1.51670   1.51875   1.52084   1.52299
 Alpha virt. eigenvalues --    1.52719   1.53178   1.53322   1.53582   1.53732
 Alpha virt. eigenvalues --    1.54053   1.54256   1.54552   1.55063   1.55207
 Alpha virt. eigenvalues --    1.55397   1.55873   1.56040   1.56089   1.56374
 Alpha virt. eigenvalues --    1.56811   1.57216   1.57807   1.58200   1.58342
 Alpha virt. eigenvalues --    1.59000   1.59306   1.59682   1.59874   1.60499
 Alpha virt. eigenvalues --    1.60667   1.60921   1.61118   1.61385   1.61875
 Alpha virt. eigenvalues --    1.62758   1.63067   1.63565   1.63724   1.63983
 Alpha virt. eigenvalues --    1.64139   1.64394   1.65066   1.65291   1.66202
 Alpha virt. eigenvalues --    1.66694   1.66739   1.66779   1.67130   1.67344
 Alpha virt. eigenvalues --    1.67851   1.67984   1.68422   1.68702   1.68927
 Alpha virt. eigenvalues --    1.69623   1.69714   1.70036   1.70397   1.70567
 Alpha virt. eigenvalues --    1.70674   1.71034   1.71276   1.71371   1.71829
 Alpha virt. eigenvalues --    1.71967   1.72097   1.72316   1.72366   1.72531
 Alpha virt. eigenvalues --    1.72626   1.72818   1.73276   1.73325   1.73598
 Alpha virt. eigenvalues --    1.74167   1.74341   1.74365   1.74830   1.74928
 Alpha virt. eigenvalues --    1.75193   1.75305   1.75477   1.75564   1.75608
 Alpha virt. eigenvalues --    1.76198   1.76407   1.76509   1.76574   1.76624
 Alpha virt. eigenvalues --    1.76742   1.76848   1.76986   1.77230   1.77256
 Alpha virt. eigenvalues --    1.77400   1.77685   1.77776   1.77895   1.78040
 Alpha virt. eigenvalues --    1.78290   1.78399   1.78657   1.78887   1.79025
 Alpha virt. eigenvalues --    1.79147   1.79251   1.79539   1.79607   1.79827
 Alpha virt. eigenvalues --    1.79998   1.80163   1.80385   1.80546   1.80864
 Alpha virt. eigenvalues --    1.81315   1.81427   1.81644   1.81754   1.81857
 Alpha virt. eigenvalues --    1.81912   1.82055   1.82164   1.82444   1.82800
 Alpha virt. eigenvalues --    1.82988   1.83047   1.83203   1.83320   1.83560
 Alpha virt. eigenvalues --    1.83704   1.83809   1.84022   1.84281   1.84324
 Alpha virt. eigenvalues --    1.84583   1.84798   1.85122   1.85148   1.85572
 Alpha virt. eigenvalues --    1.85855   1.86068   1.86182   1.86332   1.86441
 Alpha virt. eigenvalues --    1.86778   1.86965   1.87095   1.87176   1.87515
 Alpha virt. eigenvalues --    1.87783   1.87865   1.88171   1.88356   1.88457
 Alpha virt. eigenvalues --    1.88553   1.88652   1.88844   1.89048   1.89240
 Alpha virt. eigenvalues --    1.89513   1.89813   1.90007   1.90080   1.90177
 Alpha virt. eigenvalues --    1.90382   1.90520   1.90734   1.90850   1.90971
 Alpha virt. eigenvalues --    1.91189   1.91619   1.91969   1.92143   1.92219
 Alpha virt. eigenvalues --    1.92458   1.92557   1.92606   1.92886   1.92961
 Alpha virt. eigenvalues --    1.93464   1.93636   1.93911   1.93945   1.94206
 Alpha virt. eigenvalues --    1.94341   1.94587   1.94815   1.94961   1.95186
 Alpha virt. eigenvalues --    1.95318   1.95648   1.96031   1.96150   1.96452
 Alpha virt. eigenvalues --    1.96667   1.96735   1.96973   1.97102   1.97441
 Alpha virt. eigenvalues --    1.97618   1.97792   1.97980   1.98265   1.98372
 Alpha virt. eigenvalues --    1.98554   1.98833   1.99011   1.99133   1.99533
 Alpha virt. eigenvalues --    2.00030   2.00155   2.00190   2.00387   2.00585
 Alpha virt. eigenvalues --    2.00787   2.00966   2.01279   2.01603   2.01668
 Alpha virt. eigenvalues --    2.01801   2.02678   2.02903   2.03010   2.03437
 Alpha virt. eigenvalues --    2.03546   2.03767   2.04068   2.04143   2.04298
 Alpha virt. eigenvalues --    2.04389   2.04515   2.04755   2.05018   2.05238
 Alpha virt. eigenvalues --    2.05482   2.05637   2.06107   2.06554   2.06662
 Alpha virt. eigenvalues --    2.06958   2.07128   2.07432   2.07651   2.08142
 Alpha virt. eigenvalues --    2.08567   2.08771   2.08848   2.09380   2.09879
 Alpha virt. eigenvalues --    2.10243   2.10441   2.10711   2.10829   2.11387
 Alpha virt. eigenvalues --    2.11699   2.11743   2.12053   2.12304   2.12508
 Alpha virt. eigenvalues --    2.12707   2.13151   2.13199   2.13338   2.13650
 Alpha virt. eigenvalues --    2.14011   2.14163   2.14505   2.14933   2.15207
 Alpha virt. eigenvalues --    2.15532   2.15626   2.16052   2.16368   2.16423
 Alpha virt. eigenvalues --    2.16630   2.17245   2.17412   2.17678   2.18246
 Alpha virt. eigenvalues --    2.18440   2.18730   2.19179   2.19528   2.19873
 Alpha virt. eigenvalues --    2.20134   2.20247   2.20470   2.20758   2.20843
 Alpha virt. eigenvalues --    2.20967   2.21282   2.21963   2.22300   2.22605
 Alpha virt. eigenvalues --    2.23175   2.24223   2.24339   2.24502   2.25011
 Alpha virt. eigenvalues --    2.25990   2.26085   2.26768   2.27123   2.27567
 Alpha virt. eigenvalues --    2.27721   2.27825   2.28207   2.28279   2.28644
 Alpha virt. eigenvalues --    2.28738   2.29117   2.29260   2.29525   2.30129
 Alpha virt. eigenvalues --    2.30296   2.30962   2.31089   2.31307   2.31516
 Alpha virt. eigenvalues --    2.31814   2.32024   2.32089   2.32187   2.32496
 Alpha virt. eigenvalues --    2.32626   2.33231   2.33352   2.34212   2.34710
 Alpha virt. eigenvalues --    2.34907   2.35202   2.35313   2.36010   2.36459
 Alpha virt. eigenvalues --    2.36519   2.36586   2.36904   2.37016   2.37444
 Alpha virt. eigenvalues --    2.37519   2.38688   2.38760   2.39350   2.39389
 Alpha virt. eigenvalues --    2.39538   2.40046   2.40630   2.40881   2.40991
 Alpha virt. eigenvalues --    2.41167   2.41593   2.41761   2.42629   2.42785
 Alpha virt. eigenvalues --    2.43030   2.43637   2.43778   2.44215   2.44802
 Alpha virt. eigenvalues --    2.44824   2.45253   2.45648   2.45833   2.46135
 Alpha virt. eigenvalues --    2.46492   2.46889   2.47859   2.48243   2.48373
 Alpha virt. eigenvalues --    2.49146   2.49610   2.49634   2.49762   2.50095
 Alpha virt. eigenvalues --    2.50567   2.50710   2.50987   2.52235   2.52515
 Alpha virt. eigenvalues --    2.52531   2.52857   2.53480   2.54041   2.54109
 Alpha virt. eigenvalues --    2.54402   2.54684   2.55142   2.55363   2.55498
 Alpha virt. eigenvalues --    2.55568   2.55955   2.56068   2.56076   2.56428
 Alpha virt. eigenvalues --    2.56608   2.56911   2.57075   2.57267   2.57843
 Alpha virt. eigenvalues --    2.57978   2.58270   2.59109   2.59420   2.59533
 Alpha virt. eigenvalues --    2.59945   2.60146   2.60384   2.60433   2.60666
 Alpha virt. eigenvalues --    2.61029   2.61120   2.61681   2.61892   2.61934
 Alpha virt. eigenvalues --    2.62978   2.63060   2.63737   2.63757   2.64061
 Alpha virt. eigenvalues --    2.64152   2.64459   2.64575   2.64751   2.65145
 Alpha virt. eigenvalues --    2.65647   2.65912   2.66149   2.66470   2.67127
 Alpha virt. eigenvalues --    2.67273   2.67347   2.67528   2.67897   2.68052
 Alpha virt. eigenvalues --    2.68453   2.68656   2.68779   2.68962   2.69154
 Alpha virt. eigenvalues --    2.69433   2.69486   2.70033   2.70153   2.70210
 Alpha virt. eigenvalues --    2.71011   2.71105   2.71703   2.72122   2.72552
 Alpha virt. eigenvalues --    2.72875   2.73226   2.73548   2.73597   2.73838
 Alpha virt. eigenvalues --    2.74075   2.74554   2.74676   2.74763   2.75274
 Alpha virt. eigenvalues --    2.75387   2.75859   2.76151   2.76376   2.76629
 Alpha virt. eigenvalues --    2.76755   2.77066   2.77686   2.78253   2.78461
 Alpha virt. eigenvalues --    2.78500   2.78763   2.79039   2.79408   2.79502
 Alpha virt. eigenvalues --    2.79686   2.79899   2.80189   2.80669   2.80954
 Alpha virt. eigenvalues --    2.81447   2.81903   2.82403   2.82489   2.82614
 Alpha virt. eigenvalues --    2.82755   2.83563   2.83709   2.83853   2.84276
 Alpha virt. eigenvalues --    2.84525   2.85035   2.85598   2.86083   2.86222
 Alpha virt. eigenvalues --    2.87362   2.87568   2.87717   2.87823   2.88115
 Alpha virt. eigenvalues --    2.88210   2.88488   2.88937   2.89136   2.89232
 Alpha virt. eigenvalues --    2.89694   2.89885   2.90325   2.90414   2.90744
 Alpha virt. eigenvalues --    2.91161   2.91355   2.91386   2.91564   2.91776
 Alpha virt. eigenvalues --    2.91839   2.92017   2.92213   2.92703   2.92924
 Alpha virt. eigenvalues --    2.93038   2.93367   2.93471   2.93808   2.93935
 Alpha virt. eigenvalues --    2.94202   2.94489   2.95098   2.95958   2.96011
 Alpha virt. eigenvalues --    2.96232   2.96585   2.96846   2.97281   2.97314
 Alpha virt. eigenvalues --    2.97780   2.98601   2.98724   2.98986   2.99359
 Alpha virt. eigenvalues --    2.99502   2.99729   2.99944   3.00119   3.00188
 Alpha virt. eigenvalues --    3.00943   3.01026   3.01427   3.01593   3.01823
 Alpha virt. eigenvalues --    3.02388   3.02849   3.03109   3.03153   3.04187
 Alpha virt. eigenvalues --    3.05206   3.05668   3.06007   3.06359   3.06851
 Alpha virt. eigenvalues --    3.07142   3.08048   3.08490   3.08707   3.09149
 Alpha virt. eigenvalues --    3.09540   3.11385   3.11464   3.11786   3.12444
 Alpha virt. eigenvalues --    3.12942   3.13124   3.13303   3.13411   3.13644
 Alpha virt. eigenvalues --    3.13985   3.14735   3.15183   3.15252   3.15377
 Alpha virt. eigenvalues --    3.16115   3.16390   3.16493   3.16633   3.16895
 Alpha virt. eigenvalues --    3.17182   3.17396   3.17495   3.17605   3.18090
 Alpha virt. eigenvalues --    3.18614   3.18929   3.19269   3.19419   3.20052
 Alpha virt. eigenvalues --    3.20357   3.20726   3.21189   3.21314   3.21895
 Alpha virt. eigenvalues --    3.22542   3.23013   3.23351   3.23932   3.24050
 Alpha virt. eigenvalues --    3.24577   3.24780   3.24991   3.27413   3.27490
 Alpha virt. eigenvalues --    3.28441   3.29066   3.31304   3.32219   3.32611
 Alpha virt. eigenvalues --    3.33104   3.33816   3.34980   3.35959   3.38149
 Alpha virt. eigenvalues --    3.38368   3.41170   3.43718   3.46119   3.48360
 Alpha virt. eigenvalues --    3.50843   3.52409   3.52529   3.52628   3.53114
 Alpha virt. eigenvalues --    3.54083   3.54748   3.55279   3.55910   3.56274
 Alpha virt. eigenvalues --    3.57105   3.57210   3.57278   3.57947   3.58822
 Alpha virt. eigenvalues --    3.59246   3.63054   3.65046   3.65660   3.66100
 Alpha virt. eigenvalues --    3.66670   3.66722   3.66902   3.67403   3.67461
 Alpha virt. eigenvalues --    3.67704   3.67832   3.68286   3.68362   3.69014
 Alpha virt. eigenvalues --    3.69541   3.69840   3.70450   3.72605   3.75512
 Alpha virt. eigenvalues --    3.76669   3.77748   3.79290   3.79907
          Condensed to atoms (all electrons):
 Mulliken charges:
               1
     1  C    0.046005
     2  C    0.034839
     3  O   -0.294869
     4  H    0.035653
     5  H    0.056501
     6  H   -0.006671
     7  N   -0.126621
     8  C    0.132286
     9  C    0.070789
    10  O   -0.263736
    11  C    0.054835
    12  C    0.100425
    13  O   -0.343103
    14  O   -0.490863
    15  H    0.126942
    16  H   -0.020120
    17  H    0.007438
    18  H    0.024520
    19  N   -0.140929
    20  C    0.160982
    21  C    0.036373
    22  O   -0.257355
    23  C    0.017213
    24  C   -0.033319
    25  C   -0.002118
    26  C    0.020778
    27  N    0.091876
    28  H    0.120999
    29  H    0.026496
    30  H    0.021648
    31  H    0.034697
    32  H    0.038874
    33  H    0.015438
    34  H    0.044740
    35  H    0.034082
    36  H    0.057393
    37  H    0.056000
    38  H    0.157917
    39  H    0.142955
    40  H    0.158220
    41  N   -0.161886
    42  C    0.054643
    43  C    0.067365
    44  O   -0.277844
    45  C    0.177051
    46  C    0.056197
    47  O   -0.398320
    48  O   -0.443413
    49  H    0.165498
    50  H    0.045880
    51  H   -0.035500
    52  H    0.044139
    53  N   -0.171434
    54  C    0.266530
    55  C   -0.000953
    56  O   -0.304256
    57  H    0.123240
    58  H    0.037997
    59  H    0.046392
    60  N   -0.129175
    61  C    0.144399
    62  C    0.149447
    63  O   -0.386350
    64  C    0.112463
    65  C   -0.030465
    66  N   -0.016296
    67  O   -0.296161
    68  H    0.172387
    69  H   -0.007527
    70  H    0.033786
    71  H    0.010589
    72  H    0.138149
    73  H    0.141979
    74  N   -0.138133
    75  C    0.173716
    76  C    0.030846
    77  O   -0.293037
    78  H    0.138165
    79  H    0.041069
    80  H    0.056013
    81  N   -0.112948
    82  C    0.071844
    83  C    0.162130
    84  O   -0.395396
    85  C    0.149700
    86  C   -0.041993
    87  C    0.034484
    88  C   -0.008062
    89  C   -0.031839
    90  C   -0.036799
    91  C    0.143595
    92  O   -0.190294
    93  H    0.141444
    94  H   -0.001703
    95  H    0.003315
    96  H    0.013893
    97  H   -0.018864
    98  H   -0.028980
    99  H   -0.008086
   100  H   -0.041059
   101  H    0.178477
   102  N   -0.111625
   103  C    0.145065
   104  C    0.082611
   105  O   -0.287039
   106  C   -0.094462
   107  C   -0.004828
   108  C    0.037111
   109  C    0.055304
   110  H    0.132768
   111  H   -0.028615
   112  H   -0.007277
   113  H   -0.024153
   114  H    0.003310
   115  H   -0.008944
   116  H    0.033333
   117  H    0.024587
   118  H    0.050895
   119  H    0.025197
   120  H   -0.017653
   121  N   -0.131099
   122  C    0.087202
   123  C    0.093636
   124  O   -0.250366
   125  C    0.234055
   126  O   -0.308887
   127  H    0.146616
   128  H    0.037404
   129  H   -0.019318
   130  H    0.008307
   131  H    0.194621
   132  N   -0.125908
   133  C    0.005561
   134  C    0.076519
   135  O   -0.249178
   136  C    0.075591
   137  H    0.124870
   138  H    0.031576
   139  H   -0.026944
   140  H    0.041096
   141  H    0.009469
   142  N   -0.105379
   143  C   -0.008669
   144  C    0.061728
   145  O   -0.281170
   146  C    0.092093
   147  H    0.134226
   148  H    0.010103
   149  H    0.001053
   150  H    0.026318
   151  H    0.018560
   152  N   -0.089954
   153  C    0.077694
   154  C    0.088104
   155  O   -0.298829
   156  C    0.014791
   157  C    0.079089
   158  C    0.011033
   159  O   -0.367424
   160  O   -0.386057
   161  H    0.120940
   162  H    0.008481
   163  H   -0.007997
   164  H   -0.017603
   165  H   -0.012227
   166  H   -0.057975
   167  N   -0.139776
   168  C    0.119867
   169  H    0.035431
   170  H    0.041539
   171  H    0.023248
   172  H    0.106825
   173  Ca   1.337863
   174  O   -0.324410
   175  H    0.182170
   176  H    0.178647
 Sum of Mulliken charges =  -0.00000
 Mulliken charges with hydrogens summed into heavy atoms:
               1
     1  C    0.131488
     2  C    0.034839
     3  O   -0.294869
     7  N    0.000321
     8  C    0.112166
     9  C    0.070789
    10  O   -0.263736
    11  C    0.086792
    12  C    0.100425
    13  O   -0.343103
    14  O   -0.490863
    19  N   -0.019930
    20  C    0.187478
    21  C    0.036373
    22  O   -0.257355
    23  C    0.073558
    24  C    0.020992
    25  C    0.076705
    26  C    0.134172
    27  N    0.550968
    41  N    0.003613
    42  C    0.100523
    43  C    0.067365
    44  O   -0.277844
    45  C    0.185690
    46  C    0.056197
    47  O   -0.398320
    48  O   -0.443413
    53  N   -0.048194
    54  C    0.350919
    55  C   -0.000953
    56  O   -0.304256
    60  N    0.043212
    61  C    0.136871
    62  C    0.149447
    63  O   -0.386350
    64  C    0.156838
    65  C   -0.030465
    66  N    0.263832
    67  O   -0.296161
    74  N    0.000033
    75  C    0.270797
    76  C    0.030846
    77  O   -0.293037
    81  N    0.028496
    82  C    0.070141
    83  C    0.162130
    84  O   -0.395396
    85  C    0.166909
    86  C   -0.041993
    87  C    0.015621
    88  C   -0.037042
    89  C   -0.039925
    90  C   -0.077858
    91  C    0.143595
    92  O   -0.011817
   102  N    0.021143
   103  C    0.116450
   104  C    0.082611
   105  O   -0.287039
   106  C   -0.101739
   107  C   -0.025670
   108  C    0.086086
   109  C    0.113743
   121  N    0.015517
   122  C    0.124606
   123  C    0.093636
   124  O   -0.250366
   125  C    0.223045
   126  O   -0.114266
   132  N   -0.001038
   133  C    0.037137
   134  C    0.076519
   135  O   -0.249178
   136  C    0.099213
   142  N    0.028847
   143  C    0.001434
   144  C    0.061728
   145  O   -0.281170
   146  C    0.138024
   152  N    0.030986
   153  C    0.086175
   154  C    0.088104
   155  O   -0.298829
   156  C   -0.010810
   157  C    0.008887
   158  C    0.011033
   159  O   -0.367424
   160  O   -0.386057
   167  N   -0.032951
   168  C    0.220085
   173  Ca   1.337863
   174  O    0.036407
 DipInt: DoE/N= T F RetVal/Mat= T F Init=T NMatP=  1 IDeriv=0 Min/MaxMlt=  0  4
 Entering OneElI...
 OneElI was handed  1333951383 working-precision words.
 Multipole integrals L=0 to 4 MinM= 0 MaxM= 0.
 Requested accuracy = 0.1000D-12
 ShPair: Thresh= 1.00D-13 NBox=     0 BxSize= 0.00D+00 RnKept= 2.56D+01
         NSMCal=               327645 NSMKep=              139904
 PrmmSu-InSpLW:  IPartL=    0 NPrtUS=    1 NPrtUL=    1 DoSpLW=F IThBeg=    0 IThEnd=    0 NThAct=    1.
 PrsmSu:  NPrtUS=   1 ThrOK=F IAlg=1 NPAlg=1 LenDen=           0 ISkipM=0 DoSpLW=F IThBeg=    0 IThEnd=    0.
 Prism:   IPart=     0 DynPar=F LinDyn=F Incr=         512.
 PRISM was handed  1324664193 working-precision words and139904 shell-pairs
 IPart=  0 NShTot=      139904 NBatch=         324 AvBLen=       431.8
 PrsmSu-ThDecC:  IPartSL=    0    0 NPrtUSL=    1    1 IThBeg=    0 IThEnd=    0 CPU=   -1 GPU=   -1 NThAct=    1.
 PrSmSu:  NxtVal=            513.
 Electronic moments (au):
       -716.00000000          3.37795563          5.29968816         -1.19748142
     -82025.10087879     -30124.32825831     -12027.94256335        -49.51600116
        -23.97460047         48.33723580     223991.43413943      -3869.35491150
      -5111.97971863     -37841.71572187     113092.48019025      34974.46578699
      -8887.68416184      20658.40007994     -23962.92610228     -32343.38943408
  -16329050.98238324   -2725631.76790785    -480662.63576145    -495368.72171657
    -182085.46801175     220564.33742642     158320.35741605     123964.76493750
     -32338.55397118   -2893381.88475459   -1411701.12549393    -490625.80446331
     516727.53437124    -138026.69775369     129332.42114124
 Electronic spatial extent (au):  <R**2>=         124177.3717
 DipInt: DoE/N= F T RetVal/Mat= T F Init=T NMatP=  1 IDeriv=0 Min/MaxMlt=  0  4
 Nuclear    moments (au):
        716.00000000         -0.00000000         -0.00000000         -0.00000000
      81465.97424886      29680.93198779      11640.83267683         -0.00000000
          0.00000000         -0.00000000    -224144.55788756       5715.48985378
       5013.28598303      38722.06415828    -112836.35878107     -33611.23968605
       9141.56395402     -21039.36910627      23673.32144520      32142.61547137
   15992196.86449411    2614361.15870485     441639.31068092     494306.01648434
     172520.17512228    -227525.84726022    -154206.72219476    -124505.53659855
      33695.28779852    2825917.03219346    1356167.52287953     468330.98209748
    -518135.22362017     137342.10376575    -128513.04599433
 Total      moments (au):
         -0.00000000          3.37795563          5.29968816         -1.19748142
       -559.12662994       -443.39627052       -387.10988652        -49.51600116
        -23.97460047         48.33723580       -153.12374813       1846.13494228
        -98.69373560        880.34843641        256.12140918       1363.22610094
        253.87979218       -380.96902633       -289.60465708       -200.77396271
    -336854.11788914    -111270.60920300     -39023.32508053      -1062.70523223
      -9565.29288947      -6961.50983381       4113.63522130       -540.77166105
       1356.73382735     -67464.85256112     -55533.60261440     -22294.82236583
      -1407.68924894       -684.59398794        819.37514691
 Traceless Quadrup. (au):
        -95.91570095         19.81465848         76.10104247        -49.51600116
        -23.97460047         48.33723580
 Charge=             -0.0000 electrons
 Dipole moment (field-independent basis, Debye):
    X=              8.5859    Y=             13.4705    Z=             -3.0437  Tot=             16.2615
 Quadrupole moment (field-independent basis, Debye-Ang):
   XX=           -752.0445   YY=           -596.3832   ZZ=           -520.6761
   XY=            -66.6007   XZ=            -32.2467   YZ=             65.0152
 Traceless Quadrupole moment (field-independent basis, Debye-Ang):
   XX=           -129.0099   YY=             26.6514   ZZ=            102.3585
   XY=            -66.6007   XZ=            -32.2467   YZ=             65.0152
 Octapole moment (field-independent basis, Debye-Ang**2):
  XXX=           -108.9876  YYY=           1314.0077  ZZZ=            -70.2464  XYY=            626.5981
  XXY=            182.2974  XXZ=            970.2918  XZZ=            180.7019  YZZ=           -271.1591
  YYZ=           -206.1294  XYZ=           -142.9032
 Hexadecapole moment (field-independent basis, Debye-Ang**3):
 XXXX=        -126875.4135 YYYY=         -41909.8470 ZZZZ=         -14698.0555 XXXY=           -400.2657
 XXXZ=          -3602.7480 YYYX=          -2622.0384 YYYZ=           1549.3923 ZZZX=           -203.6805
 ZZZY=            511.0110 XXYY=         -25410.4985 XXZZ=         -20916.6177 YYZZ=          -8397.2992
 XXYZ=           -530.2033 YYXZ=           -257.8509 ZZXY=            308.6160
 N-N= 2.015510004260D+04 E-N=-5.277713089923D+04  KE= 5.290575970888D+03
 Leave Link  601 at Tue Sep 17 23:52:46 2019, MaxMem=  1342177280 cpu:              40.1 elap:               1.0
 FitSet:  NAtFit=   176 NAtPot=   176 NAtFrz=     0 MDM=   180 TotChg=   0.00000
 Merz-Kollman atomic radii used.
 Read replacement radii for each type of atom:
 Rad(20) =   1.700000000000D+00
 Atom Element Radius
    1     6    1.50
    2     6    1.50
    3     8    1.40
    4     1    1.20
    5     1    1.20
    6     1    1.20
    7     7    1.50
    8     6    1.50
    9     6    1.50
   10     8    1.40
   11     6    1.50
   12     6    1.50
   13     8    1.40
   14     8    1.40
   15     1    1.20
   16     1    1.20
   17     1    1.20
   18     1    1.20
   19     7    1.50
   20     6    1.50
   21     6    1.50
   22     8    1.40
   23     6    1.50
   24     6    1.50
   25     6    1.50
   26     6    1.50
   27     7    1.50
   28     1    1.20
   29     1    1.20
   30     1    1.20
   31     1    1.20
   32     1    1.20
   33     1    1.20
   34     1    1.20
   35     1    1.20
   36     1    1.20
   37     1    1.20
   38     1    1.20
   39     1    1.20
   40     1    1.20
   41     7    1.50
   42     6    1.50
   43     6    1.50
   44     8    1.40
   45     6    1.50
   46     6    1.50
   47     8    1.40
   48     8    1.40
   49     1    1.20
   50     1    1.20
   51     1    1.20
   52     1    1.20
   53     7    1.50
   54     6    1.50
   55     6    1.50
   56     8    1.40
   57     1    1.20
   58     1    1.20
   59     1    1.20
   60     7    1.50
   61     6    1.50
   62     6    1.50
   63     8    1.40
   64     6    1.50
   65     6    1.50
   66     7    1.50
   67     8    1.40
   68     1    1.20
   69     1    1.20
   70     1    1.20
   71     1    1.20
   72     1    1.20
   73     1    1.20
   74     7    1.50
   75     6    1.50
   76     6    1.50
   77     8    1.40
   78     1    1.20
   79     1    1.20
   80     1    1.20
   81     7    1.50
   82     6    1.50
   83     6    1.50
   84     8    1.40
   85     6    1.50
   86     6    1.50
   87     6    1.50
   88     6    1.50
   89     6    1.50
   90     6    1.50
   91     6    1.50
   92     8    1.40
   93     1    1.20
   94     1    1.20
   95     1    1.20
   96     1    1.20
   97     1    1.20
   98     1    1.20
   99     1    1.20
  100     1    1.20
  101     1    1.20
  102     7    1.50
  103     6    1.50
  104     6    1.50
  105     8    1.40
  106     6    1.50
  107     6    1.50
  108     6    1.50
  109     6    1.50
  110     1    1.20
  111     1    1.20
  112     1    1.20
  113     1    1.20
  114     1    1.20
  115     1    1.20
  116     1    1.20
  117     1    1.20
  118     1    1.20
  119     1    1.20
  120     1    1.20
  121     7    1.50
  122     6    1.50
  123     6    1.50
  124     8    1.40
  125     6    1.50
  126     8    1.40
  127     1    1.20
  128     1    1.20
  129     1    1.20
  130     1    1.20
  131     1    1.20
  132     7    1.50
  133     6    1.50
  134     6    1.50
  135     8    1.40
  136     6    1.50
  137     1    1.20
  138     1    1.20
  139     1    1.20
  140     1    1.20
  141     1    1.20
  142     7    1.50
  143     6    1.50
  144     6    1.50
  145     8    1.40
  146     6    1.50
  147     1    1.20
  148     1    1.20
  149     1    1.20
  150     1    1.20
  151     1    1.20
  152     7    1.50
  153     6    1.50
  154     6    1.50
  155     8    1.40
  156     6    1.50
  157     6    1.50
  158     6    1.50
  159     8    1.40
  160     8    1.40
  161     1    1.20
  162     1    1.20
[...]
 **** Fit       0.006827
 **** Fit      -0.003035
 **** Fit      -0.004163
 **** Fit      -0.004870
 **** Fit      -0.004696
 **** Fit       0.003700
 **** Fit       0.002873
 **** Fit       0.003579
 **** Fit       0.004281
 **** Fit       0.004398
 **** Fit       0.003877
 **** Fit       0.003074
 **** Fit       0.001890
 **** Fit       0.002610
 **** Fit       0.003517
 **** Fit       0.004269
 **** Fit       0.004792
 **** Fit       0.005058
 **** Fit       0.005007
 **** Fit       0.004663
 **** Fit       0.001802
 **** Fit       0.000722
 **** Fit       0.001541
 **** Fit       0.002573
 **** Fit       0.003513
 **** Fit       0.004232
 **** Fit       0.004776
 **** Fit       0.005215
 **** Fit       0.005541
 **** Fit       0.005677
 **** Fit       0.005576
 **** Fit       0.005275
 **** Fit       0.004862
 **** Fit       0.000431
 **** Fit      -0.000663
 **** Fit       0.000334
 **** Fit       0.004807
 **** Fit       0.005248
 **** Fit       0.005684
 **** Fit       0.006062
 **** Fit       0.006279
 **** Fit       0.006259
 **** Fit       0.006015
 **** Fit       0.005638
 **** Fit       0.005220
 **** Fit      -0.001152
 **** Fit      -0.002312
 **** Fit       0.005027
 **** Fit       0.005451
 **** Fit       0.005934
 **** Fit       0.006249
 **** Fit       0.005818
 **** Fit      -0.002981
 **** Fit      -0.004293
 **** Fit       0.004885
 **** Fit       0.005334
 **** Fit       0.005895
 **** Fit       0.006404
 **** Fit       0.005946
 **** Fit      -0.005136
 **** Fit       0.004534
 **** Fit       0.005035
 **** Fit       0.005671
 **** Fit       0.007109
 **** Fit       0.006604
 **** Fit      -0.008153
 **** Fit      -0.007643
 **** Fit       0.004081
 **** Fit       0.004731
 **** Fit       0.007651
 **** Fit       0.007150
 **** Fit       0.006642
 **** Fit      -0.011228
 **** Fit      -0.010580
 **** Fit       0.003442
 **** Fit       0.004280
 **** Fit       0.008403
 **** Fit       0.007955
 **** Fit       0.007424
 **** Fit      -0.015148
 **** Fit      -0.014661
 **** Fit      -0.013980
 **** Fit       0.002943
 **** Fit       0.004001
 **** Fit       0.009314
 **** Fit       0.008867
 **** Fit       0.008159
 **** Fit      -0.019560
 **** Fit      -0.019111
 **** Fit      -0.018441
 **** Fit      -0.017889
 **** Fit       0.000327
 **** Fit       0.001895
 **** Fit       0.003213
 **** Fit       0.011091
 **** Fit       0.010793
 **** Fit       0.010060
 **** Fit      -0.024115
 **** Fit      -0.023256
 **** Fit      -0.022450
 **** Fit      -0.022248
 **** Fit      -0.001459
 **** Fit       0.000658
 **** Fit       0.002258
 **** Fit       0.013149
 **** Fit       0.013580
 **** Fit       0.013596
 **** Fit       0.012962
 **** Fit       0.011480
 **** Fit      -0.003489
 **** Fit      -0.000742
 **** Fit       0.001148
 **** Fit       0.015905
 **** Fit      -0.003561
 **** Fit      -0.000833
 **** Fit       0.000902
 **** Fit      -0.000446
 **** Fit       0.000748
 **** Fit       0.002352
 **** Fit       0.001237
 **** Fit       0.002519
 **** Fit       0.003328
 **** Fit       0.002194
 **** Fit       0.001119
 **** Fit      -0.000056
 **** Fit       0.001174
 **** Fit       0.004209
 **** Fit       0.003249
 **** Fit       0.002030
 **** Fit       0.000752
 **** Fit      -0.000237
 **** Fit      -0.000566
 **** Fit      -0.001567
 **** Fit       0.004158
 **** Fit       0.003091
 **** Fit       0.001855
 **** Fit       0.000516
 **** Fit      -0.000773
 **** Fit      -0.001794
 **** Fit      -0.002332
 **** Fit      -0.002260
 **** Fit      -0.003335
 **** Fit       0.004498
 **** Fit       0.003401
 **** Fit       0.002137
 **** Fit       0.000715
 **** Fit      -0.000790
 **** Fit      -0.002242
 **** Fit      -0.003458
 **** Fit      -0.004256
 **** Fit      -0.004513
 **** Fit      -0.004193
 **** Fit      -0.005402
 **** Fit       0.005360
 **** Fit       0.004255
 **** Fit       0.002988
 **** Fit       0.001526
 **** Fit      -0.000118
 **** Fit      -0.001872
 **** Fit      -0.003609
 **** Fit      -0.005153
 **** Fit      -0.006317
 **** Fit      -0.006948
 **** Fit      -0.006982
 **** Fit      -0.006443
 **** Fit      -0.007806
 **** Fit       0.005276
 **** Fit       0.004016
 **** Fit       0.002552
 **** Fit       0.000861
 **** Fit      -0.001036
 **** Fit      -0.003070
 **** Fit      -0.005121
 **** Fit      -0.007021
 **** Fit      -0.008577
 **** Fit      -0.009613
 **** Fit      -0.010019
 **** Fit      -0.009792
 **** Fit      -0.009018
 **** Fit       0.006399
 **** Fit       0.005030
 **** Fit       0.003422
 **** Fit       0.001532
 **** Fit      -0.000638
 **** Fit      -0.003041
 **** Fit      -0.005575
 **** Fit      -0.008081
 **** Fit      -0.010343
 **** Fit      -0.012121
 **** Fit      -0.013205
 **** Fit      -0.013494
 **** Fit      -0.013035
 **** Fit      -0.011996
 **** Fit       0.006519
 **** Fit       0.004766
 **** Fit       0.002680
 **** Fit       0.000249
 **** Fit      -0.002499
 **** Fit      -0.005490
 **** Fit      -0.008589
 **** Fit      -0.011592
 **** Fit      -0.014228
 **** Fit      -0.016200
 **** Fit      -0.017273
 **** Fit      -0.017364
 **** Fit      -0.016600
 **** Fit       0.007620
 **** Fit       0.005412
 **** Fit       0.002783
 **** Fit      -0.000262
 **** Fit      -0.003678
 **** Fit      -0.007375
 **** Fit      -0.011191
 **** Fit      -0.014871
 **** Fit      -0.018069
 **** Fit      -0.020401
 **** Fit      -0.021562
 **** Fit      -0.021477
 **** Fit      -0.020374
 **** Fit       0.008768
 **** Fit       0.005641
 **** Fit       0.001968
 **** Fit      -0.002203
 **** Fit      -0.006782
 **** Fit      -0.011601
 **** Fit      -0.016370
 **** Fit      -0.020646
 **** Fit      -0.023875
 **** Fit      -0.025563
 **** Fit      -0.025536
 **** Fit       0.007486
 **** Fit       0.002470
 **** Fit      -0.003118
 **** Fit      -0.009118
 **** Fit      -0.015243
 **** Fit      -0.020993
 **** Fit      -0.025634
 **** Fit       0.002039
 **** Fit       0.002840
 **** Fit       0.000631
 **** Fit       0.001372
 **** Fit       0.002409
 **** Fit       0.003440
 **** Fit      -0.000959
 **** Fit      -0.000170
 **** Fit       0.000858
 **** Fit       0.001928
 **** Fit       0.002919
 **** Fit       0.003799
 **** Fit       0.004621
 **** Fit      -0.001264
 **** Fit      -0.002818
 **** Fit      -0.001935
 **** Fit      -0.000836
 **** Fit       0.000335
 **** Fit       0.001461
 **** Fit       0.002472
 **** Fit       0.003354
 **** Fit       0.004153
 **** Fit      -0.003312
 **** Fit      -0.005058
 **** Fit      -0.004085
 **** Fit      -0.002891
 **** Fit      -0.001590
 **** Fit      -0.000293
 **** Fit       0.000916
 **** Fit       0.001985
 **** Fit       0.002910
 **** Fit       0.003738
 **** Fit       0.004559
 **** Fit      -0.005794
 **** Fit      -0.005682
 **** Fit      -0.007833
 **** Fit      -0.006844
 **** Fit      -0.005608
 **** Fit      -0.004215
 **** Fit      -0.002760
 **** Fit      -0.001337
 **** Fit      -0.000019
 **** Fit       0.001150
 **** Fit       0.002164
 **** Fit       0.003062
 **** Fit       0.003924
 **** Fit      -0.008735
 **** Fit      -0.008497
 **** Fit      -0.011372
 **** Fit      -0.010413
 **** Fit      -0.009122
 **** Fit      -0.007575
 **** Fit      -0.005875
 **** Fit      -0.004135
 **** Fit      -0.002460
 **** Fit      -0.000929
 **** Fit       0.000417
 **** Fit       0.001584
 **** Fit       0.002625
 **** Fit      -0.012152
 **** Fit      -0.011966
 **** Fit      -0.016052
 **** Fit      -0.015331
 **** Fit      -0.014128
 **** Fit      -0.012496
 **** Fit      -0.010546
 **** Fit      -0.008413
 **** Fit      -0.006247
 **** Fit      -0.004183
 **** Fit      -0.002318
 **** Fit      -0.000693
 **** Fit       0.000710
 **** Fit       0.001968
 **** Fit      -0.016208
 **** Fit      -0.016323
 **** Fit      -0.008784
 **** Fit      -0.006086
 **** Fit      -0.003724
 **** Fit      -0.001713
 **** Fit       0.000010
 **** Fit      -0.006764
 **** Fit      -0.003889
 **** Fit       0.006461
 **** Fit       0.006538
 **** Fit       0.006584
 **** Fit       0.006405
 **** Fit       0.006539
 **** Fit       0.006632
 **** Fit       0.006670
 **** Fit       0.006674
 **** Fit       0.006206
 **** Fit       0.006406
 **** Fit       0.006580
 **** Fit       0.006704
 **** Fit       0.006774
 **** Fit       0.006802
 **** Fit       0.006810
 **** Fit       0.006838
 **** Fit       0.005971
 **** Fit       0.006236
 **** Fit       0.006469
 **** Fit       0.006652
 **** Fit       0.006786
 **** Fit       0.006880
 **** Fit       0.006945
 **** Fit       0.006997
 **** Fit       0.007056
 **** Fit       0.007161
 **** Fit       0.005290
 **** Fit       0.005636
 **** Fit       0.005967
 **** Fit       0.006248
 **** Fit       0.006476
 **** Fit       0.006660
 **** Fit       0.006812
 **** Fit       0.006945
 **** Fit       0.007071
 **** Fit       0.007202
 **** Fit       0.007349
 **** Fit       0.007526
 **** Fit       0.004981
 **** Fit       0.005438
 **** Fit       0.005808
 **** Fit       0.006101
 **** Fit       0.006339
 **** Fit       0.006545
 **** Fit       0.006740
 **** Fit       0.006943
 **** Fit       0.007167
 **** Fit       0.007427
 **** Fit       0.007729
 **** Fit       0.008081
 **** Fit       0.008491
 **** Fit       0.004683
 **** Fit       0.005180
 **** Fit       0.005550
 **** Fit       0.005836
 **** Fit       0.006079
 **** Fit       0.006313
 **** Fit       0.006567
 **** Fit       0.006864
 **** Fit       0.007223
 **** Fit       0.007659
 **** Fit       0.008183
 **** Fit       0.008801
 **** Fit       0.009508
 **** Fit       0.003858
 **** Fit       0.004500
 **** Fit       0.004939
 **** Fit       0.005258
 **** Fit       0.005523
 **** Fit       0.005788
 **** Fit       0.006093
 **** Fit       0.006474
 **** Fit       0.006959
 **** Fit       0.007574
 **** Fit       0.008339
 **** Fit       0.009271
 **** Fit       0.010375
 **** Fit       0.003334
 **** Fit       0.003999
 **** Fit       0.004421
 **** Fit       0.004729
 **** Fit       0.005020
 **** Fit       0.005367
 **** Fit       0.005829
 **** Fit       0.006454
 **** Fit       0.007288
 **** Fit       0.008373
 **** Fit       0.009748
 **** Fit       0.011448
 **** Fit       0.002963
 **** Fit       0.003506
 **** Fit       0.003861
 **** Fit       0.004193
 **** Fit       0.004622
 **** Fit       0.005244
 **** Fit       0.006143
 **** Fit       0.007399
 **** Fit       0.009093
 **** Fit       0.011314
 **** Fit       0.014156
 **** Fit       0.001668
 **** Fit       0.002403
 **** Fit       0.002832
 **** Fit       0.003216
 **** Fit       0.003746
 **** Fit       0.004572
 **** Fit       0.005832
 **** Fit       0.007661
 **** Fit       0.010214
 **** Fit       0.013676
 **** Fit       0.001502
 **** Fit       0.002007
 **** Fit       0.002659
 **** Fit       0.003749
 **** Fit       0.005541
 **** Fit       0.008313
 **** Fit       0.016058
 **** Fit       0.014855
 **** Fit       0.013068
 **** Fit       0.010603
 **** Fit       0.007407
 **** Fit       0.016135
 **** Fit       0.016140
 **** Fit       0.015760
 **** Fit       0.014845
 **** Fit       0.013271
 **** Fit       0.010939
 **** Fit       0.007770
 **** Fit       0.003712
 **** Fit      -0.001235
 **** Fit       0.014100
 **** Fit       0.014938
 **** Fit       0.015458
 **** Fit       0.015514
 **** Fit       0.014974
 **** Fit       0.013728
 **** Fit       0.011684
 **** Fit       0.008762
 **** Fit       0.004893
 **** Fit       0.000026
 **** Fit      -0.005828
 **** Fit       0.011481
 **** Fit       0.013097
 **** Fit       0.014405
 **** Fit       0.015234
 **** Fit       0.015434
 **** Fit       0.014888
 **** Fit       0.013504
 **** Fit       0.011212
 **** Fit       0.007947
 **** Fit       0.003654
 **** Fit      -0.001709
 **** Fit      -0.008125
 **** Fit       0.007971
 **** Fit       0.010573
 **** Fit       0.012931
 **** Fit       0.014764
 **** Fit       0.015843
 **** Fit       0.016005
 **** Fit       0.015152
 **** Fit       0.013229
 **** Fit       0.010204
 **** Fit       0.006058
 **** Fit       0.000787
 **** Fit       0.014605
 **** Fit       0.011016
 **** Fit       0.006259
 **** Fit       0.027626
 **** Fit       0.029406
 **** Fit       0.024673
 **** Fit       0.027442
 **** Fit       0.029261
 **** Fit       0.029996
 **** Fit       0.021858
 **** Fit       0.024655
 **** Fit       0.026598
 **** Fit       0.028186
 **** Fit       0.029412
 **** Fit       0.022142
 **** Fit       0.023442
 **** Fit       0.024591
 **** Fit       0.025977
 **** Fit       0.027285
 **** Fit       0.040052
 **** Fit       0.039434
 **** Fit       0.064318
 **** Fit       0.037553
 **** Fit       0.038360
 **** Fit       0.037271
 **** Fit       0.034129
 **** Fit       0.059815
 **** Fit       0.035443
 **** Fit       0.037123
 **** Fit       0.036914
 **** Fit       0.035305
 **** Fit       0.033396
 **** Fit       0.043268
 **** Fit       0.053739
 **** Fit       0.066369
 **** Fit       0.034343
 **** Fit       0.036255
 **** Fit       0.036864
 **** Fit       0.037356
 **** Fit       0.039317
 **** Fit       0.044081
 **** Fit       0.051974
 **** Fit       0.013718
 **** Fit       0.016186
 **** Fit       0.016952
 **** Fit       0.014313
 **** Fit       0.011942
 **** Fit       0.011869
 **** Fit       0.013766
 **** Fit       0.018807
 **** Fit       0.021431
 **** Fit       0.022157
 **** Fit       0.019420
 **** Fit       0.015551
 **** Fit       0.011094
 **** Fit       0.012556
 **** Fit       0.014442
 **** Fit       0.016428
 **** Fit       0.012530
 **** Fit       0.014153
 **** Fit       0.015714
 **** Fit       0.017022
 **** Fit       0.014935
 **** Fit       0.016417
 **** Fit       0.017569
 **** Fit       0.016256
 **** Fit       0.017784
 **** Fit       0.019126
 **** Fit       0.019632
 **** Fit       0.021198
 **** Fit       0.024103
 **** Fit       0.025663
 **** Fit       0.030948
 **** Fit       0.018192
 **** Fit       0.019010
 **** Fit       0.020748
 **** Fit       0.020610
 **** Fit       0.023455
 **** Fit       0.027202
 **** Fit       0.033044
 **** Fit       0.031703
 **** Fit       0.040773
 **** Fit       0.039039
 **** Fit       0.037929
 **** Fit       0.048643
 **** Fit       0.046966
 **** Fit       0.046286
 **** Fit       0.056892
 **** Fit       0.055888
 **** Fit       0.025716
 **** Fit       0.024734
 **** Fit       0.029049
 **** Fit       0.026063
 **** Fit       0.031179
 **** Fit       0.035812
 **** Fit       0.028332
 **** Fit       0.034100
 **** Fit       0.039348
 **** Fit       0.044076
 **** Fit       0.030308
 **** Fit       0.036662
 **** Fit       0.042699
 **** Fit       0.048139
 **** Fit       0.052959
 **** Fit       0.036757
 **** Fit       0.043595
 **** Fit       0.050367
 **** Fit       0.043469
 **** Fit       0.052862
 **** Fit       0.061293
 **** Fit       0.062650
 -----------------------------------------------------------------
 Leave Link  602 at Tue Sep 17 23:52:49 2019, MaxMem=  1342177280 cpu:             137.2 elap:               2.9

 Test job not archived.
 1\1\GINC-C498-071\SP\RB3LYP\SVP\C54H83Ca1N15O23\PENGZHI\17-Sep-2019\0\
 \#b3lyp/svp scf=(tight,noincore) Test #IOP(5/87=12) Density=Current Po
 p=(MK,readradii) iop(6/33=2) iop(6/42=6)\\Ng-295_loop3_13.0\\0,1\C,0,1
 3.889,73.51,40.8\C,0,14.569,72.16,40.59\O,0,14.639,71.34,41.51\H,0,12.
 921,73.358,41.277\H,0,14.513,74.137,41.437\H,0,13.746,73.999,39.836\N,
 0,15.239,72.07,39.44\C,0,16.309,71.12,39.23\C,0,17.649,71.41,39.89\O,0
 ,18.279,72.43,39.62\C,0,16.439,70.91,37.73\C,0,17.419,69.84,37.25\O,0,
 18.179,70.1,36.3\O,0,17.389,68.73,37.83\H,0,15.069,72.76,38.72\H,0,15.
 939,70.15,39.56\H,0,16.719,71.88,37.32\H,0,15.459,70.62,37.36\N,0,18.1
 69,70.42,40.63\C,0,19.459,70.47,41.28\C,0,20.669,70.56,40.35\O,0,21.64
 9,71.14,40.8\C,0,19.689,69.29,42.22\C,0,19.799,67.98,41.45\C,0,19.659,
 66.88,42.5\C,0,19.039,65.61,41.94\N,0,19.809,65.05,40.81\H,0,17.469,69
 .75,40.89\H,0,19.399,71.44,41.77\H,0,18.809,69.36,42.87\H,0,20.539,69.
 41,42.9\H,0,20.789,67.89,41.\H,0,19.019,67.89,40.69\H,0,18.919,67.18,4
 3.26\H,0,20.599,66.68,43.02\H,0,17.989,65.76,41.68\H,0,18.889,64.81,42
 .67\H,0,20.689,64.75,41.2\H,0,19.349,64.24,40.4\H,0,19.969,65.7,40.06\
 N,0,20.629,69.99,39.14\C,0,21.839,69.86,38.36\C,0,21.999,70.64,37.06\O
 ,0,23.079,70.57,36.49\C,0,22.239,68.4,38.13\C,0,21.039,67.79,37.42\O,0
 ,20.789,68.12,36.24\O,0,20.259,66.98,37.95\H,0,19.719,69.68,38.84\H,0,
 22.699,70.2,38.94\H,0,22.319,67.95,39.12\H,0,23.039,68.31,37.39\N,0,20
 .939,71.32,36.63\C,0,20.979,72.22,35.49\C,0,20.789,71.56,34.14\O,0,20.
 779,72.21,33.09\H,0,20.059,71.06,37.05\H,0,21.999,72.59,35.52\H,0,20.1
 79,72.96,35.56\N,0,20.549,70.25,34.12\C,0,20.199,69.46,32.95\C,0,18.76
 9,68.96,33.04\O,0,18.459,68.24,33.98\C,0,21.169,68.29,32.85\C,0,21.149
 ,67.55,31.52\N,0,22.199,67.64,30.7\O,0,20.149,66.92,31.19\H,0,20.529,6
 9.75,35.\H,0,20.259,69.99,32.\H,0,20.969,67.49,33.56\H,0,22.159,68.71,
 33.02\H,0,22.989,68.11,31.12\H,0,22.139,67.08,29.86\N,0,17.919,69.11,3
 2.02\C,0,16.569,68.57,32.03\C,0,16.369,67.06,32.\O,0,15.229,66.62,31.9
 3\H,0,18.269,69.44,31.13\H,0,16.019,68.89,31.14\H,0,16.099,69.11,32.85
 \N,0,17.389,66.21,32.08\C,0,17.279,64.76,32.14\C,0,16.949,64.34,33.56\
 O,0,17.359,65.,34.52\C,0,18.569,64.14,31.61\C,0,18.639,62.64,31.77\C,0
 ,19.449,62.14,32.8\C,0,18.079,61.78,30.82\C,0,19.609,60.76,32.93\C,0,1
 8.309,60.4,30.9\C,0,19.079,59.88,31.96\O,0,19.239,58.56,32.26\H,0,18.3
 09,66.62,31.98\H,0,16.469,64.41,31.5\H,0,19.359,64.73,32.07\H,0,18.519
 ,64.42,30.55\H,0,19.869,62.78,33.56\H,0,17.469,62.17,30.02\H,0,20.259,
 60.34,33.69\H,0,17.849,59.68,30.24\H,0,18.779,57.97,31.66\N,0,16.179,6
 3.27,33.73\C,0,15.789,62.48,34.88\C,0,16.969,61.7,35.45\O,0,18.039,62.
 27,35.64\C,0,14.889,63.28,35.82\C,0,15.069,62.84,37.27\C,0,13.459,63.1
 5,35.33\C,0,14.059,63.45,38.23\H,0,15.769,62.94,32.86\H,0,15.159,61.76
 ,34.35\H,0,15.159,64.33,35.79\H,0,16.109,63.11,37.49\H,0,14.879,61.77,
 37.26\H,0,13.329,63.29,34.26\H,0,12.989,62.17,35.48\H,0,12.979,63.98,3
 5.85\H,0,13.079,63.05,37.96\H,0,14.329,63.08,39.22\H,0,14.179,64.53,38
 .23\N,0,16.719,60.42,35.73\C,0,17.689,59.51,36.3\C,0,17.409,58.04,36.0
 2\O,0,18.329,57.26,36.22\C,0,17.599,59.73,37.81\O,0,16.269,59.79,38.29
 \H,0,15.749,60.15,35.78\H,0,18.709,59.73,35.99\H,0,18.059,60.66,38.12\
 H,0,18.179,58.9,38.21\H,0,16.299,60.12,39.19\N,0,16.179,57.67,35.67\C,
 0,15.919,56.32,35.22\C,0,16.129,55.25,36.28\O,0,16.909,54.33,36.05\C,0
 ,16.549,56.,33.87\H,0,15.479,58.36,35.42\H,0,14.879,56.18,34.9\H,0,16.
 499,56.78,33.11\H,0,17.589,55.67,33.92\H,0,16.029,55.13,33.46\N,0,15.3
 59,55.12,37.36\C,0,14.789,56.24,38.08\C,0,13.429,55.88,38.65\O,0,13.11
 9,54.7,38.78\C,0,15.769,56.75,39.13\H,0,15.299,54.22,37.83\H,0,14.589,
 56.99,37.31\H,0,15.809,56.02,39.94\H,0,16.779,56.76,38.73\H,0,15.459,5
 7.71,39.56\N,0,12.439,56.76,38.81\C,0,12.519,58.17,38.49\C,0,11.469,58
 .62,37.49\O,0,11.849,59.29,36.53\C,0,12.489,58.9,39.83\C,0,12.639,60.4
 1,39.67\C,0,12.489,61.08,41.03\O,0,11.369,61.39,41.5\O,0,13.449,61.33,
 41.78\H,0,11.619,56.43,39.3\H,0,13.499,58.43,38.08\H,0,13.319,58.54,40
 .45\H,0,11.639,58.57,40.42\H,0,11.819,60.79,39.05\H,0,13.519,60.65,39.
 08\N,0,10.219,58.18,37.59\C,0,9.089,58.42,36.72\H,0,8.285,58.885,37.29
 \H,0,9.389,59.083,35.908\H,0,8.74,57.473,36.307\H,0,9.999,57.54,38.34\
 Ca,0,18.29,66.92,36.16\O,0,16.6,66.24,38.01\H,0,16.65,67.11,38.42\H,0,
 16.32,65.66,38.72\\Version=ES64L-G16RevA.03\State=1-A\HF=-5333.4658988
 \RMSD=2.221e-09\Dipole=4.4164163,2.0479731,-4.1511822\Quadrupole=10.29
 329,-81.7009789,71.4076889,-43.0008372,66.5807451,28.8602184\PG=C01 [X
 (C54H83Ca1N15O23)]\\@


 A warm smile is the universal language of kindness.
                             -- William Arthur Ward
 Job cpu time:       0 days 10 hours 47 minutes  8.9 seconds.
 Elapsed time:       0 days  0 hours 13 minutes 39.1 seconds.
 File lengths (MBytes):  RWF=   1517 Int=      0 D2E=      0 Chk=    171 Scr=      1
 Normal termination of Gaussian 16 at Tue Sep 17 23:52:50 2019.
