 Entering Gaussian System, Link 0=g16
 Initial command:
 /home1/apps/gaussian/16rA.03/g16/l1.exe "/scratch/01990/pengzhi/4350462/Gau-424377.inp" -scrdir="/scratch/01990/pengzhi/4350462/"
 Entering Link 1 = /home1/apps/gaussian/16rA.03/g16/l1.exe PID=    424379.
  
 Copyright (c) 1988,1990,1992,1993,1995,1998,2003,2009,2016,
            Gaussian, Inc.  All Rights Reserved.
  
 This is part of the Gaussian(R) 16 program.  It is based on
 the Gaussian(R) 09 system (copyright 2009, Gaussian, Inc.),
 the Gaussian(R) 03 system (copyright 2003, Gaussian, Inc.),
 the Gaussian(R) 98 system (copyright 1998, Gaussian, Inc.),
 the Gaussian(R) 94 system (copyright 1995, Gaussian, Inc.),
 the Gaussian 92(TM) system (copyright 1992, Gaussian, Inc.),
 the Gaussian 90(TM) system (copyright 1990, Gaussian, Inc.),
 the Gaussian 88(TM) system (copyright 1988, Gaussian, Inc.),
 the Gaussian 86(TM) system (copyright 1986, Carnegie Mellon
 University), and the Gaussian 82(TM) system (copyright 1983,
 Carnegie Mellon University). Gaussian is a federally registered
 trademark of Gaussian, Inc.
  
 This software contains proprietary and confidential information,
 including trade secrets, belonging to Gaussian, Inc.
  
 This software is provided under written license and may be
 used, copied, transmitted, or stored only in accord with that
 written license.
  
 The following legend is applicable only to US Government
 contracts under FAR:
  
                    RESTRICTED RIGHTS LEGEND
  
 Use, reproduction and disclosure by the US Government is
 subject to restrictions as set forth in subparagraphs (a)
 and (c) of the Commercial Computer Software - Restricted
 Rights clause in FAR 52.227-19.
  
 Gaussian, Inc.
 340 Quinnipiac St., Bldg. 40, Wallingford CT 06492
  
  
 ---------------------------------------------------------------
 Warning -- This program may not be used in any manner that
 competes with the business of Gaussian, Inc. or will provide
 assistance to any competitor of Gaussian, Inc.  The licensee
 of this program is prohibited from giving any competitor of
 Gaussian, Inc. access to this program.  By using this program,
 the user acknowledges that Gaussian, Inc. is engaged in the
 business of creating and licensing software in the field of
 computational chemistry and represents and warrants to the
 licensee that it is not a competitor of Gaussian, Inc. and that
 it will not use this program in any manner prohibited above.
 ---------------------------------------------------------------
  

 Cite this work as:
 Gaussian 16, Revision A.03,
 M. J. Frisch, G. W. Trucks, H. B. Schlegel, G. E. Scuseria, 
 M. A. Robb, J. R. Cheeseman, G. Scalmani, V. Barone, 
 G. A. Petersson, H. Nakatsuji, X. Li, M. Caricato, A. V. Marenich, 
 J. Bloino, B. G. Janesko, R. Gomperts, B. Mennucci, H. P. Hratchian, 
 J. V. Ortiz, A. F. Izmaylov, J. L. Sonnenberg, D. Williams-Young, 
 F. Ding, F. Lipparini, F. Egidi, J. Goings, B. Peng, A. Petrone, 
 T. Henderson, D. Ranasinghe, V. G. Zakrzewski, J. Gao, N. Rega, 
 G. Zheng, W. Liang, M. Hada, M. Ehara, K. Toyota, R. Fukuda, 
 J. Hasegawa, M. Ishida, T. Nakajima, Y. Honda, O. Kitao, H. Nakai, 
 T. Vreven, K. Throssell, J. A. Montgomery, Jr., J. E. Peralta, 
 F. Ogliaro, M. J. Bearpark, J. J. Heyd, E. N. Brothers, K. N. Kudin, 
 V. N. Staroverov, T. A. Keith, R. Kobayashi, J. Normand, 
 K. Raghavachari, A. P. Rendell, J. C. Burant, S. S. Iyengar, 
 J. Tomasi, M. Cossi, J. M. Millam, M. Klene, C. Adamo, R. Cammi, 
 J. W. Ochterski, R. L. Martin, K. Morokuma, O. Farkas, 
 J. B. Foresman, and D. J. Fox, Gaussian, Inc., Wallingford CT, 2016.
 
 ******************************************
 Gaussian 16:  ES64L-G16RevA.03 25-Dec-2016
                17-Sep-2019 
 ******************************************
 %chk=Ng-293_loop3_8.0.chk
 %nprocshared=48
 Will use up to   48 processors via shared memory.
 %mem=10GB
 %nosave
 ----------------------------------------------------------------------
 #b3lyp/svp scf=(tight,noincore) Test #IOP(5/87=12) Density=Current Pop
 =(MK,readradii) iop(6/33=2) iop(6/42=6)
 ----------------------------------------------------------------------
 1/30=1,38=1,172=1/1;
 2/12=2,17=6,18=5,40=1/2;
 3/5=18,7=101,11=2,25=1,30=1,74=-5/1,2,3;
 4//1;
 5/5=4,32=2,38=5,87=12/2;
 6/7=2,8=2,9=2,10=2,15=8,20=101,22=-1,28=1,33=2,42=6/1,2;
 99/5=1,9=1/99;
 ----------------
 Ng-293_loop3_8.0
 ----------------
 Symbolic Z-matrix:
 Charge =  0 Multiplicity = 1
 C                     57.06     61.88     21.84 
 C                     56.64     63.3      21.49 
 O                     55.49     63.59     21.19 
 H                     57.994    61.906    22.401 
 H                     56.285    61.41     22.446 
 H                     57.203    61.307    20.924 
 N                     57.6      64.2      21.7 
 C                     57.55     65.65     21.64 
 C                     56.98     66.4      20.44 
 O                     57.45     67.52     20.22 
 C                     56.88     66.11     22.93 
 C                     57.32     65.3      24.15 
 O                     58.54     65.31     24.42 
 O                     56.44     64.78     24.86 
 H                     58.45     63.75     22.01 
 H                     58.61     65.85     21.75 
 H                     55.8      65.96     22.89 
 H                     57.09     67.16     23.09 
 N                     56.01     65.87     19.7 
 C                     55.44     66.47     18.51 
 C                     54.65     67.77     18.64 
 O                     54.33     68.41     17.64 
 C                     54.73     65.43     17.65 
 C                     53.24     65.3      17.94 
 C                     52.95     64.77     19.35 
 C                     51.48     65.1      19.59 
 N                     51.12     65.06     21.02 
 H                     55.68     64.95     19.98 
 H                     56.35     66.79     17.99 
 H                     55.23     64.47     17.73 
 H                     54.73     65.65     16.59 
 H                     52.94     64.52     17.25 
 H                     52.64     66.19     17.74 
 H                     53.54     65.17     20.17 
 H                     53.04     63.69     19.46 
 H                     51.04     64.27     19.03 
 H                     51.22     66.03     19.08 
 H                     50.13     64.93     21.14 
 H                     51.5      64.23     21.46 
 H                     51.51     65.84     21.53 
 N                     54.43     68.24     19.87 
 C                     53.83     69.49     20.27 
 C                     54.39     69.68     21.67 
 O                     54.23     68.81     22.53 
 C                     52.31     69.34     20.25 
 C                     51.49     70.48     20.83 
 O                     50.44     70.09     21.38 
 O                     51.87     71.67     20.93 
 H                     54.6      67.66     20.68 
 H                     54.12     70.3      19.6 
 H                     52.       68.41     20.72 
 H                     52.04     69.21     19.2 
 N                     54.69     70.93     22.05 
 C                     54.97     71.31     23.42 
 C                     53.75     71.34     24.33 
 O                     52.63     71.44     23.84 
 H                     54.62     71.62     21.33 
 H                     55.42     72.3      23.39 
 H                     55.7      70.55     23.71 
 N                     53.97     71.27     25.65 
 C                     52.93     71.05     26.62 
 C                     53.       71.93     27.86 
 O                     52.14     71.83     28.73 
 C                     52.81     69.58     27.02 
 C                     52.72     68.65     25.83 
 N                     51.68     68.76     25. 
 O                     53.56     67.76     25.68 
 H                     54.94     71.3      25.95 
 H                     51.96     71.26     26.17 
 H                     51.87     69.41     27.56 
 H                     53.55     69.21     27.73 
 H                     50.99     69.48     25.17 
 H                     51.37     67.97     24.46 
 N                     54.1      72.67     28.06 
 C                     54.51     73.4      29.25 
 C                     54.57     72.63     30.56 
 O                     55.04     71.5      30.62 
 H                     54.86     72.58     27.4 
 H                     53.88     74.29     29.32 
 H                     55.48     73.83     29.01 
 N                     54.01     73.19     31.63 
 C                     53.69     72.61     32.93 
 C                     52.74     71.43     32.97 
 O                     52.26     71.07     34.04 
 C                     54.99     72.3      33.65 
 C                     55.89     73.51     33.82 
 C                     55.53     74.6      34.62 
 C                     57.16     73.62     33.25 
 C                     56.38     75.69     34.8 
 C                     57.96     74.77     33.25 
 C                     57.59     75.84     34.1 
 O                     58.28     77.02     34.17 
 H                     53.44     74.01     31.46 
 H                     53.12     73.37     33.46 
 H                     55.49     71.52     33.07 
 H                     54.73     72.02     34.67 
 H                     54.64     74.6      35.23 
 H                     57.43     72.83     32.56 
 H                     55.99     76.48     35.44 
 H                     58.9      74.87     32.75 
 H                     58.92     76.93     33.47 
 N                     52.47     70.76     31.85 
 C                     51.48     69.74     31.54 
 C                     50.06     70.19     31.84 
 O                     49.28     70.04     30.9 
 C                     51.81     68.38     32.16 
 C                     53.28     68.03     31.99 
 C                     50.79     67.34     31.71 
 C                     53.71     67.52     30.61 
 H                     52.94     71.03     31. 
 H                     51.51     69.53     30.47 
 H                     51.7      68.5      33.24 
 H                     53.48     67.24     32.72 
 H                     53.94     68.87     32.18 
 H                     50.71     67.3      30.62 
 H                     51.14     66.34     31.95 
 H                     49.84     67.59     32.19 
 H                     53.09     66.64     30.44 
 H                     53.53     68.26     29.84 
 H                     54.77     67.27     30.65 
 N                     49.74     70.75     33.01 
 C                     48.49     71.4      33.34 
 C                     47.31     70.45     33.48 
 O                     46.18     70.87     33.26 
 C                     48.64     72.34     34.53 
 O                     49.64     73.3      34.25 
 H                     50.53     70.82     33.64 
 H                     48.22     72.06     32.51 
 H                     48.88     71.78     35.43 
 H                     47.79     73.       34.72 
 H                     49.8      73.9      34.97 
 N                     47.59     69.18     33.79 
 C                     46.76     68.03     33.5 
 C                     45.96     68.08     32.21 
 O                     44.77     67.77     32.24 
 C                     45.94     67.79     34.77 
 H                     48.55     68.99     34.01 
 H                     47.45     67.18     33.47 
 H                     45.38     66.87     34.66 
 H                     46.58     67.59     35.63 
 H                     45.24     68.6      34.96 
 N                     46.54     68.53     31.1 
 C                     45.93     68.56     29.78 
 C                     46.93     68.17     28.7 
 O                     48.13     68.06     28.92 
 C                     45.39     69.98     29.63 
 H                     47.42     69.02     31.16 
 H                     45.1      67.85     29.76 
 H                     46.14     70.71     29.32 
 H                     44.49     70.05     29.02 
 H                     45.       70.29     30.59 
 N                     46.41     67.82     27.52 
 C                     47.16     67.23     26.43 
 C                     47.82     65.89     26.73 
 O                     48.73     65.45     26.04 
 C                     48.14     68.19     25.75 
 C                     47.47     69.53     25.49 
 C                     48.39     70.43     24.67 
 O                     49.61     70.53     24.9 
 O                     47.85     71.07     23.74 
 H                     45.43     67.89     27.3 
 H                     46.45     67.1      25.62 
 H                     48.46     67.79     24.79 
 H                     48.94     68.34     26.48 
 H                     47.26     70.03     26.44 
 H                     46.59     69.43     24.87 
 N                     47.35     65.19     27.77 
 C                     47.81     63.84     28.02 
 H                     48.755    63.873    28.562 
 H                     47.069    63.308    28.616 
 H                     47.954    63.323    27.071 
 H                     46.55     65.55     28.26 
 Ca                    50.17     72.2      22.99 
 O                     48.55     72.58     20.99 
 H                     47.68     72.92     20.77 
 H                     48.8      72.06     20.23 
 
 Stoichiometry    C54H83CaN15O23
 Framework group  C1[X(C54H83CaN15O23)]
 Deg. of freedom   522
 Full point group                 C1      NOp   1
 Largest Abelian subgroup         C1      NOp   1
 Largest concise Abelian subgroup C1      NOp   1
                         Standard orientation:                         
 ---------------------------------------------------------------------
 Center     Atomic      Atomic             Coordinates (Angstroms)
 Number     Number       Type             X           Y           Z
 ---------------------------------------------------------------------
      1          6           0       -8.309063    1.115595   -5.889040
      2          6           0       -8.045614    1.245865   -4.396082
      3          8           0       -7.928753    0.274059   -3.662231
      4          1           0       -8.028569    2.042504   -6.388956
      5          1           0       -7.719082    0.292186   -6.292377
      6          1           0       -9.368225    0.919929   -6.055552
      7          7           0       -7.798331    2.497747   -4.012232
      8          6           0       -7.355680    3.010507   -2.727811
      9          6           0       -8.049427    2.646918   -1.418644
     10          8           0       -7.994399    3.488334   -0.517151
     11          6           0       -5.860876    2.722506   -2.642871
     12          6           0       -5.135981    2.946136   -3.970507
     13          8           0       -5.197641    4.095487   -4.456911
     14          8           0       -4.441623    2.018962   -4.425607
     15          1           0       -7.883322    3.134107   -4.792567
     16          1           0       -7.458425    4.069686   -2.935861
     17          1           0       -5.672810    1.672410   -2.413896
     18          1           0       -5.418252    3.341730   -1.872906
     19          7           0       -8.651610    1.470515   -1.267472
     20          6           0       -9.386391    1.049581   -0.091074
     21          6           0       -8.633328    0.848873    1.221790
     22          8           0       -9.245833    0.693400    2.276620
     23          6           0      -10.333945   -0.101472   -0.411258
     24          6           0       -9.735476   -1.481403   -0.168923
     25          6           0       -8.559062   -1.794487   -1.102265
     26          6           0       -7.857386   -2.982453   -0.451276
     27          7           0       -6.481333   -3.166267   -0.950067
     28          1           0       -8.620947    0.841768   -2.065868
     29          1           0       -9.982736    1.947583    0.106068
     30          1           0      -10.709116   -0.009678   -1.425566
     31          1           0      -11.222545   -0.134926    0.206214
     32          1           0      -10.546076   -2.137247   -0.464384
     33          1           0       -9.467192   -1.705379    0.865465
     34          1           0       -7.831120   -1.007084   -1.277186
     35          1           0       -8.842891   -2.120838   -2.102033
     36          1           0       -8.531115   -3.771128   -0.797947
     37          1           0       -7.943516   -2.914938    0.635289
     38          1           0       -6.164238   -4.108313   -0.797095
     39          1           0       -6.455828   -3.092994   -1.960453
     40          1           0       -5.856982   -2.448406   -0.610272
     41          7           0       -7.304009    0.969325    1.197276
     42          6           0       -6.370877    0.953154    2.297958
     43          6           0       -5.179035    1.696506    1.717751
     44          8           0       -4.648444    1.307858    0.673947
     45          6           0       -6.052832   -0.496856    2.657984
     46          6           0       -4.937160   -0.736744    3.661044
     47          8           0       -4.301390   -1.786619    3.435969
     48          8           0       -4.545430    0.085685    4.521659
     49          1           0       -6.805789    0.989717    0.318207
     50          1           0       -6.782100    1.458603    3.172324
     51          1           0       -5.858142   -1.089854    1.767844
     52          1           0       -6.980660   -0.912397    3.056433
     53          7           0       -4.492790    2.500692    2.541919
     54          6           0       -3.193543    3.058811    2.225439
     55          6           0       -2.047508    2.057756    2.268966
     56          8           0       -2.174196    1.017942    2.907116
     57          1           0       -4.897990    2.624700    3.447366
     58          1           0       -3.004410    3.852641    2.944857
     59          1           0       -3.369751    3.462403    1.225107
     60          7           0       -0.928725    2.380002    1.605504
     61          6           0        0.142503    1.452767    1.353303
     62          6           0        1.544164    1.999223    1.584888
     63          8           0        2.518970    1.272039    1.419189
     64          6           0        0.044973    0.815067   -0.032022
     65          6           0       -1.322927    0.236463   -0.320411
     66          7           0       -1.775202   -0.764570    0.438522
     67          8           0       -1.969881    0.640440   -1.289150
     68          1           0       -0.892937    3.312021    1.203187
     69          1           0        0.050746    0.597429    2.022242
     70          1           0        0.717206   -0.049637   -0.099040
     71          1           0        0.377718    1.427055   -0.870682
     72          1           0       -1.205010   -1.095461    1.205849
     73          1           0       -2.450455   -1.416582    0.076979
     74          7           0        1.693339    3.315574    1.791204
     75          6           0        2.913097    4.108700    1.806767
     76          6           0        3.829618    4.010721    0.597227
     77          8           0        3.387127    4.006579   -0.545395
     78          1           0        0.871078    3.900913    1.740547
     79          1           0        3.434068    3.887668    2.741451
     80          1           0        2.592389    5.135909    1.966099
     81          7           0        5.130193    3.837498    0.822169
     82          6           0        6.197689    3.465133   -0.100109
     83          6           0        6.081234    2.141362   -0.828511
     84          8           0        7.054132    1.682646   -1.418382
     85          6           0        6.417231    4.613478   -1.068410
     86          6           0        6.747019    5.926859   -0.383378
     87          6           0        7.928759    6.112667    0.342340
     88          6           0        5.943644    7.066423   -0.460072
     89          6           0        8.240243    7.334696    0.936159
     90          6           0        6.124504    8.245897    0.273842
     91          6           0        7.347486    8.420392    0.965338
     92          8           0        7.629860    9.518891    1.731474
     93          1           0        5.394698    3.617030    1.774866
     94          1           0        7.077495    3.300001    0.518011
     95          1           0        5.503152    4.701211   -1.661337
     96          1           0        7.315560    4.381403   -1.638976
     97          1           0        8.708611    5.367802    0.377091
     98          1           0        4.984838    6.927665   -0.944364
     99          1           0        9.184164    7.358150    1.478618
    100          1           0        5.465192    9.087813    0.264612
    101          1           0        6.801792    9.990051    1.734941
    102          7           0        4.909474    1.507458   -0.865165
    103          6           0        4.538963    0.170133   -1.302067
    104          6           0        5.322478   -0.918610   -0.588174
    105          8           0        4.617426   -1.795719   -0.090098
    106          6           0        4.563493    0.011356   -2.824265
    107          6           0        3.918670    1.199398   -3.520726
    108          6           0        4.066856   -1.376930   -3.212227
    109          6           0        2.386471    1.238427   -3.536284
    110          1           0        4.108731    1.946694   -0.438337
    111          1           0        3.490012   -0.004639   -1.059051
    112          1           0        5.611786    0.079050   -3.123263
    113          1           0        4.266500    1.156356   -4.557144
    114          1           0        4.204001    2.151442   -3.085411
    115          1           0        3.084501   -1.588226   -2.780449
    116          1           0        3.861667   -1.419835   -4.278133
    117          1           0        4.827482   -2.093806   -2.891387
    118          1           0        2.095764    0.309601   -4.026664
    119          1           0        1.980549    1.275761   -2.532923
    120          1           0        2.069860    2.114323   -4.102202
    121          7           0        6.652821   -0.861224   -0.479566
    122          6           0        7.487174   -1.713252    0.340071
    123          6           0        7.596773   -3.146344   -0.158661
    124          8           0        7.824591   -4.040199    0.648074
    125          6           0        8.843165   -1.075910    0.618068
    126          8           0        8.655584    0.180814    1.238920
    127          1           0        7.047239   -0.041021   -0.924090
    128          1           0        7.022942   -1.796110    1.327503
    129          1           0        9.411963   -0.973620   -0.302369
    130          1           0        9.452130   -1.574182    1.376414
    131          1           0        9.468861    0.641907    1.412050
    132          7           0        7.382709   -3.350603   -1.462446
    133          6           0        6.946258   -4.590112   -2.069595
    134          6           0        5.995430   -5.446904   -1.252018
    135          8           0        6.221535   -6.652036   -1.153874
    136          6           0        8.227184   -5.290323   -2.529851
    137          1           0        7.274933   -2.522476   -2.018045
    138          1           0        6.459706   -4.294149   -3.005102
    139          1           0        7.962323   -6.173152   -3.097795
    140          1           0        8.778282   -4.686600   -3.251661
    141          1           0        8.848136   -5.593023   -1.690214
    142          7           0        4.990877   -4.866203   -0.600357
    143          6           0        3.957850   -5.560503    0.152106
    144          6           0        2.593165   -4.919976   -0.062043
    145          8           0        2.451118   -3.841304   -0.624882
    146          6           0        4.433325   -5.517422    1.602129
    147          1           0        4.985378   -3.864127   -0.482398
    148          1           0        3.913452   -6.598135   -0.186639
    149          1           0        4.205216   -4.582227    2.116791
    150          1           0        4.131786   -6.381345    2.193494
    151          1           0        5.507336   -5.645084    1.603256
    152          7           0        1.537386   -5.664395    0.279238
    153          6           0        0.160348   -5.331454   -0.023444
    154          6           0       -0.182753   -5.216801   -1.503422
    155          8           0       -1.187290   -4.634164   -1.889739
    156          6           0       -0.385204   -4.137994    0.765496
    157          6           0       -0.003256   -4.257289    2.232460
    158          6           0       -0.680673   -3.157803    3.045501
    159          8           0       -0.748572   -1.977868    2.652509
    160          8           0       -1.173730   -3.506485    4.141592
    161          1           0        1.610158   -6.557578    0.738181
    162          1           0       -0.437821   -6.122167    0.417086
    163          1           0       -1.471492   -4.109395    0.709270
    164          1           0        0.124161   -3.266221    0.346022
    165          1           0        1.079406   -4.147493    2.343763
    166          1           0       -0.375746   -5.170322    2.675656
    167          7           0        0.646791   -5.802283   -2.376101
    168          6           0        0.305796   -5.879952   -3.781195
    169          1           0        0.568588   -4.942397   -4.270899
    170          1           0        0.857348   -6.697577   -4.244446
    171          1           0       -0.764863   -6.056587   -3.886620
    172          1           0        1.415118   -6.338055   -2.012340
    173         20           0       -2.066586   -1.029862    4.680987
    174          8           0       -3.343191   -2.587355    6.328196
    175          1           0       -3.208177   -3.274751    6.984060
    176          1           0       -4.270249   -2.647019    6.110243
 ---------------------------------------------------------------------
 Rotational constants (GHZ):           0.0202002           0.0099986           0.0084066
 Standard basis: SVP (5D, 7F)
 There are  1809 symmetry adapted cartesian basis functions of A   symmetry.
 There are  1717 symmetry adapted basis functions of A   symmetry.
  1717 basis functions,  2922 primitive gaussians,  1809 cartesian basis functions
   358 alpha electrons      358 beta electrons
       nuclear repulsion energy     19686.1352520378 Hartrees.
 NAtoms=  176 NActive=  176 NUniq=  176 SFac= 1.00D+00 NAtFMM=   60 NAOKFM=T Big=T
 Integral buffers will be    131072 words long.
 Raffenetti 2 integral format.
 Two-electron integral symmetry is turned on.
 One-electron integrals computed using PRISM.
 NBasis=  1717 RedAO= T EigKep=  2.93D-04  NBF=  1717
 NBsUse=  1717 1.00D-06 EigRej= -1.00D+00 NBFU=  1717
 ExpMin= 1.98D-02 ExpMax= 3.51D+04 ExpMxC= 5.28D+03 IAcc=3 IRadAn=         5 AccDes= 0.00D+00
 Harris functional with IExCor=  402 and IRadAn=       5 diagonalized for initial guess.
 HarFok:  IExCor=  402 AccDes= 0.00D+00 IRadAn=         5 IDoV= 1 UseB2=F ITyADJ=14
 ICtDFT=  3500011 ScaDFX=  1.000000  1.000000  1.000000  1.000000
 FoFCou: FMM=F IPFlag=           0 FMFlag=      100000 FMFlg1=        2001
         NFxFlg=           0 DoJE=T BraDBF=F KetDBF=T FulRan=T
         wScrn=  0.000000 ICntrl=       500 IOpCl=  0 I1Cent=   200000004 NGrid=           0
         NMat0=    1 NMatS0=      1 NMatT0=    0 NMatD0=    1 NMtDS0=    0 NMtDT0=    0
 Petite list used in FoFCou.
 Requested convergence on RMS density matrix=1.00D-08 within 128 cycles.
 Requested convergence on MAX density matrix=1.00D-06.
 Requested convergence on             energy=1.00D-06.
 No special actions if energy rises.
 EnCoef did     2 forward-backward iterations
 EnCoef did     2 forward-backward iterations
 EnCoef did     1 forward-backward iterations
 Restarting incremental Fock formation.
 SCF Done:  E(RB3LYP) =  -5333.44165482     A.U. after   31 cycles
            NFock= 31  Conv=0.26D-08     -V/T= 2.0081
 SCF density gives NOpUse=  1 NOpAll=  1.
 Hyperfine terms turned off by default for NAtoms > 100.

 **********************************************************************

            Population analysis using the SCF density.

 **********************************************************************

 Orbital symmetries:
 BldTbl:  Degeneracy threshold= 1.00D-02
       Occupied  (A) (A) (A) (A) (A) (A) (A) (A) (A) (A) (A) (A)
                 (A) (A) (A) (A) (A) (A) (A) (A) (A) (A) (A) (A)
                 (A) (A) (A) (A) (A) (A) (A) (A) (A) (A) (A) (A)
                 (A) (A) (A) (A) (A) (A) (A) (A) (A) (A) (A) (A)
                 (A) (A) (A) (A) (A) (A) (A) (A) (A) (A) (A) (A)
                 (A) (A) (A) (A) (A) (A) (A) (A) (A) (A) (A) (A)
                 (A) (A) (A) (A) (A) (A) (A) (A) (A) (A) (A) (A)
                 (A) (A) (A) (A) (A) (A) (A) (A) (A) (A) (A) (A)
                 (A) (A) (A) (A) (A) (A) (A) (A) (A) (A) (A) (A)
                 (A) (A) (A) (A) (A) (A) (A) (A) (A) (A) (A) (A)
                 (A) (A) (A) (A) (A) (A) (A) (A) (A) (A) (A) (A)
                 (A) (A) (A) (A) (A) (A) (A) (A) (A) (A) (A) (A)
                 (A) (A) (A) (A) (A) (A) (A) (A) (A) (A) (A) (A)
                 (A) (A) (A) (A) (A) (A) (A) (A) (A) (A) (A) (A)
                 (A) (A) (A) (A) (A) (A) (A) (A) (A) (A) (A) (A)
                 (A) (A) (A) (A) (A) (A) (A) (A) (A) (A) (A) (A)
                 (A) (A) (A) (A) (A) (A) (A) (A) (A) (A) (A) (A)
                 (A) (A) (A) (A) (A) (A) (A) (A) (A) (A) (A) (A)
                 (A) (A) (A) (A) (A) (A) (A) (A) (A) (A) (A) (A)
                 (A) (A) (A) (A) (A) (A) (A) (A) (A) (A) (A) (A)
                 (A) (A) (A) (A) (A) (A) (A) (A) (A) (A) (A) (A)
                 (A) (A) (A) (A) (A) (A) (A) (A) (A) (A) (A) (A)
                 (A) (A) (A) (A) (A) (A) (A) (A) (A) (A) (A) (A)
                 (A) (A) (A) (A) (A) (A) (A) (A) (A) (A) (A) (A)
                 (A) (A) (A) (A) (A) (A) (A) (A) (A) (A) (A) (A)
                 (A) (A) (A) (A) (A) (A) (A) (A) (A) (A) (A) (A)
                 (A) (A) (A) (A) (A) (A) (A) (A) (A) (A) (A) (A)
                 (A) (A) (A) (A) (A) (A) (A) (A) (A) (A) (A) (A)
                 (A) (A) (A) (A) (A) (A) (A) (A) (A) (A) (A) (A)
                 (A) (A) (A) (A) (A) (A) (A) (A) (A) (A)
       Virtual   (A) (A) (A) (A) (A) (A) (A) (A) (A) (A) (A) (A)
                 (A) (A) (A) (A) (A) (A) (A) (A) (A) (A) (A) (A)
                 (A) (A) (A) (A) (A) (A) (A) (A) (A) (A) (A) (A)
                 (A) (A) (A) (A) (A) (A) (A) (A) (A) (A) (A) (A)
                 (A) (A) (A) (A) (A) (A) (A) (A) (A) (A) (A) (A)
                 (A) (A) (A) (A) (A) (A) (A) (A) (A) (A) (A) (A)
                 (A) (A) (A) (A) (A) (A) (A) (A) (A) (A) (A) (A)
                 (A) (A) (A) (A) (A) (A) (A) (A) (A) (A) (A) (A)
                 (A) (A) (A) (A) (A) (A) (A) (A) (A) (A) (A) (A)
                 (A) (A) (A) (A) (A) (A) (A) (A) (A) (A) (A) (A)
                 (A) (A) (A) (A) (A) (A) (A) (A) (A) (A) (A) (A)
                 (A) (A) (A) (A) (A) (A) (A) (A) (A) (A) (A) (A)
                 (A) (A) (A) (A) (A) (A) (A) (A) (A) (A) (A) (A)
                 (A) (A) (A) (A) (A) (A) (A) (A) (A) (A) (A) (A)
                 (A) (A) (A) (A) (A) (A) (A) (A) (A) (A) (A) (A)
                 (A) (A) (A) (A) (A) (A) (A) (A) (A) (A) (A) (A)
                 (A) (A) (A) (A) (A) (A) (A) (A) (A) (A) (A) (A)
                 (A) (A) (A) (A) (A) (A) (A) (A) (A) (A) (A) (A)
                 (A) (A) (A) (A) (A) (A) (A) (A) (A) (A) (A) (A)
                 (A) (A) (A) (A) (A) (A) (A) (A) (A) (A) (A) (A)
                 (A) (A) (A) (A) (A) (A) (A) (A) (A) (A) (A) (A)
                 (A) (A) (A) (A) (A) (A) (A) (A) (A) (A) (A) (A)
                 (A) (A) (A) (A) (A) (A) (A) (A) (A) (A) (A) (A)
                 (A) (A) (A) (A) (A) (A) (A) (A) (A) (A) (A) (A)
                 (A) (A) (A) (A) (A) (A) (A) (A) (A) (A) (A) (A)
                 (A) (A) (A) (A) (A) (A) (A) (A) (A) (A) (A) (A)
                 (A) (A) (A) (A) (A) (A) (A) (A) (A) (A) (A) (A)
                 (A) (A) (A) (A) (A) (A) (A) (A) (A) (A) (A) (A)
                 (A) (A) (A) (A) (A) (A) (A) (A) (A) (A) (A) (A)
                 (A) (A) (A) (A) (A) (A) (A) (A) (A) (A) (A) (A)
                 (A) (A) (A) (A) (A) (A) (A) (A) (A) (A) (A) (A)
                 (A) (A) (A) (A) (A) (A) (A) (A) (A) (A) (A) (A)
                 (A) (A) (A) (A) (A) (A) (A) (A) (A) (A) (A) (A)
                 (A) (A) (A) (A) (A) (A) (A) (A) (A) (A) (A) (A)
                 (A) (A) (A) (A) (A) (A) (A) (A) (A) (A) (A) (A)
                 (A) (A) (A) (A) (A) (A) (A) (A) (A) (A) (A) (A)
                 (A) (A) (A) (A) (A) (A) (A) (A) (A) (A) (A) (A)
                 (A) (A) (A) (A) (A) (A) (A) (A) (A) (A) (A) (A)
                 (A) (A) (A) (A) (A) (A) (A) (A) (A) (A) (A) (A)
                 (A) (A) (A) (A) (A) (A) (A) (A) (A) (A) (A) (A)
                 (A) (A) (A) (A) (A) (A) (A) (A) (A) (A) (A) (A)
                 (A) (A) (A) (A) (A) (A) (A) (A) (A) (A) (A) (A)
                 (A) (A) (A) (A) (A) (A) (A) (A) (A) (A) (A) (A)
                 (A) (A) (A) (A) (A) (A) (A) (A) (A) (A) (A) (A)
                 (A) (A) (A) (A) (A) (A) (A) (A) (A) (A) (A) (A)
                 (A) (A) (A) (A) (A) (A) (A) (A) (A) (A) (A) (A)
                 (A) (A) (A) (A) (A) (A) (A) (A) (A) (A) (A) (A)
                 (A) (A) (A) (A) (A) (A) (A) (A) (A) (A) (A) (A)
                 (A) (A) (A) (A) (A) (A) (A) (A) (A) (A) (A) (A)
                 (A) (A) (A) (A) (A) (A) (A) (A) (A) (A) (A) (A)
                 (A) (A) (A) (A) (A) (A) (A) (A) (A) (A) (A) (A)
                 (A) (A) (A) (A) (A) (A) (A) (A) (A) (A) (A) (A)
                 (A) (A) (A) (A) (A) (A) (A) (A) (A) (A) (A) (A)
                 (A) (A) (A) (A) (A) (A) (A) (A) (A) (A) (A) (A)
                 (A) (A) (A) (A) (A) (A) (A) (A) (A) (A) (A) (A)
                 (A) (A) (A) (A) (A) (A) (A) (A) (A) (A) (A) (A)
                 (A) (A) (A) (A) (A) (A) (A) (A) (A) (A) (A) (A)
                 (A) (A) (A) (A) (A) (A) (A) (A) (A) (A) (A) (A)
                 (A) (A) (A) (A) (A) (A) (A) (A) (A) (A) (A) (A)
                 (A) (A) (A) (A) (A) (A) (A) (A) (A) (A) (A) (A)
                 (A) (A) (A) (A) (A) (A) (A) (A) (A) (A) (A) (A)
                 (A) (A) (A) (A) (A) (A) (A) (A) (A) (A) (A) (A)
                 (A) (A) (A) (A) (A) (A) (A) (A) (A) (A) (A) (A)
                 (A) (A) (A) (A) (A) (A) (A) (A) (A) (A) (A) (A)
                 (A) (A) (A) (A) (A) (A) (A) (A) (A) (A) (A) (A)
                 (A) (A) (A) (A) (A) (A) (A) (A) (A) (A) (A) (A)
                 (A) (A) (A) (A) (A) (A) (A) (A) (A) (A) (A) (A)
                 (A) (A) (A) (A) (A) (A) (A) (A) (A) (A) (A) (A)
                 (A) (A) (A) (A) (A) (A) (A) (A) (A) (A) (A) (A)
                 (A) (A) (A) (A) (A) (A) (A) (A) (A) (A) (A) (A)
                 (A) (A) (A) (A) (A) (A) (A) (A) (A) (A) (A) (A)
                 (A) (A) (A) (A) (A) (A) (A) (A) (A) (A) (A) (A)
                 (A) (A) (A) (A) (A) (A) (A) (A) (A) (A) (A) (A)
                 (A) (A) (A) (A) (A) (A) (A) (A) (A) (A) (A) (A)
                 (A) (A) (A) (A) (A) (A) (A) (A) (A) (A) (A) (A)
                 (A) (A) (A) (A) (A) (A) (A) (A) (A) (A) (A) (A)
                 (A) (A) (A) (A) (A) (A) (A) (A) (A) (A) (A) (A)
                 (A) (A) (A) (A) (A) (A) (A) (A) (A) (A) (A) (A)
                 (A) (A) (A) (A) (A) (A) (A) (A) (A) (A) (A) (A)
                 (A) (A) (A) (A) (A) (A) (A) (A) (A) (A) (A) (A)
                 (A) (A) (A) (A) (A) (A) (A) (A) (A) (A) (A) (A)
                 (A) (A) (A) (A) (A) (A) (A) (A) (A) (A) (A) (A)
                 (A) (A) (A) (A) (A) (A) (A) (A) (A) (A) (A) (A)
                 (A) (A) (A) (A) (A) (A) (A) (A) (A) (A) (A) (A)
                 (A) (A) (A) (A) (A) (A) (A) (A) (A) (A) (A) (A)
                 (A) (A) (A) (A) (A) (A) (A) (A) (A) (A) (A) (A)
                 (A) (A) (A) (A) (A) (A) (A) (A) (A) (A) (A) (A)
                 (A) (A) (A) (A) (A) (A) (A) (A) (A) (A) (A) (A)
                 (A) (A) (A) (A) (A) (A) (A) (A) (A) (A) (A) (A)
                 (A) (A) (A) (A) (A) (A) (A) (A) (A) (A) (A) (A)
                 (A) (A) (A) (A) (A) (A) (A) (A) (A) (A) (A) (A)
                 (A) (A) (A) (A) (A) (A) (A) (A) (A) (A) (A) (A)
                 (A) (A) (A) (A) (A) (A) (A) (A) (A) (A) (A) (A)
                 (A) (A) (A) (A) (A) (A) (A) (A) (A) (A) (A) (A)
                 (A) (A) (A) (A) (A) (A) (A) (A) (A) (A) (A) (A)
                 (A) (A) (A) (A) (A) (A) (A) (A) (A) (A) (A) (A)
                 (A) (A) (A) (A) (A) (A) (A) (A) (A) (A) (A) (A)
                 (A) (A) (A) (A) (A) (A) (A) (A) (A) (A) (A) (A)
                 (A) (A) (A) (A) (A) (A) (A) (A) (A) (A) (A) (A)
                 (A) (A) (A) (A) (A) (A) (A) (A) (A) (A) (A) (A)
                 (A) (A) (A) (A) (A) (A) (A) (A) (A) (A) (A) (A)
                 (A) (A) (A) (A) (A) (A) (A) (A) (A) (A) (A) (A)
                 (A) (A) (A) (A) (A) (A) (A) (A) (A) (A) (A) (A)
                 (A) (A) (A) (A) (A) (A) (A) (A) (A) (A) (A) (A)
                 (A) (A) (A) (A) (A) (A) (A) (A) (A) (A) (A) (A)
                 (A) (A) (A) (A) (A) (A) (A) (A) (A) (A) (A) (A)
                 (A) (A) (A) (A) (A) (A) (A) (A) (A) (A) (A) (A)
                 (A) (A) (A) (A) (A) (A) (A) (A) (A) (A) (A) (A)
                 (A) (A) (A) (A) (A) (A) (A) (A) (A) (A) (A) (A)
                 (A) (A) (A) (A) (A) (A) (A) (A) (A) (A) (A) (A)
                 (A) (A) (A) (A) (A) (A) (A) (A) (A) (A) (A) (A)
                 (A) (A) (A) (A) (A) (A) (A) (A) (A) (A) (A) (A)
                 (A) (A) (A) (A) (A) (A) (A) (A) (A) (A) (A) (A)
                 (A) (A) (A)
 The electronic state is 1-A.
 Alpha  occ. eigenvalues -- -145.43887 -19.19432 -19.17469 -19.14200 -19.13317
 Alpha  occ. eigenvalues --  -19.12132 -19.12026 -19.10687 -19.09922 -19.09898
 Alpha  occ. eigenvalues --  -19.09404 -19.09241 -19.09066 -19.09001 -19.08549
 Alpha  occ. eigenvalues --  -19.08364 -19.07996 -19.07667 -19.07388 -19.07206
 Alpha  occ. eigenvalues --  -19.05786 -19.04788 -18.93515 -18.93479 -15.49757
 Alpha  occ. eigenvalues --  -14.54900 -14.39523 -14.39193 -14.38081 -14.36625
 Alpha  occ. eigenvalues --  -14.36064 -14.35343 -14.35187 -14.34956 -14.34650
 Alpha  occ. eigenvalues --  -14.34279 -14.32989 -14.32424 -14.31621 -14.29874
 Alpha  occ. eigenvalues --  -12.63362 -12.63312 -12.63294 -10.32601 -10.31436
 Alpha  occ. eigenvalues --  -10.31275 -10.31205 -10.29433 -10.28596 -10.28179
 Alpha  occ. eigenvalues --  -10.27950 -10.27669 -10.27606 -10.27432 -10.27339
 Alpha  occ. eigenvalues --  -10.27024 -10.26911 -10.26853 -10.25755 -10.25747
 Alpha  occ. eigenvalues --  -10.25509 -10.25373 -10.25343 -10.24834 -10.24624
 Alpha  occ. eigenvalues --  -10.24438 -10.23728 -10.23522 -10.23495 -10.23316
 Alpha  occ. eigenvalues --  -10.23050 -10.22992 -10.22371 -10.22108 -10.21965
 Alpha  occ. eigenvalues --  -10.21751 -10.20211 -10.19955 -10.19880 -10.19795
 Alpha  occ. eigenvalues --  -10.19668 -10.19612 -10.19195 -10.19176 -10.18566
 Alpha  occ. eigenvalues --  -10.17916 -10.17721 -10.17711 -10.17595 -10.17502
 Alpha  occ. eigenvalues --  -10.16591 -10.16526 -10.16465 -10.16002 -10.15216
 Alpha  occ. eigenvalues --  -10.13477 -10.09205  -1.86516  -1.13970  -1.13726
 Alpha  occ. eigenvalues --   -1.13577  -1.09993  -1.06942  -1.06354  -1.05976
 Alpha  occ. eigenvalues --   -1.05385  -1.04980  -1.04149  -1.03766  -1.03520
 Alpha  occ. eigenvalues --   -1.03203  -1.02820  -1.02638  -1.02073  -1.01825
 Alpha  occ. eigenvalues --   -1.01599  -1.01480  -1.00541  -1.00485  -0.98755
 Alpha  occ. eigenvalues --   -0.97627  -0.96463  -0.94899  -0.94637  -0.93381
 Alpha  occ. eigenvalues --   -0.93334  -0.92919  -0.92544  -0.92268  -0.92262
 Alpha  occ. eigenvalues --   -0.91544  -0.91373  -0.90926  -0.90212  -0.89742
 Alpha  occ. eigenvalues --   -0.89317  -0.87754  -0.86289  -0.85698  -0.85524
 Alpha  occ. eigenvalues --   -0.81407  -0.80559  -0.79862  -0.79766  -0.79709
 Alpha  occ. eigenvalues --   -0.78559  -0.78000  -0.77965  -0.76505  -0.76277
 Alpha  occ. eigenvalues --   -0.74763  -0.74726  -0.74561  -0.74129  -0.74075
 Alpha  occ. eigenvalues --   -0.72911  -0.72489  -0.72212  -0.70384  -0.69506
 Alpha  occ. eigenvalues --   -0.69366  -0.69173  -0.68649  -0.68012  -0.67604
 Alpha  occ. eigenvalues --   -0.66818  -0.65982  -0.65437  -0.65368  -0.64006
 Alpha  occ. eigenvalues --   -0.63698  -0.63011  -0.62574  -0.62456  -0.61989
 Alpha  occ. eigenvalues --   -0.61902  -0.61200  -0.60461  -0.60223  -0.59547
 Alpha  occ. eigenvalues --   -0.59345  -0.59185  -0.58747  -0.58580  -0.58569
 Alpha  occ. eigenvalues --   -0.58363  -0.57922  -0.57786  -0.57774  -0.57530
 Alpha  occ. eigenvalues --   -0.56921  -0.56532  -0.55582  -0.55365  -0.55066
 Alpha  occ. eigenvalues --   -0.55018  -0.54618  -0.54491  -0.54008  -0.53501
 Alpha  occ. eigenvalues --   -0.53274  -0.53147  -0.52507  -0.52388  -0.51959
 Alpha  occ. eigenvalues --   -0.51700  -0.51551  -0.51431  -0.51042  -0.50268
 Alpha  occ. eigenvalues --   -0.49624  -0.49427  -0.49028  -0.49001  -0.48670
 Alpha  occ. eigenvalues --   -0.48458  -0.48404  -0.48015  -0.47857  -0.47584
 Alpha  occ. eigenvalues --   -0.47326  -0.47204  -0.47060  -0.46808  -0.46711
 Alpha  occ. eigenvalues --   -0.46603  -0.46410  -0.46199  -0.45960  -0.45832
 Alpha  occ. eigenvalues --   -0.45798  -0.45696  -0.45497  -0.45216  -0.45175
 Alpha  occ. eigenvalues --   -0.44900  -0.44616  -0.44536  -0.44494  -0.44041
 Alpha  occ. eigenvalues --   -0.43852  -0.43510  -0.43468  -0.43336  -0.43169
 Alpha  occ. eigenvalues --   -0.42949  -0.42737  -0.42643  -0.42583  -0.42543
 Alpha  occ. eigenvalues --   -0.42343  -0.42013  -0.41857  -0.41784  -0.41731
 Alpha  occ. eigenvalues --   -0.41652  -0.41551  -0.41499  -0.41268  -0.40793
 Alpha  occ. eigenvalues --   -0.40759  -0.40570  -0.40467  -0.40239  -0.40112
 Alpha  occ. eigenvalues --   -0.39989  -0.39876  -0.39685  -0.39599  -0.39586
 Alpha  occ. eigenvalues --   -0.39542  -0.39441  -0.39207  -0.39099  -0.38986
 Alpha  occ. eigenvalues --   -0.38753  -0.38582  -0.38549  -0.38248  -0.37979
 Alpha  occ. eigenvalues --   -0.37760  -0.37693  -0.37567  -0.37399  -0.37328
 Alpha  occ. eigenvalues --   -0.37241  -0.37192  -0.37113  -0.36749  -0.36645
 Alpha  occ. eigenvalues --   -0.36556  -0.36200  -0.36109  -0.35966  -0.35907
 Alpha  occ. eigenvalues --   -0.35795  -0.35534  -0.35399  -0.35162  -0.35110
 Alpha  occ. eigenvalues --   -0.34945  -0.34720  -0.34550  -0.34416  -0.34310
 Alpha  occ. eigenvalues --   -0.34123  -0.33709  -0.33558  -0.33515  -0.33305
 Alpha  occ. eigenvalues --   -0.32071  -0.31896  -0.31211  -0.30904  -0.30781
 Alpha  occ. eigenvalues --   -0.30619  -0.30329  -0.30077  -0.29650  -0.28884
 Alpha  occ. eigenvalues --   -0.28060  -0.28002  -0.27942  -0.27791  -0.27347
 Alpha  occ. eigenvalues --   -0.27301  -0.27179  -0.27039  -0.26802  -0.26520
 Alpha  occ. eigenvalues --   -0.26399  -0.26312  -0.26027  -0.25930  -0.25682
 Alpha  occ. eigenvalues --   -0.25417  -0.25351  -0.25137  -0.25107  -0.24647
 Alpha  occ. eigenvalues --   -0.24615  -0.24473  -0.24283  -0.24091  -0.23958
 Alpha  occ. eigenvalues --   -0.23421  -0.23399  -0.23326  -0.23267  -0.23196
 Alpha  occ. eigenvalues --   -0.23111  -0.22487  -0.22378  -0.20647  -0.20464
 Alpha  occ. eigenvalues --   -0.11345  -0.11056  -0.09115
 Alpha virt. eigenvalues --   -0.08140  -0.06616  -0.02681  -0.02264  -0.01775
 Alpha virt. eigenvalues --   -0.00970  -0.00898  -0.00777  -0.00423  -0.00025
 Alpha virt. eigenvalues --    0.00352   0.00515   0.00619   0.00873   0.00904
 Alpha virt. eigenvalues --    0.01061   0.01691   0.02371   0.02473   0.02815
 Alpha virt. eigenvalues --    0.02912   0.03638   0.03760   0.03805   0.04089
 Alpha virt. eigenvalues --    0.04161   0.04376   0.05006   0.05148   0.05255
 Alpha virt. eigenvalues --    0.05469   0.05600   0.05734   0.06114   0.06246
 Alpha virt. eigenvalues --    0.06608   0.06692   0.07077   0.07254   0.07838
 Alpha virt. eigenvalues --    0.07935   0.08307   0.08395   0.08562   0.08669
 Alpha virt. eigenvalues --    0.08869   0.09204   0.09491   0.09498   0.09636
 Alpha virt. eigenvalues --    0.09719   0.09944   0.10110   0.10239   0.10392
 Alpha virt. eigenvalues --    0.10490   0.10545   0.10805   0.11206   0.11247
 Alpha virt. eigenvalues --    0.11385   0.11640   0.11941   0.12110   0.12179
 Alpha virt. eigenvalues --    0.12367   0.12425   0.12737   0.12919   0.13086
 Alpha virt. eigenvalues --    0.13364   0.13690   0.13726   0.13923   0.14051
 Alpha virt. eigenvalues --    0.14291   0.14437   0.14542   0.14692   0.14820
 Alpha virt. eigenvalues --    0.14943   0.15281   0.15375   0.15457   0.15710
 Alpha virt. eigenvalues --    0.15835   0.15954   0.16108   0.16173   0.16315
 Alpha virt. eigenvalues --    0.16529   0.16613   0.16899   0.17048   0.17141
 Alpha virt. eigenvalues --    0.17293   0.17344   0.17446   0.17717   0.17874
 Alpha virt. eigenvalues --    0.17964   0.18271   0.18516   0.18681   0.18905
 Alpha virt. eigenvalues --    0.19017   0.19319   0.19388   0.19507   0.19621
 Alpha virt. eigenvalues --    0.19898   0.20259   0.20447   0.20597   0.20761
 Alpha virt. eigenvalues --    0.21463   0.21560   0.21742   0.21851   0.21975
 Alpha virt. eigenvalues --    0.22051   0.22228   0.22348   0.22655   0.22873
 Alpha virt. eigenvalues --    0.23141   0.23355   0.23580   0.23630   0.23917
 Alpha virt. eigenvalues --    0.24014   0.24084   0.24247   0.24347   0.24704
 Alpha virt. eigenvalues --    0.24777   0.24967   0.25413   0.25585   0.25768
 Alpha virt. eigenvalues --    0.26171   0.26707   0.26879   0.26950   0.27199
 Alpha virt. eigenvalues --    0.27486   0.27603   0.27665   0.28042   0.28240
 Alpha virt. eigenvalues --    0.28561   0.28712   0.28932   0.29251   0.29399
 Alpha virt. eigenvalues --    0.29617   0.29673   0.30308   0.30405   0.30517
 Alpha virt. eigenvalues --    0.30623   0.31271   0.31301   0.31665   0.31756
 Alpha virt. eigenvalues --    0.32111   0.32620   0.32704   0.32755   0.33058
 Alpha virt. eigenvalues --    0.33363   0.33528   0.33867   0.33933   0.34472
 Alpha virt. eigenvalues --    0.34674   0.35011   0.35685   0.35819   0.36323
 Alpha virt. eigenvalues --    0.36686   0.36700   0.37016   0.37060   0.37867
 Alpha virt. eigenvalues --    0.37980   0.38251   0.38289   0.38996   0.39361
 Alpha virt. eigenvalues --    0.39489   0.39774   0.39856   0.39929   0.40107
 Alpha virt. eigenvalues --    0.40205   0.40647   0.40757   0.41123   0.41518
 Alpha virt. eigenvalues --    0.41787   0.42017   0.42412   0.42558   0.42749
 Alpha virt. eigenvalues --    0.42851   0.43291   0.43326   0.43613   0.43816
 Alpha virt. eigenvalues --    0.44062   0.44345   0.44454   0.44786   0.45095
 Alpha virt. eigenvalues --    0.45207   0.45323   0.45572   0.45706   0.45830
 Alpha virt. eigenvalues --    0.45984   0.46204   0.46418   0.46681   0.46776
 Alpha virt. eigenvalues --    0.46988   0.47167   0.47215   0.47539   0.47694
 Alpha virt. eigenvalues --    0.47745   0.47972   0.48106   0.48137   0.48481
 Alpha virt. eigenvalues --    0.48673   0.48727   0.48968   0.49332   0.49493
 Alpha virt. eigenvalues --    0.49813   0.50000   0.50198   0.50240   0.50565
 Alpha virt. eigenvalues --    0.50684   0.50881   0.51004   0.51530   0.51706
 Alpha virt. eigenvalues --    0.51829   0.52043   0.52269   0.52320   0.52847
 Alpha virt. eigenvalues --    0.52995   0.53044   0.53217   0.53275   0.53491
 Alpha virt. eigenvalues --    0.53833   0.54136   0.54339   0.54590   0.54709
 Alpha virt. eigenvalues --    0.54783   0.54881   0.55084   0.55431   0.55677
 Alpha virt. eigenvalues --    0.55754   0.55961   0.56009   0.56113   0.56248
 Alpha virt. eigenvalues --    0.56335   0.56794   0.56951   0.57169   0.57286
 Alpha virt. eigenvalues --    0.57361   0.57545   0.57933   0.58235   0.58443
 Alpha virt. eigenvalues --    0.58481   0.58618   0.58678   0.58848   0.58960
 Alpha virt. eigenvalues --    0.59229   0.59309   0.59613   0.59796   0.59896
 Alpha virt. eigenvalues --    0.60067   0.60129   0.60306   0.60368   0.60576
 Alpha virt. eigenvalues --    0.60693   0.60816   0.60884   0.61001   0.61072
 Alpha virt. eigenvalues --    0.61337   0.61481   0.61673   0.61721   0.61970
 Alpha virt. eigenvalues --    0.62033   0.62122   0.62325   0.62429   0.62617
 Alpha virt. eigenvalues --    0.62689   0.62902   0.63031   0.63137   0.63256
 Alpha virt. eigenvalues --    0.63423   0.63557   0.63726   0.63952   0.63998
 Alpha virt. eigenvalues --    0.64143   0.64255   0.64379   0.64412   0.64551
 Alpha virt. eigenvalues --    0.64671   0.64779   0.64904   0.65076   0.65138
 Alpha virt. eigenvalues --    0.65214   0.65297   0.65412   0.65573   0.65705
 Alpha virt. eigenvalues --    0.65867   0.65961   0.66070   0.66138   0.66272
 Alpha virt. eigenvalues --    0.66329   0.66418   0.66535   0.66672   0.66849
 Alpha virt. eigenvalues --    0.66893   0.67116   0.67209   0.67264   0.67389
 Alpha virt. eigenvalues --    0.67440   0.67554   0.67779   0.67796   0.67879
 Alpha virt. eigenvalues --    0.67961   0.68063   0.68170   0.68281   0.68478
 Alpha virt. eigenvalues --    0.68549   0.68614   0.68792   0.68915   0.68979
 Alpha virt. eigenvalues --    0.69128   0.69199   0.69313   0.69473   0.69492
 Alpha virt. eigenvalues --    0.69535   0.69643   0.69828   0.69941   0.70071
 Alpha virt. eigenvalues --    0.70286   0.70294   0.70365   0.70567   0.70598
 Alpha virt. eigenvalues --    0.70715   0.70984   0.71081   0.71273   0.71385
 Alpha virt. eigenvalues --    0.71572   0.71719   0.71787   0.72004   0.72056
 Alpha virt. eigenvalues --    0.72131   0.72189   0.72382   0.72614   0.72887
 Alpha virt. eigenvalues --    0.73129   0.73437   0.73620   0.73711   0.73845
 Alpha virt. eigenvalues --    0.73995   0.74205   0.74383   0.74545   0.74868
 Alpha virt. eigenvalues --    0.74925   0.75127   0.75378   0.75540   0.75859
 Alpha virt. eigenvalues --    0.75895   0.76111   0.76387   0.76853   0.76892
 Alpha virt. eigenvalues --    0.77207   0.77290   0.77520   0.77693   0.78075
 Alpha virt. eigenvalues --    0.78486   0.78572   0.78788   0.79046   0.79191
 Alpha virt. eigenvalues --    0.79513   0.79869   0.80073   0.80264   0.80527
 Alpha virt. eigenvalues --    0.80725   0.80937   0.81200   0.81551   0.81658
 Alpha virt. eigenvalues --    0.81880   0.82115   0.82269   0.82454   0.82486
 Alpha virt. eigenvalues --    0.82767   0.83085   0.83315   0.83582   0.83866
 Alpha virt. eigenvalues --    0.84370   0.84510   0.84863   0.85010   0.85404
 Alpha virt. eigenvalues --    0.85593   0.85705   0.86045   0.86379   0.86709
 Alpha virt. eigenvalues --    0.86887   0.87146   0.88046   0.88194   0.88311
 Alpha virt. eigenvalues --    0.88535   0.88944   0.89556   0.89699   0.89979
 Alpha virt. eigenvalues --    0.90172   0.90459   0.90685   0.90816   0.91085
 Alpha virt. eigenvalues --    0.91325   0.91858   0.92009   0.92173   0.92423
 Alpha virt. eigenvalues --    0.92586   0.92879   0.93077   0.93712   0.93927
 Alpha virt. eigenvalues --    0.94181   0.94391   0.94886   0.95401   0.95691
 Alpha virt. eigenvalues --    0.95986   0.96414   0.96684   0.96768   0.96953
 Alpha virt. eigenvalues --    0.97407   0.97638   0.97705   0.98036   0.98365
 Alpha virt. eigenvalues --    0.98578   0.98857   0.99563   0.99889   1.00069
 Alpha virt. eigenvalues --    1.00221   1.00469   1.00559   1.00750   1.01374
 Alpha virt. eigenvalues --    1.01574   1.02217   1.02260   1.02420   1.02587
 Alpha virt. eigenvalues --    1.02886   1.03192   1.03489   1.03598   1.04053
 Alpha virt. eigenvalues --    1.04160   1.04372   1.04640   1.04821   1.05092
 Alpha virt. eigenvalues --    1.05311   1.05486   1.05801   1.06537   1.06897
 Alpha virt. eigenvalues --    1.07317   1.07486   1.07787   1.07835   1.08070
 Alpha virt. eigenvalues --    1.08505   1.08634   1.08799   1.09081   1.09337
 Alpha virt. eigenvalues --    1.09549   1.09718   1.09964   1.10225   1.10368
 Alpha virt. eigenvalues --    1.10670   1.11103   1.11132   1.11221   1.11575
 Alpha virt. eigenvalues --    1.11726   1.12165   1.12504   1.12668   1.12980
 Alpha virt. eigenvalues --    1.13070   1.13184   1.13673   1.13854   1.14150
 Alpha virt. eigenvalues --    1.14922   1.15028   1.15351   1.15794   1.15923
 Alpha virt. eigenvalues --    1.16370   1.16778   1.16880   1.16998   1.17073
 Alpha virt. eigenvalues --    1.17381   1.17560   1.17707   1.18109   1.18391
 Alpha virt. eigenvalues --    1.18757   1.18911   1.18978   1.19236   1.19673
 Alpha virt. eigenvalues --    1.19839   1.19965   1.20253   1.20340   1.20603
 Alpha virt. eigenvalues --    1.20903   1.21331   1.21567   1.21848   1.22225
 Alpha virt. eigenvalues --    1.22600   1.22872   1.23281   1.23731   1.23864
 Alpha virt. eigenvalues --    1.24287   1.24458   1.24754   1.24967   1.25421
 Alpha virt. eigenvalues --    1.25541   1.25733   1.26223   1.26386   1.26709
 Alpha virt. eigenvalues --    1.26826   1.27250   1.27593   1.27660   1.27936
 Alpha virt. eigenvalues --    1.28154   1.28419   1.28718   1.29021   1.29378
 Alpha virt. eigenvalues --    1.29731   1.29864   1.30250   1.30363   1.30835
 Alpha virt. eigenvalues --    1.31343   1.31387   1.31457   1.31826   1.32041
 Alpha virt. eigenvalues --    1.32423   1.32534   1.32700   1.33106   1.33272
 Alpha virt. eigenvalues --    1.33309   1.34169   1.34377   1.34894   1.35264
 Alpha virt. eigenvalues --    1.35550   1.35671   1.35915   1.36100   1.36322
 Alpha virt. eigenvalues --    1.36929   1.37216   1.37417   1.37423   1.37790
 Alpha virt. eigenvalues --    1.38125   1.38413   1.39111   1.39335   1.39425
 Alpha virt. eigenvalues --    1.39754   1.40036   1.40213   1.40684   1.40889
 Alpha virt. eigenvalues --    1.41021   1.41824   1.42324   1.42501   1.42688
 Alpha virt. eigenvalues --    1.42910   1.43242   1.43362   1.43691   1.43834
 Alpha virt. eigenvalues --    1.44132   1.44291   1.44444   1.44982   1.45142
 Alpha virt. eigenvalues --    1.45287   1.45535   1.46222   1.46425   1.46601
 Alpha virt. eigenvalues --    1.46740   1.46853   1.47330   1.47554   1.47646
 Alpha virt. eigenvalues --    1.48152   1.48560   1.48709   1.48919   1.49272
 Alpha virt. eigenvalues --    1.49797   1.50563   1.50872   1.51027   1.51201
 Alpha virt. eigenvalues --    1.51425   1.51774   1.52246   1.52443   1.52671
 Alpha virt. eigenvalues --    1.53123   1.53197   1.53540   1.53748   1.53870
 Alpha virt. eigenvalues --    1.54418   1.54962   1.55481   1.55626   1.55938
 Alpha virt. eigenvalues --    1.56309   1.56563   1.56821   1.57337   1.57523
 Alpha virt. eigenvalues --    1.57876   1.58006   1.58431   1.59089   1.59334
 Alpha virt. eigenvalues --    1.59409   1.59905   1.60265   1.60389   1.60867
 Alpha virt. eigenvalues --    1.61601   1.62279   1.62572   1.62855   1.63308
 Alpha virt. eigenvalues --    1.63564   1.63882   1.64391   1.64863   1.64898
 Alpha virt. eigenvalues --    1.65154   1.65381   1.65658   1.66101   1.66422
 Alpha virt. eigenvalues --    1.66523   1.67114   1.67492   1.67522   1.67675
 Alpha virt. eigenvalues --    1.68193   1.68409   1.68497   1.68725   1.69061
 Alpha virt. eigenvalues --    1.69396   1.69684   1.69709   1.70021   1.70130
 Alpha virt. eigenvalues --    1.70648   1.70750   1.70911   1.71091   1.71163
 Alpha virt. eigenvalues --    1.71635   1.71978   1.72083   1.72316   1.72471
 Alpha virt. eigenvalues --    1.72724   1.72855   1.73082   1.73311   1.73348
 Alpha virt. eigenvalues --    1.73764   1.74250   1.74370   1.74484   1.74614
 Alpha virt. eigenvalues --    1.74718   1.74894   1.75346   1.75580   1.75809
 Alpha virt. eigenvalues --    1.75927   1.76279   1.76597   1.76753   1.77005
 Alpha virt. eigenvalues --    1.77192   1.77313   1.77518   1.77657   1.77716
 Alpha virt. eigenvalues --    1.77899   1.78109   1.78151   1.78221   1.78530
 Alpha virt. eigenvalues --    1.78581   1.78752   1.78878   1.79137   1.79434
 Alpha virt. eigenvalues --    1.79542   1.79630   1.79993   1.80153   1.80278
 Alpha virt. eigenvalues --    1.80504   1.80664   1.80709   1.81032   1.81122
 Alpha virt. eigenvalues --    1.81304   1.81544   1.81781   1.82037   1.82062
 Alpha virt. eigenvalues --    1.82165   1.82301   1.82318   1.82582   1.82679
 Alpha virt. eigenvalues --    1.82707   1.83286   1.83341   1.83465   1.83890
 Alpha virt. eigenvalues --    1.84165   1.84373   1.84751   1.84898   1.85045
 Alpha virt. eigenvalues --    1.85157   1.85404   1.85588   1.85627   1.85705
 Alpha virt. eigenvalues --    1.85930   1.86191   1.86393   1.86501   1.86565
 Alpha virt. eigenvalues --    1.86802   1.86979   1.87152   1.87531   1.87582
 Alpha virt. eigenvalues --    1.87985   1.88157   1.88450   1.88493   1.88722
 Alpha virt. eigenvalues --    1.88812   1.88989   1.89090   1.89154   1.89254
 Alpha virt. eigenvalues --    1.89615   1.89828   1.89886   1.90104   1.90179
 Alpha virt. eigenvalues --    1.90395   1.90624   1.90856   1.91214   1.91563
 Alpha virt. eigenvalues --    1.91795   1.91932   1.92027   1.92272   1.92439
 Alpha virt. eigenvalues --    1.92531   1.92845   1.93050   1.93308   1.93451
 Alpha virt. eigenvalues --    1.93587   1.93690   1.93975   1.94113   1.94312
 Alpha virt. eigenvalues --    1.94511   1.94711   1.94991   1.95199   1.95382
 Alpha virt. eigenvalues --    1.95440   1.95913   1.96191   1.96284   1.96582
 Alpha virt. eigenvalues --    1.96793   1.97376   1.97755   1.97882   1.97907
 Alpha virt. eigenvalues --    1.98181   1.98199   1.98428   1.98502   1.98641
 Alpha virt. eigenvalues --    1.99105   1.99302   1.99587   1.99738   2.00080
 Alpha virt. eigenvalues --    2.00190   2.00411   2.00466   2.00667   2.00777
 Alpha virt. eigenvalues --    2.00971   2.01084   2.01262   2.01763   2.02118
 Alpha virt. eigenvalues --    2.02232   2.02465   2.02880   2.03001   2.03434
 Alpha virt. eigenvalues --    2.03768   2.04046   2.04264   2.04296   2.04742
 Alpha virt. eigenvalues --    2.05098   2.05210   2.05456   2.06012   2.06186
 Alpha virt. eigenvalues --    2.06370   2.06653   2.06816   2.07134   2.07873
 Alpha virt. eigenvalues --    2.08006   2.08634   2.08755   2.08848   2.09333
 Alpha virt. eigenvalues --    2.09718   2.10025   2.10244   2.10301   2.10643
 Alpha virt. eigenvalues --    2.10919   2.11086   2.11227   2.11560   2.11783
 Alpha virt. eigenvalues --    2.11857   2.12056   2.12229   2.12593   2.12797
 Alpha virt. eigenvalues --    2.13174   2.13199   2.13600   2.13708   2.13777
 Alpha virt. eigenvalues --    2.14140   2.14279   2.14683   2.15256   2.15326
 Alpha virt. eigenvalues --    2.15776   2.15886   2.16184   2.16515   2.16971
 Alpha virt. eigenvalues --    2.17036   2.17664   2.17787   2.17984   2.18199
 Alpha virt. eigenvalues --    2.18386   2.18604   2.18808   2.19140   2.19332
 Alpha virt. eigenvalues --    2.20117   2.20458   2.21106   2.21927   2.21985
 Alpha virt. eigenvalues --    2.22144   2.22430   2.22912   2.23035   2.23611
 Alpha virt. eigenvalues --    2.23757   2.24330   2.24645   2.24674   2.24954
 Alpha virt. eigenvalues --    2.26013   2.26119   2.26386   2.26841   2.27062
 Alpha virt. eigenvalues --    2.27245   2.27658   2.27669   2.28164   2.28369
 Alpha virt. eigenvalues --    2.28446   2.28534   2.28947   2.29144   2.29503
 Alpha virt. eigenvalues --    2.29570   2.30091   2.30503   2.30910   2.31027
 Alpha virt. eigenvalues --    2.31225   2.31872   2.32587   2.32732   2.33335
 Alpha virt. eigenvalues --    2.33457   2.33729   2.33964   2.34170   2.34510
 Alpha virt. eigenvalues --    2.34708   2.34918   2.35131   2.35555   2.35594
 Alpha virt. eigenvalues --    2.35760   2.36025   2.36213   2.36562   2.36820
 Alpha virt. eigenvalues --    2.37257   2.37674   2.37821   2.38116   2.38935
 Alpha virt. eigenvalues --    2.39238   2.40038   2.40364   2.40539   2.40748
 Alpha virt. eigenvalues --    2.41109   2.41530   2.41786   2.42064   2.42135
 Alpha virt. eigenvalues --    2.42720   2.43125   2.43251   2.43888   2.44041
 Alpha virt. eigenvalues --    2.44274   2.44616   2.44747   2.45665   2.46367
 Alpha virt. eigenvalues --    2.46548   2.46786   2.46928   2.47478   2.47909
 Alpha virt. eigenvalues --    2.48013   2.48045   2.48229   2.48550   2.49237
 Alpha virt. eigenvalues --    2.49536   2.49894   2.50013   2.51268   2.51513
 Alpha virt. eigenvalues --    2.51828   2.51914   2.52178   2.52456   2.53029
 Alpha virt. eigenvalues --    2.53464   2.54041   2.54054   2.54268   2.54550
 Alpha virt. eigenvalues --    2.54866   2.55390   2.55556   2.55894   2.55937
 Alpha virt. eigenvalues --    2.56412   2.57220   2.57618   2.57793   2.58215
 Alpha virt. eigenvalues --    2.58865   2.58938   2.59243   2.59736   2.59946
 Alpha virt. eigenvalues --    2.60536   2.60734   2.60887   2.60950   2.61393
 Alpha virt. eigenvalues --    2.61711   2.61971   2.62040   2.62107   2.62565
 Alpha virt. eigenvalues --    2.62763   2.63101   2.63132   2.63839   2.64099
 Alpha virt. eigenvalues --    2.64489   2.64836   2.65286   2.65642   2.65683
 Alpha virt. eigenvalues --    2.66337   2.66570   2.66667   2.67120   2.67554
 Alpha virt. eigenvalues --    2.68037   2.68277   2.68401   2.68557   2.68691
 Alpha virt. eigenvalues --    2.69484   2.70021   2.70083   2.70101   2.70284
 Alpha virt. eigenvalues --    2.70352   2.70386   2.70580   2.70736   2.71055
 Alpha virt. eigenvalues --    2.71485   2.71530   2.71577   2.71997   2.72469
 Alpha virt. eigenvalues --    2.72660   2.72959   2.73279   2.73721   2.74091
 Alpha virt. eigenvalues --    2.74188   2.74543   2.75071   2.75299   2.75675
 Alpha virt. eigenvalues --    2.75761   2.76206   2.76287   2.76632   2.77393
 Alpha virt. eigenvalues --    2.77854   2.78014   2.78104   2.78280   2.78735
 Alpha virt. eigenvalues --    2.78773   2.79242   2.79755   2.79772   2.79878
 Alpha virt. eigenvalues --    2.80257   2.80430   2.80528   2.80957   2.81255
 Alpha virt. eigenvalues --    2.81375   2.82087   2.82133   2.82661   2.82683
 Alpha virt. eigenvalues --    2.82893   2.83545   2.83728   2.83907   2.84279
 Alpha virt. eigenvalues --    2.84651   2.85157   2.85394   2.85787   2.85874
 Alpha virt. eigenvalues --    2.86228   2.86375   2.86664   2.87474   2.88357
 Alpha virt. eigenvalues --    2.88368   2.88432   2.88490   2.89294   2.89497
 Alpha virt. eigenvalues --    2.90014   2.90292   2.90986   2.91067   2.91604
 Alpha virt. eigenvalues --    2.91826   2.92090   2.92168   2.92935   2.93054
 Alpha virt. eigenvalues --    2.93152   2.93381   2.93601   2.93807   2.93821
 Alpha virt. eigenvalues --    2.94000   2.94346   2.94602   2.94909   2.95179
 Alpha virt. eigenvalues --    2.95290   2.95449   2.95852   2.96186   2.96469
 Alpha virt. eigenvalues --    2.96572   2.97075   2.97267   2.97473   2.97859
 Alpha virt. eigenvalues --    2.97909   2.98460   2.98793   2.99766   3.00021
 Alpha virt. eigenvalues --    3.00284   3.00458   3.00579   3.00681   3.01009
 Alpha virt. eigenvalues --    3.01126   3.01465   3.01850   3.02116   3.02379
 Alpha virt. eigenvalues --    3.03441   3.03477   3.03911   3.03924   3.04976
 Alpha virt. eigenvalues --    3.05569   3.05936   3.06028   3.06357   3.06935
 Alpha virt. eigenvalues --    3.07124   3.07333   3.07407   3.08133   3.08515
 Alpha virt. eigenvalues --    3.08972   3.09458   3.09721   3.10032   3.10781
 Alpha virt. eigenvalues --    3.10973   3.11317   3.12302   3.12674   3.12868
 Alpha virt. eigenvalues --    3.13279   3.13448   3.14027   3.14281   3.14950
 Alpha virt. eigenvalues --    3.15359   3.15834   3.16489   3.17385   3.17398
 Alpha virt. eigenvalues --    3.17773   3.17999   3.18244   3.18532   3.18903
 Alpha virt. eigenvalues --    3.19420   3.19432   3.19487   3.19698   3.20042
 Alpha virt. eigenvalues --    3.20464   3.20742   3.21133   3.21450   3.21719
 Alpha virt. eigenvalues --    3.21789   3.22195   3.23557   3.23892   3.23936
 Alpha virt. eigenvalues --    3.24261   3.24372   3.24905   3.25463   3.26407
 Alpha virt. eigenvalues --    3.27234   3.27416   3.27724   3.28268   3.29893
 Alpha virt. eigenvalues --    3.30049   3.30447   3.30860   3.32104   3.33050
 Alpha virt. eigenvalues --    3.34260   3.36327   3.38507   3.38909   3.39032
 Alpha virt. eigenvalues --    3.40014   3.40840   3.44234   3.45059   3.46689
 Alpha virt. eigenvalues --    3.51669   3.52912   3.54046   3.54562   3.55080
 Alpha virt. eigenvalues --    3.55850   3.56170   3.56863   3.57406   3.58867
 Alpha virt. eigenvalues --    3.58897   3.59997   3.60710   3.61049   3.61274
 Alpha virt. eigenvalues --    3.61324   3.63739   3.65382   3.66167   3.66916
 Alpha virt. eigenvalues --    3.67413   3.67665   3.68762   3.69083   3.69804
 Alpha virt. eigenvalues --    3.70060   3.70306   3.70554   3.70772   3.71699
 Alpha virt. eigenvalues --    3.71881   3.72952   3.73161   3.73400   3.76438
 Alpha virt. eigenvalues --    3.77209   3.77701   3.81658   3.85011
          Condensed to atoms (all electrons):
 Mulliken charges:
               1
     1  C    0.060755
     2  C    0.044879
     3  O   -0.358519
     4  H    0.023767
     5  H    0.039130
     6  H    0.016198
     7  N   -0.110452
     8  C    0.112695
     9  C    0.065122
    10  O   -0.300595
    11  C    0.089421
    12  C    0.003487
    13  O   -0.408548
    14  O   -0.363685
    15  H    0.126909
    16  H   -0.012264
    17  H   -0.038586
    18  H   -0.011230
    19  N   -0.169582
    20  C    0.138262
    21  C    0.035819
    22  O   -0.292152
    23  C    0.097707
    24  C   -0.028602
    25  C   -0.054896
    26  C   -0.002617
    27  N    0.095979
    28  H    0.142162
    29  H    0.027218
    30  H    0.006641
    31  H    0.011419
    32  H    0.001365
    33  H    0.032716
    34  H    0.042440
    35  H    0.029568
    36  H    0.058700
    37  H    0.076835
    38  H    0.187222
    39  H    0.195853
    40  H    0.218587
    41  N   -0.118416
    42  C    0.105808
    43  C    0.103918
    44  O   -0.278342
    45  C    0.121215
    46  C    0.105897
    47  O   -0.433250
    48  O   -0.427993
    49  H    0.140397
    50  H    0.004603
    51  H   -0.054255
    52  H    0.020658
    53  N   -0.114864
    54  C    0.178237
    55  C    0.118843
    56  O   -0.338444
    57  H    0.116137
    58  H    0.023481
    59  H    0.071947
    60  N   -0.133526
    61  C    0.079907
    62  C    0.076999
    63  O   -0.268443
    64  C    0.070145
    65  C   -0.033862
    66  N   -0.051151
    67  O   -0.225252
    68  H    0.137592
    69  H    0.024364
    70  H    0.059307
    71  H    0.028842
    72  H    0.121040
    73  H    0.105384
    74  N   -0.127625
    75  C    0.196262
    76  C    0.054920
    77  O   -0.281921
    78  H    0.101923
    79  H    0.004791
    80  H    0.030684
    81  N   -0.119361
    82  C    0.080865
    83  C    0.105428
    84  O   -0.319046
    85  C    0.177569
    86  C   -0.017982
    87  C   -0.041211
    88  C    0.001978
    89  C   -0.024397
    90  C   -0.045550
    91  C    0.144204
    92  O   -0.179106
    93  H    0.125824
    94  H    0.014870
    95  H    0.025996
    96  H    0.017808
    97  H   -0.032293
    98  H   -0.018285
    99  H   -0.024823
   100  H   -0.043748
   101  H    0.166353
   102  N   -0.107441
   103  C    0.146529
   104  C    0.038499
   105  O   -0.272063
   106  C   -0.117778
   107  C    0.010149
   108  C    0.092742
   109  C    0.027548
   110  H    0.146798
   111  H    0.020884
   112  H   -0.021023
   113  H   -0.007592
   114  H    0.000155
   115  H    0.034061
   116  H    0.000055
   117  H   -0.007591
   118  H    0.006690
   119  H   -0.003621
   120  H    0.025980
   121  N   -0.126880
   122  C    0.115998
   123  C    0.037355
   124  O   -0.262554
   125  C    0.236880
   126  O   -0.325477
   127  H    0.140817
   128  H    0.019396
   129  H   -0.011992
   130  H    0.012209
   131  H    0.161618
   132  N   -0.123893
   133  C    0.057157
   134  C    0.071104
   135  O   -0.278538
   136  C    0.098512
   137  H    0.113840
   138  H    0.018869
   139  H    0.001046
   140  H   -0.016398
   141  H    0.030965
   142  N   -0.142872
   143  C    0.059537
   144  C    0.093551
   145  O   -0.232785
   146  C    0.063852
   147  H    0.149727
   148  H    0.005067
   149  H    0.023230
   150  H   -0.010625
   151  H    0.040618
   152  N   -0.149519
   153  C    0.091480
   154  C    0.082944
   155  O   -0.282197
   156  C   -0.001191
   157  C    0.106136
   158  C    0.098874
   159  O   -0.439059
   160  O   -0.410378
   161  H    0.118491
   162  H   -0.007585
   163  H   -0.001830
   164  H    0.040053
   165  H    0.019949
   166  H   -0.022567
   167  N   -0.140347
   168  C    0.139459
   169  H    0.039492
   170  H    0.008717
   171  H    0.023167
   172  H    0.110176
   173  Ca   1.326225
   174  O   -0.301797
   175  H    0.186084
   176  H    0.192734
 Sum of Mulliken charges =  -0.00000
 Mulliken charges with hydrogens summed into heavy atoms:
               1
     1  C    0.139850
     2  C    0.044879
     3  O   -0.358519
     7  N    0.016457
     8  C    0.100431
     9  C    0.065122
    10  O   -0.300595
    11  C    0.039604
    12  C    0.003487
    13  O   -0.408548
    14  O   -0.363685
    19  N   -0.027420
    20  C    0.165480
    21  C    0.035819
    22  O   -0.292152
    23  C    0.115768
    24  C    0.005479
    25  C    0.017112
    26  C    0.132918
    27  N    0.697640
    41  N    0.021981
    42  C    0.110411
    43  C    0.103918
    44  O   -0.278342
    45  C    0.087617
    46  C    0.105897
    47  O   -0.433250
    48  O   -0.427993
    53  N    0.001273
    54  C    0.273665
    55  C    0.118843
    56  O   -0.338444
    60  N    0.004065
    61  C    0.104271
    62  C    0.076999
    63  O   -0.268443
    64  C    0.158294
    65  C   -0.033862
    66  N    0.175274
    67  O   -0.225252
    74  N   -0.025701
    75  C    0.231737
    76  C    0.054920
    77  O   -0.281921
    81  N    0.006463
    82  C    0.095735
    83  C    0.105428
    84  O   -0.319046
    85  C    0.221374
    86  C   -0.017982
    87  C   -0.073504
    88  C   -0.016307
    89  C   -0.049220
    90  C   -0.089299
    91  C    0.144204
    92  O   -0.012753
   102  N    0.039357
   103  C    0.167413
   104  C    0.038499
   105  O   -0.272063
   106  C   -0.138801
   107  C    0.002712
   108  C    0.119268
   109  C    0.056598
   121  N    0.013937
   122  C    0.135394
   123  C    0.037355
   124  O   -0.262554
   125  C    0.237096
   126  O   -0.163859
   132  N   -0.010053
   133  C    0.076026
   134  C    0.071104
   135  O   -0.278538
   136  C    0.114125
   142  N    0.006855
   143  C    0.064603
   144  C    0.093551
   145  O   -0.232785
   146  C    0.117075
   152  N   -0.031028
   153  C    0.083894
   154  C    0.082944
   155  O   -0.282197
   156  C    0.037032
   157  C    0.103518
   158  C    0.098874
   159  O   -0.439059
   160  O   -0.410378
   167  N   -0.030171
   168  C    0.210835
   173  Ca   1.326225
   174  O    0.077021
 DipInt: DoE/N= T F RetVal/Mat= T F Init=T NMatP=  1 IDeriv=0 Min/MaxMlt=  0  4
 Entering OneElI...
 OneElI was handed  1333951383 working-precision words.
 Multipole integrals L=0 to 4 MinM= 0 MaxM= 0.
 Requested accuracy = 0.1000D-12
 ShPair: Thresh= 1.00D-13 NBox=     0 BxSize= 0.00D+00 RnKept= 2.76D+01
         NSMCal=               327645 NSMKep=              133553
 PrmmSu-InSpLW:  IPartL=    0 NPrtUS=    1 NPrtUL=    1 DoSpLW=F IThBeg=    0 IThEnd=    0 NThAct=    1.
 PrsmSu:  NPrtUS=   1 ThrOK=F IAlg=1 NPAlg=1 LenDen=           0 ISkipM=0 DoSpLW=F IThBeg=    0 IThEnd=    0.
 Prism:   IPart=     0 DynPar=F LinDyn=F Incr=         512.
 PRISM was handed  1324916987 working-precision words and133553 shell-pairs
 IPart=  0 NShTot=      133553 NBatch=         312 AvBLen=       428.1
 PrsmSu-ThDecC:  IPartSL=    0    0 NPrtUSL=    1    1 IThBeg=    0 IThEnd=    0 CPU=   -1 GPU=   -1 NThAct=    1.
 PrSmSu:  NxtVal=            513.
 Electronic moments (au):
       -716.00000000         -0.44353433         -4.67835736          7.86276072
     -82260.04517340     -33441.88836442     -15232.08749090        130.12589676
        -16.27730162         57.11744978     122740.10144171     -52039.25324116
      -1164.29751311    -210238.65621286    -100541.08184246      77355.16635843
      74833.79517827       5762.65687670       6614.10860830     -52933.13250079
  -16731069.24802619   -4334556.87431066    -968543.42956222     -60104.12860478
    -821536.91087557   -1381117.54452669    -403689.33298487    -111101.04499464
     212701.49081373   -3895780.83828749   -1455203.18692411    -443831.66497329
     -59074.74252022    -165320.21112784     162354.32697023
 Electronic spatial extent (au):  <R**2>=         130934.0210
 DipInt: DoE/N= F T RetVal/Mat= T F Init=T NMatP=  1 IDeriv=0 Min/MaxMlt=  0  4
 Nuclear    moments (au):
        716.00000000          0.00000000         -0.00000000          0.00000000
      81863.79109253      33053.89818789      14832.62561342          0.00000000
         -0.00000000         -0.00000000    -123389.41896952      51971.28656333
       2175.45545872     209680.61465203      99646.00825271     -77646.66346991
     -74683.40693906      -6212.53191945      -6239.63225996      52805.78915473
   16460219.13995292    4225106.02366364     924103.64903515      78710.49032770
     832328.70398068    1391011.23777458     407357.03672439     106607.20583782
    -212413.62253136    3820430.60456516    1398470.29335892     415853.15629967
      61471.11747504     164050.84872913    -160147.31998736
 Total      moments (au):
         -0.00000000         -0.44353433         -4.67835736          7.86276072
       -396.25408086       -387.99017653       -399.46187748        130.12589676
        -16.27730162         57.11744978       -649.31752781        -67.96667783
       1011.15794561       -558.04156082       -895.07358974       -291.49711148
        150.38823921       -449.87504275        374.47634834       -127.34334606
    -270850.10807327    -109450.85064702     -44439.78052707      18606.36172292
      10791.79310511       9893.69324788       3667.70373952      -4493.83915682
        287.86828237     -75350.23372233     -56732.89356518     -27978.50867361
       2396.37495482      -1269.36239871       2207.00698287
 Traceless Quadrup. (au):
         -1.68536924          6.57853509         -4.89316585        130.12589676
        -16.27730162         57.11744978
 Charge=             -0.0000 electrons
 Dipole moment (field-independent basis, Debye):
    X=             -1.1274    Y=            -11.8912    Z=             19.9851  Tot=             23.2826
 Quadrupole moment (field-independent basis, Debye-Ang):
   XX=           -532.9753   YY=           -521.8601   ZZ=           -537.2899
   XY=            175.0238   XZ=            -21.8935   YZ=             76.8249
 Traceless Quadrupole moment (field-independent basis, Debye-Ang):
   XX=             -2.2669   YY=              8.8484   ZZ=             -6.5815
   XY=            175.0238   XZ=            -21.8935   YZ=             76.8249
 Octapole moment (field-independent basis, Debye-Ang**2):
  XXX=           -462.1592  YYY=            -48.3761  ZZZ=            719.7033  XYY=           -397.1925
  XXY=           -637.0789  XXZ=           -207.4764  XZZ=            107.0406  YZZ=           -320.2037
  YYZ=            266.5378  XYZ=            -90.6381
 Hexadecapole moment (field-independent basis, Debye-Ang**3):
 XXXX=        -102015.1384 YYYY=         -41224.4387 ZZZZ=         -16738.1523 XXXY=           7008.0480
 XXXZ=           4064.7068 YYYX=           3726.4393 YYYZ=           1381.4331 ZZZX=          -1692.5953
 ZZZY=            108.4250 XXYY=         -28380.5112 XXZZ=         -21368.3281 YYZZ=         -10538.0480
 XXYZ=            902.5897 YYXZ=           -478.1027 ZZXY=            831.2647
 N-N= 1.968613525204D+04 E-N=-5.185190732577D+04  KE= 5.290704717529D+03
 Leave Link  601 at Tue Sep 17 23:52:13 2019, MaxMem=  1342177280 cpu:              44.1 elap:               1.1
 FitSet:  NAtFit=   176 NAtPot=   176 NAtFrz=     0 MDM=   180 TotChg=   0.00000
 Merz-Kollman atomic radii used.
 Read replacement radii for each type of atom:
 Rad(20) =   1.700000000000D+00
 Atom Element Radius
    1     6    1.50
    2     6    1.50
    3     8    1.40
    4     1    1.20
    5     1    1.20
    6     1    1.20
    7     7    1.50
    8     6    1.50
    9     6    1.50
   10     8    1.40
   11     6    1.50
   12     6    1.50
   13     8    1.40
   14     8    1.40
   15     1    1.20
   16     1    1.20
   17     1    1.20
   18     1    1.20
   19     7    1.50
   20     6    1.50
   21     6    1.50
   22     8    1.40
   23     6    1.50
   24     6    1.50
   25     6    1.50
   26     6    1.50
   27     7    1.50
   28     1    1.20
   29     1    1.20
   30     1    1.20
   31     1    1.20
   32     1    1.20
   33     1    1.20
   34     1    1.20
   35     1    1.20
   36     1    1.20
   37     1    1.20
   38     1    1.20
   39     1    1.20
   40     1    1.20
   41     7    1.50
   42     6    1.50
   43     6    1.50
   44     8    1.40
   45     6    1.50
   46     6    1.50
   47     8    1.40
   48     8    1.40
   49     1    1.20
   50     1    1.20
   51     1    1.20
   52     1    1.20
   53     7    1.50
   54     6    1.50
   55     6    1.50
   56     8    1.40
   57     1    1.20
   58     1    1.20
   59     1    1.20
   60     7    1.50
   61     6    1.50
   62     6    1.50
   63     8    1.40
   64     6    1.50
   65     6    1.50
   66     7    1.50
   67     8    1.40
   68     1    1.20
   69     1    1.20
   70     1    1.20
   71     1    1.20
   72     1    1.20
   73     1    1.20
   74     7    1.50
   75     6    1.50
   76     6    1.50
   77     8    1.40
   78     1    1.20
   79     1    1.20
   80     1    1.20
   81     7    1.50
   82     6    1.50
   83     6    1.50
   84     8    1.40
   85     6    1.50
   86     6    1.50
   87     6    1.50
   88     6    1.50
   89     6    1.50
   90     6    1.50
   91     6    1.50
   92     8    1.40
   93     1    1.20
   94     1    1.20
   95     1    1.20
   96     1    1.20
   97     1    1.20
   98     1    1.20
   99     1    1.20
  100     1    1.20
  101     1    1.20
  102     7    1.50
  103     6    1.50
  104     6    1.50
  105     8    1.40
  106     6    1.50
  107     6    1.50
  108     6    1.50
  109     6    1.50
  110     1    1.20
  111     1    1.20
  112     1    1.20
  113     1    1.20
  114     1    1.20
  115     1    1.20
  116     1    1.20
  117     1    1.20
  118     1    1.20
  119     1    1.20
  120     1    1.20
  121     7    1.50
  122     6    1.50
  123     6    1.50
  124     8    1.40
  125     6    1.50
  126     8    1.40
  127     1    1.20
  128     1    1.20
  129     1    1.20
  130     1    1.20
  131     1    1.20
  132     7    1.50
  133     6    1.50
  134     6    1.50
  135     8    1.40
  136     6    1.50
  137     1    1.20
  138     1    1.20
  139     1    1.20
  140     1    1.20
  141     1    1.20
  142     7    1.50
  143     6    1.50
  144     6    1.50
  145     8    1.40
  146     6    1.50
  147     1    1.20
  148     1    1.20
  149     1    1.20
  150     1    1.20
  151     1    1.20
  152     7    1.50
  153     6    1.50
  154     6    1.50
  155     8    1.40
  156     6    1.50
  157     6    1.50
  158     6    1.50
  159     8    1.40
  160     8    1.40
  161     1    1.20
  162     1    1.20
  163     1    1.20
  164     1    1.20
  165     1    1.20
  166     1    1.20
  167     7    1.50
  168     6    1.50
[...]
 **** Fit       0.001356
 **** Fit       0.003909
 **** Fit       0.005689
 **** Fit       0.006826
 **** Fit       0.007504
 **** Fit       0.007919
 **** Fit       0.008262
 **** Fit      -0.005415
 **** Fit      -0.002326
 **** Fit       0.000625
 **** Fit       0.003024
 **** Fit       0.004747
 **** Fit       0.005878
 **** Fit       0.006595
 **** Fit      -0.003665
 **** Fit      -0.001141
 **** Fit       0.001343
 **** Fit       0.003319
 **** Fit       0.004687
 **** Fit       0.005588
 **** Fit       0.001113
 **** Fit       0.003053
 **** Fit       0.027845
 **** Fit       0.027771
 **** Fit       0.027067
 **** Fit       0.025765
 **** Fit       0.025052
 **** Fit       0.024654
 **** Fit       0.023578
 **** Fit       0.021816
 **** Fit       0.023062
 **** Fit       0.022514
 **** Fit       0.021263
 **** Fit       0.019277
 **** Fit       0.016564
 **** Fit       0.021478
 **** Fit       0.020383
 **** Fit       0.018537
 **** Fit       0.015952
 **** Fit       0.012743
 **** Fit       0.009254
 **** Fit       0.020414
 **** Fit       0.018899
 **** Fit       0.016672
 **** Fit       0.013858
 **** Fit       0.010760
 **** Fit       0.007898
 **** Fit       0.005761
 **** Fit       0.005974
 **** Fit       0.017914
 **** Fit       0.015495
 **** Fit       0.012810
 **** Fit       0.010214
 **** Fit       0.007992
 **** Fit       0.059122
 **** Fit       0.058832
 **** Fit       0.062153
 **** Fit       0.063421
 **** Fit       0.062308
 **** Fit       0.058638
 **** Fit       0.053093
 **** Fit       0.059405
 **** Fit       0.064020
 **** Fit       0.065929
 **** Fit       0.066404
 **** Fit       0.065139
 **** Fit       0.062064
 **** Fit       0.057386
 **** Fit       0.051634
 **** Fit       0.045582
 **** Fit       0.061225
 **** Fit       0.064864
 **** Fit       0.067203
 **** Fit       0.068523
 **** Fit       0.068608
 **** Fit       0.067323
 **** Fit       0.064616
 **** Fit       0.060542
 **** Fit       0.055306
 **** Fit       0.049333
 **** Fit       0.043254
 **** Fit       0.058610
 **** Fit       0.061832
 **** Fit       0.064793
 **** Fit       0.067547
 **** Fit       0.069432
 **** Fit       0.070297
 **** Fit       0.070027
 **** Fit       0.068538
 **** Fit       0.065782
 **** Fit       0.061760
 **** Fit       0.056553
 **** Fit       0.050388
 **** Fit       0.043726
 **** Fit       0.037289
 **** Fit       0.031890
 **** Fit       0.054016
 **** Fit       0.057606
 **** Fit       0.061374
 **** Fit       0.063879
 **** Fit       0.066980
 **** Fit       0.069309
 **** Fit       0.070773
 **** Fit       0.071281
 **** Fit       0.070757
 **** Fit       0.069137
 **** Fit       0.066371
 **** Fit       0.062425
 **** Fit       0.057294
 **** Fit       0.051042
 **** Fit       0.043899
 **** Fit       0.036370
 **** Fit       0.029313
 **** Fit       0.047347
 **** Fit       0.051425
 **** Fit       0.055866
 **** Fit       0.060118
 **** Fit       0.062161
 **** Fit       0.065625
 **** Fit       0.068355
 **** Fit       0.070292
 **** Fit       0.071362
 **** Fit       0.071496
 **** Fit       0.070629
 **** Fit       0.068708
 **** Fit       0.065679
 **** Fit       0.061483
 **** Fit       0.056053
 **** Fit       0.049350
 **** Fit       0.041436
 **** Fit       0.032628
 **** Fit       0.037634
 **** Fit       0.042547
 **** Fit       0.047966
 **** Fit       0.053231
 **** Fit       0.058009
 **** Fit       0.059653
 **** Fit       0.063414
 **** Fit       0.066487
 **** Fit       0.068840
 **** Fit       0.070412
 **** Fit       0.071131
 **** Fit       0.070937
 **** Fit       0.069780
 **** Fit       0.067616
 **** Fit       0.064391
 **** Fit       0.060024
 **** Fit       0.054397
 **** Fit       0.047365
 **** Fit       0.038813
 **** Fit       0.037554
 **** Fit       0.044104
 **** Fit       0.050022
 **** Fit       0.055200
 **** Fit       0.056342
 **** Fit       0.060326
 **** Fit       0.063689
 **** Fit       0.066413
 **** Fit       0.068438
 **** Fit       0.069689
 **** Fit       0.070097
 **** Fit       0.069615
 **** Fit       0.068214
 **** Fit       0.065865
 **** Fit       0.062517
 **** Fit       0.058076
 **** Fit       0.052382
 **** Fit       0.045207
 **** Fit       0.036267
 **** Fit       0.032548
 **** Fit       0.039932
 **** Fit       0.046275
 **** Fit       0.051694
 **** Fit       0.052183
 **** Fit       0.056475
 **** Fit       0.060195
 **** Fit       0.063321
 **** Fit       0.065771
 **** Fit       0.067442
 **** Fit       0.068244
 **** Fit       0.068125
 **** Fit       0.067071
 **** Fit       0.065079
 **** Fit       0.062131
 **** Fit       0.058154
 **** Fit       0.052999
 **** Fit       0.046406
 **** Fit       0.037984
 **** Fit       0.034627
 **** Fit       0.041497
 **** Fit       0.047250
 **** Fit       0.047094
 **** Fit       0.051619
 **** Fit       0.055677
 **** Fit       0.059223
 **** Fit       0.062139
 **** Fit       0.064272
 **** Fit       0.065495
 **** Fit       0.065742
 **** Fit       0.065017
 **** Fit       0.063363
 **** Fit       0.060812
 **** Fit       0.057343
 **** Fit       0.052843
 **** Fit       0.047084
 **** Fit       0.039686
 **** Fit       0.029205
 **** Fit       0.036207
 **** Fit       0.042030
 **** Fit       0.040950
 **** Fit       0.045738
 **** Fit       0.050214
 **** Fit       0.054284
 **** Fit       0.057757
 **** Fit       0.060393
 **** Fit       0.061991
 **** Fit       0.062464
 **** Fit       0.061857
 **** Fit       0.060288
 **** Fit       0.030103
 **** Fit       0.035811
 **** Fit       0.033575
 **** Fit       0.038631
 **** Fit       0.043608
 **** Fit       0.048334
 **** Fit       0.052517
 **** Fit       0.055782
 **** Fit       0.057803
 **** Fit       0.058452
 **** Fit       0.057833
 **** Fit       0.028491
 **** Fit       0.030434
 **** Fit       0.036342
 **** Fit       0.042158
 **** Fit       0.047389
 **** Fit       0.039185
 **** Fit       0.036602
 **** Fit       0.035512
 **** Fit       0.036780
 **** Fit       0.042000
 **** Fit       0.039410
 **** Fit       0.036361
 **** Fit       0.033735
 **** Fit       0.032513
 **** Fit       0.033186
 **** Fit       0.035567
 **** Fit       0.039053
 **** Fit       0.045934
 **** Fit       0.045412
 **** Fit       0.044049
 **** Fit       0.041502
 **** Fit       0.038005
 **** Fit       0.034298
 **** Fit       0.031318
 **** Fit       0.029808
 **** Fit       0.030065
 **** Fit       0.031914
 **** Fit       0.034871
 **** Fit       0.038387
 **** Fit       0.048257
 **** Fit       0.049454
 **** Fit       0.049742
 **** Fit       0.048468
 **** Fit       0.045431
 **** Fit       0.041005
 **** Fit       0.036022
 **** Fit       0.031500
 **** Fit       0.028319
 **** Fit       0.026984
 **** Fit       0.027543
 **** Fit       0.029660
 **** Fit       0.032791
 **** Fit       0.036365
 **** Fit       0.039936
 **** Fit       0.047779
 **** Fit       0.051196
 **** Fit       0.054672
 **** Fit       0.057179
 **** Fit       0.057759
 **** Fit       0.055827
 **** Fit       0.051409
 **** Fit       0.045173
 **** Fit       0.038234
 **** Fit       0.031831
 **** Fit       0.027009
 **** Fit       0.024389
 **** Fit       0.024087
 **** Fit       0.025774
 **** Fit       0.028858
 **** Fit       0.048749
 **** Fit       0.054918
 **** Fit       0.032890
 **** Fit       0.025852
 **** Fit       0.021546
 **** Fit       0.020150
 **** Fit       0.021314
 **** Fit       0.024359
 **** Fit       0.021862
 **** Fit       0.016326
 **** Fit       0.014702
 **** Fit       0.016345
 **** Fit       0.041793
 **** Fit       0.029267
 **** Fit       0.034929
 **** Fit       0.026996
 **** Fit       0.023130
 **** Fit       0.018636
 **** Fit       0.013228
 **** Fit       0.021499
 **** Fit       0.017213
 **** Fit       0.012096
 **** Fit       0.005774
 **** Fit       0.013588
 **** Fit       0.008778
 **** Fit       0.002565
 **** Fit       0.000899
 **** Fit      -0.005736
 **** Fit       0.041757
 **** Fit       0.042028
 **** Fit       0.041492
 **** Fit       0.040967
 **** Fit       0.041514
 **** Fit       0.042073
 **** Fit       0.042118
 **** Fit       0.042269
 **** Fit       0.042212
 **** Fit       0.041419
 **** Fit       0.040253
 **** Fit       0.039757
 **** Fit       0.040340
 **** Fit       0.041371
 **** Fit       0.042115
 **** Fit       0.042345
 **** Fit       0.042216
 **** Fit       0.042032
 **** Fit       0.042057
 **** Fit       0.042425
 **** Fit       0.042950
 **** Fit       0.042831
 **** Fit       0.041753
 **** Fit       0.038842
 **** Fit       0.040164
 **** Fit       0.041426
 **** Fit       0.042251
 **** Fit       0.042577
 **** Fit       0.042503
 **** Fit       0.042180
 **** Fit       0.041773
 **** Fit       0.041467
 **** Fit       0.041442
 **** Fit       0.041795
 **** Fit       0.042433
 **** Fit       0.043684
 **** Fit       0.044439
 **** Fit       0.039498
 **** Fit       0.041168
 **** Fit       0.042299
 **** Fit       0.042844
 **** Fit       0.042913
 **** Fit       0.042640
 **** Fit       0.042145
 **** Fit       0.041533
 **** Fit       0.040915
 **** Fit       0.040430
 **** Fit       0.040237
 **** Fit       0.040487
 **** Fit       0.041252
 **** Fit       0.042205
 **** Fit       0.044441
 **** Fit       0.046384
 **** Fit       0.042065
 **** Fit       0.043143
 **** Fit       0.043521
 **** Fit       0.043396
 **** Fit       0.042941
 **** Fit       0.042272
 **** Fit       0.041467
 **** Fit       0.040591
 **** Fit       0.039723
 **** Fit       0.038971
 **** Fit       0.038484
 **** Fit       0.038438
 **** Fit       0.039006
 **** Fit       0.040285
 **** Fit       0.041597
 **** Fit       0.045093
 **** Fit       0.044630
 **** Fit       0.044633
 **** Fit       0.044149
 **** Fit       0.043385
 **** Fit       0.042461
 **** Fit       0.041434
 **** Fit       0.040336
 **** Fit       0.039197
 **** Fit       0.038063
 **** Fit       0.037017
 **** Fit       0.036185
 **** Fit       0.035740
 **** Fit       0.035893
 **** Fit       0.036852
 **** Fit       0.038759
 **** Fit       0.040353
 **** Fit       0.045118
 **** Fit       0.043781
 **** Fit       0.042391
 **** Fit       0.040976
 **** Fit       0.039532
 **** Fit       0.038053
 **** Fit       0.036549
 **** Fit       0.035063
 **** Fit       0.033690
 **** Fit       0.032588
 **** Fit       0.031988
 **** Fit       0.032186
 **** Fit       0.033499
 **** Fit       0.036191
 **** Fit       0.038003
 **** Fit       0.044267
 **** Fit       0.042268
 **** Fit       0.040376
 **** Fit       0.038534
 **** Fit       0.036688
 **** Fit       0.034802
 **** Fit       0.032875
 **** Fit       0.030951
 **** Fit       0.029141
 **** Fit       0.027644
 **** Fit       0.026768
 **** Fit       0.026924
 **** Fit       0.028581
 **** Fit       0.032181
 **** Fit       0.043048
 **** Fit       0.040419
 **** Fit       0.038014
 **** Fit       0.035702
 **** Fit       0.033379
 **** Fit       0.030977
 **** Fit       0.028468
 **** Fit       0.025885
 **** Fit       0.023346
 **** Fit       0.021095
 **** Fit       0.019546
 **** Fit       0.019294
 **** Fit       0.021076
 **** Fit       0.025661
 **** Fit       0.039798
 **** Fit       0.036568
 **** Fit       0.033577
 **** Fit       0.030612
 **** Fit       0.027520
 **** Fit       0.024198
 **** Fit       0.020609
 **** Fit       0.016821
 **** Fit       0.013084
 **** Fit       0.032115
 **** Fit       0.028345
 **** Fit       0.024458
 **** Fit       0.020202
 **** Fit       0.015388
 **** Fit       0.009918
 **** Fit       0.015922
 **** Fit       0.009877
 **** Fit       0.038355
 **** Fit       0.041889
 **** Fit       0.029390
 **** Fit       0.032047
 **** Fit       0.034951
 **** Fit       0.037933
 **** Fit       0.041000
 **** Fit       0.044354
 **** Fit       0.024500
 **** Fit       0.027244
 **** Fit       0.030260
 **** Fit       0.033254
 **** Fit       0.036105
 **** Fit       0.038816
 **** Fit       0.041495
 **** Fit       0.044380
 **** Fit       0.018611
 **** Fit       0.021740
 **** Fit       0.025179
 **** Fit       0.028522
 **** Fit       0.031599
 **** Fit       0.034366
 **** Fit       0.036839
 **** Fit       0.039085
 **** Fit       0.041233
 **** Fit       0.043488
 **** Fit       0.013546
 **** Fit       0.018181
 **** Fit       0.022575
 **** Fit       0.026462
 **** Fit       0.029818
 **** Fit       0.032684
 **** Fit       0.035111
 **** Fit       0.037164
 **** Fit       0.038934
 **** Fit       0.040551
 **** Fit       0.042209
 **** Fit       0.014678
 **** Fit       0.020047
 **** Fit       0.024403
 **** Fit       0.027960
 **** Fit       0.030877
 **** Fit       0.033249
 **** Fit       0.035143
 **** Fit       0.036623
 **** Fit       0.037770
 **** Fit       0.038687
 **** Fit       0.039505
 **** Fit       0.019991
 **** Fit       0.024185
 **** Fit       0.027486
 **** Fit       0.030105
 **** Fit       0.032140
 **** Fit       0.033643
 **** Fit       0.034657
 **** Fit       0.035231
 **** Fit       0.035419
 **** Fit       0.035269
 **** Fit       0.023566
 **** Fit       0.026508
 **** Fit       0.028766
 **** Fit       0.030394
 **** Fit       0.031404
 **** Fit       0.031808
 **** Fit       0.031611
 **** Fit       0.030806
 **** Fit       0.029337
 **** Fit       0.023313
 **** Fit       0.025428
 **** Fit       0.026877
 **** Fit       0.027596
 **** Fit       0.027533
 **** Fit       0.026636
 **** Fit       0.024811
 **** Fit       0.021877
 **** Fit       0.020262
 **** Fit       0.021563
 **** Fit       0.022030
 **** Fit       0.021516
 **** Fit       0.019889
 **** Fit       0.016965
 **** Fit       0.012317
 **** Fit       0.009268
 -----------------------------------------------------------------
 Leave Link  602 at Tue Sep 17 23:52:16 2019, MaxMem=  1342177280 cpu:             120.9 elap:               2.6

 Test job not archived.
 1\1\GINC-C479-002\SP\RB3LYP\SVP\C54H83Ca1N15O23\PENGZHI\17-Sep-2019\0\
 \#b3lyp/svp scf=(tight,noincore) Test #IOP(5/87=12) Density=Current Po
 p=(MK,readradii) iop(6/33=2) iop(6/42=6)\\Ng-293_loop3_8.0\\0,1\C,0,57
 .06,61.88,21.84\C,0,56.64,63.3,21.49\O,0,55.49,63.59,21.19\H,0,57.994,
 61.906,22.401\H,0,56.285,61.41,22.446\H,0,57.203,61.307,20.924\N,0,57.
 6,64.2,21.7\C,0,57.55,65.65,21.64\C,0,56.98,66.4,20.44\O,0,57.45,67.52
 ,20.22\C,0,56.88,66.11,22.93\C,0,57.32,65.3,24.15\O,0,58.54,65.31,24.4
 2\O,0,56.44,64.78,24.86\H,0,58.45,63.75,22.01\H,0,58.61,65.85,21.75\H,
 0,55.8,65.96,22.89\H,0,57.09,67.16,23.09\N,0,56.01,65.87,19.7\C,0,55.4
 4,66.47,18.51\C,0,54.65,67.77,18.64\O,0,54.33,68.41,17.64\C,0,54.73,65
 .43,17.65\C,0,53.24,65.3,17.94\C,0,52.95,64.77,19.35\C,0,51.48,65.1,19
 .59\N,0,51.12,65.06,21.02\H,0,55.68,64.95,19.98\H,0,56.35,66.79,17.99\
 H,0,55.23,64.47,17.73\H,0,54.73,65.65,16.59\H,0,52.94,64.52,17.25\H,0,
 52.64,66.19,17.74\H,0,53.54,65.17,20.17\H,0,53.04,63.69,19.46\H,0,51.0
 4,64.27,19.03\H,0,51.22,66.03,19.08\H,0,50.13,64.93,21.14\H,0,51.5,64.
 23,21.46\H,0,51.51,65.84,21.53\N,0,54.43,68.24,19.87\C,0,53.83,69.49,2
 0.27\C,0,54.39,69.68,21.67\O,0,54.23,68.81,22.53\C,0,52.31,69.34,20.25
 \C,0,51.49,70.48,20.83\O,0,50.44,70.09,21.38\O,0,51.87,71.67,20.93\H,0
 ,54.6,67.66,20.68\H,0,54.12,70.3,19.6\H,0,52.,68.41,20.72\H,0,52.04,69
 .21,19.2\N,0,54.69,70.93,22.05\C,0,54.97,71.31,23.42\C,0,53.75,71.34,2
 4.33\O,0,52.63,71.44,23.84\H,0,54.62,71.62,21.33\H,0,55.42,72.3,23.39\
 H,0,55.7,70.55,23.71\N,0,53.97,71.27,25.65\C,0,52.93,71.05,26.62\C,0,5
 3.,71.93,27.86\O,0,52.14,71.83,28.73\C,0,52.81,69.58,27.02\C,0,52.72,6
 8.65,25.83\N,0,51.68,68.76,25.\O,0,53.56,67.76,25.68\H,0,54.94,71.3,25
 .95\H,0,51.96,71.26,26.17\H,0,51.87,69.41,27.56\H,0,53.55,69.21,27.73\
 H,0,50.99,69.48,25.17\H,0,51.37,67.97,24.46\N,0,54.1,72.67,28.06\C,0,5
 4.51,73.4,29.25\C,0,54.57,72.63,30.56\O,0,55.04,71.5,30.62\H,0,54.86,7
 2.58,27.4\H,0,53.88,74.29,29.32\H,0,55.48,73.83,29.01\N,0,54.01,73.19,
 31.63\C,0,53.69,72.61,32.93\C,0,52.74,71.43,32.97\O,0,52.26,71.07,34.0
 4\C,0,54.99,72.3,33.65\C,0,55.89,73.51,33.82\C,0,55.53,74.6,34.62\C,0,
 57.16,73.62,33.25\C,0,56.38,75.69,34.8\C,0,57.96,74.77,33.25\C,0,57.59
 ,75.84,34.1\O,0,58.28,77.02,34.17\H,0,53.44,74.01,31.46\H,0,53.12,73.3
 7,33.46\H,0,55.49,71.52,33.07\H,0,54.73,72.02,34.67\H,0,54.64,74.6,35.
 23\H,0,57.43,72.83,32.56\H,0,55.99,76.48,35.44\H,0,58.9,74.87,32.75\H,
 0,58.92,76.93,33.47\N,0,52.47,70.76,31.85\C,0,51.48,69.74,31.54\C,0,50
 .06,70.19,31.84\O,0,49.28,70.04,30.9\C,0,51.81,68.38,32.16\C,0,53.28,6
 8.03,31.99\C,0,50.79,67.34,31.71\C,0,53.71,67.52,30.61\H,0,52.94,71.03
 ,31.\H,0,51.51,69.53,30.47\H,0,51.7,68.5,33.24\H,0,53.48,67.24,32.72\H
 ,0,53.94,68.87,32.18\H,0,50.71,67.3,30.62\H,0,51.14,66.34,31.95\H,0,49
 .84,67.59,32.19\H,0,53.09,66.64,30.44\H,0,53.53,68.26,29.84\H,0,54.77,
 67.27,30.65\N,0,49.74,70.75,33.01\C,0,48.49,71.4,33.34\C,0,47.31,70.45
 ,33.48\O,0,46.18,70.87,33.26\C,0,48.64,72.34,34.53\O,0,49.64,73.3,34.2
 5\H,0,50.53,70.82,33.64\H,0,48.22,72.06,32.51\H,0,48.88,71.78,35.43\H,
 0,47.79,73.,34.72\H,0,49.8,73.9,34.97\N,0,47.59,69.18,33.79\C,0,46.76,
 68.03,33.5\C,0,45.96,68.08,32.21\O,0,44.77,67.77,32.24\C,0,45.94,67.79
 ,34.77\H,0,48.55,68.99,34.01\H,0,47.45,67.18,33.47\H,0,45.38,66.87,34.
 66\H,0,46.58,67.59,35.63\H,0,45.24,68.6,34.96\N,0,46.54,68.53,31.1\C,0
 ,45.93,68.56,29.78\C,0,46.93,68.17,28.7\O,0,48.13,68.06,28.92\C,0,45.3
 9,69.98,29.63\H,0,47.42,69.02,31.16\H,0,45.1,67.85,29.76\H,0,46.14,70.
 71,29.32\H,0,44.49,70.05,29.02\H,0,45.,70.29,30.59\N,0,46.41,67.82,27.
 52\C,0,47.16,67.23,26.43\C,0,47.82,65.89,26.73\O,0,48.73,65.45,26.04\C
 ,0,48.14,68.19,25.75\C,0,47.47,69.53,25.49\C,0,48.39,70.43,24.67\O,0,4
 9.61,70.53,24.9\O,0,47.85,71.07,23.74\H,0,45.43,67.89,27.3\H,0,46.45,6
 7.1,25.62\H,0,48.46,67.79,24.79\H,0,48.94,68.34,26.48\H,0,47.26,70.03,
 26.44\H,0,46.59,69.43,24.87\N,0,47.35,65.19,27.77\C,0,47.81,63.84,28.0
 2\H,0,48.755,63.873,28.562\H,0,47.069,63.308,28.616\H,0,47.954,63.323,
 27.071\H,0,46.55,65.55,28.26\Ca,0,50.17,72.2,22.99\O,0,48.55,72.58,20.
 99\H,0,47.68,72.92,20.77\H,0,48.8,72.06,20.23\\Version=ES64L-G16RevA.0
 3\State=1-A\HF=-5333.4416548\RMSD=2.610e-09\Dipole=-6.6497339,4.775789
 8,-4.1084824\Quadrupole=-91.1914738,59.9779144,31.2135594,73.6870574,8
 4.5257694,38.4315513\PG=C01 [X(C54H83Ca1N15O23)]\\@


 THOUGH I SPEAK WITH THE TONGUES OF MEN AND OF ANGELS, 
 AND HAVE NOT LOVE,
 I AM BECOME AS SOUNDING BRASS, A TINKLING CYMBAL.
 AND THOUGH I HAVE THE GIFT OF PROPHECY,
 AND UNDERSTAND ALL MYSTERIES, AND ALL KNOWLEDGE.
 AND THOUGH I HAVE ALL FAITH, SO THAT I COULD REMOVE MOUNTAINS,
 AND HAVE NOT LOVE, I AM NOTHING.
 AND THOUGH I BESTOW ALL MY GOODS TO FEED THE POOR,
 AND THOUGH I GIVE MY BODY TO BE BURNED,
 AND HAVE NOT LOVE IT PROFITETH ME NOTHING.
 LOVE SUFFERETH LONG, AND IS KIND,
 LOVE ENVIETH NOT,
 LOVE VAUNTETH NOT ITSELF, IS NOT PUFFED UP,
 DOTH NOT BEHAVE ITSELF UNSEEMLY, SEEKETH NOT HER OWN,
 IS NOT EASILY PROVOKED, THINKETH NO EVIL,
 REJOICETH NOT IN INIQUITY, BUT REJOICETH IN THE TRUTH,
 BEARETH ALL THINGS, BELIEVETH ALL THINGS,
 HOPETH ALL THINGS, ENDURETH ALL THINGS.
 LOVE NEVER FAILETH, BUT WHETHER THERE BE PROPHECIES, THEY SHALL FAIL, 
 WHETHER THERE BE TONGUES, THEY SHALL CEASE,
 WHETHER THERE BE KNOWLEDGE, IT SHALL VANISH AWAY.
 FOR WE KNOW IN PART, AND WE PROPHESY IN PART.
 BUT WHEN THAT WHICH IS PERFECT IS COME, THEN THAT WHICH IS IN PART 
 SHALL BE DONE AWAY. 
 WHEN I WAS A CHILD, I SPAKE AS A CHILD, I UNDERSTOOD AS A CHILD, 
 I THOUGHT AS A CHILD.
 BUT WHEN I BECAME A MAN, I PUT AWAY CHILDISH THINGS.
 FOR NOW WE SEE THROUGH A GLASS, DARKLY, BUT THEN FACE TO FACE.
 NOW I KNOW IN PART. BUT THEN SHALL I KNOW EVEN AS ALSO I AM KNOWN.
 AND NOW ABIDETH FAITH, HOPE AND LOVE, THESE THREE.
 BUT THE GREATEST OF THESE IS LOVE.

                     I CORINTHIANS 13
 Job cpu time:       0 days 10 hours 21 minutes 23.4 seconds.
 Elapsed time:       0 days  0 hours 13 minutes  6.8 seconds.
 File lengths (MBytes):  RWF=   1517 Int=      0 D2E=      0 Chk=    171 Scr=      1
 Normal termination of Gaussian 16 at Tue Sep 17 23:52:18 2019.
