 Entering Gaussian System, Link 0=g16
 Initial command:
 /home1/apps/gaussian/16rA.03/g16/l1.exe "/scratch/01990/pengzhi/4361963/Gau-347581.inp" -scrdir="/scratch/01990/pengzhi/4361963/"
 Entering Link 1 = /home1/apps/gaussian/16rA.03/g16/l1.exe PID=    347582.
  
 Copyright (c) 1988,1990,1992,1993,1995,1998,2003,2009,2016,
            Gaussian, Inc.  All Rights Reserved.
  
 This is part of the Gaussian(R) 16 program.  It is based on
 the Gaussian(R) 09 system (copyright 2009, Gaussian, Inc.),
 the Gaussian(R) 03 system (copyright 2003, Gaussian, Inc.),
 the Gaussian(R) 98 system (copyright 1998, Gaussian, Inc.),
 the Gaussian(R) 94 system (copyright 1995, Gaussian, Inc.),
 the Gaussian 92(TM) system (copyright 1992, Gaussian, Inc.),
 the Gaussian 90(TM) system (copyright 1990, Gaussian, Inc.),
 the Gaussian 88(TM) system (copyright 1988, Gaussian, Inc.),
 the Gaussian 86(TM) system (copyright 1986, Carnegie Mellon
 University), and the Gaussian 82(TM) system (copyright 1983,
 Carnegie Mellon University). Gaussian is a federally registered
 trademark of Gaussian, Inc.
  
 This software contains proprietary and confidential information,
 including trade secrets, belonging to Gaussian, Inc.
  
 This software is provided under written license and may be
 used, copied, transmitted, or stored only in accord with that
 written license.
  
 The following legend is applicable only to US Government
 contracts under FAR:
  
                    RESTRICTED RIGHTS LEGEND
  
 Use, reproduction and disclosure by the US Government is
 subject to restrictions as set forth in subparagraphs (a)
 and (c) of the Commercial Computer Software - Restricted
 Rights clause in FAR 52.227-19.
  
 Gaussian, Inc.
 340 Quinnipiac St., Bldg. 40, Wallingford CT 06492
  
  
 ---------------------------------------------------------------
 Warning -- This program may not be used in any manner that
 competes with the business of Gaussian, Inc. or will provide
 assistance to any competitor of Gaussian, Inc.  The licensee
 of this program is prohibited from giving any competitor of
 Gaussian, Inc. access to this program.  By using this program,
 the user acknowledges that Gaussian, Inc. is engaged in the
 business of creating and licensing software in the field of
 computational chemistry and represents and warrants to the
 licensee that it is not a competitor of Gaussian, Inc. and that
 it will not use this program in any manner prohibited above.
 ---------------------------------------------------------------
  

 Cite this work as:
 Gaussian 16, Revision A.03,
 M. J. Frisch, G. W. Trucks, H. B. Schlegel, G. E. Scuseria, 
 M. A. Robb, J. R. Cheeseman, G. Scalmani, V. Barone, 
 G. A. Petersson, H. Nakatsuji, X. Li, M. Caricato, A. V. Marenich, 
 J. Bloino, B. G. Janesko, R. Gomperts, B. Mennucci, H. P. Hratchian, 
 J. V. Ortiz, A. F. Izmaylov, J. L. Sonnenberg, D. Williams-Young, 
 F. Ding, F. Lipparini, F. Egidi, J. Goings, B. Peng, A. Petrone, 
 T. Henderson, D. Ranasinghe, V. G. Zakrzewski, J. Gao, N. Rega, 
 G. Zheng, W. Liang, M. Hada, M. Ehara, K. Toyota, R. Fukuda, 
 J. Hasegawa, M. Ishida, T. Nakajima, Y. Honda, O. Kitao, H. Nakai, 
 T. Vreven, K. Throssell, J. A. Montgomery, Jr., J. E. Peralta, 
 F. Ogliaro, M. J. Bearpark, J. J. Heyd, E. N. Brothers, K. N. Kudin, 
 V. N. Staroverov, T. A. Keith, R. Kobayashi, J. Normand, 
 K. Raghavachari, A. P. Rendell, J. C. Burant, S. S. Iyengar, 
 J. Tomasi, M. Cossi, J. M. Millam, M. Klene, C. Adamo, R. Cammi, 
 J. W. Ochterski, R. L. Martin, K. Morokuma, O. Farkas, 
 J. B. Foresman, and D. J. Fox, Gaussian, Inc., Wallingford CT, 2016.
 
 ******************************************
 Gaussian 16:  ES64L-G16RevA.03 25-Dec-2016
                19-Sep-2019 
 ******************************************
 %chk=Ng-293_loop3_77.0.chk
 %nprocshared=48
 Will use up to   48 processors via shared memory.
 %mem=10GB
 %nosave
 ----------------------------------------------------------------------
 #b3lyp/svp scf=(tight,noincore,xqc) Test #IOP(5/87=12) Density=Current
  Pop=(MK,readradii) iop(6/33=2) iop(6/42=6)
 ----------------------------------------------------------------------
 1/30=1,38=1,172=1/1;
 2/12=2,17=6,18=5,40=1/2;
 3/5=18,7=101,11=2,25=1,30=1,74=-5/1,2,3;
 4//1;
 5/5=4,8=3,13=1,32=2,38=5,87=12/2,8;
 6/7=2,8=2,9=2,10=2,15=8,20=101,22=-1,28=1,33=2,42=6/1,2;
 99/5=1,9=1/99;
 -----------------
 Ng-293_loop3_77.0
 -----------------
 Symbolic Z-matrix:
 Charge =  0 Multiplicity = 1
 C                     40.77     86.54     76.76 
 C                     40.7      86.       75.34 
 O                     41.63     85.32     74.91 
 H                     41.036    87.597    76.734 
 H                     39.8      86.422    77.242 
 H                     41.525    85.99     77.322 
 N                     39.63     86.2      74.56 
 C                     39.38     85.64     73.25 
 C                     38.67     84.3      73.4 
 O                     37.95     84.06     74.36 
 C                     38.51     86.62     72.46 
 C                     38.09     86.3      71.04 
 O                     38.6      85.34     70.41 
 O                     37.26     87.04     70.46 
 H                     39.05     86.99     74.8 
 H                     40.33     85.48     72.75 
 H                     39.22     87.43     72.33 
 H                     37.77     87.02     73.15 
 N                     38.73     83.41     72.4 
 C                     37.9      82.24     72.19 
 C                     36.42     82.57     72.11 
 O                     35.89     83.56     72.61 
 C                     38.24     81.13     73.19 
 C                     39.73     80.82     73.17 
 C                     40.31     80.33     71.84 
 C                     41.81     80.13     71.93 
 N                     42.25     79.33     70.76 
 H                     39.33     83.58     71.61 
 H                     38.08     81.91     71.17 
 H                     37.62     80.26     72.96 
 H                     37.94     81.29     74.23 
 H                     39.85     79.94     73.8 
 H                     40.44     81.52     73.61 
 H                     40.05     80.95     70.98 
 H                     39.81     79.38     71.67 
 H                     42.02     79.6      72.86 
 H                     42.46     81.       71.86 
 H                     41.68     78.5      70.73 
 H                     42.26     79.93     69.95 
 H                     43.16     78.93     70.93 
 N                     35.67     81.76     71.36 
 C                     34.35     82.16     70.89 
 C                     33.2      82.06     71.88 
 O                     32.19     82.69     71.58 
 C                     34.04     81.37     69.62 
 C                     33.9      79.86     69.81 
 O                     33.98     79.22     70.88 
 O                     33.8      79.2      68.76 
 H                     36.2      81.03     70.92 
 H                     34.44     83.19     70.56 
 H                     34.91     81.53     68.98 
 H                     33.2      81.68     69.01 
 N                     33.3      81.31     72.98 
 C                     32.36     81.31     74.08 
 C                     30.96     80.83     73.76 
 O                     30.09     81.08     74.6 
 H                     34.17     80.87     73.23 
 H                     32.31     82.18     74.74 
 H                     32.83     80.6      74.76 
 N                     30.75     80.14     72.63 
 C                     29.4      79.75     72.28 
 C                     29.06     78.44     72.98 
 O                     29.83     77.5      73.11 
 C                     29.33     79.59     70.76 
 C                     27.94     79.36     70.18 
 N                     27.38     80.37     69.51 
 O                     27.31     78.32     70.31 
 H                     31.53     79.85     72.07 
 H                     28.67     80.51     72.56 
 H                     29.9      78.69     70.53 
 H                     29.8      80.42     70.25 
 H                     27.88     81.22     69.27 
 H                     26.61     80.14     68.89 
 N                     27.76     78.34     73.27 
 C                     27.21     77.1      73.78 
 C                     27.39     76.94     75.28 
 O                     28.07     77.71     75.95 
 H                     27.19     79.16     73.12 
 H                     27.56     76.23     73.24 
 H                     26.14     77.28     73.64 
 N                     26.77     75.93     75.9 
 C                     26.87     75.53     77.29 
 C                     28.23     75.34     77.94 
 O                     28.29     74.9      79.09 
 C                     26.07     76.61     78.01 
 C                     25.8      76.28     79.46 
 C                     26.2      77.1      80.53 
 C                     25.19     75.06     79.77 
 C                     25.92     76.74     81.85 
 C                     24.9      74.71     81.09 
 C                     25.39     75.47     82.17 
 O                     24.96     75.27     83.45 
 H                     26.1      75.32     75.45 
 H                     26.35     74.57     77.38 
 H                     25.1      76.81     77.56 
 H                     26.55     77.59     77.99 
 H                     26.77     77.99     80.32 
 H                     24.94     74.31     79.03 
 H                     26.23     77.38     82.66 
 H                     24.55     73.69     81.14 
 H                     24.23     74.65     83.5 
 N                     29.25     75.48     77.09 
 C                     30.67     75.2      77.16 
 C                     30.92     73.7      77.2 
 O                     31.69     73.21     76.37 
 C                     31.32     75.94     78.33 
 C                     31.16     77.45     78.41 
 C                     32.81     75.64     78.19 
 C                     31.47     78.24     77.14 
 H                     28.97     75.73     76.15 
 H                     31.07     75.59     76.23 
 H                     30.98     75.56     79.29 
 H                     31.85     77.76     79.21 
 H                     30.18     77.71     78.81 
 H                     33.42     76.29     78.81 
 H                     32.93     74.66     78.64 
 H                     33.16     75.62     77.15 
 H                     32.54     78.15     76.95 
 H                     30.89     77.82     76.33 
 H                     31.3      79.28     77.43 
 N                     30.37     72.98     78.18 
 C                     30.3      71.54     78.23 
 C                     31.63     70.82     78.42 
 O                     31.99     69.85     77.76 
 C                     29.45     71.14     79.43 
 O                     29.63     72.01     80.53 
 H                     29.78     73.41     78.88 
 H                     29.88     71.09     77.32 
 H                     29.64     70.07     79.57 
 H                     28.42     71.28     79.11 
 H                     28.75     72.07     80.91 
 N                     32.49     71.51     79.18 
 C                     33.87     71.19     79.46 
 C                     34.8      71.11     78.26 
 O                     35.77     70.35     78.27 
 C                     34.05     70.05     80.46 
 H                     32.1      72.31     79.65 
 H                     34.14     72.08     80.03 
 H                     33.83     69.06     80.08 
 H                     35.09     69.96     80.79 
 H                     33.41     70.26     81.32 
 N                     34.48     71.76     77.14 
 C                     35.29     71.75     75.94 
 C                     36.1      73.02     75.73 
 O                     35.78     74.09     76.25 
 C                     34.43     71.57     74.69 
 H                     33.63     72.31     77.08 
 H                     35.96     70.9      75.9 
 H                     35.02     71.53     73.77 
 H                     33.88     70.64     74.72 
 H                     33.76     72.42     74.63 
 N                     37.2      72.87     74.99 
 C                     38.22     73.88     74.83 
 C                     39.08     74.42     75.97 
 O                     39.93     75.3      75.87 
 C                     37.68     74.98     73.92 
 C                     37.17     74.51     72.56 
 C                     36.89     75.68     71.62 
 O                     35.79     76.24     71.78 
 O                     37.85     76.28     71.1 
 H                     37.42     71.91     74.74 
 H                     38.99     73.32     74.3 
 H                     38.51     75.67     73.75 
 H                     36.88     75.55     74.39 
 H                     36.22     74.       72.71 
 H                     37.89     73.83     72.09 
 N                     38.93     73.79     77.14 
 C                     39.51     74.26     78.38 
 H                     40.404    74.845    78.164 
 H                     38.787    74.883    78.907 
 H                     39.777    73.407    79.003 
 H                     38.1      73.23     77.25 
 Ca                    33.88     76.67     69.97 
 O                     31.52     76.35     68.84 
 H                     30.75     76.05     69.34 
 H                     31.28     76.2      67.93 
 
 Stoichiometry    C54H83CaN15O23
 Framework group  C1[X(C54H83CaN15O23)]
 Deg. of freedom   522
 Full point group                 C1      NOp   1
 Largest Abelian subgroup         C1      NOp   1
 Largest concise Abelian subgroup C1      NOp   1
                         Standard orientation:                         
 ---------------------------------------------------------------------
 Center     Atomic      Atomic             Coordinates (Angstroms)
 Number     Number       Type             X           Y           Z
 ---------------------------------------------------------------------
      1          6           0       -9.383034    0.917879    6.895426
      2          6           0       -9.633180    0.820337    5.398492
      3          8           0       -9.985531    1.824463    4.782229
      4          1           0      -10.230388    0.492652    7.433807
      5          1           0       -8.478361    0.366365    7.149488
      6          1           0       -9.262721    1.964070    7.177167
      7          7           0       -9.430543   -0.316829    4.720928
      8          6           0       -9.504812   -0.512591    3.289719
      9          6           0       -8.142052   -0.229561    2.669252
     10          8           0       -7.104880   -0.395664    3.297173
     11          6           0       -9.925708   -1.958362    3.017702
     12          6           0      -10.092987   -2.453894    1.595849
     13          8           0      -10.091998   -1.657907    0.623736
     14          8           0      -10.293770   -3.674101    1.386853
     15          1           0       -9.454375   -1.165767    5.265754
     16          1           0      -10.229388    0.182743    2.877895
     17          1           0      -10.944971   -1.924117    3.387876
     18          1           0       -9.400654   -2.585589    3.735062
     19          7           0       -8.065708    0.085795    1.369090
     20          6           0       -6.895308    0.084912    0.513484
     21          6           0       -6.201778   -1.264829    0.459488
     22          8           0       -6.267199   -2.126958    1.333246
     23          6           0       -5.962620    1.254335    0.845511
     24          6           0       -6.719853    2.574477    0.824903
     25          6           0       -7.373088    2.968892   -0.502922
     26          6           0       -8.156873    4.259947   -0.372703
     27          7           0       -8.454146    4.770376   -1.734170
     28          1           0       -8.906607    0.244434    0.839257
     29          1           0       -7.257421    0.157347   -0.508928
     30          1           0       -5.123576    1.232693    0.145699
     31          1           0       -5.408226    1.195105    1.786967
     32          1           0       -5.958519    3.345409    0.933229
     33          1           0       -7.414646    2.818795    1.628191
     34          1           0       -7.984519    2.185119   -0.953979
     35          1           0       -6.532725    3.101689   -1.179350
     36          1           0       -7.539255    4.970207    0.178640
     37          1           0       -9.149153    4.228132    0.073020
     38          1           0       -7.582541    4.814493   -2.237220
     39          1           0       -9.201635    4.218183   -2.124739
     40          1           0       -8.702108    5.747168   -1.696861
     41          7           0       -5.550913   -1.554043   -0.669153
     42          6           0       -5.177432   -2.921718   -1.005720
     43          6           0       -3.942790   -3.492393   -0.325582
     44          8           0       -3.834822   -4.714480   -0.368538
     45          6           0       -5.050611   -3.017825   -2.524858
     46          6           0       -3.923760   -2.187348   -3.138302
     47          8           0       -3.091707   -1.476307   -2.535798
     48          8           0       -3.913604   -2.142909   -4.381693
     49          1           0       -5.622763   -0.829765   -1.360282
     50          1           0       -6.032262   -3.543495   -0.759629
     51          1           0       -5.989137   -2.608008   -2.903435
     52          1           0       -4.987057   -4.000071   -2.977575
     53          7           0       -3.040551   -2.693577    0.249186
     54          6           0       -1.952855   -3.134073    1.095638
     55          6           0       -0.906102   -4.006533    0.435395
     56          8           0       -0.136891   -4.606869    1.192303
     57          1           0       -3.202129   -1.703509    0.330783
     58          1           0       -2.175036   -3.516639    2.095277
     59          1           0       -1.498194   -2.182123    1.368538
     60          7           0       -0.843116   -4.049170   -0.903005
     61          6           0        0.101728   -4.943944   -1.538418
     62          6           0        1.457233   -4.254656   -1.634288
     63          8           0        1.620927   -3.077354   -1.918124
     64          6           0       -0.433026   -5.290799   -2.929328
     65          6           0        0.333254   -6.369113   -3.685274
     66          7           0       -0.249282   -7.564237   -3.807461
     67          8           0        1.447016   -6.206534   -4.163293
     68          1           0       -1.404779   -3.422925   -1.449313
     69          1           0        0.209759   -5.880048   -0.989840
     70          1           0       -0.328949   -4.382189   -3.522114
     71          1           0       -1.482891   -5.549238   -2.899447
     72          1           0       -1.209970   -7.742633   -3.532957
     73          1           0        0.106311   -8.177283   -4.534048
     74          7           0        2.473702   -5.118778   -1.569608
     75          6           0        3.833051   -4.680192   -1.814587
     76          6           0        4.491159   -4.065593   -0.591001
     77          8           0        3.874096   -3.826890    0.441692
     78          1           0        2.250099   -6.077121   -1.342936
     79          1           0        3.918864   -4.036978   -2.680561
     80          1           0        4.334670   -5.642455   -1.953616
     81          7           0        5.798891   -3.788126   -0.632813
     82          6           0        6.609958   -3.121550    0.367161
     83          6           0        6.159117   -1.801015    0.968102
     84          8           0        6.913390   -1.202725    1.738050
     85          6           0        6.757215   -4.187674    1.447205
     86          6           0        7.785349   -3.830780    2.495951
     87          6           0        7.493087   -3.734301    3.868021
     88          6           0        9.080599   -3.500963    2.083459
     89          6           0        8.488327   -3.400540    4.789162
     90          6           0       10.075861   -3.180761    3.008620
     91          6           0        9.768929   -2.977374    4.368225
     92          8           0       10.740306   -2.863082    5.320414
     93          1           0        6.407058   -4.057329   -1.395153
     94          1           0        7.585636   -2.931932   -0.093487
     95          1           0        7.044153   -5.164041    1.062793
     96          1           0        5.825574   -4.401906    1.973844
     97          1           0        6.476225   -3.874930    4.195611
     98          1           0        9.381298   -3.439532    1.044996
     99          1           0        8.250370   -3.333326    5.838285
    100          1           0       10.963816   -2.835629    2.500859
    101          1           0       11.616513   -3.044968    4.975483
    102          7           0        5.044225   -1.317912    0.414813
    103          6           0        4.352672   -0.046183    0.479307
    104          6           0        5.159019    1.039254   -0.217638
    105          8           0        4.609129    1.706815   -1.097344
    106          6           0        3.997268    0.314624    1.922396
    107          6           0        3.181282   -0.677098    2.736494
    108          6           0        3.180031    1.598290    1.803967
    109          6           0        1.917983   -1.228385    2.078271
    110          1           0        4.643222   -1.919477   -0.293576
    111          1           0        3.436970   -0.206186   -0.080058
    112          1           0        4.882068    0.522396    2.518684
    113          1           0        2.906412   -0.126645    3.649537
    114          1           0        3.816999   -1.479828    3.109976
    115          1           0        2.660690    1.841249    2.726060
    116          1           0        3.923949    2.382245    1.707531
    117          1           0        2.505589    1.613402    0.938287
    118          1           0        1.211901   -0.403244    1.979829
    119          1           0        2.188125   -1.632239    1.112443
    120          1           0        1.498968   -1.897415    2.834199
    121          7           0        6.400425    1.291344    0.202673
    122          6           0        7.376104    2.098589   -0.488275
    123          6           0        7.072998    3.591051   -0.552177
    124          8           0        7.161906    4.270250   -1.570451
    125          6           0        8.704014    1.988206    0.251299
    126          8           0        8.532991    1.894167    1.651731
    127          1           0        6.815987    0.764027    0.959141
    128          1           0        7.519074    1.809617   -1.538539
    129          1           0        9.321691    2.799841   -0.149104
    130          1           0        9.125003    1.034300   -0.058108
    131          1           0        9.222650    1.280830    1.917414
    132          7           0        6.432665    4.037852    0.535777
    133          6           0        5.885663    5.355991    0.755999
    134          6           0        4.810057    5.810451   -0.217571
    135          8           0        4.679733    7.004520   -0.492914
    136          6           0        6.938652    6.420385    1.056463
    137          1           0        6.385059    3.387352    1.302317
    138          1           0        5.407858    5.184105    1.721430
    139          1           0        7.532915    6.737943    0.208578
    140          1           0        6.484242    7.355057    1.400700
    141          1           0        7.596348    6.025087    1.833944
    142          7           0        4.101369    4.896726   -0.882528
    143          6           0        3.057601    5.217930   -1.833094
    144          6           0        1.648827    5.037526   -1.289118
    145          8           0        1.408815    4.294417   -0.336289
    146          6           0        3.156768    4.345841   -3.083745
    147          1           0        4.265853    3.905631   -0.743692
    148          1           0        3.151775    6.222204   -2.227511
    149          1           0        2.396595    4.587369   -3.832010
    150          1           0        4.105670    4.479490   -3.583767
    151          1           0        3.017850    3.316079   -2.775051
    152          7           0        0.715525    5.780831   -1.886232
    153          6           0       -0.639801    5.927358   -1.409031
    154          6           0       -1.015426    6.559365   -0.071020
    155          8           0       -2.154147    6.667388    0.374564
    156          6           0       -1.399202    4.633388   -1.689486
    157          6           0       -1.387934    4.172483   -3.144834
    158          6           0       -2.369661    3.029024   -3.388993
    159          8           0       -1.954670    1.896393   -3.082185
    160          8           0       -3.589250    3.279278   -3.433439
    161          1           0        1.070263    6.451278   -2.562369
    162          1           0       -1.011276    6.712614   -2.066890
    163          1           0       -2.436640    4.820145   -1.401834
    164          1           0       -1.041879    3.803943   -1.081094
    165          1           0       -0.397040    3.782581   -3.371122
    166          1           0       -1.625139    5.005370   -3.816945
    167          7           0        0.000769    7.113622    0.598641
    168          6           0       -0.108537    7.597623    1.958308
    169          1           0       -1.140826    7.883582    2.160114
    170          1           0        0.192052    6.810537    2.650210
    171          1           0        0.539492    8.463598    2.089348
    172          1           0        0.929303    6.835000    0.325153
    173         20           0       -1.825902   -0.282947   -4.612870
    174          8           0       -0.634373   -2.192302   -5.985285
    175          1           0        0.266529   -2.478652   -5.787098
    176          1           0       -0.794806   -2.519940   -6.865691
 ---------------------------------------------------------------------
 Rotational constants (GHZ):           0.0181589           0.0092935           0.0078212
 Standard basis: SVP (5D, 7F)
 There are  1809 symmetry adapted cartesian basis functions of A   symmetry.
 There are  1717 symmetry adapted basis functions of A   symmetry.
  1717 basis functions,  2922 primitive gaussians,  1809 cartesian basis functions
   358 alpha electrons      358 beta electrons
       nuclear repulsion energy     18974.9926478211 Hartrees.
 NAtoms=  176 NActive=  176 NUniq=  176 SFac= 1.00D+00 NAtFMM=   60 NAOKFM=T Big=T
 Integral buffers will be    131072 words long.
 Raffenetti 2 integral format.
 Two-electron integral symmetry is turned on.
 One-electron integrals computed using PRISM.
 NBasis=  1717 RedAO= T EigKep=  3.81D-04  NBF=  1717
 NBsUse=  1717 1.00D-06 EigRej= -1.00D+00 NBFU=  1717
 ExpMin= 1.98D-02 ExpMax= 3.51D+04 ExpMxC= 5.28D+03 IAcc=3 IRadAn=         5 AccDes= 0.00D+00
 Harris functional with IExCor=  402 and IRadAn=       5 diagonalized for initial guess.
 HarFok:  IExCor=  402 AccDes= 0.00D+00 IRadAn=         5 IDoV= 1 UseB2=F ITyADJ=14
 ICtDFT=  3500011 ScaDFX=  1.000000  1.000000  1.000000  1.000000
 FoFCou: FMM=F IPFlag=           0 FMFlag=      100000 FMFlg1=        2001
         NFxFlg=           0 DoJE=T BraDBF=F KetDBF=T FulRan=T
         wScrn=  0.000000 ICntrl=       500 IOpCl=  0 I1Cent=   200000004 NGrid=           0
         NMat0=    1 NMatS0=      1 NMatT0=    0 NMatD0=    1 NMtDS0=    0 NMtDT0=    0
 Petite list used in FoFCou.
 Requested convergence on RMS density matrix=1.00D-08 within  32 cycles.
 Requested convergence on MAX density matrix=1.00D-06.
 Requested convergence on             energy=1.00D-06.
 No special actions if energy rises.
 EnCoef did     3 forward-backward iterations
 EnCoef did     9 forward-backward iterations
 EnCoef did    16 forward-backward iterations
 EnCoef did   100 forward-backward iterations
 Rare condition: small coef for last iteration:  0.000D+00
 EnCoef did    24 forward-backward iterations
 Rare condition: small coef for last iteration:  0.000D+00
 EnCoef did    47 forward-backward iterations
 Rare condition: small coef for last iteration: -0.444D-15
 EnCoef did   100 forward-backward iterations
 Restarting incremental Fock formation.
 EnCoef did    53 forward-backward iterations
 Rare condition: small coef for last iteration:  0.964D-15
 EnCoef did   100 forward-backward iterations
 Rare condition: small coef for last iteration:  0.000D+00
 EnCoef did   100 forward-backward iterations
 Rare condition: small coef for last iteration:  0.000D+00
 EnCoef did   100 forward-backward iterations
 Rare condition: small coef for last iteration:  0.000D+00
 EnCoef did   100 forward-backward iterations
 EnCoef did    11 forward-backward iterations
 Rare condition: small coef for last iteration:  0.884D-15
 Rare condition: small coef for last iteration:  0.000D+00
 EnCoef did   100 forward-backward iterations
 EnCoef did   100 forward-backward iterations
 Rare condition: small coef for last iteration:  0.265D-15
 EnCoef did   100 forward-backward iterations
 EnCoef did   100 forward-backward iterations
 Rare condition: small coef for last iteration:  0.105D-14
 >>>>>>>>>> Convergence criterion not met.
 SCF Done:  E(RB3LYP) =  -5333.29059326     A.U. after   33 cycles
            NFock= 32  Conv=0.31D-05     -V/T= 2.0082
 Gradient too large for Newton-Raphson -- use scaled steepest descent instead.
     Accept linear search using points  1 and  2.
 Gradient too large for Newton-Raphson -- use scaled steepest descent instead.
     Minimum is close to point  2 DX= -3.77D-03 DF= -7.42D-07 DXR=  1.27D-02 DFR=  1.62D-04 which will be used.
 Gradient too large for Newton-Raphson -- use scaled steepest descent instead.
 Gradient too large for Newton-Raphson -- use scaled steepest descent instead.
 Gradient too large for Newton-Raphson -- use scaled steepest descent instead.
     Minimum is close to point  2 DX=  2.64D-02 DF= -3.59D-07 DXR=  6.18D-02 DFR=  3.84D-03 which will be used.
 LinEq1:  Iter=  0 NonCon=     1 RMS=1.66D-04 Max=1.15D-01 NDo=     1
 AX will form     1 AO Fock derivatives at one time.
 LinEq1:  Iter=  1 NonCon=     1 RMS=1.51D-04 Max=1.78D-02 NDo=     1
 LinEq1:  Iter=  2 NonCon=     1 RMS=2.52D-04 Max=1.45D-01 NDo=     1
 LinEq1:  Iter=  3 NonCon=     1 RMS=9.46D-05 Max=1.43D-02 NDo=     1
 LinEq1:  Iter=  4 NonCon=     1 RMS=5.28D-05 Max=6.48D-03 NDo=     1
 LinEq1:  Iter=  5 NonCon=     1 RMS=4.55D-05 Max=7.81D-03 NDo=     1
 LinEq1:  Iter=  6 NonCon=     1 RMS=2.30D-05 Max=3.60D-03 NDo=     1
 LinEq1:  Iter=  7 NonCon=     1 RMS=1.61D-05 Max=2.89D-03 NDo=     1
 LinEq1:  Iter=  8 NonCon=     1 RMS=1.29D-05 Max=2.78D-03 NDo=     1
 LinEq1:  Iter=  9 NonCon=     1 RMS=9.42D-06 Max=2.93D-03 NDo=     1
 LinEq1:  Iter= 10 NonCon=     1 RMS=6.11D-06 Max=1.95D-03 NDo=     1
 LinEq1:  Iter= 11 NonCon=     1 RMS=3.71D-06 Max=9.70D-04 NDo=     1
 LinEq1:  Iter= 12 NonCon=     1 RMS=3.42D-06 Max=7.42D-04 NDo=     1
 LinEq1:  Iter= 13 NonCon=     1 RMS=2.06D-06 Max=4.06D-04 NDo=     1
 LinEq1:  Iter= 14 NonCon=     1 RMS=1.24D-06 Max=1.71D-04 NDo=     1
 LinEq1:  Iter= 15 NonCon=     1 RMS=9.30D-07 Max=1.10D-04 NDo=     1
 LinEq1:  Iter= 16 NonCon=     1 RMS=6.91D-07 Max=7.19D-05 NDo=     1
 LinEq1:  Iter= 17 NonCon=     1 RMS=3.93D-07 Max=6.47D-05 NDo=     1
 LinEq1:  Iter= 18 NonCon=     1 RMS=2.68D-07 Max=4.54D-05 NDo=     1
 LinEq1:  Iter= 19 NonCon=     1 RMS=1.94D-07 Max=2.25D-05 NDo=     1
 LinEq1:  Iter= 20 NonCon=     1 RMS=1.29D-07 Max=2.18D-05 NDo=     1
 LinEq1:  Iter= 21 NonCon=     1 RMS=8.49D-08 Max=1.70D-05 NDo=     1
 LinEq1:  Iter= 22 NonCon=     1 RMS=5.96D-08 Max=1.45D-05 NDo=     1
 LinEq1:  Iter= 23 NonCon=     1 RMS=3.87D-08 Max=1.06D-05 NDo=     1
 LinEq1:  Iter= 24 NonCon=     1 RMS=2.97D-08 Max=8.85D-06 NDo=     1
 LinEq1:  Iter= 25 NonCon=     1 RMS=1.91D-08 Max=4.97D-06 NDo=     1
 LinEq1:  Iter= 26 NonCon=     1 RMS=1.37D-08 Max=2.87D-06 NDo=     1
 LinEq1:  Iter= 27 NonCon=     1 RMS=1.01D-08 Max=1.61D-06 NDo=     1
 LinEq1:  Iter= 28 NonCon=     1 RMS=6.69D-09 Max=7.30D-07 NDo=     1
 LinEq1:  Iter= 29 NonCon=     1 RMS=3.81D-09 Max=5.36D-07 NDo=     1
 LinEq1:  Iter= 30 NonCon=     0 RMS=2.69D-09 Max=4.66D-07 NDo=     1
 Linear equations converged to 5.334D-08 5.334D-07 after    30 iterations.
     Minimum is close to point  2 DX=  6.06D-02 DF= -2.89D-07 DXR=  5.71D-02 DFR=  3.27D-03 which will be used.
 LinEq1:  Iter=  0 NonCon=     1 RMS=2.13D-05 Max=1.49D-02 NDo=     1
 LinEq1:  Iter=  1 NonCon=     1 RMS=6.86D-06 Max=9.57D-04 NDo=     1
 LinEq1:  Iter=  2 NonCon=     1 RMS=1.01D-05 Max=5.86D-03 NDo=     1
 LinEq1:  Iter=  3 NonCon=     1 RMS=6.15D-06 Max=9.36D-04 NDo=     1
 LinEq1:  Iter=  4 NonCon=     1 RMS=4.88D-06 Max=1.04D-03 NDo=     1
 LinEq1:  Iter=  5 NonCon=     1 RMS=3.40D-06 Max=1.12D-03 NDo=     1
 LinEq1:  Iter=  6 NonCon=     1 RMS=3.13D-06 Max=7.42D-04 NDo=     1
 LinEq1:  Iter=  7 NonCon=     1 RMS=1.72D-06 Max=4.11D-04 NDo=     1
 LinEq1:  Iter=  8 NonCon=     1 RMS=1.14D-06 Max=2.28D-04 NDo=     1
 LinEq1:  Iter=  9 NonCon=     1 RMS=9.81D-07 Max=1.71D-04 NDo=     1
 LinEq1:  Iter= 10 NonCon=     1 RMS=7.32D-07 Max=1.30D-04 NDo=     1
 LinEq1:  Iter= 11 NonCon=     1 RMS=3.95D-07 Max=7.63D-05 NDo=     1
 LinEq1:  Iter= 12 NonCon=     1 RMS=2.86D-07 Max=6.80D-05 NDo=     1
 LinEq1:  Iter= 13 NonCon=     1 RMS=2.23D-07 Max=5.86D-05 NDo=     1
 LinEq1:  Iter= 14 NonCon=     1 RMS=1.77D-07 Max=4.70D-05 NDo=     1
 LinEq1:  Iter= 15 NonCon=     1 RMS=1.14D-07 Max=2.61D-05 NDo=     1
 LinEq1:  Iter= 16 NonCon=     1 RMS=8.14D-08 Max=1.45D-05 NDo=     1
 LinEq1:  Iter= 17 NonCon=     1 RMS=5.65D-08 Max=6.41D-06 NDo=     1
 LinEq1:  Iter= 18 NonCon=     1 RMS=4.42D-08 Max=4.28D-06 NDo=     1
 LinEq1:  Iter= 19 NonCon=     1 RMS=2.45D-08 Max=1.80D-06 NDo=     1
 LinEq1:  Iter= 20 NonCon=     1 RMS=1.39D-08 Max=1.13D-06 NDo=     1
 LinEq1:  Iter= 21 NonCon=     1 RMS=1.12D-08 Max=1.09D-06 NDo=     1
 LinEq1:  Iter= 22 NonCon=     1 RMS=6.78D-09 Max=6.92D-07 NDo=     1
 LinEq1:  Iter= 23 NonCon=     1 RMS=4.09D-09 Max=5.35D-07 NDo=     1
 LinEq1:  Iter= 24 NonCon=     1 RMS=2.66D-09 Max=3.54D-07 NDo=     1
 LinEq1:  Iter= 25 NonCon=     1 RMS=1.94D-09 Max=2.67D-07 NDo=     1
 LinEq1:  Iter= 26 NonCon=     1 RMS=1.20D-09 Max=1.67D-07 NDo=     1
 LinEq1:  Iter= 27 NonCon=     1 RMS=7.55D-10 Max=8.97D-08 NDo=     1
 LinEq1:  Iter= 28 NonCon=     1 RMS=5.43D-10 Max=6.57D-08 NDo=     1
 LinEq1:  Iter= 29 NonCon=     1 RMS=3.76D-10 Max=3.62D-08 NDo=     1
 LinEq1:  Iter= 30 NonCon=     0 RMS=1.99D-10 Max=2.50D-08 NDo=     1
 Linear equations converged to 2.921D-09 2.921D-08 after    30 iterations.
 SCF Done:  E(RB3LYP) =  -5333.31952843     a.u. after    8 cycles
            Convg  =    0.1650D-05                    76 Fock formations.
              S**2 =  0.0000                  -V/T =  2.0081
 SCF density gives NOpUse=  1 NOpAll=  1.
 Hyperfine terms turned off by default for NAtoms > 100.

 **********************************************************************

            Population analysis using the SCF density.

 **********************************************************************

 Orbital symmetries:
 BldTbl:  Degeneracy threshold= 1.00D-02
       Occupied  (A) (A) (A) (A) (A) (A) (A) (A) (A) (A) (A) (A)
                 (A) (A) (A) (A) (A) (A) (A) (A) (A) (A) (A) (A)
                 (A) (A) (A) (A) (A) (A) (A) (A) (A) (A) (A) (A)
                 (A) (A) (A) (A) (A) (A) (A) (A) (A) (A) (A) (A)
                 (A) (A) (A) (A) (A) (A) (A) (A) (A) (A) (A) (A)
                 (A) (A) (A) (A) (A) (A) (A) (A) (A) (A) (A) (A)
                 (A) (A) (A) (A) (A) (A) (A) (A) (A) (A) (A) (A)
                 (A) (A) (A) (A) (A) (A) (A) (A) (A) (A) (A) (A)
                 (A) (A) (A) (A) (A) (A) (A) (A) (A) (A) (A) (A)
                 (A) (A) (A) (A) (A) (A) (A) (A) (A) (A) (A) (A)
                 (A) (A) (A) (A) (A) (A) (A) (A) (A) (A) (A) (A)
                 (A) (A) (A) (A) (A) (A) (A) (A) (A) (A) (A) (A)
                 (A) (A) (A) (A) (A) (A) (A) (A) (A) (A) (A) (A)
                 (A) (A) (A) (A) (A) (A) (A) (A) (A) (A) (A) (A)
                 (A) (A) (A) (A) (A) (A) (A) (A) (A) (A) (A) (A)
                 (A) (A) (A) (A) (A) (A) (A) (A) (A) (A) (A) (A)
                 (A) (A) (A) (A) (A) (A) (A) (A) (A) (A) (A) (A)
                 (A) (A) (A) (A) (A) (A) (A) (A) (A) (A) (A) (A)
                 (A) (A) (A) (A) (A) (A) (A) (A) (A) (A) (A) (A)
                 (A) (A) (A) (A) (A) (A) (A) (A) (A) (A) (A) (A)
                 (A) (A) (A) (A) (A) (A) (A) (A) (A) (A) (A) (A)
                 (A) (A) (A) (A) (A) (A) (A) (A) (A) (A) (A) (A)
                 (A) (A) (A) (A) (A) (A) (A) (A) (A) (A) (A) (A)
                 (A) (A) (A) (A) (A) (A) (A) (A) (A) (A) (A) (A)
                 (A) (A) (A) (A) (A) (A) (A) (A) (A) (A) (A) (A)
                 (A) (A) (A) (A) (A) (A) (A) (A) (A) (A) (A) (A)
                 (A) (A) (A) (A) (A) (A) (A) (A) (A) (A) (A) (A)
                 (A) (A) (A) (A) (A) (A) (A) (A) (A) (A) (A) (A)
                 (A) (A) (A) (A) (A) (A) (A) (A) (A) (A) (A) (A)
                 (A) (A) (A) (A) (A) (A) (A) (A) (A) (A)
       Virtual   (A) (A) (A) (A) (A) (A) (A) (A) (A) (A) (A) (A)
                 (A) (A) (A) (A) (A) (A) (A) (A) (A) (A) (A) (A)
                 (A) (A) (A) (A) (A) (A) (A) (A) (A) (A) (A) (A)
                 (A) (A) (A) (A) (A) (A) (A) (A) (A) (A) (A) (A)
                 (A) (A) (A) (A) (A) (A) (A) (A) (A) (A) (A) (A)
                 (A) (A) (A) (A) (A) (A) (A) (A) (A) (A) (A) (A)
                 (A) (A) (A) (A) (A) (A) (A) (A) (A) (A) (A) (A)
                 (A) (A) (A) (A) (A) (A) (A) (A) (A) (A) (A) (A)
                 (A) (A) (A) (A) (A) (A) (A) (A) (A) (A) (A) (A)
                 (A) (A) (A) (A) (A) (A) (A) (A) (A) (A) (A) (A)
                 (A) (A) (A) (A) (A) (A) (A) (A) (A) (A) (A) (A)
                 (A) (A) (A) (A) (A) (A) (A) (A) (A) (A) (A) (A)
                 (A) (A) (A) (A) (A) (A) (A) (A) (A) (A) (A) (A)
                 (A) (A) (A) (A) (A) (A) (A) (A) (A) (A) (A) (A)
                 (A) (A) (A) (A) (A) (A) (A) (A) (A) (A) (A) (A)
                 (A) (A) (A) (A) (A) (A) (A) (A) (A) (A) (A) (A)
                 (A) (A) (A) (A) (A) (A) (A) (A) (A) (A) (A) (A)
                 (A) (A) (A) (A) (A) (A) (A) (A) (A) (A) (A) (A)
                 (A) (A) (A) (A) (A) (A) (A) (A) (A) (A) (A) (A)
                 (A) (A) (A) (A) (A) (A) (A) (A) (A) (A) (A) (A)
                 (A) (A) (A) (A) (A) (A) (A) (A) (A) (A) (A) (A)
                 (A) (A) (A) (A) (A) (A) (A) (A) (A) (A) (A) (A)
                 (A) (A) (A) (A) (A) (A) (A) (A) (A) (A) (A) (A)
                 (A) (A) (A) (A) (A) (A) (A) (A) (A) (A) (A) (A)
                 (A) (A) (A) (A) (A) (A) (A) (A) (A) (A) (A) (A)
                 (A) (A) (A) (A) (A) (A) (A) (A) (A) (A) (A) (A)
                 (A) (A) (A) (A) (A) (A) (A) (A) (A) (A) (A) (A)
                 (A) (A) (A) (A) (A) (A) (A) (A) (A) (A) (A) (A)
                 (A) (A) (A) (A) (A) (A) (A) (A) (A) (A) (A) (A)
                 (A) (A) (A) (A) (A) (A) (A) (A) (A) (A) (A) (A)
                 (A) (A) (A) (A) (A) (A) (A) (A) (A) (A) (A) (A)
                 (A) (A) (A) (A) (A) (A) (A) (A) (A) (A) (A) (A)
                 (A) (A) (A) (A) (A) (A) (A) (A) (A) (A) (A) (A)
                 (A) (A) (A) (A) (A) (A) (A) (A) (A) (A) (A) (A)
                 (A) (A) (A) (A) (A) (A) (A) (A) (A) (A) (A) (A)
                 (A) (A) (A) (A) (A) (A) (A) (A) (A) (A) (A) (A)
                 (A) (A) (A) (A) (A) (A) (A) (A) (A) (A) (A) (A)
                 (A) (A) (A) (A) (A) (A) (A) (A) (A) (A) (A) (A)
                 (A) (A) (A) (A) (A) (A) (A) (A) (A) (A) (A) (A)
                 (A) (A) (A) (A) (A) (A) (A) (A) (A) (A) (A) (A)
                 (A) (A) (A) (A) (A) (A) (A) (A) (A) (A) (A) (A)
                 (A) (A) (A) (A) (A) (A) (A) (A) (A) (A) (A) (A)
                 (A) (A) (A) (A) (A) (A) (A) (A) (A) (A) (A) (A)
                 (A) (A) (A) (A) (A) (A) (A) (A) (A) (A) (A) (A)
                 (A) (A) (A) (A) (A) (A) (A) (A) (A) (A) (A) (A)
                 (A) (A) (A) (A) (A) (A) (A) (A) (A) (A) (A) (A)
                 (A) (A) (A) (A) (A) (A) (A) (A) (A) (A) (A) (A)
                 (A) (A) (A) (A) (A) (A) (A) (A) (A) (A) (A) (A)
                 (A) (A) (A) (A) (A) (A) (A) (A) (A) (A) (A) (A)
                 (A) (A) (A) (A) (A) (A) (A) (A) (A) (A) (A) (A)
                 (A) (A) (A) (A) (A) (A) (A) (A) (A) (A) (A) (A)
                 (A) (A) (A) (A) (A) (A) (A) (A) (A) (A) (A) (A)
                 (A) (A) (A) (A) (A) (A) (A) (A) (A) (A) (A) (A)
                 (A) (A) (A) (A) (A) (A) (A) (A) (A) (A) (A) (A)
                 (A) (A) (A) (A) (A) (A) (A) (A) (A) (A) (A) (A)
                 (A) (A) (A) (A) (A) (A) (A) (A) (A) (A) (A) (A)
                 (A) (A) (A) (A) (A) (A) (A) (A) (A) (A) (A) (A)
                 (A) (A) (A) (A) (A) (A) (A) (A) (A) (A) (A) (A)
                 (A) (A) (A) (A) (A) (A) (A) (A) (A) (A) (A) (A)
                 (A) (A) (A) (A) (A) (A) (A) (A) (A) (A) (A) (A)
                 (A) (A) (A) (A) (A) (A) (A) (A) (A) (A) (A) (A)
                 (A) (A) (A) (A) (A) (A) (A) (A) (A) (A) (A) (A)
                 (A) (A) (A) (A) (A) (A) (A) (A) (A) (A) (A) (A)
                 (A) (A) (A) (A) (A) (A) (A) (A) (A) (A) (A) (A)
                 (A) (A) (A) (A) (A) (A) (A) (A) (A) (A) (A) (A)
                 (A) (A) (A) (A) (A) (A) (A) (A) (A) (A) (A) (A)
                 (A) (A) (A) (A) (A) (A) (A) (A) (A) (A) (A) (A)
                 (A) (A) (A) (A) (A) (A) (A) (A) (A) (A) (A) (A)
                 (A) (A) (A) (A) (A) (A) (A) (A) (A) (A) (A) (A)
                 (A) (A) (A) (A) (A) (A) (A) (A) (A) (A) (A) (A)
                 (A) (A) (A) (A) (A) (A) (A) (A) (A) (A) (A) (A)
                 (A) (A) (A) (A) (A) (A) (A) (A) (A) (A) (A) (A)
                 (A) (A) (A) (A) (A) (A) (A) (A) (A) (A) (A) (A)
                 (A) (A) (A) (A) (A) (A) (A) (A) (A) (A) (A) (A)
                 (A) (A) (A) (A) (A) (A) (A) (A) (A) (A) (A) (A)
                 (A) (A) (A) (A) (A) (A) (A) (A) (A) (A) (A) (A)
                 (A) (A) (A) (A) (A) (A) (A) (A) (A) (A) (A) (A)
                 (A) (A) (A) (A) (A) (A) (A) (A) (A) (A) (A) (A)
                 (A) (A) (A) (A) (A) (A) (A) (A) (A) (A) (A) (A)
                 (A) (A) (A) (A) (A) (A) (A) (A) (A) (A) (A) (A)
                 (A) (A) (A) (A) (A) (A) (A) (A) (A) (A) (A) (A)
                 (A) (A) (A) (A) (A) (A) (A) (A) (A) (A) (A) (A)
                 (A) (A) (A) (A) (A) (A) (A) (A) (A) (A) (A) (A)
                 (A) (A) (A) (A) (A) (A) (A) (A) (A) (A) (A) (A)
                 (A) (A) (A) (A) (A) (A) (A) (A) (A) (A) (A) (A)
                 (A) (A) (A) (A) (A) (A) (A) (A) (A) (A) (A) (A)
                 (A) (A) (A) (A) (A) (A) (A) (A) (A) (A) (A) (A)
                 (A) (A) (A) (A) (A) (A) (A) (A) (A) (A) (A) (A)
                 (A) (A) (A) (A) (A) (A) (A) (A) (A) (A) (A) (A)
                 (A) (A) (A) (A) (A) (A) (A) (A) (A) (A) (A) (A)
                 (A) (A) (A) (A) (A) (A) (A) (A) (A) (A) (A) (A)
                 (A) (A) (A) (A) (A) (A) (A) (A) (A) (A) (A) (A)
                 (A) (A) (A) (A) (A) (A) (A) (A) (A) (A) (A) (A)
                 (A) (A) (A) (A) (A) (A) (A) (A) (A) (A) (A) (A)
                 (A) (A) (A) (A) (A) (A) (A) (A) (A) (A) (A) (A)
                 (A) (A) (A) (A) (A) (A) (A) (A) (A) (A) (A) (A)
                 (A) (A) (A) (A) (A) (A) (A) (A) (A) (A) (A) (A)
                 (A) (A) (A) (A) (A) (A) (A) (A) (A) (A) (A) (A)
                 (A) (A) (A) (A) (A) (A) (A) (A) (A) (A) (A) (A)
                 (A) (A) (A) (A) (A) (A) (A) (A) (A) (A) (A) (A)
                 (A) (A) (A) (A) (A) (A) (A) (A) (A) (A) (A) (A)
                 (A) (A) (A) (A) (A) (A) (A) (A) (A) (A) (A) (A)
                 (A) (A) (A) (A) (A) (A) (A) (A) (A) (A) (A) (A)
                 (A) (A) (A) (A) (A) (A) (A) (A) (A) (A) (A) (A)
                 (A) (A) (A) (A) (A) (A) (A) (A) (A) (A) (A) (A)
                 (A) (A) (A) (A) (A) (A) (A) (A) (A) (A) (A) (A)
                 (A) (A) (A) (A) (A) (A) (A) (A) (A) (A) (A) (A)
                 (A) (A) (A) (A) (A) (A) (A) (A) (A) (A) (A) (A)
                 (A) (A) (A) (A) (A) (A) (A) (A) (A) (A) (A) (A)
                 (A) (A) (A) (A) (A) (A) (A) (A) (A) (A) (A) (A)
                 (A) (A) (A) (A) (A) (A) (A) (A) (A) (A) (A) (A)
                 (A) (A) (A) (A) (A) (A) (A) (A) (A) (A) (A) (A)
                 (A) (A) (A) (A) (A) (A) (A) (A) (A) (A) (A) (A)
                 (A) (A) (A)
 The electronic state is 1-A.
 Alpha  occ. eigenvalues -- -145.47844 -19.24182 -19.16220 -19.15748 -19.11279
 Alpha  occ. eigenvalues --  -19.11215 -19.11054 -19.10838 -19.10607 -19.09669
 Alpha  occ. eigenvalues --  -19.09504 -19.08749 -19.08057 -19.07936 -19.07415
 Alpha  occ. eigenvalues --  -19.07200 -19.06646 -19.06604 -19.05574 -19.04717
 Alpha  occ. eigenvalues --  -19.04188 -19.03551 -18.97824 -18.97001 -15.53768
 Alpha  occ. eigenvalues --  -14.56470 -14.38108 -14.36984 -14.36361 -14.36197
 Alpha  occ. eigenvalues --  -14.36178 -14.36161 -14.35145 -14.34210 -14.34105
 Alpha  occ. eigenvalues --  -14.33731 -14.33052 -14.32845 -14.30599 -14.30202
 Alpha  occ. eigenvalues --  -12.67395 -12.67318 -12.67282 -10.33096 -10.30441
 Alpha  occ. eigenvalues --  -10.30327 -10.30020 -10.29269 -10.28479 -10.27891
 Alpha  occ. eigenvalues --  -10.27848 -10.27621 -10.27130 -10.26590 -10.26435
 Alpha  occ. eigenvalues --  -10.25787 -10.25619 -10.25453 -10.25344 -10.24854
 Alpha  occ. eigenvalues --  -10.24805 -10.24642 -10.24412 -10.24288 -10.24165
 Alpha  occ. eigenvalues --  -10.24095 -10.23550 -10.23241 -10.23221 -10.22601
 Alpha  occ. eigenvalues --  -10.22491 -10.21850 -10.21605 -10.21059 -10.21013
 Alpha  occ. eigenvalues --  -10.20818 -10.20657 -10.19518 -10.18892 -10.18747
 Alpha  occ. eigenvalues --  -10.18704 -10.18631 -10.18551 -10.18223 -10.18210
 Alpha  occ. eigenvalues --  -10.18076 -10.18073 -10.17979 -10.17456 -10.17152
 Alpha  occ. eigenvalues --  -10.16744 -10.16353 -10.16219 -10.16207 -10.16112
 Alpha  occ. eigenvalues --  -10.15372 -10.12538  -1.90348  -1.18045  -1.17435
 Alpha  occ. eigenvalues --   -1.17196  -1.11964  -1.09835  -1.05517  -1.04821
 Alpha  occ. eigenvalues --   -1.04399  -1.04393  -1.03857  -1.03448  -1.03132
 Alpha  occ. eigenvalues --   -1.03124  -1.02850  -1.02255  -1.01633  -1.00799
 Alpha  occ. eigenvalues --   -1.00504  -1.00257  -0.99814  -0.99107  -0.98116
 Alpha  occ. eigenvalues --   -0.96823  -0.94985  -0.93760  -0.93214  -0.93033
 Alpha  occ. eigenvalues --   -0.92936  -0.91845  -0.91781  -0.91766  -0.91646
 Alpha  occ. eigenvalues --   -0.91248  -0.90351  -0.90091  -0.89778  -0.89741
 Alpha  occ. eigenvalues --   -0.88992  -0.87921  -0.87077  -0.86281  -0.84686
 Alpha  occ. eigenvalues --   -0.81748  -0.81308  -0.80206  -0.79471  -0.79365
 Alpha  occ. eigenvalues --   -0.79042  -0.78814  -0.76635  -0.76324  -0.75689
 Alpha  occ. eigenvalues --   -0.75042  -0.73996  -0.73959  -0.73884  -0.73070
 Alpha  occ. eigenvalues --   -0.72470  -0.72312  -0.72240  -0.71569  -0.70288
 Alpha  occ. eigenvalues --   -0.69918  -0.68709  -0.68534  -0.67945  -0.66832
 Alpha  occ. eigenvalues --   -0.66522  -0.66302  -0.65231  -0.64276  -0.63920
 Alpha  occ. eigenvalues --   -0.62923  -0.62855  -0.62602  -0.62029  -0.61621
 Alpha  occ. eigenvalues --   -0.61559  -0.61219  -0.61103  -0.60299  -0.60098
 Alpha  occ. eigenvalues --   -0.59403  -0.59241  -0.58979  -0.58794  -0.58387
 Alpha  occ. eigenvalues --   -0.58039  -0.57510  -0.57008  -0.56913  -0.56560
 Alpha  occ. eigenvalues --   -0.56332  -0.55887  -0.55150  -0.55033  -0.54898
 Alpha  occ. eigenvalues --   -0.54808  -0.54737  -0.54368  -0.54045  -0.53544
 Alpha  occ. eigenvalues --   -0.53504  -0.53185  -0.52222  -0.52141  -0.51302
 Alpha  occ. eigenvalues --   -0.51241  -0.51063  -0.51031  -0.50645  -0.49792
 Alpha  occ. eigenvalues --   -0.49573  -0.48985  -0.48770  -0.48626  -0.48459
 Alpha  occ. eigenvalues --   -0.48286  -0.48194  -0.47919  -0.47651  -0.47451
 Alpha  occ. eigenvalues --   -0.47117  -0.46774  -0.46631  -0.46300  -0.45903
 Alpha  occ. eigenvalues --   -0.45731  -0.45586  -0.45388  -0.45054  -0.44824
 Alpha  occ. eigenvalues --   -0.44819  -0.44669  -0.44521  -0.44483  -0.44279
 Alpha  occ. eigenvalues --   -0.44130  -0.44011  -0.43696  -0.43571  -0.43305
 Alpha  occ. eigenvalues --   -0.43204  -0.43028  -0.42991  -0.42797  -0.42559
 Alpha  occ. eigenvalues --   -0.42504  -0.42257  -0.42221  -0.42208  -0.42108
 Alpha  occ. eigenvalues --   -0.41925  -0.41731  -0.41546  -0.41538  -0.41426
 Alpha  occ. eigenvalues --   -0.41338  -0.41250  -0.41205  -0.41026  -0.40924
 Alpha  occ. eigenvalues --   -0.40843  -0.40608  -0.40548  -0.40401  -0.40169
 Alpha  occ. eigenvalues --   -0.40089  -0.39884  -0.39841  -0.39569  -0.39280
 Alpha  occ. eigenvalues --   -0.39113  -0.38781  -0.38700  -0.38638  -0.38538
 Alpha  occ. eigenvalues --   -0.38299  -0.38265  -0.38171  -0.38016  -0.37938
 Alpha  occ. eigenvalues --   -0.37815  -0.37680  -0.37452  -0.37200  -0.37087
 Alpha  occ. eigenvalues --   -0.36880  -0.36677  -0.36548  -0.36441  -0.36400
 Alpha  occ. eigenvalues --   -0.36056  -0.36040  -0.35689  -0.35248  -0.35091
 Alpha  occ. eigenvalues --   -0.35071  -0.35012  -0.34880  -0.34770  -0.34627
 Alpha  occ. eigenvalues --   -0.34445  -0.34022  -0.33985  -0.33971  -0.33636
 Alpha  occ. eigenvalues --   -0.33223  -0.33024  -0.32946  -0.32895  -0.32607
 Alpha  occ. eigenvalues --   -0.32574  -0.32439  -0.31836  -0.31573  -0.30744
 Alpha  occ. eigenvalues --   -0.30715  -0.30339  -0.29371  -0.29302  -0.28459
 Alpha  occ. eigenvalues --   -0.28280  -0.28147  -0.27852  -0.27781  -0.27346
 Alpha  occ. eigenvalues --   -0.26911  -0.26842  -0.26793  -0.26771  -0.26593
 Alpha  occ. eigenvalues --   -0.26237  -0.25667  -0.25413  -0.25331  -0.25161
 Alpha  occ. eigenvalues --   -0.25026  -0.24755  -0.24724  -0.24442  -0.24179
 Alpha  occ. eigenvalues --   -0.23903  -0.23865  -0.23605  -0.23334  -0.22990
 Alpha  occ. eigenvalues --   -0.22867  -0.22557  -0.22198  -0.21717  -0.21631
 Alpha  occ. eigenvalues --   -0.21614  -0.20654  -0.20203  -0.20031  -0.18637
 Alpha  occ. eigenvalues --   -0.15411  -0.14345  -0.11731
 Alpha virt. eigenvalues --   -0.10802  -0.08826  -0.03255  -0.02980  -0.01848
 Alpha virt. eigenvalues --   -0.01591  -0.01179  -0.00816  -0.00396  -0.00209
 Alpha virt. eigenvalues --   -0.00143   0.00631   0.00900   0.01190   0.01293
 Alpha virt. eigenvalues --    0.01354   0.02066   0.02266   0.02402   0.02633
 Alpha virt. eigenvalues --    0.03031   0.03434   0.03545   0.04018   0.04044
 Alpha virt. eigenvalues --    0.04241   0.04321   0.04456   0.04845   0.05037
 Alpha virt. eigenvalues --    0.05133   0.05279   0.05397   0.05773   0.05950
 Alpha virt. eigenvalues --    0.06266   0.06411   0.06455   0.06634   0.07095
 Alpha virt. eigenvalues --    0.07284   0.07644   0.07811   0.07837   0.08047
 Alpha virt. eigenvalues --    0.08236   0.08477   0.08747   0.08863   0.09203
 Alpha virt. eigenvalues --    0.09290   0.09666   0.09773   0.09900   0.10049
 Alpha virt. eigenvalues --    0.10434   0.10699   0.10828   0.11105   0.11293
 Alpha virt. eigenvalues --    0.11298   0.11559   0.11989   0.12180   0.12338
 Alpha virt. eigenvalues --    0.12449   0.12636   0.12958   0.13063   0.13247
 Alpha virt. eigenvalues --    0.13382   0.13591   0.13647   0.13752   0.13859
 Alpha virt. eigenvalues --    0.13897   0.13966   0.14045   0.14314   0.14479
 Alpha virt. eigenvalues --    0.14535   0.14770   0.14880   0.15134   0.15316
 Alpha virt. eigenvalues --    0.15420   0.15506   0.15523   0.15726   0.15777
 Alpha virt. eigenvalues --    0.16056   0.16180   0.16261   0.16368   0.16390
 Alpha virt. eigenvalues --    0.16666   0.16895   0.16998   0.17074   0.17146
 Alpha virt. eigenvalues --    0.17348   0.17489   0.17746   0.17971   0.18230
 Alpha virt. eigenvalues --    0.18280   0.18572   0.18793   0.18926   0.19021
 Alpha virt. eigenvalues --    0.19248   0.19342   0.19751   0.19864   0.20005
 Alpha virt. eigenvalues --    0.20493   0.20673   0.21079   0.21421   0.21681
 Alpha virt. eigenvalues --    0.21855   0.22161   0.22331   0.22490   0.22681
 Alpha virt. eigenvalues --    0.22857   0.23066   0.23287   0.23445   0.23819
 Alpha virt. eigenvalues --    0.24010   0.24152   0.24351   0.24483   0.24787
 Alpha virt. eigenvalues --    0.25076   0.25197   0.25319   0.25623   0.25842
 Alpha virt. eigenvalues --    0.25946   0.26309   0.26383   0.26641   0.26938
 Alpha virt. eigenvalues --    0.27301   0.27564   0.27734   0.28174   0.28273
 Alpha virt. eigenvalues --    0.28384   0.28510   0.28891   0.28955   0.29084
 Alpha virt. eigenvalues --    0.29223   0.29490   0.29673   0.30126   0.30456
 Alpha virt. eigenvalues --    0.30977   0.31363   0.31489   0.31829   0.32114
 Alpha virt. eigenvalues --    0.32405   0.32584   0.32884   0.33219   0.33243
 Alpha virt. eigenvalues --    0.33463   0.33658   0.33814   0.33835   0.34080
 Alpha virt. eigenvalues --    0.34434   0.34899   0.35032   0.35521   0.36104
 Alpha virt. eigenvalues --    0.36315   0.36607   0.37016   0.37230   0.37502
 Alpha virt. eigenvalues --    0.37731   0.37998   0.38287   0.38371   0.38854
 Alpha virt. eigenvalues --    0.39009   0.39142   0.39682   0.39988   0.40128
 Alpha virt. eigenvalues --    0.40365   0.40568   0.40811   0.41215   0.41430
 Alpha virt. eigenvalues --    0.41500   0.42013   0.42264   0.42774   0.42983
 Alpha virt. eigenvalues --    0.43309   0.43431   0.43520   0.43680   0.43783
 Alpha virt. eigenvalues --    0.43883   0.44173   0.44352   0.44588   0.44781
 Alpha virt. eigenvalues --    0.45274   0.45457   0.45715   0.45725   0.45813
 Alpha virt. eigenvalues --    0.45958   0.46386   0.46500   0.46710   0.46805
 Alpha virt. eigenvalues --    0.47215   0.47238   0.47527   0.48064   0.48139
 Alpha virt. eigenvalues --    0.48248   0.48391   0.48471   0.48640   0.48675
 Alpha virt. eigenvalues --    0.48818   0.49047   0.49214   0.49280   0.49634
 Alpha virt. eigenvalues --    0.49772   0.49873   0.50146   0.50215   0.50415
 Alpha virt. eigenvalues --    0.50866   0.50989   0.51277   0.51533   0.51657
 Alpha virt. eigenvalues --    0.51973   0.52410   0.52421   0.52603   0.52763
 Alpha virt. eigenvalues --    0.52980   0.53219   0.53398   0.53430   0.53544
 Alpha virt. eigenvalues --    0.53715   0.53801   0.53924   0.54384   0.54397
 Alpha virt. eigenvalues --    0.54446   0.54663   0.55024   0.55172   0.55396
 Alpha virt. eigenvalues --    0.55693   0.55747   0.55889   0.56001   0.56198
 Alpha virt. eigenvalues --    0.56367   0.56517   0.56593   0.56828   0.56959
 Alpha virt. eigenvalues --    0.57205   0.57285   0.57691   0.57895   0.58293
 Alpha virt. eigenvalues --    0.58527   0.58923   0.59148   0.59232   0.59322
 Alpha virt. eigenvalues --    0.59516   0.59773   0.59826   0.59933   0.60027
 Alpha virt. eigenvalues --    0.60183   0.60270   0.60578   0.60738   0.60906
 Alpha virt. eigenvalues --    0.61000   0.61080   0.61127   0.61386   0.61581
 Alpha virt. eigenvalues --    0.61625   0.61792   0.61840   0.62048   0.62113
 Alpha virt. eigenvalues --    0.62275   0.62356   0.62531   0.62739   0.62792
 Alpha virt. eigenvalues --    0.62965   0.63063   0.63164   0.63260   0.63358
 Alpha virt. eigenvalues --    0.63427   0.63616   0.63649   0.63822   0.64009
 Alpha virt. eigenvalues --    0.64071   0.64288   0.64369   0.64401   0.64490
 Alpha virt. eigenvalues --    0.64684   0.64818   0.64863   0.64914   0.64977
 Alpha virt. eigenvalues --    0.65077   0.65173   0.65272   0.65334   0.65536
 Alpha virt. eigenvalues --    0.65685   0.65743   0.65857   0.65982   0.66140
 Alpha virt. eigenvalues --    0.66314   0.66432   0.66632   0.66826   0.66901
 Alpha virt. eigenvalues --    0.67045   0.67081   0.67353   0.67388   0.67445
 Alpha virt. eigenvalues --    0.67502   0.67666   0.67685   0.67799   0.67911
 Alpha virt. eigenvalues --    0.67997   0.68030   0.68140   0.68263   0.68385
 Alpha virt. eigenvalues --    0.68413   0.68527   0.68678   0.68761   0.68811
 Alpha virt. eigenvalues --    0.68919   0.69087   0.69116   0.69297   0.69331
 Alpha virt. eigenvalues --    0.69373   0.69589   0.69649   0.69758   0.69821
 Alpha virt. eigenvalues --    0.69920   0.70016   0.70048   0.70212   0.70257
 Alpha virt. eigenvalues --    0.70392   0.70571   0.70627   0.70690   0.70840
 Alpha virt. eigenvalues --    0.71145   0.71294   0.71468   0.71573   0.71635
 Alpha virt. eigenvalues --    0.71806   0.72012   0.72081   0.72196   0.72447
 Alpha virt. eigenvalues --    0.72511   0.72550   0.72849   0.73087   0.73206
 Alpha virt. eigenvalues --    0.73351   0.73560   0.73680   0.73721   0.74004
 Alpha virt. eigenvalues --    0.74090   0.74487   0.74732   0.75011   0.75161
 Alpha virt. eigenvalues --    0.75644   0.75839   0.75908   0.75998   0.76092
 Alpha virt. eigenvalues --    0.76523   0.76573   0.76807   0.76877   0.77138
 Alpha virt. eigenvalues --    0.77322   0.77563   0.77698   0.77762   0.77940
 Alpha virt. eigenvalues --    0.78069   0.78359   0.78541   0.78855   0.79047
 Alpha virt. eigenvalues --    0.79241   0.79725   0.79913   0.80148   0.80328
 Alpha virt. eigenvalues --    0.80431   0.80700   0.80789   0.81063   0.81606
 Alpha virt. eigenvalues --    0.81866   0.82043   0.82185   0.82581   0.82926
 Alpha virt. eigenvalues --    0.83264   0.83454   0.83704   0.84092   0.84370
 Alpha virt. eigenvalues --    0.84536   0.84739   0.84974   0.85479   0.85828
 Alpha virt. eigenvalues --    0.86078   0.86639   0.86727   0.86927   0.87064
 Alpha virt. eigenvalues --    0.87467   0.87870   0.88435   0.88746   0.88780
 Alpha virt. eigenvalues --    0.89074   0.89546   0.89847   0.89874   0.90213
 Alpha virt. eigenvalues --    0.90281   0.90819   0.91253   0.91334   0.91617
 Alpha virt. eigenvalues --    0.91811   0.91960   0.92371   0.92473   0.92663
 Alpha virt. eigenvalues --    0.93333   0.93491   0.93836   0.94047   0.94376
 Alpha virt. eigenvalues --    0.94638   0.94856   0.95648   0.96005   0.96194
 Alpha virt. eigenvalues --    0.96350   0.96459   0.97014   0.97179   0.97305
 Alpha virt. eigenvalues --    0.97928   0.97988   0.98279   0.98417   0.98655
 Alpha virt. eigenvalues --    0.98884   0.99173   0.99341   0.99897   1.00043
 Alpha virt. eigenvalues --    1.00412   1.00594   1.00622   1.00918   1.01128
 Alpha virt. eigenvalues --    1.01511   1.01974   1.02258   1.02461   1.02650
 Alpha virt. eigenvalues --    1.03334   1.03467   1.03704   1.03917   1.04442
 Alpha virt. eigenvalues --    1.04564   1.05300   1.05487   1.05750   1.05962
 Alpha virt. eigenvalues --    1.06086   1.06243   1.06777   1.06976   1.07007
 Alpha virt. eigenvalues --    1.07453   1.07658   1.07887   1.08246   1.08500
 Alpha virt. eigenvalues --    1.08990   1.09295   1.09476   1.09801   1.09892
 Alpha virt. eigenvalues --    1.10013   1.10265   1.10398   1.10522   1.10652
 Alpha virt. eigenvalues --    1.11330   1.11445   1.11660   1.11743   1.12098
 Alpha virt. eigenvalues --    1.12937   1.13066   1.13142   1.13517   1.14044
 Alpha virt. eigenvalues --    1.14105   1.14351   1.14524   1.14849   1.15251
 Alpha virt. eigenvalues --    1.15541   1.15734   1.16032   1.16424   1.16636
 Alpha virt. eigenvalues --    1.16819   1.17327   1.17725   1.17795   1.17977
 Alpha virt. eigenvalues --    1.18240   1.18541   1.18697   1.18914   1.19220
 Alpha virt. eigenvalues --    1.19406   1.19523   1.19921   1.20271   1.20330
 Alpha virt. eigenvalues --    1.20714   1.20849   1.21193   1.21514   1.21790
 Alpha virt. eigenvalues --    1.22225   1.22491   1.22850   1.23195   1.23314
 Alpha virt. eigenvalues --    1.23968   1.24008   1.24109   1.24264   1.24441
 Alpha virt. eigenvalues --    1.24704   1.25019   1.25431   1.25568   1.25725
 Alpha virt. eigenvalues --    1.26256   1.26423   1.26690   1.26818   1.26861
 Alpha virt. eigenvalues --    1.27051   1.27600   1.27964   1.28049   1.28135
 Alpha virt. eigenvalues --    1.28311   1.28397   1.28561   1.28976   1.29244
 Alpha virt. eigenvalues --    1.29475   1.30409   1.30584   1.30748   1.30969
 Alpha virt. eigenvalues --    1.31450   1.31627   1.31891   1.32304   1.32454
 Alpha virt. eigenvalues --    1.32624   1.33469   1.33733   1.34088   1.34653
 Alpha virt. eigenvalues --    1.34706   1.34905   1.35050   1.35310   1.35616
 Alpha virt. eigenvalues --    1.36292   1.36697   1.36837   1.37107   1.37244
 Alpha virt. eigenvalues --    1.37743   1.38203   1.38254   1.38649   1.38709
 Alpha virt. eigenvalues --    1.39211   1.39394   1.39945   1.40020   1.40500
 Alpha virt. eigenvalues --    1.40923   1.41130   1.41236   1.41452   1.41569
 Alpha virt. eigenvalues --    1.41756   1.42010   1.42230   1.42438   1.42546
 Alpha virt. eigenvalues --    1.42703   1.43443   1.43607   1.43779   1.43896
 Alpha virt. eigenvalues --    1.44477   1.44810   1.45311   1.45689   1.45922
 Alpha virt. eigenvalues --    1.46032   1.46303   1.46823   1.46938   1.47399
 Alpha virt. eigenvalues --    1.48001   1.48170   1.48435   1.49030   1.49048
 Alpha virt. eigenvalues --    1.49215   1.49519   1.49760   1.50443   1.50898
 Alpha virt. eigenvalues --    1.51256   1.51995   1.52617   1.52804   1.52949
 Alpha virt. eigenvalues --    1.53230   1.53307   1.53811   1.53858   1.53967
 Alpha virt. eigenvalues --    1.54564   1.54965   1.55368   1.55408   1.56337
 Alpha virt. eigenvalues --    1.56488   1.56692   1.56844   1.57608   1.57769
 Alpha virt. eigenvalues --    1.58047   1.58254   1.58676   1.59132   1.59255
 Alpha virt. eigenvalues --    1.60269   1.60884   1.61035   1.61159   1.61343
 Alpha virt. eigenvalues --    1.61500   1.61994   1.62119   1.62280   1.62446
 Alpha virt. eigenvalues --    1.62742   1.63055   1.63453   1.64031   1.64097
 Alpha virt. eigenvalues --    1.64654   1.65317   1.65595   1.65720   1.65998
 Alpha virt. eigenvalues --    1.66106   1.66463   1.66570   1.66748   1.67176
 Alpha virt. eigenvalues --    1.67245   1.67536   1.67863   1.68309   1.68603
 Alpha virt. eigenvalues --    1.68877   1.69202   1.69548   1.70157   1.70205
 Alpha virt. eigenvalues --    1.70491   1.70701   1.71232   1.71905   1.71967
 Alpha virt. eigenvalues --    1.72104   1.72250   1.72448   1.72690   1.72779
 Alpha virt. eigenvalues --    1.73003   1.73216   1.73285   1.73806   1.73897
 Alpha virt. eigenvalues --    1.74328   1.74375   1.74611   1.74667   1.74815
 Alpha virt. eigenvalues --    1.75009   1.75094   1.75256   1.75333   1.75803
 Alpha virt. eigenvalues --    1.76452   1.76510   1.76674   1.76809   1.76875
 Alpha virt. eigenvalues --    1.76993   1.77079   1.77212   1.77564   1.77738
 Alpha virt. eigenvalues --    1.77923   1.78176   1.78217   1.78323   1.78455
 Alpha virt. eigenvalues --    1.78772   1.78980   1.79038   1.79215   1.79491
 Alpha virt. eigenvalues --    1.79564   1.79613   1.79820   1.79998   1.80041
 Alpha virt. eigenvalues --    1.80098   1.80469   1.80540   1.80690   1.80941
 Alpha virt. eigenvalues --    1.81294   1.81429   1.81490   1.81639   1.81845
 Alpha virt. eigenvalues --    1.81930   1.82138   1.82310   1.82614   1.82750
 Alpha virt. eigenvalues --    1.82900   1.82999   1.83046   1.83198   1.83241
 Alpha virt. eigenvalues --    1.83419   1.83826   1.83911   1.84107   1.84279
 Alpha virt. eigenvalues --    1.84358   1.84982   1.85134   1.85192   1.85292
 Alpha virt. eigenvalues --    1.85589   1.85688   1.85949   1.86032   1.86189
 Alpha virt. eigenvalues --    1.86459   1.86666   1.86918   1.87166   1.87277
 Alpha virt. eigenvalues --    1.87394   1.87474   1.87717   1.88037   1.88191
 Alpha virt. eigenvalues --    1.88259   1.88337   1.88446   1.88604   1.88796
 Alpha virt. eigenvalues --    1.89081   1.89559   1.89781   1.90220   1.90693
 Alpha virt. eigenvalues --    1.90808   1.90903   1.90969   1.91388   1.91505
 Alpha virt. eigenvalues --    1.91592   1.92015   1.92184   1.92355   1.92454
 Alpha virt. eigenvalues --    1.92494   1.92889   1.93128   1.93216   1.93419
 Alpha virt. eigenvalues --    1.93624   1.94076   1.94247   1.94406   1.94551
 Alpha virt. eigenvalues --    1.94705   1.94766   1.95072   1.95135   1.95337
 Alpha virt. eigenvalues --    1.95604   1.95735   1.96127   1.96312   1.96528
 Alpha virt. eigenvalues --    1.96645   1.96721   1.96832   1.97139   1.97286
 Alpha virt. eigenvalues --    1.97849   1.97957   1.98391   1.98492   1.98610
 Alpha virt. eigenvalues --    1.98731   1.98903   1.99227   1.99829   1.99880
 Alpha virt. eigenvalues --    1.99949   2.00212   2.00483   2.00671   2.01222
 Alpha virt. eigenvalues --    2.01564   2.01778   2.02031   2.02167   2.02197
 Alpha virt. eigenvalues --    2.02653   2.02716   2.03142   2.03335   2.03540
 Alpha virt. eigenvalues --    2.03713   2.03918   2.03995   2.04275   2.04367
 Alpha virt. eigenvalues --    2.04594   2.04822   2.05252   2.05438   2.05717
 Alpha virt. eigenvalues --    2.05891   2.05981   2.06054   2.06110   2.06273
 Alpha virt. eigenvalues --    2.06856   2.06905   2.07228   2.07958   2.08616
 Alpha virt. eigenvalues --    2.08677   2.09008   2.09380   2.09445   2.09867
 Alpha virt. eigenvalues --    2.10379   2.11143   2.11187   2.11659   2.11718
 Alpha virt. eigenvalues --    2.12112   2.12292   2.12557   2.12774   2.13026
 Alpha virt. eigenvalues --    2.13114   2.13594   2.13737   2.13872   2.14024
 Alpha virt. eigenvalues --    2.14171   2.14438   2.14650   2.14925   2.15618
 Alpha virt. eigenvalues --    2.16081   2.16231   2.16581   2.16878   2.17223
 Alpha virt. eigenvalues --    2.17626   2.17827   2.17961   2.18247   2.18393
 Alpha virt. eigenvalues --    2.18477   2.18778   2.18818   2.19216   2.19444
 Alpha virt. eigenvalues --    2.19533   2.19868   2.21039   2.21432   2.21690
 Alpha virt. eigenvalues --    2.21964   2.21970   2.22153   2.22363   2.22698
 Alpha virt. eigenvalues --    2.22809   2.23488   2.23843   2.24467   2.24744
 Alpha virt. eigenvalues --    2.25185   2.25376   2.25771   2.25851   2.25988
 Alpha virt. eigenvalues --    2.26726   2.27079   2.27304   2.28481   2.28592
 Alpha virt. eigenvalues --    2.28760   2.28956   2.29012   2.29225   2.29694
 Alpha virt. eigenvalues --    2.29862   2.30419   2.30684   2.31638   2.31771
 Alpha virt. eigenvalues --    2.31843   2.32099   2.32572   2.32827   2.32887
 Alpha virt. eigenvalues --    2.33085   2.33254   2.33586   2.33777   2.33902
 Alpha virt. eigenvalues --    2.34324   2.34916   2.34950   2.35172   2.35724
 Alpha virt. eigenvalues --    2.36193   2.36311   2.36529   2.37052   2.37147
 Alpha virt. eigenvalues --    2.37951   2.38341   2.38524   2.38574   2.38680
 Alpha virt. eigenvalues --    2.39490   2.39834   2.40402   2.40520   2.40644
 Alpha virt. eigenvalues --    2.40860   2.41081   2.41628   2.41814   2.42191
 Alpha virt. eigenvalues --    2.42455   2.42654   2.43640   2.43704   2.43976
 Alpha virt. eigenvalues --    2.44236   2.44509   2.44751   2.44910   2.45961
 Alpha virt. eigenvalues --    2.46044   2.46464   2.46628   2.47541   2.47687
 Alpha virt. eigenvalues --    2.48153   2.48384   2.49649   2.49825   2.49948
 Alpha virt. eigenvalues --    2.50192   2.50370   2.50730   2.50819   2.51008
 Alpha virt. eigenvalues --    2.51358   2.51577   2.52397   2.53426   2.53532
 Alpha virt. eigenvalues --    2.53690   2.54028   2.54761   2.54850   2.55436
 Alpha virt. eigenvalues --    2.55730   2.55785   2.55939   2.55986   2.56506
 Alpha virt. eigenvalues --    2.57033   2.57429   2.58008   2.58226   2.58231
 Alpha virt. eigenvalues --    2.58791   2.59519   2.59707   2.59728   2.59849
 Alpha virt. eigenvalues --    2.60163   2.60408   2.60588   2.60695   2.61246
 Alpha virt. eigenvalues --    2.61396   2.62160   2.62391   2.62414   2.62470
 Alpha virt. eigenvalues --    2.62986   2.63195   2.63473   2.63736   2.63816
 Alpha virt. eigenvalues --    2.64154   2.64427   2.64754   2.65706   2.65866
 Alpha virt. eigenvalues --    2.66215   2.66447   2.66568   2.67354   2.67633
 Alpha virt. eigenvalues --    2.68128   2.68306   2.68729   2.68948   2.69191
 Alpha virt. eigenvalues --    2.69402   2.69628   2.69940   2.70062   2.70673
 Alpha virt. eigenvalues --    2.70764   2.71076   2.71377   2.71580   2.71794
 Alpha virt. eigenvalues --    2.71939   2.72036   2.72140   2.72751   2.72957
 Alpha virt. eigenvalues --    2.73012   2.73420   2.74271   2.74438   2.74865
 Alpha virt. eigenvalues --    2.75061   2.75193   2.75724   2.75943   2.76329
 Alpha virt. eigenvalues --    2.76406   2.76509   2.76937   2.77426   2.77547
 Alpha virt. eigenvalues --    2.77764   2.78159   2.78302   2.78363   2.78514
 Alpha virt. eigenvalues --    2.78615   2.79554   2.79927   2.80089   2.80167
 Alpha virt. eigenvalues --    2.80227   2.80238   2.80474   2.80764   2.81135
 Alpha virt. eigenvalues --    2.81266   2.81347   2.81766   2.81849   2.82682
 Alpha virt. eigenvalues --    2.82783   2.83103   2.83610   2.83760   2.83978
 Alpha virt. eigenvalues --    2.84134   2.84646   2.85365   2.85698   2.86010
 Alpha virt. eigenvalues --    2.86482   2.86701   2.86919   2.87650   2.87679
 Alpha virt. eigenvalues --    2.88142   2.88255   2.88717   2.88889   2.88959
 Alpha virt. eigenvalues --    2.89118   2.89230   2.89680   2.89943   2.90378
 Alpha virt. eigenvalues --    2.90508   2.91155   2.91266   2.91765   2.92246
 Alpha virt. eigenvalues --    2.92675   2.92979   2.93257   2.93358   2.93795
 Alpha virt. eigenvalues --    2.94155   2.94356   2.94776   2.94936   2.95252
 Alpha virt. eigenvalues --    2.95371   2.95527   2.95633   2.95708   2.95792
 Alpha virt. eigenvalues --    2.96260   2.96680   2.96912   2.97635   2.97790
 Alpha virt. eigenvalues --    2.98459   2.98582   2.99724   2.99789   3.00547
 Alpha virt. eigenvalues --    3.00701   3.00974   3.01633   3.01787   3.01959
 Alpha virt. eigenvalues --    3.02143   3.02443   3.02506   3.02977   3.03086
 Alpha virt. eigenvalues --    3.03385   3.03733   3.04023   3.05337   3.05456
 Alpha virt. eigenvalues --    3.05878   3.06212   3.06405   3.06596   3.07222
 Alpha virt. eigenvalues --    3.07587   3.07636   3.08111   3.08295   3.08894
 Alpha virt. eigenvalues --    3.09002   3.09365   3.09407   3.09823   3.09865
 Alpha virt. eigenvalues --    3.09984   3.11069   3.12010   3.13006   3.13494
 Alpha virt. eigenvalues --    3.13565   3.13889   3.14123   3.14954   3.15210
 Alpha virt. eigenvalues --    3.15613   3.15971   3.16180   3.16855   3.17455
 Alpha virt. eigenvalues --    3.17607   3.17879   3.18023   3.18451   3.18671
 Alpha virt. eigenvalues --    3.18905   3.18949   3.19363   3.19670   3.19762
 Alpha virt. eigenvalues --    3.19955   3.20222   3.20794   3.20868   3.21714
 Alpha virt. eigenvalues --    3.21860   3.22363   3.22710   3.23098   3.23207
 Alpha virt. eigenvalues --    3.23760   3.24228   3.25551   3.25685   3.26284
 Alpha virt. eigenvalues --    3.26328   3.26475   3.27661   3.28019   3.29212
 Alpha virt. eigenvalues --    3.30325   3.30783   3.31772   3.32168   3.32606
 Alpha virt. eigenvalues --    3.33712   3.33717   3.33768   3.33967   3.35390
 Alpha virt. eigenvalues --    3.38889   3.39816   3.39874   3.45909   3.47122
 Alpha virt. eigenvalues --    3.53723   3.53862   3.55276   3.55476   3.55788
 Alpha virt. eigenvalues --    3.56096   3.56402   3.57799   3.57932   3.58194
 Alpha virt. eigenvalues --    3.59686   3.59734   3.60206   3.61063   3.62045
 Alpha virt. eigenvalues --    3.65365   3.66410   3.66560   3.66886   3.67280
 Alpha virt. eigenvalues --    3.67972   3.67987   3.68093   3.68302   3.69092
 Alpha virt. eigenvalues --    3.69257   3.69613   3.69845   3.70270   3.70437
 Alpha virt. eigenvalues --    3.70800   3.71192   3.72487   3.72875   3.74029
 Alpha virt. eigenvalues --    3.75224   3.76459   3.78117   3.79041
          Condensed to atoms (all electrons):
 Mulliken charges:
               1
     1  C    0.058444
     2  C    0.007777
     3  O   -0.315175
     4  H    0.024795
     5  H    0.024680
     6  H    0.022154
     7  N   -0.101828
     8  C    0.117218
     9  C    0.089707
    10  O   -0.275762
    11  C    0.034312
    12  C    0.084240
    13  O   -0.391937
    14  O   -0.340665
    15  H    0.106014
    16  H   -0.024299
    17  H    0.000995
    18  H   -0.001680
    19  N   -0.104057
    20  C    0.068513
    21  C    0.072284
    22  O   -0.232443
    23  C    0.123350
    24  C    0.026980
    25  C   -0.082553
    26  C    0.025138
    27  N    0.075109
    28  H    0.091693
    29  H   -0.018647
    30  H   -0.005019
    31  H    0.027756
    32  H    0.005772
    33  H    0.034368
    34  H    0.026594
    35  H    0.042429
    36  H    0.076744
    37  H    0.075904
    38  H    0.195143
    39  H    0.204731
    40  H    0.180364
    41  N   -0.145356
    42  C    0.189971
    43  C    0.076402
    44  O   -0.287220
    45  C    0.035674
    46  C    0.072498
    47  O   -0.420885
    48  O   -0.427805
    49  H    0.102258
    50  H    0.040003
    51  H    0.023131
    52  H    0.030967
    53  N   -0.125074
    54  C    0.208743
    55  C    0.056455
    56  O   -0.291176
    57  H    0.127828
    58  H    0.036629
    59  H    0.013269
    60  N   -0.111775
    61  C    0.072997
    62  C    0.114361
    63  O   -0.298782
    64  C    0.134538
    65  C   -0.047539
    66  N   -0.048942
    67  O   -0.267779
    68  H    0.126301
    69  H    0.009039
    70  H   -0.020900
    71  H    0.023340
    72  H    0.125896
    73  H    0.127189
    74  N   -0.119636
    75  C    0.256820
    76  C    0.013867
    77  O   -0.248475
    78  H    0.127512
    79  H    0.030893
    80  H    0.009982
    81  N   -0.145783
    82  C    0.052544
    83  C    0.112184
    84  O   -0.290312
    85  C    0.156026
    86  C   -0.017481
    87  C    0.021548
    88  C   -0.029382
    89  C   -0.021422
    90  C   -0.064144
    91  C    0.177935
    92  O   -0.213295
    93  H    0.112015
    94  H    0.021801
    95  H   -0.004077
    96  H    0.019089
    97  H   -0.027766
    98  H   -0.052096
    99  H   -0.017771
   100  H   -0.036959
   101  H    0.173548
   102  N   -0.095883
   103  C    0.162950
   104  C    0.061362
   105  O   -0.276198
   106  C   -0.127512
   107  C    0.022390
   108  C    0.090371
   109  C    0.018079
   110  H    0.130391
   111  H    0.007566
   112  H   -0.004676
   113  H   -0.013456
   114  H   -0.003753
   115  H   -0.002514
   116  H   -0.028069
   117  H    0.041631
   118  H   -0.000951
   119  H    0.035526
   120  H    0.025222
   121  N   -0.117150
   122  C    0.059520
   123  C    0.039122
   124  O   -0.251829
   125  C    0.210648
   126  O   -0.294254
   127  H    0.140037
   128  H    0.014210
   129  H    0.022762
   130  H   -0.004082
   131  H    0.184572
   132  N   -0.144176
   133  C    0.084031
   134  C    0.070847
   135  O   -0.288578
   136  C    0.075734
   137  H    0.124764
   138  H    0.008234
   139  H    0.024323
   140  H    0.018955
   141  H   -0.006743
   142  N   -0.106002
   143  C    0.083567
   144  C    0.048036
   145  O   -0.266952
   146  C    0.050648
   147  H    0.148548
   148  H   -0.003006
   149  H   -0.009440
   150  H    0.032337
   151  H    0.024149
   152  N   -0.133869
   153  C    0.109575
   154  C    0.079084
   155  O   -0.278765
   156  C    0.030108
   157  C    0.106550
   158  C    0.043941
   159  O   -0.447533
   160  O   -0.365705
   161  H    0.123203
   162  H   -0.001864
   163  H   -0.000972
   164  H    0.028455
   165  H   -0.041466
   166  H   -0.043699
   167  N   -0.155562
   168  C    0.120062
   169  H    0.038515
   170  H    0.026559
   171  H    0.017513
   172  H    0.118409
   173  Ca   1.243230
   174  O   -0.310152
   175  H    0.203969
   176  H    0.194549
 Sum of Mulliken charges =  -0.00000
 Mulliken charges with hydrogens summed into heavy atoms:
               1
     1  C    0.130072
     2  C    0.007777
     3  O   -0.315175
     7  N    0.004186
     8  C    0.092920
     9  C    0.089707
    10  O   -0.275762
    11  C    0.033627
    12  C    0.084240
    13  O   -0.391937
    14  O   -0.340665
    19  N   -0.012364
    20  C    0.049866
    21  C    0.072284
    22  O   -0.232443
    23  C    0.146086
    24  C    0.067119
    25  C   -0.013531
    26  C    0.177787
    27  N    0.655347
    41  N   -0.043099
    42  C    0.229974
    43  C    0.076402
    44  O   -0.287220
    45  C    0.089772
    46  C    0.072498
    47  O   -0.420885
    48  O   -0.427805
    53  N    0.002754
    54  C    0.258642
    55  C    0.056455
    56  O   -0.291176
    60  N    0.014526
    61  C    0.082036
    62  C    0.114361
    63  O   -0.298782
    64  C    0.136978
    65  C   -0.047539
    66  N    0.204142
    67  O   -0.267779
    74  N    0.007876
    75  C    0.297696
    76  C    0.013867
    77  O   -0.248475
    81  N   -0.033769
    82  C    0.074345
    83  C    0.112184
    84  O   -0.290312
    85  C    0.171038
    86  C   -0.017481
    87  C   -0.006218
    88  C   -0.081478
    89  C   -0.039193
    90  C   -0.101104
    91  C    0.177935
    92  O   -0.039748
   102  N    0.034508
   103  C    0.170516
   104  C    0.061362
   105  O   -0.276198
   106  C   -0.132188
   107  C    0.005180
   108  C    0.101419
   109  C    0.077876
   121  N    0.022887
   122  C    0.073730
   123  C    0.039122
   124  O   -0.251829
   125  C    0.229329
   126  O   -0.109682
   132  N   -0.019412
   133  C    0.092265
   134  C    0.070847
   135  O   -0.288578
   136  C    0.112269
   142  N    0.042546
   143  C    0.080561
   144  C    0.048036
   145  O   -0.266952
   146  C    0.097695
   152  N   -0.010667
   153  C    0.107711
   154  C    0.079084
   155  O   -0.278765
   156  C    0.057591
   157  C    0.021384
   158  C    0.043941
   159  O   -0.447533
   160  O   -0.365705
   167  N   -0.037153
   168  C    0.202650
   173  Ca   1.243230
   174  O    0.088366
 DipInt: DoE/N= T F RetVal/Mat= T F Init=T NMatP=  1 IDeriv=0 Min/MaxMlt=  0  4
 Entering OneElI...
 OneElI was handed  1333951383 working-precision words.
 Multipole integrals L=0 to 4 MinM= 0 MaxM= 0.
 Requested accuracy = 0.1000D-12
 ShPair: Thresh= 1.00D-13 NBox=     0 BxSize= 0.00D+00 RnKept= 3.16D+01
         NSMCal=               327645 NSMKep=              124548
 PrmmSu-InSpLW:  IPartL=    0 NPrtUS=    1 NPrtUL=    1 DoSpLW=F IThBeg=    0 IThEnd=    0 NThAct=    1.
 PrsmSu:  NPrtUS=   1 ThrOK=F IAlg=1 NPAlg=1 LenDen=           0 ISkipM=0 DoSpLW=F IThBeg=    0 IThEnd=    0.
 Prism:   IPart=     0 DynPar=F LinDyn=F Incr=         512.
 PRISM was handed  1325282647 working-precision words and124548 shell-pairs
 IPart=  0 NShTot=      124548 NBatch=         292 AvBLen=       426.5
 PrsmSu-ThDecC:  IPartSL=    0    0 NPrtUSL=    1    1 IThBeg=    0 IThEnd=    0 CPU=   -1 GPU=   -1 NThAct=    1.
 PrSmSu:  NxtVal=            513.
 Electronic moments (au):
       -716.00000000          4.77861790          4.72139358         -9.43889197
     -87164.22419825     -36829.52719986     -17262.52557439       -187.78980785
         69.75226213         24.10675981     129985.26531680     -71027.42489282
     -14832.62574347     -74772.97553485      36144.01350398    -276306.97675411
      43415.42774177      29948.36003620      42475.79205248      35692.34575976
  -21066639.35865706   -3916996.17600357   -1254016.63856187     596655.42289517
     756882.52645580    -204971.75139509    -313612.86484136     242587.28281861
     -85677.18629106   -2812906.59085187   -2734378.44169974    -650692.35252117
     734039.38080937    -200407.94095797     339159.36478700
[...]
 **** Fit       0.001837
 **** Fit       0.001987
 **** Fit       0.001974
 **** Fit       0.001820
 **** Fit       0.001567
 **** Fit      -0.000142
 **** Fit      -0.001470
 **** Fit      -0.001379
 **** Fit      -0.000907
 **** Fit      -0.000234
 **** Fit       0.000476
 **** Fit       0.001104
 **** Fit       0.001579
 **** Fit       0.001870
 **** Fit       0.001968
 **** Fit       0.001887
 **** Fit       0.001655
 **** Fit       0.001324
 **** Fit      -0.001070
 **** Fit      -0.003088
 **** Fit      -0.002936
 **** Fit      -0.002268
 **** Fit      -0.001354
 **** Fit      -0.000405
 **** Fit       0.000439
 **** Fit       0.001105
 **** Fit       0.001560
 **** Fit       0.001798
 **** Fit       0.001828
 **** Fit       0.001670
 **** Fit       0.001353
 **** Fit      -0.002506
 **** Fit      -0.005210
 **** Fit      -0.004894
 **** Fit      -0.003907
 **** Fit      -0.002653
 **** Fit      -0.001407
 **** Fit      -0.000319
 **** Fit       0.000539
 **** Fit       0.001143
 **** Fit       0.001496
 **** Fit       0.001610
 **** Fit       0.001504
 **** Fit       0.001200
 **** Fit      -0.004439
 **** Fit      -0.007484
 **** Fit      -0.006903
 **** Fit      -0.005457
 **** Fit      -0.003766
 **** Fit      -0.002183
 **** Fit      -0.000865
 **** Fit       0.000134
 **** Fit       0.000810
 **** Fit       0.001180
 **** Fit       0.001267
 **** Fit       0.001092
 **** Fit       0.000672
 **** Fit      -0.006416
 **** Fit      -0.009029
 **** Fit      -0.008294
 **** Fit      -0.006457
 **** Fit      -0.004411
 **** Fit      -0.002589
 **** Fit      -0.001148
 **** Fit      -0.000116
 **** Fit       0.000523
 **** Fit       0.000801
 **** Fit       0.000746
 **** Fit       0.000372
 **** Fit      -0.008318
 **** Fit      -0.006535
 **** Fit      -0.004479
 **** Fit      -0.002673
 **** Fit      -0.001291
 **** Fit      -0.000362
 **** Fit       0.000136
 **** Fit       0.000234
 **** Fit      -0.000053
 **** Fit      -0.005310
 **** Fit      -0.003590
 **** Fit      -0.002102
 **** Fit      -0.001070
 **** Fit      -0.000540
 **** Fit      -0.000510
 **** Fit      -0.001728
 **** Fit      -0.001331
 **** Fit      -0.003751
 **** Fit      -0.001412
 **** Fit      -0.012046
 **** Fit      -0.006297
 **** Fit      -0.010733
 **** Fit      -0.006979
 **** Fit      -0.005677
 **** Fit      -0.001049
 **** Fit      -0.004147
 **** Fit      -0.001820
 **** Fit       0.004217
 **** Fit       0.002504
 **** Fit      -0.003483
 **** Fit       0.009996
 **** Fit       0.009264
 **** Fit       0.004593
 **** Fit       0.016629
 **** Fit       0.016374
 **** Fit       0.012799
 **** Fit       0.006160
 **** Fit       0.024159
 **** Fit       0.023847
 **** Fit       0.021003
 **** Fit       0.015923
 **** Fit       0.032305
 **** Fit       0.031493
 **** Fit       0.028817
 **** Fit       0.024514
 **** Fit       0.018550
 **** Fit       0.030901
 **** Fit       0.040584
 **** Fit       0.039108
 **** Fit       0.036444
 **** Fit       0.032706
 **** Fit       0.027854
 **** Fit       0.021729
 **** Fit      -0.000531
 **** Fit       0.040726
 **** Fit       0.048483
 **** Fit       0.046298
 **** Fit       0.043501
 **** Fit       0.040063
 **** Fit       0.035902
 **** Fit       0.030891
 **** Fit       0.002246
 **** Fit       0.051533
 **** Fit       0.050138
 **** Fit       0.055574
 **** Fit       0.052789
 **** Fit       0.049893
 **** Fit       0.046710
 **** Fit       0.043113
 **** Fit       0.038982
 **** Fit       0.034239
 **** Fit       0.006605
 **** Fit       0.008416
 **** Fit       0.058576
 **** Fit       0.061525
 **** Fit       0.058228
 **** Fit       0.055219
 **** Fit       0.052174
 **** Fit       0.048907
 **** Fit       0.045288
 **** Fit       0.041236
 **** Fit       0.011963
 **** Fit       0.014216
 **** Fit       0.012109
 **** Fit       0.066094
 **** Fit       0.062578
 **** Fit       0.059633
 **** Fit       0.056821
 **** Fit       0.053915
 **** Fit       0.050783
 **** Fit       0.047353
 **** Fit       0.043617
 **** Fit       0.039682
 **** Fit       0.018612
 **** Fit       0.020771
 **** Fit       0.019595
 **** Fit       0.065756
 **** Fit       0.063034
 **** Fit       0.060503
 **** Fit       0.057928
 **** Fit       0.055190
 **** Fit       0.052233
 **** Fit       0.049067
 **** Fit       0.045784
 **** Fit       0.042551
 **** Fit       0.024452
 **** Fit       0.027076
 **** Fit       0.027781
 **** Fit       0.025923
 **** Fit       0.021075
 **** Fit       0.067939
 **** Fit       0.065635
 **** Fit       0.063477
 **** Fit       0.061271
 **** Fit       0.058925
 **** Fit       0.056410
 **** Fit       0.053746
 **** Fit       0.051000
 **** Fit       0.048248
 **** Fit       0.045502
 **** Fit       0.031354
 **** Fit       0.032351
 **** Fit       0.033828
 **** Fit       0.034825
 **** Fit       0.034518
 **** Fit       0.032320
 **** Fit       0.027856
 **** Fit       0.069289
 **** Fit       0.067437
 **** Fit       0.065606
 **** Fit       0.063666
 **** Fit       0.061572
 **** Fit       0.059324
 **** Fit       0.056962
 **** Fit       0.054541
 **** Fit       0.052093
 **** Fit       0.049613
 **** Fit       0.047113
 **** Fit       0.044744
 **** Fit       0.042839
 **** Fit       0.041735
 **** Fit       0.041485
 **** Fit       0.041723
 **** Fit       0.041799
 **** Fit       0.041019
 **** Fit       0.038826
 **** Fit       0.034880
 **** Fit       0.029088
 **** Fit       0.070276
 **** Fit       0.068858
 **** Fit       0.067331
 **** Fit       0.065636
 **** Fit       0.063773
 **** Fit       0.061771
 **** Fit       0.059682
 **** Fit       0.057555
 **** Fit       0.055436
 **** Fit       0.053391
 **** Fit       0.051560
 **** Fit       0.050131
 **** Fit       0.049213
 **** Fit       0.048675
 **** Fit       0.048127
 **** Fit       0.047046
 **** Fit       0.044962
 **** Fit       0.041591
 **** Fit       0.036930
 **** Fit       0.031345
 **** Fit       0.070065
 **** Fit       0.068756
 **** Fit       0.067255
 **** Fit       0.065588
 **** Fit       0.063807
 **** Fit       0.061974
 **** Fit       0.060156
 **** Fit       0.058433
 **** Fit       0.056910
 **** Fit       0.055671
 **** Fit       0.054688
 **** Fit       0.053752
 **** Fit       0.052510
 **** Fit       0.050600
 **** Fit       0.047811
 **** Fit       0.044212
 **** Fit       0.040241
 **** Fit       0.036755
 **** Fit       0.034923
 **** Fit       0.035941
 **** Fit       0.040723
 **** Fit       0.072159
 **** Fit       0.071057
 **** Fit       0.069798
 **** Fit       0.068358
 **** Fit       0.066782
 **** Fit       0.065141
 **** Fit       0.063516
 **** Fit       0.061992
 **** Fit       0.060633
 **** Fit       0.059423
 **** Fit       0.058210
 **** Fit       0.056730
 **** Fit       0.054743
 **** Fit       0.052211
 **** Fit       0.049452
 **** Fit       0.047200
 **** Fit       0.046538
 **** Fit       0.048661
 **** Fit       0.073091
 **** Fit       0.071850
 **** Fit       0.070539
 **** Fit       0.069103
 **** Fit       0.067593
 **** Fit       0.066089
 **** Fit       0.064660
 **** Fit       0.063316
 **** Fit       0.061963
 **** Fit       0.060431
 **** Fit       0.058624
 **** Fit       0.056733
 **** Fit       0.055380
 **** Fit       0.055593
 **** Fit       0.058602
 **** Fit       0.073667
 **** Fit       0.072156
 **** Fit       0.070657
 **** Fit       0.069113
 **** Fit       0.067585
 **** Fit       0.066110
 **** Fit       0.064640
 **** Fit       0.063153
 **** Fit       0.061938
 **** Fit       0.061847
 **** Fit       0.064196
 **** Fit       0.073610
 **** Fit       0.071800
 **** Fit       0.070076
 **** Fit       0.068458
 **** Fit       0.067080
 **** Fit       0.066434
 **** Fit       0.067779
 **** Fit       0.075030
 **** Fit       0.072606
 **** Fit       0.070652
 **** Fit       0.070184
 **** Fit       0.073154
 **** Fit       0.073095
 **** Fit       0.016787
 **** Fit       0.067707
 **** Fit       0.015809
 **** Fit       0.022657
 **** Fit       0.028113
 **** Fit       0.065386
 **** Fit       0.015289
 **** Fit       0.021836
 **** Fit       0.027361
 **** Fit       0.031868
 **** Fit       0.035274
 **** Fit       0.037412
 **** Fit       0.061826
 **** Fit       0.063799
 **** Fit       0.067875
 **** Fit       0.017242
 **** Fit       0.022239
 **** Fit       0.041129
 **** Fit       0.042409
 **** Fit       0.042978
 **** Fit       0.043496
 **** Fit       0.061082
 **** Fit       0.062559
 **** Fit       0.065701
 **** Fit       0.060646
 **** Fit       0.060875
 **** Fit       0.062329
 **** Fit       0.065235
 **** Fit       0.069684
 **** Fit       0.062325
 **** Fit       0.061335
 **** Fit       0.060863
 **** Fit       0.061299
 **** Fit       0.062902
 **** Fit       0.065759
 **** Fit       0.069733
 **** Fit       0.062910
 **** Fit       0.062027
 **** Fit       0.061740
 **** Fit       0.062360
 **** Fit       0.064019
 **** Fit       0.066606
 **** Fit       0.069714
 **** Fit       0.072639
 **** Fit       0.074495
 **** Fit       0.074523
 **** Fit       0.063336
 **** Fit       0.064239
 **** Fit       0.065982
 **** Fit       0.044461
 **** Fit       0.032763
 **** Fit       0.036394
 **** Fit       0.040577
 **** Fit       0.046030
 **** Fit       0.053732
 **** Fit       0.038782
 **** Fit       0.041722
 **** Fit       0.044821
 **** Fit       0.048776
 **** Fit       0.054404
 **** Fit       0.062871
 **** Fit       0.030410
 **** Fit       0.035274
 **** Fit       0.043068
 **** Fit       0.045540
 **** Fit       0.047961
 **** Fit       0.050898
 **** Fit       0.054974
 **** Fit       0.060986
 **** Fit       0.029746
 **** Fit       0.035675
 **** Fit       0.039970
 **** Fit       0.046292
 **** Fit       0.048430
 **** Fit       0.050452
 **** Fit       0.052800
 **** Fit       0.055953
 **** Fit       0.060484
 **** Fit       0.029606
 **** Fit       0.035316
 **** Fit       0.040029
 **** Fit       0.043614
 **** Fit       0.048940
 **** Fit       0.050844
 **** Fit       0.052647
 **** Fit       0.054714
 **** Fit       0.057450
 **** Fit       0.061319
 **** Fit       0.035752
 **** Fit       0.039908
 **** Fit       0.043618
 **** Fit       0.046610
 **** Fit       0.051333
 **** Fit       0.053020
 **** Fit       0.054659
 **** Fit       0.056552
 **** Fit       0.059037
 **** Fit       0.043620
 **** Fit       0.040487
 **** Fit       0.038943
 **** Fit       0.039420
 **** Fit       0.041456
 **** Fit       0.044202
 **** Fit       0.046956
 **** Fit       0.049355
 **** Fit       0.053706
 **** Fit       0.055147
 **** Fit       0.056615
 **** Fit       0.058336
 **** Fit       0.060562
 **** Fit       0.049559
 **** Fit       0.047304
 **** Fit       0.046539
 **** Fit       0.047131
 **** Fit       0.048590
 **** Fit       0.050378
 **** Fit       0.052130
 **** Fit       0.056275
 **** Fit       0.057546
 **** Fit       0.058965
 **** Fit       0.060724
 **** Fit       0.054014
 **** Fit       0.052914
 **** Fit       0.053029
 **** Fit       0.053880
 **** Fit       0.055041
 **** Fit       0.059289
 **** Fit       0.060390
 **** Fit       0.061832
 **** Fit       0.058412
 **** Fit       0.058067
 **** Fit       0.058473
 **** Fit       0.063087
 **** Fit       0.062810
 **** Fit       0.022665
 **** Fit       0.024924
 **** Fit       0.028276
 **** Fit       0.031923
 **** Fit       0.035435
 **** Fit       0.038570
 **** Fit       0.041178
 **** Fit       0.043215
 **** Fit       0.044839
 **** Fit       0.046533
 **** Fit       0.039324
 **** Fit       0.033567
 **** Fit       0.031243
 **** Fit       0.031408
 **** Fit       0.033076
 **** Fit       0.035486
 **** Fit       0.038132
 **** Fit       0.040694
 **** Fit       0.042972
 **** Fit       0.044882
 **** Fit       0.046497
 **** Fit       0.048110
 **** Fit       0.050191
 **** Fit       0.053170
 **** Fit       0.060901
 **** Fit       0.051944
 **** Fit       0.044846
 **** Fit       0.040224
 **** Fit       0.038009
 **** Fit       0.037696
 **** Fit       0.038653
 **** Fit       0.040321
 **** Fit       0.042283
 **** Fit       0.044254
 **** Fit       0.046068
 **** Fit       0.047688
 **** Fit       0.049238
 **** Fit       0.050987
 **** Fit       0.053221
 **** Fit       0.056053
 **** Fit       0.059286
 **** Fit       0.063278
 **** Fit       0.063777
 **** Fit       0.073900
 **** Fit       0.071078
 **** Fit       0.066145
 **** Fit       0.060020
 **** Fit       0.053871
 **** Fit       0.048702
 **** Fit       0.045095
 **** Fit       0.043154
 **** Fit       0.042639
 **** Fit       0.043154
 **** Fit       0.044301
 **** Fit       0.045754
 **** Fit       0.047284
 **** Fit       0.048773
 **** Fit       0.050223
 **** Fit       0.051750
 **** Fit       0.053517
 **** Fit       0.055610
 **** Fit       0.057933
 **** Fit       0.060206
 **** Fit       0.062075
 **** Fit       0.061270
 **** Fit       0.061853
 **** Fit       0.062143
 **** Fit       0.062490
 **** Fit       0.063228
 **** Fit       0.064494
 **** Fit       0.066102
 **** Fit       0.067516
 **** Fit       0.067999
 **** Fit       0.066930
 **** Fit       0.064148
 **** Fit       0.060085
 **** Fit       0.055592
 **** Fit       0.051566
 **** Fit       0.048628
 **** Fit       0.046995
 **** Fit       0.046538
 **** Fit       0.046956
 **** Fit       0.047916
 **** Fit       0.049144
 **** Fit       0.050472
 **** Fit       0.051852
 **** Fit       0.053338
 **** Fit       0.055001
 **** Fit       0.056823
 **** Fit       0.058640
 **** Fit       0.060191
 **** Fit       0.059994
 **** Fit       0.060640
 **** Fit       0.061106
 **** Fit       0.061648
 **** Fit       0.062431
 **** Fit       0.063354
 **** Fit       0.064012
 **** Fit       0.063848
 **** Fit       0.062464
 **** Fit       0.059909
 **** Fit       0.056713
 **** Fit       0.053630
 **** Fit       0.051287
 **** Fit       0.049970
 **** Fit       0.049632
 **** Fit       0.050037
 **** Fit       0.050905
 **** Fit       0.052023
 **** Fit       0.053284
 **** Fit       0.054669
 **** Fit       0.056162
 **** Fit       0.057665
 **** Fit       0.058997
 **** Fit       0.059139
 **** Fit       0.059850
 **** Fit       0.060417
 **** Fit       0.060987
 **** Fit       0.061479
 **** Fit       0.061511
 **** Fit       0.060643
 **** Fit       0.058782
 **** Fit       0.056368
 **** Fit       0.054132
 **** Fit       0.052654
 **** Fit       0.052119
 **** Fit       0.052383
 **** Fit       0.053176
 **** Fit       0.054278
 **** Fit       0.055554
 **** Fit       0.056896
 **** Fit       0.058145
 **** Fit       0.058495
 **** Fit       0.059274
 **** Fit       0.059781
 **** Fit       0.059862
 **** Fit       0.059080
 **** Fit       0.057372
 **** Fit       0.055478
 **** Fit       0.054320
 **** Fit       0.054226
 **** Fit       0.054952
 **** Fit       0.056122
 **** Fit       0.057402
 **** Fit       0.057912
 **** Fit       0.058569
 **** Fit       0.058031
 **** Fit       0.056495
 **** Fit       0.055844
 **** Fit       0.056673
 **** Fit       0.057277
 -----------------------------------------------------------------
 Leave Link  602 at Thu Sep 19 15:28:48 2019, MaxMem=  1342177280 cpu:             127.7 elap:               2.8

 Test job not archived.
 1\1\GINC-C506-111\SP\RB3LYP\SVP\C54H83Ca1N15O23\PENGZHI\19-Sep-2019\0\
 \#b3lyp/svp scf=(tight,noincore,xqc) Test #IOP(5/87=12) Density=Curren
 t Pop=(MK,readradii) iop(6/33=2) iop(6/42=6)\\Ng-293_loop3_77.0\\0,1\C
 ,0,40.77,86.54,76.76\C,0,40.7,86.,75.34\O,0,41.63,85.32,74.91\H,0,41.0
 36,87.597,76.734\H,0,39.8,86.422,77.242\H,0,41.525,85.99,77.322\N,0,39
 .63,86.2,74.56\C,0,39.38,85.64,73.25\C,0,38.67,84.3,73.4\O,0,37.95,84.
 06,74.36\C,0,38.51,86.62,72.46\C,0,38.09,86.3,71.04\O,0,38.6,85.34,70.
 41\O,0,37.26,87.04,70.46\H,0,39.05,86.99,74.8\H,0,40.33,85.48,72.75\H,
 0,39.22,87.43,72.33\H,0,37.77,87.02,73.15\N,0,38.73,83.41,72.4\C,0,37.
 9,82.24,72.19\C,0,36.42,82.57,72.11\O,0,35.89,83.56,72.61\C,0,38.24,81
 .13,73.19\C,0,39.73,80.82,73.17\C,0,40.31,80.33,71.84\C,0,41.81,80.13,
 71.93\N,0,42.25,79.33,70.76\H,0,39.33,83.58,71.61\H,0,38.08,81.91,71.1
 7\H,0,37.62,80.26,72.96\H,0,37.94,81.29,74.23\H,0,39.85,79.94,73.8\H,0
 ,40.44,81.52,73.61\H,0,40.05,80.95,70.98\H,0,39.81,79.38,71.67\H,0,42.
 02,79.6,72.86\H,0,42.46,81.,71.86\H,0,41.68,78.5,70.73\H,0,42.26,79.93
 ,69.95\H,0,43.16,78.93,70.93\N,0,35.67,81.76,71.36\C,0,34.35,82.16,70.
 89\C,0,33.2,82.06,71.88\O,0,32.19,82.69,71.58\C,0,34.04,81.37,69.62\C,
 0,33.9,79.86,69.81\O,0,33.98,79.22,70.88\O,0,33.8,79.2,68.76\H,0,36.2,
 81.03,70.92\H,0,34.44,83.19,70.56\H,0,34.91,81.53,68.98\H,0,33.2,81.68
 ,69.01\N,0,33.3,81.31,72.98\C,0,32.36,81.31,74.08\C,0,30.96,80.83,73.7
 6\O,0,30.09,81.08,74.6\H,0,34.17,80.87,73.23\H,0,32.31,82.18,74.74\H,0
 ,32.83,80.6,74.76\N,0,30.75,80.14,72.63\C,0,29.4,79.75,72.28\C,0,29.06
 ,78.44,72.98\O,0,29.83,77.5,73.11\C,0,29.33,79.59,70.76\C,0,27.94,79.3
 6,70.18\N,0,27.38,80.37,69.51\O,0,27.31,78.32,70.31\H,0,31.53,79.85,72
 .07\H,0,28.67,80.51,72.56\H,0,29.9,78.69,70.53\H,0,29.8,80.42,70.25\H,
 0,27.88,81.22,69.27\H,0,26.61,80.14,68.89\N,0,27.76,78.34,73.27\C,0,27
 .21,77.1,73.78\C,0,27.39,76.94,75.28\O,0,28.07,77.71,75.95\H,0,27.19,7
 9.16,73.12\H,0,27.56,76.23,73.24\H,0,26.14,77.28,73.64\N,0,26.77,75.93
 ,75.9\C,0,26.87,75.53,77.29\C,0,28.23,75.34,77.94\O,0,28.29,74.9,79.09
 \C,0,26.07,76.61,78.01\C,0,25.8,76.28,79.46\C,0,26.2,77.1,80.53\C,0,25
 .19,75.06,79.77\C,0,25.92,76.74,81.85\C,0,24.9,74.71,81.09\C,0,25.39,7
 5.47,82.17\O,0,24.96,75.27,83.45\H,0,26.1,75.32,75.45\H,0,26.35,74.57,
 77.38\H,0,25.1,76.81,77.56\H,0,26.55,77.59,77.99\H,0,26.77,77.99,80.32
 \H,0,24.94,74.31,79.03\H,0,26.23,77.38,82.66\H,0,24.55,73.69,81.14\H,0
 ,24.23,74.65,83.5\N,0,29.25,75.48,77.09\C,0,30.67,75.2,77.16\C,0,30.92
 ,73.7,77.2\O,0,31.69,73.21,76.37\C,0,31.32,75.94,78.33\C,0,31.16,77.45
 ,78.41\C,0,32.81,75.64,78.19\C,0,31.47,78.24,77.14\H,0,28.97,75.73,76.
 15\H,0,31.07,75.59,76.23\H,0,30.98,75.56,79.29\H,0,31.85,77.76,79.21\H
 ,0,30.18,77.71,78.81\H,0,33.42,76.29,78.81\H,0,32.93,74.66,78.64\H,0,3
 3.16,75.62,77.15\H,0,32.54,78.15,76.95\H,0,30.89,77.82,76.33\H,0,31.3,
 79.28,77.43\N,0,30.37,72.98,78.18\C,0,30.3,71.54,78.23\C,0,31.63,70.82
 ,78.42\O,0,31.99,69.85,77.76\C,0,29.45,71.14,79.43\O,0,29.63,72.01,80.
 53\H,0,29.78,73.41,78.88\H,0,29.88,71.09,77.32\H,0,29.64,70.07,79.57\H
 ,0,28.42,71.28,79.11\H,0,28.75,72.07,80.91\N,0,32.49,71.51,79.18\C,0,3
 3.87,71.19,79.46\C,0,34.8,71.11,78.26\O,0,35.77,70.35,78.27\C,0,34.05,
 70.05,80.46\H,0,32.1,72.31,79.65\H,0,34.14,72.08,80.03\H,0,33.83,69.06
 ,80.08\H,0,35.09,69.96,80.79\H,0,33.41,70.26,81.32\N,0,34.48,71.76,77.
 14\C,0,35.29,71.75,75.94\C,0,36.1,73.02,75.73\O,0,35.78,74.09,76.25\C,
 0,34.43,71.57,74.69\H,0,33.63,72.31,77.08\H,0,35.96,70.9,75.9\H,0,35.0
 2,71.53,73.77\H,0,33.88,70.64,74.72\H,0,33.76,72.42,74.63\N,0,37.2,72.
 87,74.99\C,0,38.22,73.88,74.83\C,0,39.08,74.42,75.97\O,0,39.93,75.3,75
 .87\C,0,37.68,74.98,73.92\C,0,37.17,74.51,72.56\C,0,36.89,75.68,71.62\
 O,0,35.79,76.24,71.78\O,0,37.85,76.28,71.1\H,0,37.42,71.91,74.74\H,0,3
 8.99,73.32,74.3\H,0,38.51,75.67,73.75\H,0,36.88,75.55,74.39\H,0,36.22,
 74.,72.71\H,0,37.89,73.83,72.09\N,0,38.93,73.79,77.14\C,0,39.51,74.26,
 78.38\H,0,40.404,74.845,78.164\H,0,38.787,74.883,78.907\H,0,39.777,73.
 407,79.003\H,0,38.1,73.23,77.25\Ca,0,33.88,76.67,69.97\O,0,31.52,76.35
 ,68.84\H,0,30.75,76.05,69.34\H,0,31.28,76.2,67.93\\Version=ES64L-G16Re
 vA.03\State=1-A\HF=-5333.3195284\RMSD=1.673e-09\Dipole=-0.3756746,-10.
 5601968,-4.7497937\Quadrupole=161.9500249,-204.4300311,42.4800062,-15.
 2205793,-35.5502992,78.1657653\PG=C01 [X(C54H83Ca1N15O23)]\\@


 YOU KNOW YOU'RE A TEACHER WHEN YOU SAY 2, WRITE 3, AND MEAN 4.
 -- RONALD ANSTROM, HIGH SCHOOL TEACHER, UNDERWOOD, N.D. 1974
 Job cpu time:       1 days  4 hours 56 minutes 35.9 seconds.
 Elapsed time:       0 days  0 hours 36 minutes 53.3 seconds.
 File lengths (MBytes):  RWF=   1658 Int=      0 D2E=      0 Chk=    171 Scr=      1
 Normal termination of Gaussian 16 at Thu Sep 19 15:28:50 2019.
