 Entering Gaussian System, Link 0=g16
 Initial command:
 /home1/apps/gaussian/16rA.03/g16/l1.exe "/scratch/01990/pengzhi/4350466/Gau-202251.inp" -scrdir="/scratch/01990/pengzhi/4350466/"
 Entering Link 1 = /home1/apps/gaussian/16rA.03/g16/l1.exe PID=    202252.
  
 Copyright (c) 1988,1990,1992,1993,1995,1998,2003,2009,2016,
            Gaussian, Inc.  All Rights Reserved.
  
 This is part of the Gaussian(R) 16 program.  It is based on
 the Gaussian(R) 09 system (copyright 2009, Gaussian, Inc.),
 the Gaussian(R) 03 system (copyright 2003, Gaussian, Inc.),
 the Gaussian(R) 98 system (copyright 1998, Gaussian, Inc.),
 the Gaussian(R) 94 system (copyright 1995, Gaussian, Inc.),
 the Gaussian 92(TM) system (copyright 1992, Gaussian, Inc.),
 the Gaussian 90(TM) system (copyright 1990, Gaussian, Inc.),
 the Gaussian 88(TM) system (copyright 1988, Gaussian, Inc.),
 the Gaussian 86(TM) system (copyright 1986, Carnegie Mellon
 University), and the Gaussian 82(TM) system (copyright 1983,
 Carnegie Mellon University). Gaussian is a federally registered
 trademark of Gaussian, Inc.
  
 This software contains proprietary and confidential information,
 including trade secrets, belonging to Gaussian, Inc.
  
 This software is provided under written license and may be
 used, copied, transmitted, or stored only in accord with that
 written license.
  
 The following legend is applicable only to US Government
 contracts under FAR:
  
                    RESTRICTED RIGHTS LEGEND
  
 Use, reproduction and disclosure by the US Government is
 subject to restrictions as set forth in subparagraphs (a)
 and (c) of the Commercial Computer Software - Restricted
 Rights clause in FAR 52.227-19.
  
 Gaussian, Inc.
 340 Quinnipiac St., Bldg. 40, Wallingford CT 06492
  
  
 ---------------------------------------------------------------
 Warning -- This program may not be used in any manner that
 competes with the business of Gaussian, Inc. or will provide
 assistance to any competitor of Gaussian, Inc.  The licensee
 of this program is prohibited from giving any competitor of
 Gaussian, Inc. access to this program.  By using this program,
 the user acknowledges that Gaussian, Inc. is engaged in the
 business of creating and licensing software in the field of
 computational chemistry and represents and warrants to the
 licensee that it is not a competitor of Gaussian, Inc. and that
 it will not use this program in any manner prohibited above.
 ---------------------------------------------------------------
  

 Cite this work as:
 Gaussian 16, Revision A.03,
 M. J. Frisch, G. W. Trucks, H. B. Schlegel, G. E. Scuseria, 
 M. A. Robb, J. R. Cheeseman, G. Scalmani, V. Barone, 
 G. A. Petersson, H. Nakatsuji, X. Li, M. Caricato, A. V. Marenich, 
 J. Bloino, B. G. Janesko, R. Gomperts, B. Mennucci, H. P. Hratchian, 
 J. V. Ortiz, A. F. Izmaylov, J. L. Sonnenberg, D. Williams-Young, 
 F. Ding, F. Lipparini, F. Egidi, J. Goings, B. Peng, A. Petrone, 
 T. Henderson, D. Ranasinghe, V. G. Zakrzewski, J. Gao, N. Rega, 
 G. Zheng, W. Liang, M. Hada, M. Ehara, K. Toyota, R. Fukuda, 
 J. Hasegawa, M. Ishida, T. Nakajima, Y. Honda, O. Kitao, H. Nakai, 
 T. Vreven, K. Throssell, J. A. Montgomery, Jr., J. E. Peralta, 
 F. Ogliaro, M. J. Bearpark, J. J. Heyd, E. N. Brothers, K. N. Kudin, 
 V. N. Staroverov, T. A. Keith, R. Kobayashi, J. Normand, 
 K. Raghavachari, A. P. Rendell, J. C. Burant, S. S. Iyengar, 
 J. Tomasi, M. Cossi, J. M. Millam, M. Klene, C. Adamo, R. Cammi, 
 J. W. Ochterski, R. L. Martin, K. Morokuma, O. Farkas, 
 J. B. Foresman, and D. J. Fox, Gaussian, Inc., Wallingford CT, 2016.
 
 ******************************************
 Gaussian 16:  ES64L-G16RevA.03 25-Dec-2016
                17-Sep-2019 
 ******************************************
 %chk=Ng-293_loop3_83.0.chk
 %nprocshared=48
 Will use up to   48 processors via shared memory.
 %mem=10GB
 %nosave
 ----------------------------------------------------------------------
 #b3lyp/svp scf=(tight,noincore) Test #IOP(5/87=12) Density=Current Pop
 =(MK,readradii) iop(6/33=2) iop(6/42=6)
 ----------------------------------------------------------------------
 1/30=1,38=1,172=1/1;
 2/12=2,17=6,18=5,40=1/2;
 3/5=18,7=101,11=2,25=1,30=1,74=-5/1,2,3;
 4//1;
 5/5=4,32=2,38=5,87=12/2;
 6/7=2,8=2,9=2,10=2,15=8,20=101,22=-1,28=1,33=2,42=6/1,2;
 99/5=1,9=1/99;
 -----------------
 Ng-293_loop3_83.0
 -----------------
 Symbolic Z-matrix:
 Charge =  0 Multiplicity = 1
 C                     50.96     54.77     44.5 
 C                     51.13     54.11     45.86 
 O                     50.36     54.28     46.81 
 H                     50.297    55.63     44.594 
 H                     51.931    55.1      44.131 
 H                     50.529    54.055    43.8 
 N                     52.17     53.28     45.94 
 C                     52.7      52.48     47.02 
 C                     53.16     53.17     48.29 
 O                     54.31     52.98     48.69 
 C                     51.81     51.24     47.15 
 C                     52.58     50.04     47.67 
 O                     53.5      49.55     46.99 
 O                     52.32     49.63     48.83 
 H                     52.77     53.42     45.14 
 H                     53.59     52.06     46.56 
 H                     51.37     50.91     46.21 
 H                     50.91     51.49     47.72 
 N                     52.31     54.05     48.83 
 C                     52.6      55.12     49.77 
 C                     52.64     54.72     51.23 
 O                     52.81     55.6      52.08 
 C                     52.02     56.46     49.32 
 C                     50.52     56.53     49.56 
 C                     49.9      57.72     48.82 
 C                     48.41     57.4      48.7 
 N                     47.66     57.54     49.96 
 H                     51.36     53.94     48.51 
 H                     53.67     55.27     49.66 
 H                     52.18     56.44     48.25 
 H                     52.53     57.3      49.8 
 H                     50.27     56.62     50.62 
 H                     50.17     55.61     49.09 
 H                     50.3      57.68     47.81 
 H                     50.05     58.72     49.22 
 H                     48.19     56.46     48.21 
 H                     48.07     58.25     48.12 
 H                     47.86     56.81     50.62 
 H                     47.86     58.43     50.4 
 H                     46.68     57.42     49.75 
 N                     52.76     53.43     51.54 
 C                     53.68     52.97     52.56 
 C                     54.52     51.87     51.92 
 O                     54.18     51.33     50.87 
 C                     52.87     52.52     53.77 
 C                     51.55     51.77     53.64 
 O                     51.38     50.84     52.82 
 O                     50.66     52.02     54.49 
 H                     52.62     52.81     50.76 
 H                     54.41     53.67     52.96 
 H                     52.7      53.42     54.36 
 H                     53.42     51.83     54.4 
 N                     55.57     51.44     52.63 
 C                     56.42     50.33     52.27 
 C                     55.63     49.04     52.49 
 O                     55.79     48.45     53.55 
 H                     55.86     52.       53.42 
 H                     57.33     50.17     52.85 
 H                     56.71     50.4      51.23 
 N                     54.85     48.55     51.53 
 C                     53.88     47.48     51.65 
 C                     53.79     46.5      50.48 
 O                     53.94     45.29     50.52 
 C                     52.61     48.17     52.14 
 C                     51.49     47.23     52.56 
 N                     51.76     45.97     52.9 
 O                     50.32     47.6      52.65 
 H                     54.89     49.09     50.68 
 H                     54.18     46.81     52.45 
 H                     52.21     48.95     51.49 
 H                     52.85     48.69     53.07 
 H                     52.66     45.51     52.97 
 H                     50.97     45.47     53.28 
 N                     53.41     47.06     49.33 
 C                     53.13     46.38     48.09 
 C                     51.73     45.79     48.11 
 O                     50.94     46.05     47.21 
 H                     53.39     48.07     49.38 
 H                     53.89     45.63     47.87 
 H                     53.24     47.24     47.42 
 N                     51.34     45.16     49.22 
 C                     50.03     44.65     49.55 
 C                     48.91     45.68     49.7 
 O                     47.74     45.34     49.81 
 C                     49.68     43.55     48.55 
 C                     50.79     42.56     48.3 
 C                     51.16     41.7      49.34 
 C                     51.6      42.68     47.16 
 C                     52.35     40.97     49.26 
 C                     52.8      41.96     47.08 
 C                     53.17     41.09     48.12 
 O                     54.31     40.35     48. 
 H                     52.1      44.84     49.81 
 H                     50.13     44.18     50.53 
 H                     49.43     44.04     47.61 
 H                     48.85     42.91     48.85 
 H                     50.58     41.61     50.24 
 H                     51.27     43.33     46.37 
 H                     52.65     40.26     50.03 
 H                     53.33     42.07     46.14 
 H                     54.79     40.64     47.22 
 N                     49.28     46.96     49.72 
 C                     48.5      48.17     49.92 
 C                     47.48     48.3      51.04 
 O                     47.7      49.12     51.93 
 C                     48.       48.75     48.6 
 C                     47.49     50.18     48.76 
 C                     46.9      47.89     47.98 
 C                     47.49     50.98     47.46 
 H                     50.21     47.11     49.36 
 H                     49.29     48.83     50.27 
 H                     48.87     48.83     47.95 
 H                     48.14     50.69     49.46 
 H                     46.45     50.18     49.09 
 H                     47.18     46.87     47.72 
 H                     45.99     47.87     48.58 
 H                     46.64     48.38     47.05 
 H                     46.97     50.46     46.66 
 H                     47.02     51.95     47.64 
 H                     48.5      51.21     47.12 
 N                     46.33     47.64     50.94 
 C                     45.37     47.5      52.02 
 C                     43.91     47.21     51.69 
 O                     43.13     46.88     52.57 
 C                     45.97     46.57     53.06 
 O                     46.04     45.26     52.56 
 H                     46.39     46.79     50.39 
 H                     45.34     48.46     52.54 
 H                     45.25     46.56     53.88 
 H                     46.88     47.       53.47 
 H                     45.28     45.07     52. 
 N                     43.59     47.2      50.39 
 C                     42.25     47.37     49.85 
 C                     41.44     48.5      50.48 
 O                     40.85     49.14     49.62 
 C                     41.51     46.04     49.81 
 H                     44.32     47.6      49.81 
 H                     42.45     47.62     48.81 
 H                     42.07     45.22     49.36 
 H                     41.44     45.66     50.83 
 H                     40.48     46.25     49.49 
 N                     41.51     48.87     51.75 
 C                     41.62     50.23     52.26 
 C                     42.76     50.92     51.53 
 O                     43.72     50.3      51.08 
 C                     41.85     50.09     53.77 
 H                     41.84     48.14     52.37 
 H                     40.66     50.68     52.04 
 H                     42.78     49.53     53.89 
 H                     41.82     51.05     54.28 
 H                     41.05     49.5      54.2 
 N                     42.64     52.25     51.5 
 C                     43.57     53.18     50.89 
 C                     43.84     52.91     49.41 
 O                     44.59     53.66     48.8 
 C                     44.81     53.44     51.74 
 C                     45.86     52.36     51.97 
 C                     46.98     52.71     52.94 
 O                     46.84     53.56     53.84 
 O                     48.       52.02     52.7 
 H                     41.86     52.62     52.03 
 H                     43.05     54.13     50.97 
 H                     44.39     53.82     52.66 
 H                     45.37     54.28     51.33 
 H                     46.26     52.1      50.99 
 H                     45.34     51.45     52.27 
 N                     43.21     51.95     48.72 
 C                     43.34     51.58     47.33 
 H                     44.396    51.477    47.079 
 H                     42.832    50.631    47.157 
 H                     42.892    52.352    46.704 
 H                     42.68     51.33     49.32 
 Ca                    49.16     49.97     53.92 
 O                     48.85     47.67     55.05 
 H                     49.72     47.34     54.85 
 H                     48.3      46.89     55.09 
 
 Stoichiometry    C54H83CaN15O23
 Framework group  C1[X(C54H83CaN15O23)]
 Deg. of freedom   522
 Full point group                 C1      NOp   1
 Largest Abelian subgroup         C1      NOp   1
 Largest concise Abelian subgroup C1      NOp   1
                         Standard orientation:                         
 ---------------------------------------------------------------------
 Center     Atomic      Atomic             Coordinates (Angstroms)
 Number     Number       Type             X           Y           Z
 ---------------------------------------------------------------------
      1          6           0       -0.164929    5.499955    5.739623
      2          6           0       -0.442109    4.917744    4.361834
      3          8           0        0.420111    4.765665    3.491346
      4          1           0        0.776564    6.048756    5.719292
      5          1           0       -0.972509    6.176601    6.018667
      6          1           0       -0.098404    4.693187    6.468791
      7          7           0       -1.704376    4.532882    4.173522
      8          6           0       -2.392045    3.961622    3.038589
      9          6           0       -2.441911    4.742098    1.738985
     10          8           0       -3.537477    4.984181    1.229346
     11          6           0       -2.020689    2.476654    2.978879
     12          6           0       -3.130921    1.637268    2.373803
     13          8           0       -4.225960    1.541710    2.957461
     14          8           0       -2.936393    1.131804    1.238917
     15          1           0       -2.280168    4.905638    4.914547
     16          1           0       -3.412924    3.914480    3.406942
     17          1           0       -1.824509    2.029590    3.952402
     18          1           0       -1.043787    2.359666    2.499948
     19          7           0       -1.279033    5.228970    1.292698
     20          6           0       -1.060795    6.306768    0.342264
     21          6           0       -1.111748    5.914952   -1.119613
     22          8           0       -0.861896    6.773988   -1.971336
     23          6           0       -0.067299    7.345072    0.861292
     24          6           0        1.365893    6.845758    0.765671
     25          6           0        2.313546    7.737070    1.575373
     26          6           0        3.558764    6.888410    1.832488
     27          7           0        4.420025    6.708386    0.651166
     28          1           0       -0.472578    4.781051    1.700126
     29          1           0       -2.002924    6.846952    0.351945
     30          1           0       -0.321510    7.412160    1.910947
     31          1           0       -0.180513    8.302587    0.345106
     32          1           0        1.728373    6.810356   -0.264647
     33          1           0        1.302482    5.873339    1.255753
     34          1           0        1.835851    7.873484    2.542274
     35          1           0        2.584960    8.710964    1.174918
     36          1           0        3.366022    5.946318    2.329894
     37          1           0        4.135936    7.564605    2.452271
     38          1           0        4.024258    6.089459   -0.033522
     39          1           0        4.607961    7.597861    0.204831
     40          1           0        5.260630    6.237340    0.951828
     41          7           0       -1.674861    4.755204   -1.455004
     42          6           0       -2.601372    4.646046   -2.563183
     43          6           0       -3.846306    3.953772   -2.019036
     44          8           0       -3.830937    3.351777   -0.948024
     45          6           0       -1.909343    3.897501   -3.696089
     46          6           0       -0.982342    2.713416   -3.450303
     47          8           0       -1.248061    1.807259   -2.629040
     48          8           0        0.011243    2.593325   -4.208898
     49          1           0       -1.848983    4.146859   -0.672701
     50          1           0       -2.977309    5.557518   -3.022301
     51          1           0       -1.362192    4.654857   -4.256480
     52          1           0       -2.616110    3.446712   -4.383673
     53          7           0       -4.910346    3.928399   -2.830624
     54          6           0       -6.142326    3.223745   -2.566260
     55          6           0       -5.873609    1.727421   -2.725651
     56          8           0       -6.143221    1.213745   -3.803031
     57          1           0       -4.896159    4.536673   -3.637842
     58          1           0       -6.988465    3.399929   -3.231924
     59          1           0       -6.480224    3.421999   -1.557737
     60          7           0       -5.425035    1.005822   -1.701846
     61          6           0       -4.917355   -0.350957   -1.741973
     62          6           0       -5.307972   -1.265192   -0.580511
     63          8           0       -5.893942   -2.332967   -0.649035
     64          6           0       -3.442186   -0.195504   -2.100877
     65          6           0       -2.719778   -1.494822   -2.423829
     66          7           0       -3.407416   -2.571627   -2.802968
     67          8           0       -1.493277   -1.589289   -2.397890
     68          1           0       -5.339281    1.542444   -0.853092
     69          1           0       -5.370117   -0.880402   -2.574797
     70          1           0       -2.842200    0.395115   -1.406554
     71          1           0       -3.383794    0.353632   -3.043183
     72          1           0       -4.403388   -2.665076   -2.963609
     73          1           0       -2.829316   -3.338887   -3.112181
     74          7           0       -4.854761   -0.859057    0.606988
     75          6           0       -4.964576   -1.563977    1.859756
     76          6           0       -3.890170   -2.633051    1.965740
     77          8           0       -3.147151   -2.663983    2.939735
     78          1           0       -4.455060    0.069360    0.571189
     79          1           0       -5.966269   -1.971539    1.997612
     80          1           0       -4.807468   -0.708786    2.526514
     81          7           0       -3.662281   -3.389808    0.890340
     82          6           0       -2.612446   -4.358710    0.680157
     83          6           0       -1.180455   -3.823676    0.649512
     84          8           0       -0.216848   -4.577370    0.647057
     85          6           0       -2.792029   -5.485215    1.695654
     86          6           0       -4.209128   -5.984423    1.827268
     87          6           0       -4.775152   -6.669940    0.746627
     88          6           0       -5.017729   -5.543759    2.886551
     89          6           0       -6.153428   -6.902280    0.704532
     90          6           0       -6.401509   -5.763099    2.843625
     91          6           0       -6.971261   -6.457894    1.762866
     92          8           0       -8.310806   -6.717151    1.765215
     93          1           0       -4.428667   -3.418157    0.227054
     94          1           0       -2.789322   -4.781436   -0.310458
     95          1           0       -2.465506   -5.100750    2.660936
     96          1           0       -2.236607   -6.395309    1.468199
     97          1           0       -4.189926   -6.991297   -0.095240
     98          1           0       -4.543802   -5.044283    3.712030
     99          1           0       -6.623882   -7.468106   -0.098908
    100          1           0       -6.936817   -5.440824    3.730296
    101          1           0       -8.718024   -6.250385    2.499520
    102          7           0       -1.042921   -2.498834    0.609768
    103          6           0        0.146910   -1.671441    0.499218
    104          6           0        1.240762   -1.957844   -0.517227
    105          8           0        1.425781   -1.136838   -1.414231
    106          6           0        0.702635   -1.287280    1.867571
    107          6           0        1.721520   -0.154281    1.773828
    108          6           0        1.340153   -2.479580    2.578902
    109          6           0        1.899503    0.619646    3.077422
    110          1           0       -1.878933   -2.004675    0.881596
    111          1           0       -0.303965   -0.773526    0.083695
    112          1           0       -0.130924   -0.873335    2.432928
    113          1           0        1.376362    0.543815    1.021413
    114          1           0        2.712245   -0.549489    1.544101
    115          1           0        0.677241   -3.315365    2.798928
    116          1           0        2.228387   -2.851529    2.067831
    117          1           0        1.676834   -2.099081    3.535179
    118          1           0        2.111654   -0.036895    3.916913
    119          1           0        2.711785    1.340259    2.954474
    120          1           0        1.021313    1.217325    3.322701
    121          7           0        2.047147   -2.995872   -0.316371
    122          6           0        2.981224   -3.509470   -1.301924
    123          6           0        4.190494   -4.314010   -0.838264
    124          8           0        4.869029   -4.932007   -1.644099
    125          6           0        2.176751   -4.174311   -2.405242
    126          8           0        1.577374   -5.351487   -1.929843
    127          1           0        1.623899   -3.748762    0.215247
    128          1           0        3.415014   -2.642622   -1.805214
    129          1           0        2.913658   -4.471612   -3.153226
    130          1           0        1.534877   -3.446580   -2.894634
    131          1           0        2.156369   -5.797048   -1.302515
    132          7           0        4.361886   -4.410730    0.486036
    133          6           0        5.612454   -4.738689    1.152836
    134          6           0        6.839952   -4.007169    0.616152
    135          8           0        7.543717   -3.612056    1.535881
    136          6           0        5.796029   -6.247175    1.247026
    137          1           0        3.783382   -3.753713    0.998834
    138          1           0        5.424768   -4.406936    2.172058
    139          1           0        4.931598   -6.788532    1.631981
    140          1           0        5.813368   -6.650660    0.233813
    141          1           0        6.795667   -6.427979    1.665876
    142          7           0        7.030833   -3.668777   -0.650242
    143          6           0        7.483594   -2.378446   -1.152091
    144          6           0        6.620809   -1.296077   -0.525449
    145          8           0        5.461652   -1.502964   -0.176087
    146          6           0        7.358799   -2.459519   -2.678673
    147          1           0        6.511341   -4.238334   -1.307458
    148          1           0        8.517350   -2.312955   -0.836560
    149          1           0        6.302469   -2.635798   -2.893129
    150          1           0        7.791664   -1.592427   -3.172008
    151          1           0        7.917200   -3.315222   -3.037783
    152          7           0        7.224752   -0.106041   -0.468295
    153          6           0        6.656447    1.117898    0.061708
    154          6           0        6.169512    1.003978    1.506047
    155          8           0        5.700274    1.993903    2.050992
    156          6           0        5.687234    1.800029   -0.899033
    157          6           0        4.336397    1.183284   -1.240594
    158          6           0        3.522640    1.901320   -2.308313
    159          8           0        4.052141    2.615898   -3.180727
    160          8           0        2.301422    1.646705   -2.174522
    161          1           0        8.131908   -0.066045   -0.917370
    162          1           0        7.498178    1.803779    0.042810
    163          1           0        6.301844    1.973816   -1.770384
    164          1           0        5.445484    2.797850   -0.534052
    165          1           0        3.779444    1.114851   -0.306185
    166          1           0        4.504934    0.138089   -1.500714
    167          7           0        6.329334   -0.104428    2.241230
    168          6           0        5.942696   -0.365440    3.608082
    169          1           0        4.906104   -0.061765    3.756420
    170          1           0        6.041833   -1.430824    3.817184
    171          1           0        6.586237    0.199303    4.282978
    172          1           0        6.643005   -0.891595    1.686903
    173         20           0        0.578963    0.146811   -3.523578
    174          8           0        0.112135   -2.130082   -4.646444
    175          1           0       -0.832656   -2.107504   -4.533922
    176          1           0        0.332779   -3.059494   -4.643355
 ---------------------------------------------------------------------
 Rotational constants (GHZ):           0.0185772           0.0167080           0.0116291
 Standard basis: SVP (5D, 7F)
 There are  1809 symmetry adapted cartesian basis functions of A   symmetry.
 There are  1717 symmetry adapted basis functions of A   symmetry.
  1717 basis functions,  2922 primitive gaussians,  1809 cartesian basis functions
   358 alpha electrons      358 beta electrons
       nuclear repulsion energy     21221.9681569821 Hartrees.
 NAtoms=  176 NActive=  176 NUniq=  176 SFac= 1.00D+00 NAtFMM=   60 NAOKFM=T Big=T
 Integral buffers will be    131072 words long.
 Raffenetti 2 integral format.
 Two-electron integral symmetry is turned on.
 One-electron integrals computed using PRISM.
 NBasis=  1717 RedAO= T EigKep=  2.58D-04  NBF=  1717
 NBsUse=  1717 1.00D-06 EigRej= -1.00D+00 NBFU=  1717
 ExpMin= 1.98D-02 ExpMax= 3.51D+04 ExpMxC= 5.28D+03 IAcc=3 IRadAn=         5 AccDes= 0.00D+00
 Harris functional with IExCor=  402 and IRadAn=       5 diagonalized for initial guess.
 HarFok:  IExCor=  402 AccDes= 0.00D+00 IRadAn=         5 IDoV= 1 UseB2=F ITyADJ=14
 ICtDFT=  3500011 ScaDFX=  1.000000  1.000000  1.000000  1.000000
 FoFCou: FMM=F IPFlag=           0 FMFlag=      100000 FMFlg1=        2001
         NFxFlg=           0 DoJE=T BraDBF=F KetDBF=T FulRan=T
         wScrn=  0.000000 ICntrl=       500 IOpCl=  0 I1Cent=   200000004 NGrid=           0
         NMat0=    1 NMatS0=      1 NMatT0=    0 NMatD0=    1 NMtDS0=    0 NMtDT0=    0
 Petite list used in FoFCou.
 Requested convergence on RMS density matrix=1.00D-08 within 128 cycles.
 Requested convergence on MAX density matrix=1.00D-06.
 Requested convergence on             energy=1.00D-06.
 No special actions if energy rises.
 EnCoef did     2 forward-backward iterations
 EnCoef did     2 forward-backward iterations
 EnCoef did     3 forward-backward iterations
 SCF Done:  E(RB3LYP) =  -5333.44445331     A.U. after   20 cycles
            NFock= 20  Conv=0.58D-08     -V/T= 2.0080
 SCF density gives NOpUse=  1 NOpAll=  1.
 Hyperfine terms turned off by default for NAtoms > 100.

 **********************************************************************

            Population analysis using the SCF density.

 **********************************************************************

 Orbital symmetries:
 BldTbl:  Degeneracy threshold= 1.00D-02
       Occupied  (A) (A) (A) (A) (A) (A) (A) (A) (A) (A) (A) (A)
                 (A) (A) (A) (A) (A) (A) (A) (A) (A) (A) (A) (A)
                 (A) (A) (A) (A) (A) (A) (A) (A) (A) (A) (A) (A)
                 (A) (A) (A) (A) (A) (A) (A) (A) (A) (A) (A) (A)
                 (A) (A) (A) (A) (A) (A) (A) (A) (A) (A) (A) (A)
                 (A) (A) (A) (A) (A) (A) (A) (A) (A) (A) (A) (A)
                 (A) (A) (A) (A) (A) (A) (A) (A) (A) (A) (A) (A)
                 (A) (A) (A) (A) (A) (A) (A) (A) (A) (A) (A) (A)
                 (A) (A) (A) (A) (A) (A) (A) (A) (A) (A) (A) (A)
                 (A) (A) (A) (A) (A) (A) (A) (A) (A) (A) (A) (A)
                 (A) (A) (A) (A) (A) (A) (A) (A) (A) (A) (A) (A)
                 (A) (A) (A) (A) (A) (A) (A) (A) (A) (A) (A) (A)
                 (A) (A) (A) (A) (A) (A) (A) (A) (A) (A) (A) (A)
                 (A) (A) (A) (A) (A) (A) (A) (A) (A) (A) (A) (A)
                 (A) (A) (A) (A) (A) (A) (A) (A) (A) (A) (A) (A)
                 (A) (A) (A) (A) (A) (A) (A) (A) (A) (A) (A) (A)
                 (A) (A) (A) (A) (A) (A) (A) (A) (A) (A) (A) (A)
                 (A) (A) (A) (A) (A) (A) (A) (A) (A) (A) (A) (A)
                 (A) (A) (A) (A) (A) (A) (A) (A) (A) (A) (A) (A)
                 (A) (A) (A) (A) (A) (A) (A) (A) (A) (A) (A) (A)
                 (A) (A) (A) (A) (A) (A) (A) (A) (A) (A) (A) (A)
                 (A) (A) (A) (A) (A) (A) (A) (A) (A) (A) (A) (A)
                 (A) (A) (A) (A) (A) (A) (A) (A) (A) (A) (A) (A)
                 (A) (A) (A) (A) (A) (A) (A) (A) (A) (A) (A) (A)
                 (A) (A) (A) (A) (A) (A) (A) (A) (A) (A) (A) (A)
                 (A) (A) (A) (A) (A) (A) (A) (A) (A) (A) (A) (A)
                 (A) (A) (A) (A) (A) (A) (A) (A) (A) (A) (A) (A)
                 (A) (A) (A) (A) (A) (A) (A) (A) (A) (A) (A) (A)
                 (A) (A) (A) (A) (A) (A) (A) (A) (A) (A) (A) (A)
                 (A) (A) (A) (A) (A) (A) (A) (A) (A) (A)
       Virtual   (A) (A) (A) (A) (A) (A) (A) (A) (A) (A) (A) (A)
                 (A) (A) (A) (A) (A) (A) (A) (A) (A) (A) (A) (A)
                 (A) (A) (A) (A) (A) (A) (A) (A) (A) (A) (A) (A)
                 (A) (A) (A) (A) (A) (A) (A) (A) (A) (A) (A) (A)
                 (A) (A) (A) (A) (A) (A) (A) (A) (A) (A) (A) (A)
                 (A) (A) (A) (A) (A) (A) (A) (A) (A) (A) (A) (A)
                 (A) (A) (A) (A) (A) (A) (A) (A) (A) (A) (A) (A)
                 (A) (A) (A) (A) (A) (A) (A) (A) (A) (A) (A) (A)
                 (A) (A) (A) (A) (A) (A) (A) (A) (A) (A) (A) (A)
                 (A) (A) (A) (A) (A) (A) (A) (A) (A) (A) (A) (A)
                 (A) (A) (A) (A) (A) (A) (A) (A) (A) (A) (A) (A)
                 (A) (A) (A) (A) (A) (A) (A) (A) (A) (A) (A) (A)
                 (A) (A) (A) (A) (A) (A) (A) (A) (A) (A) (A) (A)
                 (A) (A) (A) (A) (A) (A) (A) (A) (A) (A) (A) (A)
                 (A) (A) (A) (A) (A) (A) (A) (A) (A) (A) (A) (A)
                 (A) (A) (A) (A) (A) (A) (A) (A) (A) (A) (A) (A)
                 (A) (A) (A) (A) (A) (A) (A) (A) (A) (A) (A) (A)
                 (A) (A) (A) (A) (A) (A) (A) (A) (A) (A) (A) (A)
                 (A) (A) (A) (A) (A) (A) (A) (A) (A) (A) (A) (A)
                 (A) (A) (A) (A) (A) (A) (A) (A) (A) (A) (A) (A)
                 (A) (A) (A) (A) (A) (A) (A) (A) (A) (A) (A) (A)
                 (A) (A) (A) (A) (A) (A) (A) (A) (A) (A) (A) (A)
                 (A) (A) (A) (A) (A) (A) (A) (A) (A) (A) (A) (A)
                 (A) (A) (A) (A) (A) (A) (A) (A) (A) (A) (A) (A)
                 (A) (A) (A) (A) (A) (A) (A) (A) (A) (A) (A) (A)
                 (A) (A) (A) (A) (A) (A) (A) (A) (A) (A) (A) (A)
                 (A) (A) (A) (A) (A) (A) (A) (A) (A) (A) (A) (A)
                 (A) (A) (A) (A) (A) (A) (A) (A) (A) (A) (A) (A)
                 (A) (A) (A) (A) (A) (A) (A) (A) (A) (A) (A) (A)
                 (A) (A) (A) (A) (A) (A) (A) (A) (A) (A) (A) (A)
                 (A) (A) (A) (A) (A) (A) (A) (A) (A) (A) (A) (A)
                 (A) (A) (A) (A) (A) (A) (A) (A) (A) (A) (A) (A)
                 (A) (A) (A) (A) (A) (A) (A) (A) (A) (A) (A) (A)
                 (A) (A) (A) (A) (A) (A) (A) (A) (A) (A) (A) (A)
                 (A) (A) (A) (A) (A) (A) (A) (A) (A) (A) (A) (A)
                 (A) (A) (A) (A) (A) (A) (A) (A) (A) (A) (A) (A)
                 (A) (A) (A) (A) (A) (A) (A) (A) (A) (A) (A) (A)
                 (A) (A) (A) (A) (A) (A) (A) (A) (A) (A) (A) (A)
                 (A) (A) (A) (A) (A) (A) (A) (A) (A) (A) (A) (A)
                 (A) (A) (A) (A) (A) (A) (A) (A) (A) (A) (A) (A)
                 (A) (A) (A) (A) (A) (A) (A) (A) (A) (A) (A) (A)
                 (A) (A) (A) (A) (A) (A) (A) (A) (A) (A) (A) (A)
                 (A) (A) (A) (A) (A) (A) (A) (A) (A) (A) (A) (A)
                 (A) (A) (A) (A) (A) (A) (A) (A) (A) (A) (A) (A)
                 (A) (A) (A) (A) (A) (A) (A) (A) (A) (A) (A) (A)
                 (A) (A) (A) (A) (A) (A) (A) (A) (A) (A) (A) (A)
                 (A) (A) (A) (A) (A) (A) (A) (A) (A) (A) (A) (A)
                 (A) (A) (A) (A) (A) (A) (A) (A) (A) (A) (A) (A)
                 (A) (A) (A) (A) (A) (A) (A) (A) (A) (A) (A) (A)
                 (A) (A) (A) (A) (A) (A) (A) (A) (A) (A) (A) (A)
                 (A) (A) (A) (A) (A) (A) (A) (A) (A) (A) (A) (A)
                 (A) (A) (A) (A) (A) (A) (A) (A) (A) (A) (A) (A)
                 (A) (A) (A) (A) (A) (A) (A) (A) (A) (A) (A) (A)
                 (A) (A) (A) (A) (A) (A) (A) (A) (A) (A) (A) (A)
                 (A) (A) (A) (A) (A) (A) (A) (A) (A) (A) (A) (A)
                 (A) (A) (A) (A) (A) (A) (A) (A) (A) (A) (A) (A)
                 (A) (A) (A) (A) (A) (A) (A) (A) (A) (A) (A) (A)
                 (A) (A) (A) (A) (A) (A) (A) (A) (A) (A) (A) (A)
                 (A) (A) (A) (A) (A) (A) (A) (A) (A) (A) (A) (A)
                 (A) (A) (A) (A) (A) (A) (A) (A) (A) (A) (A) (A)
                 (A) (A) (A) (A) (A) (A) (A) (A) (A) (A) (A) (A)
                 (A) (A) (A) (A) (A) (A) (A) (A) (A) (A) (A) (A)
                 (A) (A) (A) (A) (A) (A) (A) (A) (A) (A) (A) (A)
                 (A) (A) (A) (A) (A) (A) (A) (A) (A) (A) (A) (A)
                 (A) (A) (A) (A) (A) (A) (A) (A) (A) (A) (A) (A)
                 (A) (A) (A) (A) (A) (A) (A) (A) (A) (A) (A) (A)
                 (A) (A) (A) (A) (A) (A) (A) (A) (A) (A) (A) (A)
                 (A) (A) (A) (A) (A) (A) (A) (A) (A) (A) (A) (A)
                 (A) (A) (A) (A) (A) (A) (A) (A) (A) (A) (A) (A)
                 (A) (A) (A) (A) (A) (A) (A) (A) (A) (A) (A) (A)
                 (A) (A) (A) (A) (A) (A) (A) (A) (A) (A) (A) (A)
                 (A) (A) (A) (A) (A) (A) (A) (A) (A) (A) (A) (A)
                 (A) (A) (A) (A) (A) (A) (A) (A) (A) (A) (A) (A)
                 (A) (A) (A) (A) (A) (A) (A) (A) (A) (A) (A) (A)
                 (A) (A) (A) (A) (A) (A) (A) (A) (A) (A) (A) (A)
                 (A) (A) (A) (A) (A) (A) (A) (A) (A) (A) (A) (A)
                 (A) (A) (A) (A) (A) (A) (A) (A) (A) (A) (A) (A)
                 (A) (A) (A) (A) (A) (A) (A) (A) (A) (A) (A) (A)
                 (A) (A) (A) (A) (A) (A) (A) (A) (A) (A) (A) (A)
                 (A) (A) (A) (A) (A) (A) (A) (A) (A) (A) (A) (A)
                 (A) (A) (A) (A) (A) (A) (A) (A) (A) (A) (A) (A)
                 (A) (A) (A) (A) (A) (A) (A) (A) (A) (A) (A) (A)
                 (A) (A) (A) (A) (A) (A) (A) (A) (A) (A) (A) (A)
                 (A) (A) (A) (A) (A) (A) (A) (A) (A) (A) (A) (A)
                 (A) (A) (A) (A) (A) (A) (A) (A) (A) (A) (A) (A)
                 (A) (A) (A) (A) (A) (A) (A) (A) (A) (A) (A) (A)
                 (A) (A) (A) (A) (A) (A) (A) (A) (A) (A) (A) (A)
                 (A) (A) (A) (A) (A) (A) (A) (A) (A) (A) (A) (A)
                 (A) (A) (A) (A) (A) (A) (A) (A) (A) (A) (A) (A)
                 (A) (A) (A) (A) (A) (A) (A) (A) (A) (A) (A) (A)
                 (A) (A) (A) (A) (A) (A) (A) (A) (A) (A) (A) (A)
                 (A) (A) (A) (A) (A) (A) (A) (A) (A) (A) (A) (A)
                 (A) (A) (A) (A) (A) (A) (A) (A) (A) (A) (A) (A)
                 (A) (A) (A) (A) (A) (A) (A) (A) (A) (A) (A) (A)
                 (A) (A) (A) (A) (A) (A) (A) (A) (A) (A) (A) (A)
                 (A) (A) (A) (A) (A) (A) (A) (A) (A) (A) (A) (A)
                 (A) (A) (A) (A) (A) (A) (A) (A) (A) (A) (A) (A)
                 (A) (A) (A) (A) (A) (A) (A) (A) (A) (A) (A) (A)
                 (A) (A) (A) (A) (A) (A) (A) (A) (A) (A) (A) (A)
                 (A) (A) (A) (A) (A) (A) (A) (A) (A) (A) (A) (A)
                 (A) (A) (A) (A) (A) (A) (A) (A) (A) (A) (A) (A)
                 (A) (A) (A) (A) (A) (A) (A) (A) (A) (A) (A) (A)
                 (A) (A) (A) (A) (A) (A) (A) (A) (A) (A) (A) (A)
                 (A) (A) (A) (A) (A) (A) (A) (A) (A) (A) (A) (A)
                 (A) (A) (A) (A) (A) (A) (A) (A) (A) (A) (A) (A)
                 (A) (A) (A) (A) (A) (A) (A) (A) (A) (A) (A) (A)
                 (A) (A) (A) (A) (A) (A) (A) (A) (A) (A) (A) (A)
                 (A) (A) (A) (A) (A) (A) (A) (A) (A) (A) (A) (A)
                 (A) (A) (A) (A) (A) (A) (A) (A) (A) (A) (A) (A)
                 (A) (A) (A) (A) (A) (A) (A) (A) (A) (A) (A) (A)
                 (A) (A) (A) (A) (A) (A) (A) (A) (A) (A) (A) (A)
                 (A) (A) (A) (A) (A) (A) (A) (A) (A) (A) (A) (A)
                 (A) (A) (A) (A) (A) (A) (A) (A) (A) (A) (A) (A)
                 (A) (A) (A)
 The electronic state is 1-A.
 Alpha  occ. eigenvalues -- -145.40793 -19.21187 -19.14607 -19.13123 -19.12359
 Alpha  occ. eigenvalues --  -19.12022 -19.11898 -19.11833 -19.10388 -19.10054
 Alpha  occ. eigenvalues --  -19.08728 -19.08281 -19.07969 -19.07768 -19.07231
 Alpha  occ. eigenvalues --  -19.07217 -19.06865 -19.06861 -19.04577 -19.04161
 Alpha  occ. eigenvalues --  -19.00952 -19.00572 -18.99384 -18.98977 -15.46628
 Alpha  occ. eigenvalues --  -14.55873 -14.37665 -14.36917 -14.36860 -14.35840
 Alpha  occ. eigenvalues --  -14.35116 -14.34757 -14.34381 -14.34185 -14.33624
 Alpha  occ. eigenvalues --  -14.33311 -14.33044 -14.32588 -14.31847 -14.30851
 Alpha  occ. eigenvalues --  -12.60237 -12.60217 -12.60149 -10.32332 -10.30742
 Alpha  occ. eigenvalues --  -10.30331 -10.30068 -10.29735 -10.28911 -10.28605
 Alpha  occ. eigenvalues --  -10.27508 -10.27071 -10.26210 -10.26093 -10.26074
 Alpha  occ. eigenvalues --  -10.25838 -10.25783 -10.25640 -10.25462 -10.25059
 Alpha  occ. eigenvalues --  -10.24159 -10.24083 -10.23974 -10.23867 -10.23832
 Alpha  occ. eigenvalues --  -10.23462 -10.22586 -10.22261 -10.22212 -10.22171
 Alpha  occ. eigenvalues --  -10.21744 -10.21663 -10.21643 -10.21408 -10.20914
 Alpha  occ. eigenvalues --  -10.20562 -10.20523 -10.20498 -10.20449 -10.18857
 Alpha  occ. eigenvalues --  -10.18755 -10.18393 -10.18005 -10.17411 -10.17259
 Alpha  occ. eigenvalues --  -10.17257 -10.17166 -10.16969 -10.16801 -10.16542
 Alpha  occ. eigenvalues --  -10.16365 -10.15909 -10.15861 -10.15336 -10.15165
 Alpha  occ. eigenvalues --  -10.13696 -10.12963  -1.83356  -1.11234  -1.10840
 Alpha  occ. eigenvalues --   -1.10761  -1.10459  -1.07243  -1.06053  -1.05128
 Alpha  occ. eigenvalues --   -1.04831  -1.04340  -1.03338  -1.03111  -1.02915
 Alpha  occ. eigenvalues --   -1.01933  -1.01749  -1.01640  -1.01618  -1.01399
 Alpha  occ. eigenvalues --   -1.00514  -1.00019  -0.99909  -0.99491  -0.99250
 Alpha  occ. eigenvalues --   -0.94890  -0.94683  -0.94480  -0.93804  -0.92971
 Alpha  occ. eigenvalues --   -0.92695  -0.92151  -0.91524  -0.91223  -0.90984
 Alpha  occ. eigenvalues --   -0.90845  -0.90450  -0.90196  -0.89759  -0.89172
 Alpha  occ. eigenvalues --   -0.88545  -0.88012  -0.87094  -0.85871  -0.83632
 Alpha  occ. eigenvalues --   -0.82960  -0.80506  -0.80492  -0.80061  -0.78576
 Alpha  occ. eigenvalues --   -0.77816  -0.77361  -0.76895  -0.76588  -0.76142
 Alpha  occ. eigenvalues --   -0.75972  -0.74461  -0.72837  -0.72597  -0.71963
 Alpha  occ. eigenvalues --   -0.71736  -0.71609  -0.71301  -0.71180  -0.69640
 Alpha  occ. eigenvalues --   -0.69375  -0.69130  -0.68877  -0.67730  -0.67602
 Alpha  occ. eigenvalues --   -0.66785  -0.66196  -0.64730  -0.64597  -0.63853
 Alpha  occ. eigenvalues --   -0.63650  -0.62106  -0.61962  -0.61432  -0.60969
 Alpha  occ. eigenvalues --   -0.60916  -0.60596  -0.60091  -0.59910  -0.59676
 Alpha  occ. eigenvalues --   -0.59174  -0.59017  -0.58491  -0.58333  -0.57881
 Alpha  occ. eigenvalues --   -0.57834  -0.56631  -0.56453  -0.56090  -0.55987
 Alpha  occ. eigenvalues --   -0.55472  -0.55222  -0.55212  -0.55060  -0.54795
 Alpha  occ. eigenvalues --   -0.54615  -0.54200  -0.53314  -0.53220  -0.53130
 Alpha  occ. eigenvalues --   -0.53065  -0.52659  -0.52296  -0.51574  -0.51284
 Alpha  occ. eigenvalues --   -0.51255  -0.50694  -0.49879  -0.49673  -0.49606
 Alpha  occ. eigenvalues --   -0.49219  -0.49109  -0.48223  -0.48111  -0.48021
 Alpha  occ. eigenvalues --   -0.47766  -0.47658  -0.47596  -0.47417  -0.47005
 Alpha  occ. eigenvalues --   -0.46833  -0.46649  -0.46502  -0.46233  -0.46103
 Alpha  occ. eigenvalues --   -0.46041  -0.46010  -0.45478  -0.45441  -0.45248
 Alpha  occ. eigenvalues --   -0.45195  -0.44806  -0.44748  -0.44590  -0.44375
 Alpha  occ. eigenvalues --   -0.44223  -0.44038  -0.43981  -0.43773  -0.43533
 Alpha  occ. eigenvalues --   -0.43480  -0.43325  -0.43151  -0.42954  -0.42751
 Alpha  occ. eigenvalues --   -0.42687  -0.42341  -0.42130  -0.41780  -0.41723
 Alpha  occ. eigenvalues --   -0.41626  -0.41601  -0.41354  -0.41145  -0.41022
 Alpha  occ. eigenvalues --   -0.40989  -0.40751  -0.40573  -0.40384  -0.40062
 Alpha  occ. eigenvalues --   -0.39970  -0.39930  -0.39870  -0.39803  -0.39692
 Alpha  occ. eigenvalues --   -0.39486  -0.39446  -0.39205  -0.39072  -0.38973
 Alpha  occ. eigenvalues --   -0.38878  -0.38852  -0.38673  -0.38582  -0.38502
 Alpha  occ. eigenvalues --   -0.38396  -0.38310  -0.38097  -0.37887  -0.37464
 Alpha  occ. eigenvalues --   -0.37379  -0.37296  -0.37191  -0.37137  -0.36881
 Alpha  occ. eigenvalues --   -0.36725  -0.36602  -0.36513  -0.36319  -0.36134
 Alpha  occ. eigenvalues --   -0.35869  -0.35680  -0.35589  -0.35538  -0.35139
 Alpha  occ. eigenvalues --   -0.34865  -0.34643  -0.34533  -0.34476  -0.34154
 Alpha  occ. eigenvalues --   -0.34093  -0.33998  -0.33924  -0.33544  -0.33297
 Alpha  occ. eigenvalues --   -0.33164  -0.33047  -0.32737  -0.32376  -0.32193
 Alpha  occ. eigenvalues --   -0.31765  -0.31372  -0.30994  -0.30706  -0.30465
 Alpha  occ. eigenvalues --   -0.30241  -0.29755  -0.29552  -0.29465  -0.29280
 Alpha  occ. eigenvalues --   -0.29128  -0.28626  -0.28368  -0.28131  -0.27521
 Alpha  occ. eigenvalues --   -0.27390  -0.26805  -0.26576  -0.26552  -0.26136
 Alpha  occ. eigenvalues --   -0.26099  -0.25656  -0.25490  -0.25078  -0.24801
 Alpha  occ. eigenvalues --   -0.24538  -0.24527  -0.24251  -0.24110  -0.24097
 Alpha  occ. eigenvalues --   -0.24007  -0.23764  -0.23474  -0.22846  -0.22597
 Alpha  occ. eigenvalues --   -0.22127  -0.21999  -0.21818  -0.21610  -0.21083
 Alpha  occ. eigenvalues --   -0.20332  -0.19931  -0.19041  -0.17461  -0.17264
 Alpha  occ. eigenvalues --   -0.16627  -0.16554  -0.14550
 Alpha virt. eigenvalues --   -0.07812  -0.04275  -0.02223  -0.01953  -0.00804
 Alpha virt. eigenvalues --   -0.00678  -0.00188   0.00014   0.00719   0.00927
 Alpha virt. eigenvalues --    0.01007   0.01269   0.01580   0.01650   0.01816
 Alpha virt. eigenvalues --    0.02272   0.02516   0.03336   0.03348   0.03495
 Alpha virt. eigenvalues --    0.03683   0.03749   0.03886   0.04143   0.04582
 Alpha virt. eigenvalues --    0.04608   0.05125   0.05308   0.05390   0.05813
 Alpha virt. eigenvalues --    0.06097   0.06432   0.06636   0.06651   0.07203
 Alpha virt. eigenvalues --    0.07778   0.08020   0.08219   0.08417   0.08501
 Alpha virt. eigenvalues --    0.08747   0.09014   0.09110   0.09211   0.09416
 Alpha virt. eigenvalues --    0.09553   0.09657   0.10021   0.10342   0.10429
 Alpha virt. eigenvalues --    0.10587   0.10916   0.10973   0.11167   0.11292
 Alpha virt. eigenvalues --    0.11439   0.11599   0.11783   0.11896   0.12033
 Alpha virt. eigenvalues --    0.12232   0.12448   0.12472   0.12844   0.13021
 Alpha virt. eigenvalues --    0.13088   0.13260   0.13308   0.13431   0.13610
 Alpha virt. eigenvalues --    0.13814   0.13879   0.14062   0.14269   0.14352
 Alpha virt. eigenvalues --    0.14657   0.14744   0.15046   0.15098   0.15284
 Alpha virt. eigenvalues --    0.15372   0.15523   0.15702   0.15861   0.15901
 Alpha virt. eigenvalues --    0.16309   0.16542   0.16680   0.16799   0.16981
 Alpha virt. eigenvalues --    0.17061   0.17281   0.17529   0.17619   0.17810
 Alpha virt. eigenvalues --    0.17986   0.18237   0.18313   0.18672   0.18820
 Alpha virt. eigenvalues --    0.19128   0.19412   0.19476   0.19721   0.19944
 Alpha virt. eigenvalues --    0.20104   0.20337   0.20381   0.20491   0.20751
 Alpha virt. eigenvalues --    0.21057   0.21097   0.21286   0.21524   0.21663
 Alpha virt. eigenvalues --    0.21748   0.21908   0.22115   0.22259   0.22487
 Alpha virt. eigenvalues --    0.22845   0.23033   0.23192   0.23329   0.23808
 Alpha virt. eigenvalues --    0.24209   0.24253   0.24584   0.24763   0.24911
 Alpha virt. eigenvalues --    0.25128   0.25450   0.25923   0.26027   0.26259
 Alpha virt. eigenvalues --    0.26455   0.26597   0.26810   0.26903   0.27073
 Alpha virt. eigenvalues --    0.27197   0.27636   0.27805   0.27832   0.28283
 Alpha virt. eigenvalues --    0.28384   0.28661   0.28833   0.28933   0.29206
 Alpha virt. eigenvalues --    0.29488   0.29597   0.29737   0.29810   0.30227
 Alpha virt. eigenvalues --    0.30509   0.30880   0.31274   0.31363   0.31422
 Alpha virt. eigenvalues --    0.31891   0.32213   0.32416   0.32777   0.33197
 Alpha virt. eigenvalues --    0.33326   0.33481   0.33482   0.33760   0.34101
 Alpha virt. eigenvalues --    0.34326   0.34446   0.34726   0.34829   0.34952
 Alpha virt. eigenvalues --    0.35303   0.35402   0.36076   0.36568   0.36903
 Alpha virt. eigenvalues --    0.36986   0.37256   0.37668   0.37898   0.38213
 Alpha virt. eigenvalues --    0.38477   0.39073   0.39201   0.39372   0.39393
 Alpha virt. eigenvalues --    0.39947   0.40290   0.40544   0.40852   0.40955
 Alpha virt. eigenvalues --    0.41241   0.41524   0.41802   0.41985   0.42154
 Alpha virt. eigenvalues --    0.42508   0.42669   0.43015   0.43248   0.43754
 Alpha virt. eigenvalues --    0.43891   0.44090   0.44178   0.44227   0.44503
 Alpha virt. eigenvalues --    0.44767   0.44956   0.45300   0.45312   0.45572
 Alpha virt. eigenvalues --    0.46173   0.46280   0.46394   0.46554   0.46667
 Alpha virt. eigenvalues --    0.47015   0.47128   0.47394   0.47685   0.47689
 Alpha virt. eigenvalues --    0.47836   0.47980   0.48198   0.48309   0.48462
 Alpha virt. eigenvalues --    0.48584   0.48834   0.48928   0.49079   0.49209
 Alpha virt. eigenvalues --    0.49288   0.49515   0.49694   0.49877   0.50146
 Alpha virt. eigenvalues --    0.50306   0.50441   0.50703   0.51059   0.51196
 Alpha virt. eigenvalues --    0.51596   0.51693   0.51906   0.52228   0.52620
 Alpha virt. eigenvalues --    0.52709   0.52904   0.53134   0.53260   0.53443
 Alpha virt. eigenvalues --    0.53553   0.53757   0.54008   0.54233   0.54319
 Alpha virt. eigenvalues --    0.54431   0.54448   0.54740   0.54933   0.55074
 Alpha virt. eigenvalues --    0.55224   0.55308   0.55833   0.56098   0.56139
 Alpha virt. eigenvalues --    0.56325   0.56534   0.56617   0.56937   0.56971
 Alpha virt. eigenvalues --    0.57046   0.57281   0.57356   0.57567   0.57784
 Alpha virt. eigenvalues --    0.57975   0.58197   0.58290   0.58455   0.58540
 Alpha virt. eigenvalues --    0.58836   0.59139   0.59326   0.59558   0.59639
 Alpha virt. eigenvalues --    0.59745   0.60014   0.60125   0.60278   0.60373
 Alpha virt. eigenvalues --    0.60658   0.60819   0.60832   0.61005   0.61032
 Alpha virt. eigenvalues --    0.61359   0.61572   0.61786   0.61850   0.62037
 Alpha virt. eigenvalues --    0.62121   0.62257   0.62472   0.62747   0.62808
 Alpha virt. eigenvalues --    0.62851   0.63005   0.63053   0.63135   0.63315
 Alpha virt. eigenvalues --    0.63451   0.63503   0.63714   0.63899   0.63926
 Alpha virt. eigenvalues --    0.64206   0.64311   0.64450   0.64568   0.64614
 Alpha virt. eigenvalues --    0.64832   0.64850   0.64915   0.65079   0.65150
 Alpha virt. eigenvalues --    0.65194   0.65380   0.65428   0.65528   0.65659
 Alpha virt. eigenvalues --    0.65731   0.65816   0.66039   0.66128   0.66182
 Alpha virt. eigenvalues --    0.66353   0.66539   0.66598   0.66690   0.66841
 Alpha virt. eigenvalues --    0.66911   0.66949   0.67052   0.67212   0.67473
 Alpha virt. eigenvalues --    0.67501   0.67554   0.67765   0.67876   0.68067
 Alpha virt. eigenvalues --    0.68194   0.68256   0.68362   0.68452   0.68576
 Alpha virt. eigenvalues --    0.68778   0.68876   0.69008   0.69186   0.69195
 Alpha virt. eigenvalues --    0.69368   0.69510   0.69660   0.69703   0.69907
 Alpha virt. eigenvalues --    0.70120   0.70223   0.70364   0.70499   0.70569
 Alpha virt. eigenvalues --    0.70664   0.70834   0.70964   0.71083   0.71182
 Alpha virt. eigenvalues --    0.71343   0.71377   0.71454   0.71601   0.71798
 Alpha virt. eigenvalues --    0.71840   0.72044   0.72169   0.72412   0.72511
 Alpha virt. eigenvalues --    0.72664   0.72954   0.73063   0.73235   0.73344
 Alpha virt. eigenvalues --    0.73493   0.73583   0.73820   0.73961   0.74035
 Alpha virt. eigenvalues --    0.74242   0.74467   0.74632   0.74837   0.74885
 Alpha virt. eigenvalues --    0.74996   0.75310   0.75449   0.75777   0.75902
 Alpha virt. eigenvalues --    0.76413   0.76494   0.76704   0.76779   0.77180
 Alpha virt. eigenvalues --    0.77318   0.77740   0.77914   0.78208   0.78325
 Alpha virt. eigenvalues --    0.78571   0.78665   0.78949   0.79064   0.79364
 Alpha virt. eigenvalues --    0.79694   0.79792   0.79975   0.80106   0.80489
 Alpha virt. eigenvalues --    0.80570   0.81038   0.81418   0.81626   0.81789
 Alpha virt. eigenvalues --    0.81859   0.82357   0.82540   0.82972   0.83215
 Alpha virt. eigenvalues --    0.83376   0.83551   0.84046   0.84218   0.84379
 Alpha virt. eigenvalues --    0.84466   0.84955   0.85234   0.85429   0.85672
 Alpha virt. eigenvalues --    0.85954   0.86234   0.86523   0.86837   0.87253
 Alpha virt. eigenvalues --    0.87508   0.87822   0.88095   0.88412   0.88526
 Alpha virt. eigenvalues --    0.88735   0.88770   0.89071   0.89421   0.89778
 Alpha virt. eigenvalues --    0.90201   0.90377   0.90808   0.91128   0.91369
 Alpha virt. eigenvalues --    0.91618   0.91676   0.92015   0.92315   0.92632
 Alpha virt. eigenvalues --    0.93071   0.93175   0.93819   0.93912   0.94204
 Alpha virt. eigenvalues --    0.94540   0.94660   0.94897   0.95100   0.95517
 Alpha virt. eigenvalues --    0.95785   0.96461   0.96531   0.96761   0.97116
 Alpha virt. eigenvalues --    0.97262   0.97803   0.98010   0.98249   0.98750
 Alpha virt. eigenvalues --    0.98833   0.99170   0.99551   0.99784   0.99996
 Alpha virt. eigenvalues --    1.00133   1.00586   1.00778   1.01122   1.01335
 Alpha virt. eigenvalues --    1.01427   1.01886   1.02252   1.02380   1.02579
 Alpha virt. eigenvalues --    1.02853   1.03203   1.03409   1.03576   1.03793
 Alpha virt. eigenvalues --    1.03861   1.04415   1.04605   1.04688   1.05226
 Alpha virt. eigenvalues --    1.05459   1.05677   1.05839   1.06093   1.06467
 Alpha virt. eigenvalues --    1.06866   1.06907   1.06960   1.07263   1.08029
 Alpha virt. eigenvalues --    1.08248   1.08584   1.08664   1.08991   1.09172
 Alpha virt. eigenvalues --    1.09629   1.09747   1.09983   1.10509   1.10683
 Alpha virt. eigenvalues --    1.10970   1.11157   1.11200   1.11702   1.11851
 Alpha virt. eigenvalues --    1.12106   1.12257   1.12638   1.12849   1.12926
 Alpha virt. eigenvalues --    1.13191   1.13406   1.13547   1.14000   1.14245
 Alpha virt. eigenvalues --    1.14588   1.14874   1.15198   1.15925   1.15980
 Alpha virt. eigenvalues --    1.16276   1.16349   1.16717   1.17121   1.17335
 Alpha virt. eigenvalues --    1.17509   1.17691   1.17951   1.18123   1.18386
 Alpha virt. eigenvalues --    1.18536   1.18720   1.19158   1.19469   1.19491
 Alpha virt. eigenvalues --    1.19933   1.20359   1.20766   1.21101   1.21249
 Alpha virt. eigenvalues --    1.21296   1.21801   1.21989   1.22101   1.22445
 Alpha virt. eigenvalues --    1.22891   1.22934   1.23284   1.23495   1.24003
 Alpha virt. eigenvalues --    1.24214   1.24298   1.24664   1.24867   1.24920
 Alpha virt. eigenvalues --    1.25224   1.25454   1.25692   1.25956   1.26334
 Alpha virt. eigenvalues --    1.26658   1.26908   1.27148   1.27352   1.27517
 Alpha virt. eigenvalues --    1.27831   1.28075   1.28446   1.28569   1.28777
 Alpha virt. eigenvalues --    1.29406   1.29595   1.29648   1.30133   1.30405
 Alpha virt. eigenvalues --    1.30535   1.30902   1.31057   1.31375   1.31687
 Alpha virt. eigenvalues --    1.32244   1.32593   1.32739   1.33051   1.33226
 Alpha virt. eigenvalues --    1.33425   1.33666   1.33979   1.34265   1.34499
 Alpha virt. eigenvalues --    1.34884   1.34971   1.35265   1.35628   1.35853
 Alpha virt. eigenvalues --    1.36004   1.36809   1.37056   1.37274   1.37371
 Alpha virt. eigenvalues --    1.37593   1.38017   1.38124   1.38431   1.39074
 Alpha virt. eigenvalues --    1.39323   1.39488   1.39861   1.40183   1.40462
 Alpha virt. eigenvalues --    1.40831   1.41353   1.41470   1.41561   1.41726
 Alpha virt. eigenvalues --    1.42250   1.42558   1.42711   1.42968   1.43204
 Alpha virt. eigenvalues --    1.43671   1.43923   1.44209   1.44371   1.44622
 Alpha virt. eigenvalues --    1.45492   1.45641   1.46094   1.46432   1.46555
 Alpha virt. eigenvalues --    1.46690   1.47397   1.48089   1.48201   1.48575
 Alpha virt. eigenvalues --    1.48878   1.49001   1.49312   1.49664   1.50198
 Alpha virt. eigenvalues --    1.50607   1.50806   1.51093   1.51364   1.51497
 Alpha virt. eigenvalues --    1.51786   1.52057   1.52404   1.52547   1.52616
 Alpha virt. eigenvalues --    1.52894   1.53023   1.53279   1.53805   1.54180
 Alpha virt. eigenvalues --    1.54286   1.54628   1.55037   1.55242   1.55725
 Alpha virt. eigenvalues --    1.55930   1.56249   1.56887   1.57280   1.57369
 Alpha virt. eigenvalues --    1.57610   1.58071   1.58212   1.58925   1.59129
 Alpha virt. eigenvalues --    1.59309   1.59778   1.59917   1.60089   1.61093
 Alpha virt. eigenvalues --    1.61299   1.61914   1.62204   1.62530   1.62968
 Alpha virt. eigenvalues --    1.63441   1.63527   1.63719   1.64035   1.64249
 Alpha virt. eigenvalues --    1.64351   1.64663   1.65065   1.65904   1.66103
 Alpha virt. eigenvalues --    1.66465   1.66974   1.67564   1.67651   1.67796
 Alpha virt. eigenvalues --    1.68097   1.68354   1.68780   1.68921   1.69129
 Alpha virt. eigenvalues --    1.69278   1.69854   1.69992   1.70100   1.70448
 Alpha virt. eigenvalues --    1.70774   1.71046   1.71442   1.71564   1.71747
 Alpha virt. eigenvalues --    1.71787   1.72037   1.72166   1.72334   1.72587
 Alpha virt. eigenvalues --    1.72838   1.72956   1.73142   1.73361   1.74087
 Alpha virt. eigenvalues --    1.74296   1.74467   1.74635   1.74868   1.75074
 Alpha virt. eigenvalues --    1.75305   1.75459   1.75567   1.75685   1.75947
 Alpha virt. eigenvalues --    1.76115   1.76210   1.76520   1.76567   1.76785
 Alpha virt. eigenvalues --    1.77074   1.77215   1.77442   1.77527   1.77630
 Alpha virt. eigenvalues --    1.77793   1.77935   1.77967   1.78050   1.78329
 Alpha virt. eigenvalues --    1.78584   1.78767   1.78791   1.78880   1.79165
 Alpha virt. eigenvalues --    1.79296   1.79466   1.79637   1.79959   1.80082
 Alpha virt. eigenvalues --    1.80124   1.80430   1.80731   1.80929   1.81147
 Alpha virt. eigenvalues --    1.81245   1.81400   1.81587   1.81759   1.81886
 Alpha virt. eigenvalues --    1.82130   1.82209   1.82250   1.82324   1.82533
 Alpha virt. eigenvalues --    1.82921   1.83092   1.83406   1.83490   1.83753
 Alpha virt. eigenvalues --    1.83907   1.84090   1.84198   1.84434   1.84560
 Alpha virt. eigenvalues --    1.84661   1.84705   1.84797   1.85073   1.85144
 Alpha virt. eigenvalues --    1.85316   1.85425   1.85825   1.85910   1.86062
 Alpha virt. eigenvalues --    1.86123   1.86271   1.86561   1.86671   1.87017
 Alpha virt. eigenvalues --    1.87088   1.87306   1.87661   1.87817   1.88074
 Alpha virt. eigenvalues --    1.88393   1.88563   1.88881   1.89101   1.89450
 Alpha virt. eigenvalues --    1.89535   1.89823   1.89845   1.90396   1.90575
 Alpha virt. eigenvalues --    1.90692   1.90792   1.90996   1.91150   1.91301
 Alpha virt. eigenvalues --    1.91541   1.91684   1.91947   1.92007   1.92289
 Alpha virt. eigenvalues --    1.92661   1.92840   1.92912   1.93102   1.93328
 Alpha virt. eigenvalues --    1.93721   1.93895   1.94002   1.94123   1.94443
 Alpha virt. eigenvalues --    1.94563   1.94700   1.94949   1.95070   1.95353
 Alpha virt. eigenvalues --    1.95425   1.95790   1.96349   1.96436   1.96686
 Alpha virt. eigenvalues --    1.96911   1.97054   1.97334   1.97391   1.97597
 Alpha virt. eigenvalues --    1.97849   1.97985   1.98331   1.98447   1.98633
 Alpha virt. eigenvalues --    1.98779   1.98891   1.99394   1.99610   1.99889
 Alpha virt. eigenvalues --    2.00245   2.00400   2.00781   2.01158   2.01422
 Alpha virt. eigenvalues --    2.01589   2.01855   2.01952   2.02069   2.02293
 Alpha virt. eigenvalues --    2.02393   2.02541   2.02830   2.03057   2.03267
 Alpha virt. eigenvalues --    2.03386   2.03924   2.04052   2.04338   2.04420
 Alpha virt. eigenvalues --    2.04667   2.04698   2.05024   2.05613   2.05819
 Alpha virt. eigenvalues --    2.05897   2.06493   2.06740   2.07084   2.07216
 Alpha virt. eigenvalues --    2.07394   2.07521   2.07803   2.08258   2.08467
 Alpha virt. eigenvalues --    2.08701   2.09180   2.10072   2.10142   2.10179
 Alpha virt. eigenvalues --    2.10358   2.10601   2.10685   2.10696   2.11206
 Alpha virt. eigenvalues --    2.11281   2.11538   2.12337   2.12686   2.12736
 Alpha virt. eigenvalues --    2.12811   2.13132   2.13446   2.13729   2.13997
 Alpha virt. eigenvalues --    2.14409   2.14848   2.14999   2.15151   2.15419
 Alpha virt. eigenvalues --    2.15576   2.15822   2.16128   2.16439   2.16776
 Alpha virt. eigenvalues --    2.16897   2.17017   2.17996   2.18090   2.18461
 Alpha virt. eigenvalues --    2.18576   2.18797   2.18988   2.19215   2.19829
 Alpha virt. eigenvalues --    2.19914   2.20337   2.20831   2.20974   2.21172
 Alpha virt. eigenvalues --    2.21444   2.21673   2.21925   2.22229   2.22513
 Alpha virt. eigenvalues --    2.23111   2.23218   2.23317   2.23598   2.24154
 Alpha virt. eigenvalues --    2.24514   2.24681   2.24741   2.25507   2.25737
 Alpha virt. eigenvalues --    2.25908   2.25990   2.26698   2.27990   2.28403
 Alpha virt. eigenvalues --    2.28511   2.28858   2.28957   2.29260   2.29522
 Alpha virt. eigenvalues --    2.29824   2.30100   2.30423   2.30547   2.30832
 Alpha virt. eigenvalues --    2.31733   2.31805   2.31979   2.32169   2.32369
 Alpha virt. eigenvalues --    2.32696   2.32915   2.33367   2.33594   2.33962
 Alpha virt. eigenvalues --    2.34381   2.34489   2.34731   2.35087   2.35291
 Alpha virt. eigenvalues --    2.35756   2.36419   2.36566   2.36801   2.37022
 Alpha virt. eigenvalues --    2.37225   2.37367   2.37832   2.38214   2.38379
 Alpha virt. eigenvalues --    2.38574   2.39006   2.39124   2.39188   2.39673
 Alpha virt. eigenvalues --    2.39711   2.39792   2.40521   2.40700   2.41240
 Alpha virt. eigenvalues --    2.41415   2.42222   2.42346   2.42586   2.42765
 Alpha virt. eigenvalues --    2.43210   2.43358   2.43734   2.43761   2.44718
 Alpha virt. eigenvalues --    2.45360   2.45966   2.46210   2.46411   2.46496
 Alpha virt. eigenvalues --    2.46856   2.46941   2.47052   2.48172   2.48692
 Alpha virt. eigenvalues --    2.48889   2.48991   2.49278   2.49803   2.49877
 Alpha virt. eigenvalues --    2.50693   2.50884   2.51029   2.51162   2.51576
 Alpha virt. eigenvalues --    2.51673   2.52086   2.52322   2.52676   2.52801
 Alpha virt. eigenvalues --    2.53026   2.53814   2.54273   2.54373   2.54932
 Alpha virt. eigenvalues --    2.55368   2.56276   2.56416   2.56743   2.57023
 Alpha virt. eigenvalues --    2.57846   2.58168   2.58321   2.58629   2.58923
 Alpha virt. eigenvalues --    2.59044   2.60005   2.60038   2.60377   2.60795
 Alpha virt. eigenvalues --    2.60980   2.61217   2.61523   2.61867   2.62198
 Alpha virt. eigenvalues --    2.62425   2.62964   2.63360   2.63512   2.63782
 Alpha virt. eigenvalues --    2.64018   2.64284   2.64585   2.64817   2.65305
 Alpha virt. eigenvalues --    2.65373   2.65526   2.66183   2.66833   2.66990
 Alpha virt. eigenvalues --    2.67292   2.67707   2.68025   2.68156   2.68549
 Alpha virt. eigenvalues --    2.68753   2.69107   2.69861   2.69918   2.70184
 Alpha virt. eigenvalues --    2.70712   2.71204   2.71538   2.71676   2.71784
 Alpha virt. eigenvalues --    2.71918   2.72108   2.72695   2.72884   2.72954
 Alpha virt. eigenvalues --    2.73311   2.73720   2.73822   2.73890   2.74248
 Alpha virt. eigenvalues --    2.74356   2.74553   2.74761   2.74903   2.75021
 Alpha virt. eigenvalues --    2.75155   2.75776   2.75849   2.76060   2.76356
 Alpha virt. eigenvalues --    2.76582   2.76928   2.77087   2.77219   2.77734
 Alpha virt. eigenvalues --    2.77792   2.78043   2.78239   2.78365   2.79164
 Alpha virt. eigenvalues --    2.79242   2.79373   2.79605   2.79741   2.79983
 Alpha virt. eigenvalues --    2.80304   2.80590   2.80769   2.80821   2.81324
 Alpha virt. eigenvalues --    2.82273   2.82562   2.82895   2.83397   2.83591
 Alpha virt. eigenvalues --    2.83726   2.83791   2.85206   2.85309   2.85500
 Alpha virt. eigenvalues --    2.85707   2.86139   2.86383   2.86897   2.87031
 Alpha virt. eigenvalues --    2.87106   2.87382   2.88208   2.88342   2.88956
 Alpha virt. eigenvalues --    2.89006   2.89359   2.89789   2.90039   2.90270
 Alpha virt. eigenvalues --    2.90729   2.90785   2.91475   2.91648   2.91930
 Alpha virt. eigenvalues --    2.92081   2.92456   2.92560   2.92822   2.93276
 Alpha virt. eigenvalues --    2.93450   2.93579   2.93945   2.94464   2.94628
 Alpha virt. eigenvalues --    2.94677   2.94810   2.95476   2.95597   2.95901
 Alpha virt. eigenvalues --    2.96696   2.96971   2.97014   2.97378   2.97564
 Alpha virt. eigenvalues --    2.97626   2.98359   2.98726   2.98858   2.99485
 Alpha virt. eigenvalues --    2.99859   3.00154   3.00262   3.00374   3.01049
 Alpha virt. eigenvalues --    3.01089   3.01107   3.01578   3.01710   3.02113
 Alpha virt. eigenvalues --    3.02424   3.02903   3.03299   3.03725   3.04033
 Alpha virt. eigenvalues --    3.04516   3.05071   3.05546   3.05922   3.06097
 Alpha virt. eigenvalues --    3.06520   3.06888   3.07435   3.07820   3.08071
 Alpha virt. eigenvalues --    3.08440   3.08489   3.09222   3.09859   3.10689
 Alpha virt. eigenvalues --    3.11328   3.11440   3.11617   3.12400   3.12893
 Alpha virt. eigenvalues --    3.14005   3.14341   3.14995   3.15307   3.15447
 Alpha virt. eigenvalues --    3.15504   3.15565   3.15922   3.16159   3.16265
 Alpha virt. eigenvalues --    3.16575   3.16713   3.17566   3.18098   3.18512
 Alpha virt. eigenvalues --    3.18733   3.19056   3.19494   3.19617   3.20269
 Alpha virt. eigenvalues --    3.20560   3.20725   3.20822   3.20975   3.21082
 Alpha virt. eigenvalues --    3.21833   3.21969   3.22175   3.22272   3.22918
 Alpha virt. eigenvalues --    3.23083   3.23247   3.23842   3.24439   3.25282
 Alpha virt. eigenvalues --    3.26363   3.26395   3.27037   3.27203   3.27424
 Alpha virt. eigenvalues --    3.27751   3.28155   3.28477   3.29354   3.29734
 Alpha virt. eigenvalues --    3.30332   3.30510   3.30786   3.33156   3.33999
 Alpha virt. eigenvalues --    3.34314   3.34646   3.34706   3.36415   3.36550
 Alpha virt. eigenvalues --    3.39686   3.42123   3.45962   3.47371   3.48765
 Alpha virt. eigenvalues --    3.53407   3.53864   3.54369   3.54887   3.56371
 Alpha virt. eigenvalues --    3.56552   3.56625   3.56927   3.59419   3.60087
 Alpha virt. eigenvalues --    3.60150   3.60557   3.61114   3.62023   3.62813
 Alpha virt. eigenvalues --    3.66068   3.67439   3.67752   3.68105   3.68432
 Alpha virt. eigenvalues --    3.68828   3.69098   3.69411   3.69850   3.69971
 Alpha virt. eigenvalues --    3.70575   3.70947   3.71310   3.71636   3.72319
 Alpha virt. eigenvalues --    3.72498   3.73088   3.73773   3.74383   3.76080
 Alpha virt. eigenvalues --    3.77499   3.79810   3.80421   3.82683
          Condensed to atoms (all electrons):
 Mulliken charges:
               1
     1  C    0.042874
     2  C    0.027142
     3  O   -0.334833
     4  H    0.012226
     5  H    0.022091
     6  H    0.056199
     7  N   -0.107727
     8  C    0.067263
     9  C    0.093671
    10  O   -0.244249
    11  C    0.121578
    12  C    0.087409
    13  O   -0.381638
    14  O   -0.411092
    15  H    0.113591
    16  H    0.006863
    17  H   -0.016339
    18  H   -0.008762
    19  N   -0.189710
    20  C    0.114144
    21  C    0.050766
    22  O   -0.303704
    23  C    0.097496
    24  C   -0.047407
    25  C   -0.002186
    26  C    0.020448
    27  N    0.070655
    28  H    0.146659
    29  H    0.025024
    30  H   -0.001589
    31  H    0.011813
    32  H    0.019435
    33  H    0.027583
    34  H    0.038114
    35  H    0.018944
    36  H    0.111106
    37  H    0.039783
    38  H    0.202678
    39  H    0.188857
    40  H    0.200717
    41  N   -0.075655
    42  C    0.131543
    43  C    0.064221
    44  O   -0.243966
    45  C    0.115320
    46  C    0.097437
    47  O   -0.421103
    48  O   -0.424747
    49  H    0.155248
    50  H   -0.003550
    51  H    0.017553
    52  H   -0.010596
    53  N   -0.142587
    54  C    0.226897
    55  C   -0.003652
    56  O   -0.301335
    57  H    0.117990
    58  H    0.025225
    59  H    0.016666
    60  N   -0.113009
    61  C    0.128112
    62  C    0.035194
    63  O   -0.297208
    64  C    0.118945
    65  C   -0.028740
    66  N   -0.040110
    67  O   -0.342214
    68  H    0.150667
    69  H   -0.019629
    70  H    0.094369
    71  H    0.028685
    72  H    0.137032
    73  H    0.109922
    74  N   -0.159477
    75  C    0.263902
    76  C    0.002411
    77  O   -0.280114
    78  H    0.131033
    79  H    0.017116
    80  H    0.040799
    81  N   -0.159648
    82  C    0.120203
    83  C    0.082415
    84  O   -0.307116
    85  C    0.154553
    86  C   -0.055613
    87  C   -0.018312
    88  C    0.014770
    89  C   -0.024884
    90  C   -0.061044
    91  C    0.187506
    92  O   -0.196905
    93  H    0.139779
    94  H   -0.001841
    95  H   -0.000454
    96  H    0.000752
    97  H   -0.041206
    98  H   -0.017404
    99  H   -0.028612
   100  H   -0.038684
   101  H    0.172195
   102  N   -0.100944
   103  C    0.161535
   104  C    0.138861
   105  O   -0.361238
   106  C   -0.082167
   107  C   -0.015201
   108  C    0.094232
   109  C    0.021076
   110  H    0.151528
   111  H    0.025769
   112  H    0.011444
   113  H    0.033842
   114  H    0.006981
   115  H    0.031688
   116  H   -0.053995
   117  H   -0.017908
   118  H   -0.005876
   119  H    0.013688
   120  H    0.003436
   121  N   -0.136158
   122  C    0.039749
   123  C    0.056275
   124  O   -0.300651
   125  C    0.267321
   126  O   -0.304142
   127  H    0.142492
   128  H    0.029389
   129  H   -0.011433
   130  H   -0.044963
   131  H    0.173515
   132  N   -0.112090
   133  C    0.061412
   134  C    0.060901
   135  O   -0.288760
   136  C    0.065642
   137  H    0.151081
   138  H    0.015103
   139  H    0.015402
   140  H    0.007251
   141  H    0.031440
   142  N   -0.116867
   143  C    0.066896
   144  C    0.066625
   145  O   -0.287444
   146  C    0.073168
   147  H    0.133633
   148  H    0.004523
   149  H    0.029283
   150  H    0.019328
   151  H    0.031559
   152  N   -0.130123
   153  C    0.126409
   154  C    0.051113
   155  O   -0.313526
   156  C    0.076735
   157  C    0.041751
   158  C    0.075927
   159  O   -0.361231
   160  O   -0.444328
   161  H    0.122215
   162  H   -0.006056
   163  H   -0.034234
   164  H   -0.054231
   165  H   -0.000477
   166  H   -0.006466
   167  N   -0.128616
   168  C    0.136383
   169  H    0.032214
   170  H    0.027058
   171  H    0.017927
   172  H    0.113414
   173  Ca   1.357029
   174  O   -0.308160
   175  H    0.181523
   176  H    0.206580
 Sum of Mulliken charges =  -0.00000
 Mulliken charges with hydrogens summed into heavy atoms:
               1
     1  C    0.133390
     2  C    0.027142
     3  O   -0.334833
     7  N    0.005865
     8  C    0.074126
     9  C    0.093671
    10  O   -0.244249
    11  C    0.096476
    12  C    0.087409
    13  O   -0.381638
    14  O   -0.411092
    19  N   -0.043051
    20  C    0.139168
    21  C    0.050766
    22  O   -0.303704
    23  C    0.107720
    24  C   -0.000389
    25  C    0.054872
    26  C    0.171337
    27  N    0.662907
    41  N    0.079593
    42  C    0.127992
    43  C    0.064221
    44  O   -0.243966
    45  C    0.122277
    46  C    0.097437
    47  O   -0.421103
    48  O   -0.424747
    53  N   -0.024597
    54  C    0.268789
    55  C   -0.003652
    56  O   -0.301335
    60  N    0.037657
    61  C    0.108482
    62  C    0.035194
    63  O   -0.297208
    64  C    0.241999
    65  C   -0.028740
    66  N    0.206844
    67  O   -0.342214
    74  N   -0.028445
    75  C    0.321817
    76  C    0.002411
    77  O   -0.280114
    81  N   -0.019868
    82  C    0.118362
    83  C    0.082415
    84  O   -0.307116
    85  C    0.154851
    86  C   -0.055613
    87  C   -0.059518
    88  C   -0.002633
    89  C   -0.053497
    90  C   -0.099728
    91  C    0.187506
    92  O   -0.024710
   102  N    0.050584
   103  C    0.187304
   104  C    0.138861
   105  O   -0.361238
   106  C   -0.070723
   107  C    0.025622
   108  C    0.054016
   109  C    0.032324
   121  N    0.006334
   122  C    0.069137
   123  C    0.056275
   124  O   -0.300651
   125  C    0.210925
   126  O   -0.130627
   132  N    0.038991
   133  C    0.076515
   134  C    0.060901
   135  O   -0.288760
   136  C    0.119735
   142  N    0.016766
   143  C    0.071419
   144  C    0.066625
   145  O   -0.287444
   146  C    0.153338
   152  N   -0.007908
   153  C    0.120353
   154  C    0.051113
   155  O   -0.313526
   156  C   -0.011729
   157  C    0.034808
   158  C    0.075927
   159  O   -0.361231
   160  O   -0.444328
   167  N   -0.015201
   168  C    0.213583
   173  Ca   1.357029
   174  O    0.079942
 DipInt: DoE/N= T F RetVal/Mat= T F Init=T NMatP=  1 IDeriv=0 Min/MaxMlt=  0  4
 Entering OneElI...
 OneElI was handed  1333951383 working-precision words.
 Multipole integrals L=0 to 4 MinM= 0 MaxM= 0.
 Requested accuracy = 0.1000D-12
 ShPair: Thresh= 1.00D-13 NBox=     0 BxSize= 0.00D+00 RnKept= 2.55D+01
         NSMCal=               327645 NSMKep=              155328
 PrmmSu-InSpLW:  IPartL=    0 NPrtUS=    1 NPrtUL=    1 DoSpLW=F IThBeg=    0 IThEnd=    0 NThAct=    1.
 PrsmSu:  NPrtUS=   1 ThrOK=F IAlg=1 NPAlg=1 LenDen=           0 ISkipM=0 DoSpLW=F IThBeg=    0 IThEnd=    0.
 Prism:   IPart=     0 DynPar=F LinDyn=F Incr=         512.
 PRISM was handed  1324093069 working-precision words and155328 shell-pairs
 IPart=  0 NShTot=      155328 NBatch=         356 AvBLen=       436.3
 PrsmSu-ThDecC:  IPartSL=    0    0 NPrtUSL=    1    1 IThBeg=    0 IThEnd=    0 CPU=   -1 GPU=   -1 NThAct=    1.
 PrSmSu:  NxtVal=            513.
 Electronic moments (au):
       -716.00000000          7.17487321          4.80107331          0.03532580
     -44681.49423492     -39232.64550594     -13951.02620779         57.80207774
         13.77134081         59.51046586     -64203.76724520     -40409.98774483
      -2484.12395832      38960.29203675     121607.48043956      -8195.34931586
      15100.34189585     -27068.32785145     -46860.14038562     -38153.26488736
   -5688830.84777342   -4511526.47389987    -634519.30584521    -172674.88551428
      11937.04836603    -684246.52182811     -55034.58536368     -26273.70860426
    -138252.19614531   -2342165.41648815    -632810.10753317    -665083.75657792
     341699.66649445     176802.29772119      27698.28147130
 Electronic spatial extent (au):  <R**2>=          97865.1659
 DipInt: DoE/N= F T RetVal/Mat= T F Init=T NMatP=  1 IDeriv=0 Min/MaxMlt=  0  4
 Nuclear    moments (au):
        716.00000000          0.00000000         -0.00000000         -0.00000000
      44289.41862139      38911.96305908      13552.71448332         -0.00000000
         -0.00000000         -0.00000000      65098.40249710      42328.98074108
       2496.35303328     -37962.02541856    -120864.08454008       8135.95959690
     -15203.66310824      26980.05699417      47280.11312784      38429.61397670
    5541322.12523997    4392437.98127651     589482.84077363     178259.15353660
     -18025.03168735     695401.60353158      62118.04750514      26170.08208303
     142460.70775394    2300453.06327309     598465.87769987     636240.17673109
    -341970.45199158    -174101.25902423     -28399.18987815
 Total      moments (au):
         -0.00000000          7.17487321          4.80107331          0.03532580
       -392.07561353       -320.68244686       -398.31172447         57.80207774
         13.77134081         59.51046586        894.63525190       1918.99299625
         12.22907496        998.26661819        743.39589948        -59.38971895
       -103.32121239        -88.27085727        419.97274222        276.34908934
    -147508.72253345    -119088.49262336     -45036.46507159       5584.26802233
      -6087.98332133      11155.08170347       7083.46214145       -103.62652123
       4208.51160863     -41712.35321506     -34344.22983330     -28843.57984683
       -270.78549713       2701.03869696       -700.90840685
 Traceless Quadrup. (au):
        -21.71901858         49.67414810        -27.95512952         57.80207774
         13.77134081         59.51046586
 Charge=             -0.0000 electrons
 Dipole moment (field-independent basis, Debye):
    X=             18.2367    Y=             12.2031    Z=              0.0898  Tot=             21.9431
 Quadrupole moment (field-independent basis, Debye-Ang):
   XX=           -527.3551   YY=           -431.3289   ZZ=           -535.7429
   XY=             77.7458   XZ=             18.5229   YZ=             80.0436
 Traceless Quadrupole moment (field-independent basis, Debye-Ang):
   XX=            -29.2128   YY=             66.8134   ZZ=            -37.6006
   XY=             77.7458   XZ=             18.5229   YZ=             80.0436
 Octapole moment (field-independent basis, Debye-Ang**2):
  XXX=            636.7669  YYY=           1365.8653  ZZZ=              8.7042  XYY=            710.5277
  XXY=            529.1206  XXZ=            -42.2713  XZZ=            -73.5401  YZZ=            -62.8278
  YYZ=            298.9204  XYZ=            196.6946
 Hexadecapole moment (field-independent basis, Debye-Ang**3):
 XXXX=         -55558.8582 YYYY=         -44854.4368 ZZZZ=         -16962.8923 XXXY=           2103.3031
 XXXZ=          -2293.0264 YYYX=           4201.5387 YYYZ=           2667.9715 ZZZX=            -39.0307
 ZZZY=           1585.1273 XXYY=         -15710.8724 XXZZ=         -12935.6838 YYZZ=         -10863.8753
 XXYZ=           -101.9908 YYXZ=           1017.3407 ZZXY=           -263.9957
 N-N= 2.122196815698D+04 E-N=-5.492836115135D+04  KE= 5.290865623991D+03
 Leave Link  601 at Tue Sep 17 23:51:00 2019, MaxMem=  1342177280 cpu:              41.9 elap:               1.1
 FitSet:  NAtFit=   176 NAtPot=   176 NAtFrz=     0 MDM=   180 TotChg=   0.00000
 Merz-Kollman atomic radii used.
 Read replacement radii for each type of atom:
 Rad(20) =   1.700000000000D+00
 Atom Element Radius
    1     6    1.50
    2     6    1.50
    3     8    1.40
    4     1    1.20
    5     1    1.20
    6     1    1.20
    7     7    1.50
    8     6    1.50
    9     6    1.50
   10     8    1.40
   11     6    1.50
   12     6    1.50
   13     8    1.40
   14     8    1.40
   15     1    1.20
   16     1    1.20
   17     1    1.20
   18     1    1.20
   19     7    1.50
   20     6    1.50
   21     6    1.50
   22     8    1.40
   23     6    1.50
   24     6    1.50
   25     6    1.50
   26     6    1.50
   27     7    1.50
   28     1    1.20
   29     1    1.20
   30     1    1.20
   31     1    1.20
   32     1    1.20
   33     1    1.20
   34     1    1.20
   35     1    1.20
   36     1    1.20
   37     1    1.20
   38     1    1.20
   39     1    1.20
   40     1    1.20
   41     7    1.50
   42     6    1.50
   43     6    1.50
   44     8    1.40
   45     6    1.50
   46     6    1.50
   47     8    1.40
   48     8    1.40
   49     1    1.20
   50     1    1.20
   51     1    1.20
   52     1    1.20
   53     7    1.50
   54     6    1.50
   55     6    1.50
   56     8    1.40
   57     1    1.20
   58     1    1.20
   59     1    1.20
   60     7    1.50
   61     6    1.50
   62     6    1.50
   63     8    1.40
   64     6    1.50
   65     6    1.50
   66     7    1.50
   67     8    1.40
   68     1    1.20
   69     1    1.20
   70     1    1.20
   71     1    1.20
   72     1    1.20
   73     1    1.20
   74     7    1.50
   75     6    1.50
   76     6    1.50
   77     8    1.40
   78     1    1.20
   79     1    1.20
   80     1    1.20
   81     7    1.50
   82     6    1.50
   83     6    1.50
   84     8    1.40
   85     6    1.50
   86     6    1.50
   87     6    1.50
   88     6    1.50
   89     6    1.50
   90     6    1.50
   91     6    1.50
   92     8    1.40
   93     1    1.20
   94     1    1.20
   95     1    1.20
   96     1    1.20
   97     1    1.20
   98     1    1.20
   99     1    1.20
  100     1    1.20
  101     1    1.20
  102     7    1.50
  103     6    1.50
  104     6    1.50
  105     8    1.40
  106     6    1.50
  107     6    1.50
  108     6    1.50
  109     6    1.50
  110     1    1.20
  111     1    1.20
  112     1    1.20
  113     1    1.20
  114     1    1.20
  115     1    1.20
  116     1    1.20
  117     1    1.20
  118     1    1.20
  119     1    1.20
  120     1    1.20
  121     7    1.50
  122     6    1.50
  123     6    1.50
  124     8    1.40
  125     6    1.50
  126     8    1.40
  127     1    1.20
  128     1    1.20
  129     1    1.20
  130     1    1.20
  131     1    1.20
  132     7    1.50
  133     6    1.50
  134     6    1.50
  135     8    1.40
  136     6    1.50
  137     1    1.20
  138     1    1.20
  139     1    1.20
  140     1    1.20
  141     1    1.20
  142     7    1.50
  143     6    1.50
  144     6    1.50
  145     8    1.40
  146     6    1.50
  147     1    1.20
  148     1    1.20
  149     1    1.20
  150     1    1.20
  151     1    1.20
  152     7    1.50
  153     6    1.50
  154     6    1.50
  155     8    1.40
  156     6    1.50
  157     6    1.50
  158     6    1.50
  159     8    1.40
  160     8    1.40
  161     1    1.20
  162     1    1.20
  163     1    1.20
  164     1    1.20
  165     1    1.20
  166     1    1.20
  167     7    1.50
  168     6    1.50
  169     1    1.20
[...]
 **** Fit      -0.011525
 **** Fit      -0.006855
 **** Fit      -0.003332
 **** Fit      -0.000736
 **** Fit       0.002062
 **** Fit       0.003617
 **** Fit       0.004660
 **** Fit       0.005177
 **** Fit       0.005013
 **** Fit      -0.007486
 **** Fit      -0.003170
 **** Fit      -0.000118
 **** Fit       0.003848
 **** Fit       0.005651
 **** Fit       0.006907
 **** Fit       0.007629
 **** Fit      -0.007579
 **** Fit      -0.002272
 **** Fit       0.001329
 **** Fit       0.006614
 **** Fit       0.008624
 **** Fit       0.010087
 **** Fit      -0.000094
 **** Fit       0.003857
 **** Fit       0.002889
 **** Fit       0.002499
 **** Fit       0.002236
 **** Fit       0.002620
 **** Fit       0.003085
 **** Fit       0.001874
 **** Fit       0.001426
 **** Fit       0.001494
 **** Fit       0.001917
 **** Fit       0.002452
 **** Fit       0.002862
 **** Fit       0.003123
 **** Fit       0.003455
 **** Fit       0.000969
 **** Fit       0.000473
 **** Fit       0.000403
 **** Fit       0.000668
 **** Fit       0.001162
 **** Fit       0.001779
 **** Fit       0.002383
 **** Fit       0.002811
 **** Fit       0.002987
 **** Fit       0.003031
 **** Fit       0.003187
 **** Fit      -0.000491
 **** Fit      -0.000838
 **** Fit      -0.000799
 **** Fit      -0.000465
 **** Fit       0.000061
 **** Fit       0.000713
 **** Fit       0.001453
 **** Fit       0.002199
 **** Fit       0.002795
 **** Fit       0.003086
 **** Fit       0.003047
 **** Fit       0.002843
 **** Fit       0.002750
 **** Fit       0.002981
 **** Fit      -0.001451
 **** Fit      -0.002142
 **** Fit      -0.002432
 **** Fit      -0.000103
 **** Fit       0.000657
 **** Fit       0.001496
 **** Fit       0.002341
 **** Fit       0.002173
 **** Fit       0.002192
 **** Fit      -0.003474
 **** Fit      -0.004209
 **** Fit       0.000018
 **** Fit       0.000924
 **** Fit       0.001942
 **** Fit       0.001156
 **** Fit       0.001348
 **** Fit      -0.006423
 **** Fit      -0.007117
 **** Fit       0.000366
 **** Fit       0.001463
 **** Fit      -0.000241
 **** Fit       0.000266
 **** Fit       0.001180
 **** Fit      -0.009967
 **** Fit      -0.011034
 **** Fit      -0.011360
 **** Fit       0.000507
 **** Fit       0.001812
 **** Fit      -0.002045
 **** Fit      -0.001104
 **** Fit       0.000151
 **** Fit       0.002410
 **** Fit      -0.004231
 **** Fit      -0.002683
 **** Fit      -0.001006
 **** Fit      -0.006923
 **** Fit      -0.004552
 **** Fit      -0.002323
 **** Fit      -0.000375
 **** Fit       0.000396
 **** Fit      -0.010565
 **** Fit      -0.006932
 **** Fit      -0.003868
 **** Fit      -0.001444
 **** Fit      -0.009409
 **** Fit      -0.002078
 **** Fit      -0.001601
 **** Fit      -0.003577
 **** Fit      -0.003935
 **** Fit      -0.003750
 **** Fit      -0.002986
 **** Fit      -0.001889
 **** Fit      -0.000636
 **** Fit      -0.005361
 **** Fit      -0.005940
 **** Fit      -0.006263
 **** Fit      -0.001133
 **** Fit      -0.008022
 **** Fit      -0.008520
 **** Fit      -0.000678
 **** Fit      -0.011733
 **** Fit      -0.011803
 **** Fit       0.002994
 **** Fit       0.002838
 **** Fit       0.002655
 **** Fit       0.002822
 **** Fit       0.002894
 **** Fit       0.002709
 **** Fit       0.002301
 **** Fit       0.001911
 **** Fit       0.001815
 **** Fit       0.002739
 **** Fit       0.002975
 **** Fit       0.002877
 **** Fit       0.002378
 **** Fit       0.001626
 **** Fit       0.000918
 **** Fit       0.000548
 **** Fit       0.000664
 **** Fit       0.002604
 **** Fit       0.003144
 **** Fit       0.003364
 **** Fit       0.003043
 **** Fit       0.002154
 **** Fit       0.000909
 **** Fit      -0.000315
 **** Fit      -0.001136
 **** Fit      -0.001332
 **** Fit      -0.000896
 **** Fit       0.002512
 **** Fit       0.003387
 **** Fit       0.004039
 **** Fit       0.004126
 **** Fit       0.003429
 **** Fit       0.001957
 **** Fit      -0.000007
 **** Fit      -0.001977
 **** Fit      -0.003447
 **** Fit      -0.004093
 **** Fit      -0.003858
 **** Fit      -0.002912
 **** Fit       0.002688
 **** Fit       0.004024
 **** Fit       0.005187
 **** Fit       0.005678
 **** Fit       0.005091
 **** Fit       0.003239
 **** Fit       0.000328
 **** Fit      -0.003016
 **** Fit      -0.005960
 **** Fit      -0.007802
 **** Fit      -0.008236
 **** Fit      -0.007396
 **** Fit      -0.005690
 **** Fit       0.005046
 **** Fit       0.006938
 **** Fit      -0.008491
 **** Fit      -0.012187
 **** Fit      -0.009261
 **** Fit       0.008392
 **** Fit       0.003693
 **** Fit       0.004125
 **** Fit       0.004055
 **** Fit       0.003433
 **** Fit       0.003146
 **** Fit       0.003417
 **** Fit       0.003760
 **** Fit       0.004434
 **** Fit       0.004653
 **** Fit       0.004419
 **** Fit       0.003741
 **** Fit       0.002932
 **** Fit       0.002438
 **** Fit       0.003507
 **** Fit       0.003662
 **** Fit       0.004002
 **** Fit       0.004612
 **** Fit       0.004984
 **** Fit       0.005044
 **** Fit       0.004707
 **** Fit       0.003990
 **** Fit       0.003038
 **** Fit       0.002108
 **** Fit       0.001490
 **** Fit       0.003412
 **** Fit       0.003635
 **** Fit       0.004094
 **** Fit       0.004657
 **** Fit       0.005144
 **** Fit       0.005368
 **** Fit       0.005243
 **** Fit       0.004729
 **** Fit       0.003852
 **** Fit       0.002722
 **** Fit       0.001533
 **** Fit       0.000538
 **** Fit       0.003059
 **** Fit       0.003441
 **** Fit       0.004035
 **** Fit       0.004570
 **** Fit       0.005159
 **** Fit       0.005492
 **** Fit       0.005487
 **** Fit       0.005089
 **** Fit       0.004282
 **** Fit       0.003103
 **** Fit       0.001669
 **** Fit       0.000180
 **** Fit      -0.001105
 **** Fit       0.002526
 **** Fit       0.003091
 **** Fit       0.003833
 **** Fit       0.004354
 **** Fit       0.005020
 **** Fit       0.005429
 **** Fit       0.005509
 **** Fit       0.005198
 **** Fit       0.004456
 **** Fit       0.003273
 **** Fit       0.001699
 **** Fit      -0.000133
 **** Fit      -0.002000
 **** Fit      -0.003619
 **** Fit       0.001874
 **** Fit       0.002642
 **** Fit       0.003522
 **** Fit       0.004018
 **** Fit       0.004770
 **** Fit       0.005223
 **** Fit       0.005300
 **** Fit       0.004925
 **** Fit       0.004029
 **** Fit       0.002571
 **** Fit       0.000569
 **** Fit      -0.001859
 **** Fit      -0.004456
 **** Fit      -0.006843
 **** Fit       0.000989
 **** Fit       0.001991
 **** Fit       0.003054
 **** Fit       0.003567
 **** Fit       0.004377
 **** Fit       0.004846
 **** Fit       0.004888
 **** Fit       0.004407
 **** Fit       0.003300
 **** Fit       0.001471
 **** Fit      -0.001120
 **** Fit      -0.004398
 **** Fit      -0.008095
 **** Fit       0.001270
 **** Fit       0.002499
 **** Fit       0.003001
 **** Fit       0.003853
 **** Fit       0.004303
 **** Fit       0.004246
 **** Fit       0.003541
 **** Fit       0.002018
 **** Fit      -0.000505
 **** Fit      -0.004174
 **** Fit       0.001835
 **** Fit       0.002288
 **** Fit       0.003179
 **** Fit       0.003565
 **** Fit       0.003272
 **** Fit       0.002053
 **** Fit      -0.000426
 **** Fit       0.026283
 **** Fit       0.019812
 **** Fit       0.011683
 **** Fit       0.033713
 **** Fit       0.029294
 **** Fit       0.023543
 **** Fit       0.016032
 **** Fit       0.035527
 **** Fit       0.031792
 **** Fit       0.026761
 **** Fit       0.020005
 **** Fit       0.011113
 **** Fit       0.005565
 **** Fit      -0.006606
 **** Fit       0.036362
 **** Fit       0.033384
 **** Fit       0.029145
 **** Fit       0.023281
 **** Fit       0.015499
 **** Fit       0.010896
 **** Fit       0.000405
 **** Fit      -0.011382
 **** Fit       0.018460
 **** Fit       0.027040
 **** Fit       0.035937
 **** Fit       0.034568
 **** Fit       0.031292
 **** Fit       0.026364
 **** Fit       0.019592
 **** Fit       0.015343
 **** Fit       0.006313
 **** Fit      -0.003706
 **** Fit      -0.013936
 **** Fit      -0.023686
 **** Fit      -0.032849
 **** Fit       0.010947
 **** Fit       0.019880
 **** Fit       0.028302
 **** Fit       0.036579
 **** Fit       0.034540
 **** Fit       0.032444
 **** Fit       0.028564
 **** Fit       0.022845
 **** Fit       0.018816
 **** Fit       0.011019
 **** Fit       0.002338
 **** Fit      -0.006638
 **** Fit      -0.015525
 **** Fit       0.011545
 **** Fit       0.020631
 **** Fit       0.028682
 **** Fit       0.035939
 **** Fit       0.032612
 **** Fit       0.029869
 **** Fit       0.025210
 **** Fit       0.021348
 **** Fit       0.014365
 **** Fit       0.006480
 **** Fit      -0.001771
 **** Fit      -0.010049
 **** Fit       0.016306
 **** Fit       0.024688
 **** Fit       0.031650
 **** Fit       0.031980
 **** Fit       0.030522
 **** Fit       0.026877
 **** Fit       0.023050
 **** Fit       0.016775
 **** Fit       0.009597
 **** Fit       0.002167
 **** Fit      -0.004887
 **** Fit       0.011924
 **** Fit       0.020533
 **** Fit       0.027607
 **** Fit       0.032620
 **** Fit       0.030405
 **** Fit       0.027768
 **** Fit       0.024080
 **** Fit       0.018164
 **** Fit       0.011493
 **** Fit       0.005318
 **** Fit       0.001188
 **** Fit       0.000829
 **** Fit       0.004960
 **** Fit       0.012195
 **** Fit       0.020097
 **** Fit       0.026743
 **** Fit       0.030830
 **** Fit       0.029835
 **** Fit       0.028195
 **** Fit       0.024629
 **** Fit       0.019069
 **** Fit       0.013720
 **** Fit       0.011373
 **** Fit       0.013849
 **** Fit       0.019876
 **** Fit       0.025985
 **** Fit       0.029336
 **** Fit       0.029088
 **** Fit       0.028201
 **** Fit       0.024908
 **** Fit       0.020316
 **** Fit       0.020499
 **** Fit       0.025447
 **** Fit       0.028159
 **** Fit       0.027911
 **** Fit       0.025123
 **** Fit       0.036016
 **** Fit       0.034143
 **** Fit       0.033352
 **** Fit       0.032135
 **** Fit       0.032049
 **** Fit       0.030635
 **** Fit       0.032910
 **** Fit       0.030406
 **** Fit       0.029919
 **** Fit       0.027986
 **** Fit       0.029534
 **** Fit       0.032687
 **** Fit       0.042129
 **** Fit       0.041772
 **** Fit       0.028643
 **** Fit       0.027775
 **** Fit       0.025512
 **** Fit       0.026481
 **** Fit       0.028763
 **** Fit       0.034408
 **** Fit       0.033793
 **** Fit       0.037842
 **** Fit       0.037785
 **** Fit       0.026894
 **** Fit       0.025718
 **** Fit       0.023313
 **** Fit       0.023802
 **** Fit       0.025333
 **** Fit       0.027705
 **** Fit       0.031093
 **** Fit       0.030134
 **** Fit       0.029743
 **** Fit       0.029964
 **** Fit       0.030664
 **** Fit       0.033092
 **** Fit       0.033462
 **** Fit       0.033656
 **** Fit       0.033801
 **** Fit       0.033944
 **** Fit       0.027088
 **** Fit       0.025171
 **** Fit       0.023826
 **** Fit       0.021484
 **** Fit       0.021630
 **** Fit       0.022634
 **** Fit       0.024171
 **** Fit       0.025663
 **** Fit       0.026564
 **** Fit       0.026714
 **** Fit       0.026410
 **** Fit       0.026107
 **** Fit       0.026127
 **** Fit       0.026574
 **** Fit       0.027345
 **** Fit       0.028213
 **** Fit       0.028959
 **** Fit       0.029483
 **** Fit       0.029810
 **** Fit       0.029995
 **** Fit       0.030005
 **** Fit       0.029677
 **** Fit       0.027375
 **** Fit       0.025544
 **** Fit       0.023694
 **** Fit       0.022232
 **** Fit       0.020116
 **** Fit       0.020034
 **** Fit       0.020708
 **** Fit       0.021658
 **** Fit       0.022363
 **** Fit       0.022695
 **** Fit       0.022934
 **** Fit       0.023391
 **** Fit       0.024140
 **** Fit       0.025010
 **** Fit       0.025760
 **** Fit       0.026257
 **** Fit       0.026463
 **** Fit       0.026300
 **** Fit       0.025602
 **** Fit       0.024301
 **** Fit       0.022629
 **** Fit       0.021070
 **** Fit       0.019292
 **** Fit       0.019081
 **** Fit       0.019568
 **** Fit       0.020196
 **** Fit       0.020807
 **** Fit       0.021584
 **** Fit       0.022482
 **** Fit       0.023189
 **** Fit       0.023435
 **** Fit       0.023030
 **** Fit       0.021897
 **** Fit       0.020400
 **** Fit       0.019077
 **** Fit       0.018951
 **** Fit       0.019682
 **** Fit       0.020651
 **** Fit       0.021070
 **** Fit       0.020277
 **** Fit       0.019520
 **** Fit       0.036419
 **** Fit       0.033379
 **** Fit       0.047808
 **** Fit       0.036452
 **** Fit       0.033575
 **** Fit       0.032285
 **** Fit       0.032286
 **** Fit       0.033378
 **** Fit       0.040263
 **** Fit       0.042240
 **** Fit       0.043691
 **** Fit       0.045044
 **** Fit       0.036861
 **** Fit       0.033957
 **** Fit       0.032512
 **** Fit       0.032320
 **** Fit       0.033159
 **** Fit       0.034728
 **** Fit       0.036640
 **** Fit       0.038496
 **** Fit       0.040081
 **** Fit       0.041527
 **** Fit       0.033600
 **** Fit       0.032303
 **** Fit       0.032018
 **** Fit       0.032623
 **** Fit       0.033847
 **** Fit       0.035331
 **** Fit       0.036767
 **** Fit       0.038056
 **** Fit       0.031252
 **** Fit       0.031395
 **** Fit       0.032171
 **** Fit       0.033297
 **** Fit       0.034423
 **** Fit       0.028726
 **** Fit       0.035018
 **** Fit       0.028655
 **** Fit       0.023228
 **** Fit       0.040873
 **** Fit       0.035335
 **** Fit       0.030690
 **** Fit       0.026841
 **** Fit       0.023876
 **** Fit       0.047979
 **** Fit       0.042660
 **** Fit       0.038078
 **** Fit       0.034211
 **** Fit       0.031019
 **** Fit       0.028528
 **** Fit       0.026835
 **** Fit       0.026037
 **** Fit       0.044462
 **** Fit       0.040568
 **** Fit       0.037187
 **** Fit       0.034339
 **** Fit       0.032036
 **** Fit       0.030315
 **** Fit       0.029217
 **** Fit       0.028733
 **** Fit       0.028765
 **** Fit       0.029156
 **** Fit       0.029750
 **** Fit       0.030445
 **** Fit       0.031216
 **** Fit       0.041360
 **** Fit       0.038604
 **** Fit       0.036189
 **** Fit       0.034153
 **** Fit       0.032525
 **** Fit       0.031329
 **** Fit       0.030562
 **** Fit       0.030174
 **** Fit       0.030069
 **** Fit       0.030136
 **** Fit       0.030285
 **** Fit       0.030469
 **** Fit       0.040139
 **** Fit       0.038060
 **** Fit       0.036136
 **** Fit       0.034448
 **** Fit       0.033048
 **** Fit       0.031965
 **** Fit       0.031188
 **** Fit       0.030661
 **** Fit       0.030291
 **** Fit       0.029979
 **** Fit       0.029643
 **** Fit       0.036560
 **** Fit       0.035252
 **** Fit       0.033964
 **** Fit       0.032800
 **** Fit       0.031812
 **** Fit       0.030994
 **** Fit       0.030286
 **** Fit       0.029591
 **** Fit       0.028806
 **** Fit       0.033045
 **** Fit       0.032133
 **** Fit       0.031185
 **** Fit       0.030240
 **** Fit       0.029244
 **** Fit       0.028080
 **** Fit       0.030192
 **** Fit       0.029103
 -----------------------------------------------------------------
 Leave Link  602 at Tue Sep 17 23:51:02 2019, MaxMem=  1342177280 cpu:             112.3 elap:               2.4

 Test job not archived.
 1\1\GINC-C486-051\SP\RB3LYP\SVP\C54H83Ca1N15O23\PENGZHI\17-Sep-2019\0\
 \#b3lyp/svp scf=(tight,noincore) Test #IOP(5/87=12) Density=Current Po
 p=(MK,readradii) iop(6/33=2) iop(6/42=6)\\Ng-293_loop3_83.0\\0,1\C,0,5
 0.96,54.77,44.5\C,0,51.13,54.11,45.86\O,0,50.36,54.28,46.81\H,0,50.297
 ,55.63,44.594\H,0,51.931,55.1,44.131\H,0,50.529,54.055,43.8\N,0,52.17,
 53.28,45.94\C,0,52.7,52.48,47.02\C,0,53.16,53.17,48.29\O,0,54.31,52.98
 ,48.69\C,0,51.81,51.24,47.15\C,0,52.58,50.04,47.67\O,0,53.5,49.55,46.9
 9\O,0,52.32,49.63,48.83\H,0,52.77,53.42,45.14\H,0,53.59,52.06,46.56\H,
 0,51.37,50.91,46.21\H,0,50.91,51.49,47.72\N,0,52.31,54.05,48.83\C,0,52
 .6,55.12,49.77\C,0,52.64,54.72,51.23\O,0,52.81,55.6,52.08\C,0,52.02,56
 .46,49.32\C,0,50.52,56.53,49.56\C,0,49.9,57.72,48.82\C,0,48.41,57.4,48
 .7\N,0,47.66,57.54,49.96\H,0,51.36,53.94,48.51\H,0,53.67,55.27,49.66\H
 ,0,52.18,56.44,48.25\H,0,52.53,57.3,49.8\H,0,50.27,56.62,50.62\H,0,50.
 17,55.61,49.09\H,0,50.3,57.68,47.81\H,0,50.05,58.72,49.22\H,0,48.19,56
 .46,48.21\H,0,48.07,58.25,48.12\H,0,47.86,56.81,50.62\H,0,47.86,58.43,
 50.4\H,0,46.68,57.42,49.75\N,0,52.76,53.43,51.54\C,0,53.68,52.97,52.56
 \C,0,54.52,51.87,51.92\O,0,54.18,51.33,50.87\C,0,52.87,52.52,53.77\C,0
 ,51.55,51.77,53.64\O,0,51.38,50.84,52.82\O,0,50.66,52.02,54.49\H,0,52.
 62,52.81,50.76\H,0,54.41,53.67,52.96\H,0,52.7,53.42,54.36\H,0,53.42,51
 .83,54.4\N,0,55.57,51.44,52.63\C,0,56.42,50.33,52.27\C,0,55.63,49.04,5
 2.49\O,0,55.79,48.45,53.55\H,0,55.86,52.,53.42\H,0,57.33,50.17,52.85\H
 ,0,56.71,50.4,51.23\N,0,54.85,48.55,51.53\C,0,53.88,47.48,51.65\C,0,53
 .79,46.5,50.48\O,0,53.94,45.29,50.52\C,0,52.61,48.17,52.14\C,0,51.49,4
 7.23,52.56\N,0,51.76,45.97,52.9\O,0,50.32,47.6,52.65\H,0,54.89,49.09,5
 0.68\H,0,54.18,46.81,52.45\H,0,52.21,48.95,51.49\H,0,52.85,48.69,53.07
 \H,0,52.66,45.51,52.97\H,0,50.97,45.47,53.28\N,0,53.41,47.06,49.33\C,0
 ,53.13,46.38,48.09\C,0,51.73,45.79,48.11\O,0,50.94,46.05,47.21\H,0,53.
 39,48.07,49.38\H,0,53.89,45.63,47.87\H,0,53.24,47.24,47.42\N,0,51.34,4
 5.16,49.22\C,0,50.03,44.65,49.55\C,0,48.91,45.68,49.7\O,0,47.74,45.34,
 49.81\C,0,49.68,43.55,48.55\C,0,50.79,42.56,48.3\C,0,51.16,41.7,49.34\
 C,0,51.6,42.68,47.16\C,0,52.35,40.97,49.26\C,0,52.8,41.96,47.08\C,0,53
 .17,41.09,48.12\O,0,54.31,40.35,48.\H,0,52.1,44.84,49.81\H,0,50.13,44.
 18,50.53\H,0,49.43,44.04,47.61\H,0,48.85,42.91,48.85\H,0,50.58,41.61,5
 0.24\H,0,51.27,43.33,46.37\H,0,52.65,40.26,50.03\H,0,53.33,42.07,46.14
 \H,0,54.79,40.64,47.22\N,0,49.28,46.96,49.72\C,0,48.5,48.17,49.92\C,0,
 47.48,48.3,51.04\O,0,47.7,49.12,51.93\C,0,48.,48.75,48.6\C,0,47.49,50.
 18,48.76\C,0,46.9,47.89,47.98\C,0,47.49,50.98,47.46\H,0,50.21,47.11,49
 .36\H,0,49.29,48.83,50.27\H,0,48.87,48.83,47.95\H,0,48.14,50.69,49.46\
 H,0,46.45,50.18,49.09\H,0,47.18,46.87,47.72\H,0,45.99,47.87,48.58\H,0,
 46.64,48.38,47.05\H,0,46.97,50.46,46.66\H,0,47.02,51.95,47.64\H,0,48.5
 ,51.21,47.12\N,0,46.33,47.64,50.94\C,0,45.37,47.5,52.02\C,0,43.91,47.2
 1,51.69\O,0,43.13,46.88,52.57\C,0,45.97,46.57,53.06\O,0,46.04,45.26,52
 .56\H,0,46.39,46.79,50.39\H,0,45.34,48.46,52.54\H,0,45.25,46.56,53.88\
 H,0,46.88,47.,53.47\H,0,45.28,45.07,52.\N,0,43.59,47.2,50.39\C,0,42.25
 ,47.37,49.85\C,0,41.44,48.5,50.48\O,0,40.85,49.14,49.62\C,0,41.51,46.0
 4,49.81\H,0,44.32,47.6,49.81\H,0,42.45,47.62,48.81\H,0,42.07,45.22,49.
 36\H,0,41.44,45.66,50.83\H,0,40.48,46.25,49.49\N,0,41.51,48.87,51.75\C
 ,0,41.62,50.23,52.26\C,0,42.76,50.92,51.53\O,0,43.72,50.3,51.08\C,0,41
 .85,50.09,53.77\H,0,41.84,48.14,52.37\H,0,40.66,50.68,52.04\H,0,42.78,
 49.53,53.89\H,0,41.82,51.05,54.28\H,0,41.05,49.5,54.2\N,0,42.64,52.25,
 51.5\C,0,43.57,53.18,50.89\C,0,43.84,52.91,49.41\O,0,44.59,53.66,48.8\
 C,0,44.81,53.44,51.74\C,0,45.86,52.36,51.97\C,0,46.98,52.71,52.94\O,0,
 46.84,53.56,53.84\O,0,48.,52.02,52.7\H,0,41.86,52.62,52.03\H,0,43.05,5
 4.13,50.97\H,0,44.39,53.82,52.66\H,0,45.37,54.28,51.33\H,0,46.26,52.1,
 50.99\H,0,45.34,51.45,52.27\N,0,43.21,51.95,48.72\C,0,43.34,51.58,47.3
 3\H,0,44.396,51.477,47.079\H,0,42.832,50.631,47.157\H,0,42.892,52.352,
 46.704\H,0,42.68,51.33,49.32\Ca,0,49.16,49.97,53.92\O,0,48.85,47.67,55
 .05\H,0,49.72,47.34,54.85\H,0,48.3,46.89,55.09\\Version=ES64L-G16RevA.
 03\State=1-A\HF=-5333.4444533\RMSD=5.754e-09\Dipole=-4.8402578,7.13023
 42,0.5118817\Quadrupole=-53.4072949,81.1735392,-27.7662444,-22.4412082
 ,-7.3246902,-57.1760981\PG=C01 [X(C54H83Ca1N15O23)]\\@


 EXPERIENCE IS THE FRUIT OF THE TREE OF ERRORS.
 Job cpu time:       0 days  9 hours 23 minutes 33.1 seconds.
 Elapsed time:       0 days  0 hours 11 minutes 52.7 seconds.
 File lengths (MBytes):  RWF=   1517 Int=      0 D2E=      0 Chk=    171 Scr=      1
 Normal termination of Gaussian 16 at Tue Sep 17 23:51:03 2019.
