 Entering Gaussian System, Link 0=g16
 Initial command:
 /home1/apps/gaussian/16rA.03/g16/l1.exe "/scratch/01990/pengzhi/4345536/Gau-244320.inp" -scrdir="/scratch/01990/pengzhi/4345536/"
 Entering Link 1 = /home1/apps/gaussian/16rA.03/g16/l1.exe PID=    244322.
  
 Copyright (c) 1988,1990,1992,1993,1995,1998,2003,2009,2016,
            Gaussian, Inc.  All Rights Reserved.
  
 This is part of the Gaussian(R) 16 program.  It is based on
 the Gaussian(R) 09 system (copyright 2009, Gaussian, Inc.),
 the Gaussian(R) 03 system (copyright 2003, Gaussian, Inc.),
 the Gaussian(R) 98 system (copyright 1998, Gaussian, Inc.),
 the Gaussian(R) 94 system (copyright 1995, Gaussian, Inc.),
 the Gaussian 92(TM) system (copyright 1992, Gaussian, Inc.),
 the Gaussian 90(TM) system (copyright 1990, Gaussian, Inc.),
 the Gaussian 88(TM) system (copyright 1988, Gaussian, Inc.),
 the Gaussian 86(TM) system (copyright 1986, Carnegie Mellon
 University), and the Gaussian 82(TM) system (copyright 1983,
 Carnegie Mellon University). Gaussian is a federally registered
 trademark of Gaussian, Inc.
  
 This software contains proprietary and confidential information,
 including trade secrets, belonging to Gaussian, Inc.
  
 This software is provided under written license and may be
 used, copied, transmitted, or stored only in accord with that
 written license.
  
 The following legend is applicable only to US Government
 contracts under FAR:
  
                    RESTRICTED RIGHTS LEGEND
  
 Use, reproduction and disclosure by the US Government is
 subject to restrictions as set forth in subparagraphs (a)
 and (c) of the Commercial Computer Software - Restricted
 Rights clause in FAR 52.227-19.
  
 Gaussian, Inc.
 340 Quinnipiac St., Bldg. 40, Wallingford CT 06492
  
  
 ---------------------------------------------------------------
 Warning -- This program may not be used in any manner that
 competes with the business of Gaussian, Inc. or will provide
 assistance to any competitor of Gaussian, Inc.  The licensee
 of this program is prohibited from giving any competitor of
 Gaussian, Inc. access to this program.  By using this program,
 the user acknowledges that Gaussian, Inc. is engaged in the
 business of creating and licensing software in the field of
 computational chemistry and represents and warrants to the
 licensee that it is not a competitor of Gaussian, Inc. and that
 it will not use this program in any manner prohibited above.
 ---------------------------------------------------------------
  

 Cite this work as:
 Gaussian 16, Revision A.03,
 M. J. Frisch, G. W. Trucks, H. B. Schlegel, G. E. Scuseria, 
 M. A. Robb, J. R. Cheeseman, G. Scalmani, V. Barone, 
 G. A. Petersson, H. Nakatsuji, X. Li, M. Caricato, A. V. Marenich, 
 J. Bloino, B. G. Janesko, R. Gomperts, B. Mennucci, H. P. Hratchian, 
 J. V. Ortiz, A. F. Izmaylov, J. L. Sonnenberg, D. Williams-Young, 
 F. Ding, F. Lipparini, F. Egidi, J. Goings, B. Peng, A. Petrone, 
 T. Henderson, D. Ranasinghe, V. G. Zakrzewski, J. Gao, N. Rega, 
 G. Zheng, W. Liang, M. Hada, M. Ehara, K. Toyota, R. Fukuda, 
 J. Hasegawa, M. Ishida, T. Nakajima, Y. Honda, O. Kitao, H. Nakai, 
 T. Vreven, K. Throssell, J. A. Montgomery, Jr., J. E. Peralta, 
 F. Ogliaro, M. J. Bearpark, J. J. Heyd, E. N. Brothers, K. N. Kudin, 
 V. N. Staroverov, T. A. Keith, R. Kobayashi, J. Normand, 
 K. Raghavachari, A. P. Rendell, J. C. Burant, S. S. Iyengar, 
 J. Tomasi, M. Cossi, J. M. Millam, M. Klene, C. Adamo, R. Cammi, 
 J. W. Ochterski, R. L. Martin, K. Morokuma, O. Farkas, 
 J. B. Foresman, and D. J. Fox, Gaussian, Inc., Wallingford CT, 2016.
 
 ******************************************
 Gaussian 16:  ES64L-G16RevA.03 25-Dec-2016
                17-Sep-2019 
 ******************************************
 %chk=Ng-293_loop3_6.0.chk
 %nprocshared=48
 Will use up to   48 processors via shared memory.
 %mem=10GB
 %nosave
 ----------------------------------------------------------------------
 #b3lyp/svp scf=(tight,noincore) Test #IOP(5/87=12) Density=Current Pop
 =(MK,readradii) iop(6/33=2) iop(6/42=6)
 ----------------------------------------------------------------------
 1/30=1,38=1,172=1/1;
 2/12=2,17=6,18=5,40=1/2;
 3/5=18,7=101,11=2,25=1,30=1,74=-5/1,2,3;
 4//1;
 5/5=4,32=2,38=5,87=12/2;
 6/7=2,8=2,9=2,10=2,15=8,20=101,22=-1,28=1,33=2,42=6/1,2;
 99/5=1,9=1/99;
 ----------------
 Ng-293_loop3_6.0
 ----------------
 Symbolic Z-matrix:
 Charge =  0 Multiplicity = 1
 C                     43.46     81.42     66.79 
 C                     43.72     81.5      65.3 
 O                     44.76     82.05     64.94 
 H                     42.413    81.169    66.963 
 H                     44.094    80.65     67.229 
 H                     43.683    82.382    67.251 
 N                     42.79     81.03     64.47 
 C                     42.91     80.95     63.02 
 C                     42.76     79.52     62.51 
 O                     42.09     78.78     63.23 
 C                     41.8      81.85     62.49 
 C                     42.15     82.31     61.08 
 O                     43.21     81.98     60.51 
 O                     41.33     83.02     60.45 
 H                     41.91     80.65     64.79 
 H                     43.91     81.29     62.74 
 H                     41.69     82.7      63.15 
 H                     40.86     81.3      62.48 
 N                     43.22     79.23     61.3 
 C                     42.9      78.06     60.5 
 C                     41.4      77.96     60.24 
 O                     40.62     78.84     60.58 
 C                     43.49     76.76     61.03 
 C                     44.98     76.85     61.37 
 C                     45.82     77.04     60.11 
 C                     47.27     77.06     60.59 
 N                     47.75     78.31     61.21 
 H                     43.64     80.01     60.82 
 H                     43.36     78.19     59.52 
 H                     43.38     76.06     60.2 
 H                     43.08     76.39     61.96 
 H                     45.15     75.84     61.75 
 H                     45.12     77.63     62.12 
 H                     45.59     77.94     59.54 
 H                     45.63     76.13     59.54 
 H                     47.79     76.74     59.68 
 H                     47.38     76.29     61.35 
 H                     47.       78.82     61.66 
 H                     48.46     78.17     61.91 
 H                     48.17     78.9      60.51 
 N                     40.95     77.02     59.39 
 C                     39.71     76.95     58.65 
 C                     38.67     76.06     59.32 
 O                     38.1      76.46     60.33 
 C                     39.93     76.65     57.17 
 C                     40.89     75.52     56.8 
 O                     42.13     75.71     56.79 
 O                     40.49     74.37     56.55 
 H                     41.54     76.2      59.31 
 H                     39.24     77.93     58.75 
 H                     40.26     77.59     56.74 
 H                     38.98     76.35     56.74 
 N                     38.56     74.79     58.94 
 C                     37.63     73.87     59.57 
 C                     36.19     73.87     59.08 
 O                     35.24     74.17     59.8 
 H                     39.23     74.46     58.26 
 H                     37.61     73.91     60.66 
 H                     37.99     72.85     59.39 
 N                     36.08     73.38     57.85 
 C                     34.82     73.53     57.14 
 C                     33.75     72.5      57.46 
 O                     33.99     71.31     57.3 
 C                     35.06     73.72     55.64 
 C                     33.85     74.29     54.93 
 N                     33.65     75.61     54.93 
 O                     33.02     73.6      54.34 
 H                     36.9      73.       57.4 
 H                     34.41     74.5      57.42 
 H                     35.25     72.74     55.21 
 H                     35.93     74.37     55.51 
 H                     34.14     76.21     55.59 
 H                     32.79     75.99     54.55 
 N                     32.55     72.96     57.85 
 C                     31.54     72.04     58.32 
 C                     31.9      71.5      59.69 
 O                     32.17     72.28     60.61 
 H                     32.52     73.94     58.06 
 H                     31.47     71.27     57.54 
 H                     30.51     72.39     58.32 
 N                     31.71     70.2      59.91 
 C                     31.87     69.45     61.14 
 C                     33.18     69.54     61.91 
 O                     33.37     68.8      62.87 
 C                     30.63     69.75     61.98 
 C                     29.3      69.3      61.42 
 C                     28.25     70.2      61.19 
 C                     29.05     67.95     61.16 
 C                     27.01     69.82     60.67 
 C                     27.76     67.53     60.83 
 C                     26.75     68.45     60.48 
 O                     25.48     68.15     60.09 
 H                     31.52     69.64     59.08 
 H                     31.78     68.41     60.83 
 H                     30.67     70.81     62.24 
 H                     30.69     69.15     62.89 
 H                     28.53     71.25     61.23 
 H                     29.86     67.25     61.3 
 H                     26.2      70.5      60.44 
 H                     27.58     66.48     60.64 
 H                     25.32     67.2      60.14 
 N                     34.21     70.11     61.28 
 C                     35.63     70.03     61.53 
 C                     36.26     68.65     61.38 
 O                     37.31     68.62     60.73 
 C                     35.91     70.62     62.91 
 C                     35.33     71.98     63.26 
 C                     37.41     70.65     63.16 
 C                     35.57     72.43     64.7 
 H                     33.99     70.71     60.5 
 H                     36.16     70.75     60.89 
 H                     35.5      69.94     63.66 
 H                     34.24     71.89     63.18 
 H                     35.61     72.71     62.5 
 H                     38.       71.15     62.39 
 H                     37.65     71.08     64.14 
 H                     37.82     69.65     63.33 
 H                     34.98     73.3      64.97 
 H                     35.44     71.6      65.4 
 H                     36.59     72.8      64.85 
 N                     35.58     67.58     61.78 
 C                     35.85     66.23     61.31 
 C                     37.09     65.57     61.91 
 O                     37.58     64.55     61.44 
 C                     34.66     65.32     61.57 
 O                     33.55     66.       61.05 
 H                     34.66     67.7      62.18 
 H                     35.93     66.31     60.22 
 H                     34.48     65.14     62.63 
 H                     34.89     64.37     61.07 
 H                     32.8      65.39     61.02 
 N                     37.74     66.25     62.85 
 C                     38.99     65.85     63.46 
 C                     40.18     65.89     62.51 
 O                     41.24     65.34     62.78 
 C                     38.81     64.59     64.3 
 H                     37.27     67.1      63.14 
 H                     39.17     66.6      64.24 
 H                     38.73     63.65     63.74 
 H                     39.6      64.46     65.03 
 H                     37.85     64.74     64.8 
 N                     40.1      66.73     61.48 
 C                     41.09     66.95     60.44 
 C                     41.94     68.13     60.88 
 O                     41.51     68.94     61.7 
 C                     40.27     67.36     59.22 
 H                     39.31     67.36     61.48 
 H                     41.71     66.08     60.23 
 H                     40.89     67.68     58.39 
 H                     39.68     66.5      58.92 
 H                     39.51     68.09     59.5 
 N                     43.17     68.22     60.36 
 C                     44.1      69.33     60.44 
 C                     44.54     69.79     61.82 
 O                     45.08     70.89     61.93 
 C                     43.58     70.45     59.55 
 C                     43.23     70.1      58.11 
 C                     42.93     71.35     57.3 
 O                     43.44     72.44     57.62 
 O                     42.13     71.28     56.34 
 H                     43.48     67.45     59.78 
 H                     45.06     68.99     60.03 
 H                     44.27     71.3      59.59 
 H                     42.7      70.94     59.96 
 H                     42.36     69.46     58.22 
 H                     44.08     69.56     57.68 
 N                     44.44     68.91     62.81 
 C                     44.45     69.32     64.2 
 H                     44.069    70.338    64.281 
 H                     43.818    68.649    64.782 
 H                     45.47     69.283    64.583 
 H                     44.16     67.97     62.56 
 Ca                    42.66     73.57     55.24 
 O                     44.69     71.96     54.8 
 H                     44.78     71.16     54.28 
 H                     45.57     72.12     55.15 
 
 Stoichiometry    C54H83CaN15O23
 Framework group  C1[X(C54H83CaN15O23)]
 Deg. of freedom   522
 Full point group                 C1      NOp   1
 Largest Abelian subgroup         C1      NOp   1
 Largest concise Abelian subgroup C1      NOp   1
                         Standard orientation:                         
 ---------------------------------------------------------------------
 Center     Atomic      Atomic             Coordinates (Angstroms)
 Number     Number       Type             X           Y           Z
 ---------------------------------------------------------------------
      1          6           0        9.597242   -2.589765   -6.694778
      2          6           0        9.816415   -2.710998   -5.201002
      3          8           0       10.958275   -2.522124   -4.783648
      4          1           0        8.638824   -3.037963   -6.958771
      5          1           0        9.594762   -1.537397   -6.977782
      6          1           0       10.397297   -3.107335   -7.223670
      7          7           0        8.785342   -3.070884   -4.438067
      8          6           0        8.795227   -3.153688   -2.983300
      9          6           0        7.748334   -2.242585   -2.349734
     10          8           0        6.774350   -1.998112   -3.061414
     11          6           0        8.515760   -4.620485   -2.677680
     12          6           0        9.050294   -4.960411   -1.291706
     13          8           0        9.635921   -4.123844   -0.574352
     14          8           0        8.867949   -6.114306   -0.834893
     15          1           0        7.874503   -3.293069   -4.815168
     16          1           0        9.772845   -2.818966   -2.628018
     17          1           0        8.993264   -5.234425   -3.429523
     18          1           0        7.442609   -4.801918   -2.718041
     19          7           0        7.887769   -1.914103   -1.072057
     20          6           0        6.872444   -1.351837   -0.197832
     21          6           0        5.656051   -2.267570   -0.100773
     22          8           0        5.634095   -3.377989   -0.615446
     23          6           0        6.496664    0.087980   -0.521432
     24          6           0        7.700639    1.017058   -0.697660
     25          6           0        8.438827    1.215465    0.623330
     26          6           0        9.570039    2.193396    0.311386
     27          7           0       10.755458    1.644812   -0.375008
     28          1           0        8.701457   -2.311228   -0.630012
     29          1           0        7.287359   -1.306769    0.809498
     30          1           0        5.944125    0.422869    0.358085
     31          1           0        5.964249    0.248932   -1.449079
     32          1           0        7.187598    1.947821   -0.950387
     33          1           0        8.325995    0.628478   -1.502915
     34          1           0        8.831148    0.301193    1.068292
     35          1           0        7.695231    1.698072    1.258354
     36          1           0        9.742265    2.628128    1.302469
     37          1           0        9.173745    2.961767   -0.348280
     38          1           0       10.520276    0.850455   -0.957061
     39          1           0       11.222535    2.307580   -0.971900
     40          1           0       11.442103    1.358339    0.303926
     41          7           0        4.688545   -1.969671    0.784545
     42          6           0        3.680192   -2.815793    1.382377
     43          6           0        2.325686   -2.700092    0.693517
     44          8           0        2.168888   -3.212036   -0.410262
     45          6           0        3.624102   -2.672964    2.900683
     46          6           0        3.621895   -1.263401    3.491045
     47          8           0        4.691923   -0.621789    3.622097
     48          8           0        2.569797   -0.683776    3.810612
     49          1           0        4.609372   -0.985945    1.014574
     50          1           0        3.954619   -3.841557    1.129794
     51          1           0        4.473158   -3.240881    3.266709
     52          1           0        2.695654   -3.113783    3.248627
     53          7           0        1.415197   -1.865148    1.186749
     54          6           0        0.124599   -1.662950    0.552970
     55          6           0       -0.986289   -2.651203    0.873881
     56          8           0       -1.504040   -3.372499    0.023843
     57          1           0        1.700433   -1.292794    1.968574
     58          1           0        0.157853   -1.540881   -0.530585
     59          1           0       -0.261354   -0.688815    0.876237
     60          7           0       -1.411842   -2.536014    2.127171
     61          6           0       -2.293071   -3.556988    2.670537
     62          6           0       -3.768042   -3.407252    2.338511
     63          8           0       -4.354859   -2.377445    2.645827
     64          6           0       -2.018502   -3.775780    4.160652
     65          6           0       -2.590837   -5.083262    4.666639
     66          7           0       -1.893006   -6.210414    4.508655
     67          8           0       -3.682248   -5.176626    5.226288
     68          1           0       -1.039374   -1.795728    2.703839
     69          1           0       -1.975470   -4.509829    2.247900
     70          1           0       -2.513836   -2.977723    4.707598
     71          1           0       -0.937332   -3.735755    4.321177
     72          1           0       -1.118013   -6.254069    3.850490
     73          1           0       -2.313379   -7.101788    4.747694
     74          7           0       -4.380655   -4.458449    1.769837
     75          6           0       -5.735741   -4.331262    1.285104
     76          6           0       -5.779982   -3.486101    0.027391
     77          8           0       -5.051712   -3.766418   -0.931121
     78          1           0       -3.767620   -5.188263    1.458453
     79          1           0       -6.301775   -3.910370    2.126921
     80          1           0       -6.297451   -5.250264    1.132404
     81          7           0       -6.758425   -2.588340   -0.078324
     82          6           0       -7.093797   -1.732208   -1.198843
     83          6           0       -6.018425   -0.852264   -1.820433
     84          8           0       -6.330060   -0.025557   -2.671748
     85          6           0       -7.830703   -2.619409   -2.200364
     86          6           0       -9.148986   -3.207462   -1.751675
     87          6           0       -9.376328   -4.590741   -1.735722
     88          6           0      -10.215536   -2.382592   -1.384712
     89          6           0      -10.579872   -5.168650   -1.323530
     90          6           0      -11.479109   -2.933155   -1.161857
     91          6           0      -11.665493   -4.324372   -1.024828
     92          8           0      -12.837696   -4.962254   -0.752710
     93          1           0       -7.281885   -2.410313    0.777769
     94          1           0       -7.839310   -1.048245   -0.796095
     95          1           0       -7.111562   -3.357836   -2.561421
     96          1           0       -8.152522   -1.988873   -3.031362
     97          1           0       -8.484783   -5.202567   -1.851119
     98          1           0      -10.044622   -1.316830   -1.359443
     99          1           0      -10.765555   -6.232888   -1.257806
    100          1           0      -12.297352   -2.280570   -0.886882
    101          1           0      -13.571193   -4.336400   -0.722895
    102          7           0       -4.876958   -0.725782   -1.139437
    103          6           0       -3.837925    0.274048   -1.217237
    104          6           0       -4.248889    1.696891   -0.856094
    105          8           0       -3.479235    2.287677   -0.091565
    106          6           0       -3.214855    0.213710   -2.609733
    107          6           0       -2.774387   -1.131953   -3.160804
    108          6           0       -2.043784    1.180970   -2.689734
    109          6           0       -2.270863   -1.102511   -4.602780
    110          1           0       -4.674719   -1.438191   -0.455059
    111          1           0       -2.982169   -0.032021   -0.598446
    112          1           0       -3.950814    0.582299   -3.327720
    113          1           0       -3.667195   -1.767754   -3.196150
    114          1           0       -2.105778   -1.622460   -2.452804
    115          1           0       -1.286664    1.060000   -1.913115
    116          1           0       -1.562755    1.155902   -3.675068
    117          1           0       -2.371322    2.224693   -2.708732
    118          1           0       -2.155500   -2.095350   -5.025701
    119          1           0       -2.890521   -0.450105   -5.224222
    120          1           0       -1.249646   -0.712705   -4.673250
    121          7           0       -5.449873    2.136605   -1.218845
    122          6           0       -6.123349    3.259744   -0.585371
    123          6           0       -5.588383    4.637806   -0.970023
    124          8           0       -5.881028    5.650540   -0.345421
    125          6           0       -7.613957    3.233295   -0.884014
    126          8           0       -8.034999    1.934712   -0.565726
    127          1           0       -6.067381    1.522282   -1.730793
    128          1           0       -6.033405    3.084833    0.492690
    129          1           0       -7.845409    3.415960   -1.933520
    130          1           0       -8.060845    4.023409   -0.266429
    131          1           0       -9.002010    1.916318   -0.558621
    132          7           0       -4.633691    4.677497   -1.894949
    133          6           0       -3.923310    5.866411   -2.315000
    134          6           0       -3.007799    6.447588   -1.245293
    135          8           0       -2.546414    7.578068   -1.335516
    136          6           0       -4.855383    6.834105   -3.036392
    137          1           0       -4.439077    3.779012   -2.321974
    138          1           0       -3.286088    5.530496   -3.142290
    139          1           0       -5.534026    7.410782   -2.395699
    140          1           0       -4.320088    7.544619   -3.654882
    141          1           0       -5.482043    6.186804   -3.654776
    142          7           0       -2.549100    5.604330   -0.322574
    143          6           0       -1.672333    5.908535    0.794940
    144          6           0       -0.252977    5.620591    0.335572
    145          8           0       -0.042502    4.858070   -0.606586
    146          6           0       -2.060338    4.892608    1.865568
    147          1           0       -2.746916    4.625505   -0.476753
    148          1           0       -1.763513    6.929503    1.161969
    149          1           0       -1.397546    4.917984    2.723334
    150          1           0       -3.071810    5.124316    2.183272
    151          1           0       -2.164930    3.899457    1.427832
    152          7           0        0.734310    6.254393    0.979745
    153          6           0        2.162183    6.015751    0.892395
    154          6           0        2.823767    6.155479   -0.468628
    155          8           0        3.947727    5.681403   -0.628836
    156          6           0        2.467945    4.702238    1.598153
    157          6           0        1.944790    4.527202    3.017403
    158          6           0        2.504160    3.266946    3.655730
    159          8           0        3.603130    2.813208    3.285613
    160          8           0        1.827525    2.666798    4.520882
    161          1           0        0.462904    6.946780    1.667014
    162          1           0        2.668272    6.820651    1.441311
    163          1           0        3.543977    4.502207    1.549760
    164          1           0        2.119674    3.834460    1.042935
    165          1           0        0.869647    4.476571    2.875618
    166          1           0        2.237490    5.410795    3.594108
    167          7           0        2.200872    6.908733   -1.368133
    168          6           0        2.501774    6.814918   -2.782685
    169          1           0        2.868321    5.813976   -3.010292
    170          1           0        1.598422    7.010329   -3.360750
    171          1           0        3.265558    7.548405   -3.041699
    172          1           0        1.375834    7.405406   -1.056480
    173         20           0        3.685493    1.101433    5.433342
    174          8           0        4.190328    3.543291    6.263444
    175          1           0        3.732685    4.127851    6.869539
    176          1           0        4.973375    4.033643    6.000970
 ---------------------------------------------------------------------
 Rotational constants (GHZ):           0.0176845           0.0088704           0.0075188
 Standard basis: SVP (5D, 7F)
 There are  1809 symmetry adapted cartesian basis functions of A   symmetry.
 There are  1717 symmetry adapted basis functions of A   symmetry.
  1717 basis functions,  2922 primitive gaussians,  1809 cartesian basis functions
   358 alpha electrons      358 beta electrons
       nuclear repulsion energy     18791.9259762826 Hartrees.
 NAtoms=  176 NActive=  176 NUniq=  176 SFac= 1.00D+00 NAtFMM=   60 NAOKFM=T Big=T
 Integral buffers will be    131072 words long.
 Raffenetti 2 integral format.
 Two-electron integral symmetry is turned on.
 One-electron integrals computed using PRISM.
 NBasis=  1717 RedAO= T EigKep=  3.13D-04  NBF=  1717
 NBsUse=  1717 1.00D-06 EigRej= -1.00D+00 NBFU=  1717
 ExpMin= 1.98D-02 ExpMax= 3.51D+04 ExpMxC= 5.28D+03 IAcc=3 IRadAn=         5 AccDes= 0.00D+00
 Harris functional with IExCor=  402 and IRadAn=       5 diagonalized for initial guess.
 HarFok:  IExCor=  402 AccDes= 0.00D+00 IRadAn=         5 IDoV= 1 UseB2=F ITyADJ=14
 ICtDFT=  3500011 ScaDFX=  1.000000  1.000000  1.000000  1.000000
 FoFCou: FMM=F IPFlag=           0 FMFlag=      100000 FMFlg1=        2001
         NFxFlg=           0 DoJE=T BraDBF=F KetDBF=T FulRan=T
         wScrn=  0.000000 ICntrl=       500 IOpCl=  0 I1Cent=   200000004 NGrid=           0
         NMat0=    1 NMatS0=      1 NMatT0=    0 NMatD0=    1 NMtDS0=    0 NMtDT0=    0
 Petite list used in FoFCou.
 Requested convergence on RMS density matrix=1.00D-08 within 128 cycles.
 Requested convergence on MAX density matrix=1.00D-06.
 Requested convergence on             energy=1.00D-06.
 No special actions if energy rises.
 EnCoef did     2 forward-backward iterations
 EnCoef did     3 forward-backward iterations
 EnCoef did     3 forward-backward iterations
 EnCoef did     2 forward-backward iterations
 EnCoef did     8 forward-backward iterations
 EnCoef did   100 forward-backward iterations
 Restarting incremental Fock formation.
 SCF Done:  E(RB3LYP) =  -5333.37315564     A.U. after   27 cycles
            NFock= 27  Conv=0.21D-08     -V/T= 2.0081
 SCF density gives NOpUse=  1 NOpAll=  1.
 Hyperfine terms turned off by default for NAtoms > 100.

 **********************************************************************

            Population analysis using the SCF density.

 **********************************************************************

 Orbital symmetries:
 BldTbl:  Degeneracy threshold= 1.00D-02
       Occupied  (A) (A) (A) (A) (A) (A) (A) (A) (A) (A) (A) (A)
                 (A) (A) (A) (A) (A) (A) (A) (A) (A) (A) (A) (A)
                 (A) (A) (A) (A) (A) (A) (A) (A) (A) (A) (A) (A)
                 (A) (A) (A) (A) (A) (A) (A) (A) (A) (A) (A) (A)
                 (A) (A) (A) (A) (A) (A) (A) (A) (A) (A) (A) (A)
                 (A) (A) (A) (A) (A) (A) (A) (A) (A) (A) (A) (A)
                 (A) (A) (A) (A) (A) (A) (A) (A) (A) (A) (A) (A)
                 (A) (A) (A) (A) (A) (A) (A) (A) (A) (A) (A) (A)
                 (A) (A) (A) (A) (A) (A) (A) (A) (A) (A) (A) (A)
                 (A) (A) (A) (A) (A) (A) (A) (A) (A) (A) (A) (A)
                 (A) (A) (A) (A) (A) (A) (A) (A) (A) (A) (A) (A)
                 (A) (A) (A) (A) (A) (A) (A) (A) (A) (A) (A) (A)
                 (A) (A) (A) (A) (A) (A) (A) (A) (A) (A) (A) (A)
                 (A) (A) (A) (A) (A) (A) (A) (A) (A) (A) (A) (A)
                 (A) (A) (A) (A) (A) (A) (A) (A) (A) (A) (A) (A)
                 (A) (A) (A) (A) (A) (A) (A) (A) (A) (A) (A) (A)
                 (A) (A) (A) (A) (A) (A) (A) (A) (A) (A) (A) (A)
                 (A) (A) (A) (A) (A) (A) (A) (A) (A) (A) (A) (A)
                 (A) (A) (A) (A) (A) (A) (A) (A) (A) (A) (A) (A)
                 (A) (A) (A) (A) (A) (A) (A) (A) (A) (A) (A) (A)
                 (A) (A) (A) (A) (A) (A) (A) (A) (A) (A) (A) (A)
                 (A) (A) (A) (A) (A) (A) (A) (A) (A) (A) (A) (A)
                 (A) (A) (A) (A) (A) (A) (A) (A) (A) (A) (A) (A)
                 (A) (A) (A) (A) (A) (A) (A) (A) (A) (A) (A) (A)
                 (A) (A) (A) (A) (A) (A) (A) (A) (A) (A) (A) (A)
                 (A) (A) (A) (A) (A) (A) (A) (A) (A) (A) (A) (A)
                 (A) (A) (A) (A) (A) (A) (A) (A) (A) (A) (A) (A)
                 (A) (A) (A) (A) (A) (A) (A) (A) (A) (A) (A) (A)
                 (A) (A) (A) (A) (A) (A) (A) (A) (A) (A) (A) (A)
                 (A) (A) (A) (A) (A) (A) (A) (A) (A) (A)
       Virtual   (A) (A) (A) (A) (A) (A) (A) (A) (A) (A) (A) (A)
                 (A) (A) (A) (A) (A) (A) (A) (A) (A) (A) (A) (A)
                 (A) (A) (A) (A) (A) (A) (A) (A) (A) (A) (A) (A)
                 (A) (A) (A) (A) (A) (A) (A) (A) (A) (A) (A) (A)
                 (A) (A) (A) (A) (A) (A) (A) (A) (A) (A) (A) (A)
                 (A) (A) (A) (A) (A) (A) (A) (A) (A) (A) (A) (A)
                 (A) (A) (A) (A) (A) (A) (A) (A) (A) (A) (A) (A)
                 (A) (A) (A) (A) (A) (A) (A) (A) (A) (A) (A) (A)
                 (A) (A) (A) (A) (A) (A) (A) (A) (A) (A) (A) (A)
                 (A) (A) (A) (A) (A) (A) (A) (A) (A) (A) (A) (A)
                 (A) (A) (A) (A) (A) (A) (A) (A) (A) (A) (A) (A)
                 (A) (A) (A) (A) (A) (A) (A) (A) (A) (A) (A) (A)
                 (A) (A) (A) (A) (A) (A) (A) (A) (A) (A) (A) (A)
                 (A) (A) (A) (A) (A) (A) (A) (A) (A) (A) (A) (A)
                 (A) (A) (A) (A) (A) (A) (A) (A) (A) (A) (A) (A)
                 (A) (A) (A) (A) (A) (A) (A) (A) (A) (A) (A) (A)
                 (A) (A) (A) (A) (A) (A) (A) (A) (A) (A) (A) (A)
                 (A) (A) (A) (A) (A) (A) (A) (A) (A) (A) (A) (A)
                 (A) (A) (A) (A) (A) (A) (A) (A) (A) (A) (A) (A)
                 (A) (A) (A) (A) (A) (A) (A) (A) (A) (A) (A) (A)
                 (A) (A) (A) (A) (A) (A) (A) (A) (A) (A) (A) (A)
                 (A) (A) (A) (A) (A) (A) (A) (A) (A) (A) (A) (A)
                 (A) (A) (A) (A) (A) (A) (A) (A) (A) (A) (A) (A)
                 (A) (A) (A) (A) (A) (A) (A) (A) (A) (A) (A) (A)
                 (A) (A) (A) (A) (A) (A) (A) (A) (A) (A) (A) (A)
                 (A) (A) (A) (A) (A) (A) (A) (A) (A) (A) (A) (A)
                 (A) (A) (A) (A) (A) (A) (A) (A) (A) (A) (A) (A)
                 (A) (A) (A) (A) (A) (A) (A) (A) (A) (A) (A) (A)
                 (A) (A) (A) (A) (A) (A) (A) (A) (A) (A) (A) (A)
                 (A) (A) (A) (A) (A) (A) (A) (A) (A) (A) (A) (A)
                 (A) (A) (A) (A) (A) (A) (A) (A) (A) (A) (A) (A)
                 (A) (A) (A) (A) (A) (A) (A) (A) (A) (A) (A) (A)
                 (A) (A) (A) (A) (A) (A) (A) (A) (A) (A) (A) (A)
                 (A) (A) (A) (A) (A) (A) (A) (A) (A) (A) (A) (A)
                 (A) (A) (A) (A) (A) (A) (A) (A) (A) (A) (A) (A)
                 (A) (A) (A) (A) (A) (A) (A) (A) (A) (A) (A) (A)
                 (A) (A) (A) (A) (A) (A) (A) (A) (A) (A) (A) (A)
                 (A) (A) (A) (A) (A) (A) (A) (A) (A) (A) (A) (A)
                 (A) (A) (A) (A) (A) (A) (A) (A) (A) (A) (A) (A)
                 (A) (A) (A) (A) (A) (A) (A) (A) (A) (A) (A) (A)
                 (A) (A) (A) (A) (A) (A) (A) (A) (A) (A) (A) (A)
                 (A) (A) (A) (A) (A) (A) (A) (A) (A) (A) (A) (A)
                 (A) (A) (A) (A) (A) (A) (A) (A) (A) (A) (A) (A)
                 (A) (A) (A) (A) (A) (A) (A) (A) (A) (A) (A) (A)
                 (A) (A) (A) (A) (A) (A) (A) (A) (A) (A) (A) (A)
                 (A) (A) (A) (A) (A) (A) (A) (A) (A) (A) (A) (A)
                 (A) (A) (A) (A) (A) (A) (A) (A) (A) (A) (A) (A)
                 (A) (A) (A) (A) (A) (A) (A) (A) (A) (A) (A) (A)
                 (A) (A) (A) (A) (A) (A) (A) (A) (A) (A) (A) (A)
                 (A) (A) (A) (A) (A) (A) (A) (A) (A) (A) (A) (A)
                 (A) (A) (A) (A) (A) (A) (A) (A) (A) (A) (A) (A)
                 (A) (A) (A) (A) (A) (A) (A) (A) (A) (A) (A) (A)
                 (A) (A) (A) (A) (A) (A) (A) (A) (A) (A) (A) (A)
                 (A) (A) (A) (A) (A) (A) (A) (A) (A) (A) (A) (A)
                 (A) (A) (A) (A) (A) (A) (A) (A) (A) (A) (A) (A)
                 (A) (A) (A) (A) (A) (A) (A) (A) (A) (A) (A) (A)
                 (A) (A) (A) (A) (A) (A) (A) (A) (A) (A) (A) (A)
                 (A) (A) (A) (A) (A) (A) (A) (A) (A) (A) (A) (A)
                 (A) (A) (A) (A) (A) (A) (A) (A) (A) (A) (A) (A)
                 (A) (A) (A) (A) (A) (A) (A) (A) (A) (A) (A) (A)
                 (A) (A) (A) (A) (A) (A) (A) (A) (A) (A) (A) (A)
                 (A) (A) (A) (A) (A) (A) (A) (A) (A) (A) (A) (A)
                 (A) (A) (A) (A) (A) (A) (A) (A) (A) (A) (A) (A)
                 (A) (A) (A) (A) (A) (A) (A) (A) (A) (A) (A) (A)
                 (A) (A) (A) (A) (A) (A) (A) (A) (A) (A) (A) (A)
                 (A) (A) (A) (A) (A) (A) (A) (A) (A) (A) (A) (A)
                 (A) (A) (A) (A) (A) (A) (A) (A) (A) (A) (A) (A)
                 (A) (A) (A) (A) (A) (A) (A) (A) (A) (A) (A) (A)
                 (A) (A) (A) (A) (A) (A) (A) (A) (A) (A) (A) (A)
                 (A) (A) (A) (A) (A) (A) (A) (A) (A) (A) (A) (A)
                 (A) (A) (A) (A) (A) (A) (A) (A) (A) (A) (A) (A)
                 (A) (A) (A) (A) (A) (A) (A) (A) (A) (A) (A) (A)
                 (A) (A) (A) (A) (A) (A) (A) (A) (A) (A) (A) (A)
                 (A) (A) (A) (A) (A) (A) (A) (A) (A) (A) (A) (A)
                 (A) (A) (A) (A) (A) (A) (A) (A) (A) (A) (A) (A)
                 (A) (A) (A) (A) (A) (A) (A) (A) (A) (A) (A) (A)
                 (A) (A) (A) (A) (A) (A) (A) (A) (A) (A) (A) (A)
                 (A) (A) (A) (A) (A) (A) (A) (A) (A) (A) (A) (A)
                 (A) (A) (A) (A) (A) (A) (A) (A) (A) (A) (A) (A)
                 (A) (A) (A) (A) (A) (A) (A) (A) (A) (A) (A) (A)
                 (A) (A) (A) (A) (A) (A) (A) (A) (A) (A) (A) (A)
                 (A) (A) (A) (A) (A) (A) (A) (A) (A) (A) (A) (A)
                 (A) (A) (A) (A) (A) (A) (A) (A) (A) (A) (A) (A)
                 (A) (A) (A) (A) (A) (A) (A) (A) (A) (A) (A) (A)
                 (A) (A) (A) (A) (A) (A) (A) (A) (A) (A) (A) (A)
                 (A) (A) (A) (A) (A) (A) (A) (A) (A) (A) (A) (A)
                 (A) (A) (A) (A) (A) (A) (A) (A) (A) (A) (A) (A)
                 (A) (A) (A) (A) (A) (A) (A) (A) (A) (A) (A) (A)
                 (A) (A) (A) (A) (A) (A) (A) (A) (A) (A) (A) (A)
                 (A) (A) (A) (A) (A) (A) (A) (A) (A) (A) (A) (A)
                 (A) (A) (A) (A) (A) (A) (A) (A) (A) (A) (A) (A)
                 (A) (A) (A) (A) (A) (A) (A) (A) (A) (A) (A) (A)
                 (A) (A) (A) (A) (A) (A) (A) (A) (A) (A) (A) (A)
                 (A) (A) (A) (A) (A) (A) (A) (A) (A) (A) (A) (A)
                 (A) (A) (A) (A) (A) (A) (A) (A) (A) (A) (A) (A)
                 (A) (A) (A) (A) (A) (A) (A) (A) (A) (A) (A) (A)
                 (A) (A) (A) (A) (A) (A) (A) (A) (A) (A) (A) (A)
                 (A) (A) (A) (A) (A) (A) (A) (A) (A) (A) (A) (A)
                 (A) (A) (A) (A) (A) (A) (A) (A) (A) (A) (A) (A)
                 (A) (A) (A) (A) (A) (A) (A) (A) (A) (A) (A) (A)
                 (A) (A) (A) (A) (A) (A) (A) (A) (A) (A) (A) (A)
                 (A) (A) (A) (A) (A) (A) (A) (A) (A) (A) (A) (A)
                 (A) (A) (A) (A) (A) (A) (A) (A) (A) (A) (A) (A)
                 (A) (A) (A) (A) (A) (A) (A) (A) (A) (A) (A) (A)
                 (A) (A) (A) (A) (A) (A) (A) (A) (A) (A) (A) (A)
                 (A) (A) (A) (A) (A) (A) (A) (A) (A) (A) (A) (A)
                 (A) (A) (A) (A) (A) (A) (A) (A) (A) (A) (A) (A)
                 (A) (A) (A) (A) (A) (A) (A) (A) (A) (A) (A) (A)
                 (A) (A) (A) (A) (A) (A) (A) (A) (A) (A) (A) (A)
                 (A) (A) (A) (A) (A) (A) (A) (A) (A) (A) (A) (A)
                 (A) (A) (A) (A) (A) (A) (A) (A) (A) (A) (A) (A)
                 (A) (A) (A) (A) (A) (A) (A) (A) (A) (A) (A) (A)
                 (A) (A) (A) (A) (A) (A) (A) (A) (A) (A) (A) (A)
                 (A) (A) (A)
 The electronic state is 1-A.
 Alpha  occ. eigenvalues -- -145.45725 -19.22746 -19.16885 -19.14927 -19.10306
 Alpha  occ. eigenvalues --  -19.10086 -19.09887 -19.09858 -19.09417 -19.09218
 Alpha  occ. eigenvalues --  -19.09082 -19.08717 -19.08630 -19.08568 -19.08169
 Alpha  occ. eigenvalues --  -19.07146 -19.06583 -19.06581 -19.06527 -19.06446
 Alpha  occ. eigenvalues --  -19.05901 -19.04540 -18.99052 -18.97721 -15.51696
 Alpha  occ. eigenvalues --  -14.57699 -14.36596 -14.36257 -14.36048 -14.35805
 Alpha  occ. eigenvalues --  -14.35504 -14.35322 -14.35066 -14.34715 -14.34077
 Alpha  occ. eigenvalues --  -14.33800 -14.33327 -14.32482 -14.32427 -14.30878
 Alpha  occ. eigenvalues --  -12.65294 -12.65243 -12.65214 -10.33818 -10.29267
 Alpha  occ. eigenvalues --  -10.28889 -10.28823 -10.28530 -10.28401 -10.27973
 Alpha  occ. eigenvalues --  -10.27619 -10.27485 -10.27159 -10.26933 -10.26316
 Alpha  occ. eigenvalues --  -10.26100 -10.25914 -10.25679 -10.25337 -10.25256
 Alpha  occ. eigenvalues --  -10.24649 -10.24649 -10.24452 -10.24412 -10.24101
 Alpha  occ. eigenvalues --  -10.23893 -10.23334 -10.23216 -10.22861 -10.22735
 Alpha  occ. eigenvalues --  -10.22735 -10.22675 -10.22483 -10.22035 -10.21567
 Alpha  occ. eigenvalues --  -10.21204 -10.21009 -10.19980 -10.19583 -10.19546
 Alpha  occ. eigenvalues --  -10.19187 -10.19005 -10.18773 -10.18716 -10.18662
 Alpha  occ. eigenvalues --  -10.17777 -10.17674 -10.17247 -10.17187 -10.17147
 Alpha  occ. eigenvalues --  -10.16828 -10.15956 -10.15889 -10.15685 -10.15609
 Alpha  occ. eigenvalues --  -10.15523 -10.12051  -1.88499  -1.15990  -1.15566
 Alpha  occ. eigenvalues --   -1.15529  -1.12764  -1.08553  -1.05352  -1.04362
 Alpha  occ. eigenvalues --   -1.04266  -1.03702  -1.03446  -1.02660  -1.02493
 Alpha  occ. eigenvalues --   -1.02338  -1.02079  -1.01969  -1.01839  -1.01585
 Alpha  occ. eigenvalues --   -1.00891  -1.00669  -1.00086  -0.99837  -0.98734
 Alpha  occ. eigenvalues --   -0.97415  -0.93468  -0.93114  -0.93028  -0.92838
 Alpha  occ. eigenvalues --   -0.92789  -0.92517  -0.92247  -0.92109  -0.91275
 Alpha  occ. eigenvalues --   -0.91025  -0.90359  -0.90125  -0.90018  -0.89900
 Alpha  occ. eigenvalues --   -0.89530  -0.89511  -0.88143  -0.87433  -0.85173
 Alpha  occ. eigenvalues --   -0.82347  -0.81056  -0.80635  -0.80183  -0.79053
 Alpha  occ. eigenvalues --   -0.78632  -0.77842  -0.77653  -0.76051  -0.75112
 Alpha  occ. eigenvalues --   -0.74938  -0.74652  -0.74332  -0.73233  -0.72900
 Alpha  occ. eigenvalues --   -0.72520  -0.72357  -0.71975  -0.71936  -0.71230
 Alpha  occ. eigenvalues --   -0.69298  -0.68700  -0.68687  -0.68292  -0.67525
 Alpha  occ. eigenvalues --   -0.66008  -0.65814  -0.65436  -0.64597  -0.63216
 Alpha  occ. eigenvalues --   -0.62696  -0.62612  -0.62044  -0.61799  -0.61778
 Alpha  occ. eigenvalues --   -0.61187  -0.61000  -0.60622  -0.60115  -0.60105
 Alpha  occ. eigenvalues --   -0.59261  -0.58831  -0.58663  -0.58599  -0.58196
 Alpha  occ. eigenvalues --   -0.57938  -0.57828  -0.56915  -0.56578  -0.56089
 Alpha  occ. eigenvalues --   -0.55826  -0.55592  -0.55345  -0.55047  -0.54826
 Alpha  occ. eigenvalues --   -0.54768  -0.54266  -0.54227  -0.54167  -0.53865
 Alpha  occ. eigenvalues --   -0.53305  -0.52741  -0.52357  -0.51921  -0.51810
 Alpha  occ. eigenvalues --   -0.51754  -0.51458  -0.51091  -0.50800  -0.50154
 Alpha  occ. eigenvalues --   -0.49856  -0.49835  -0.49628  -0.49411  -0.48951
 Alpha  occ. eigenvalues --   -0.48557  -0.48189  -0.47912  -0.47842  -0.47588
 Alpha  occ. eigenvalues --   -0.47065  -0.46801  -0.46780  -0.46515  -0.45892
 Alpha  occ. eigenvalues --   -0.45813  -0.45507  -0.45358  -0.45043  -0.44989
 Alpha  occ. eigenvalues --   -0.44934  -0.44749  -0.44390  -0.44302  -0.44225
 Alpha  occ. eigenvalues --   -0.44103  -0.43925  -0.43730  -0.43566  -0.43316
 Alpha  occ. eigenvalues --   -0.43287  -0.43086  -0.43024  -0.42683  -0.42636
 Alpha  occ. eigenvalues --   -0.42398  -0.42220  -0.42075  -0.41969  -0.41893
 Alpha  occ. eigenvalues --   -0.41573  -0.41393  -0.41287  -0.41146  -0.41056
 Alpha  occ. eigenvalues --   -0.41012  -0.40703  -0.40549  -0.40471  -0.40340
 Alpha  occ. eigenvalues --   -0.40261  -0.40184  -0.40113  -0.40021  -0.39843
 Alpha  occ. eigenvalues --   -0.39662  -0.39616  -0.39396  -0.39289  -0.39252
 Alpha  occ. eigenvalues --   -0.38998  -0.38967  -0.38809  -0.38782  -0.38754
 Alpha  occ. eigenvalues --   -0.38629  -0.38397  -0.38206  -0.38170  -0.37832
 Alpha  occ. eigenvalues --   -0.37649  -0.37316  -0.37301  -0.37080  -0.36989
 Alpha  occ. eigenvalues --   -0.36885  -0.36784  -0.36620  -0.36568  -0.36174
 Alpha  occ. eigenvalues --   -0.36115  -0.35928  -0.35673  -0.35501  -0.35489
 Alpha  occ. eigenvalues --   -0.35378  -0.35243  -0.35125  -0.34987  -0.34791
 Alpha  occ. eigenvalues --   -0.34692  -0.34471  -0.34132  -0.34062  -0.34026
 Alpha  occ. eigenvalues --   -0.33881  -0.33467  -0.33128  -0.33056  -0.33011
 Alpha  occ. eigenvalues --   -0.32813  -0.32051  -0.31636  -0.31626  -0.30881
 Alpha  occ. eigenvalues --   -0.29617  -0.29238  -0.29181  -0.28450  -0.28137
 Alpha  occ. eigenvalues --   -0.27992  -0.27952  -0.27709  -0.27502  -0.27405
 Alpha  occ. eigenvalues --   -0.27061  -0.26964  -0.26706  -0.26541  -0.26318
 Alpha  occ. eigenvalues --   -0.25982  -0.25676  -0.25248  -0.25208  -0.25103
 Alpha  occ. eigenvalues --   -0.25053  -0.24938  -0.24882  -0.24264  -0.24219
 Alpha  occ. eigenvalues --   -0.23993  -0.23937  -0.23737  -0.23725  -0.23649
 Alpha  occ. eigenvalues --   -0.23498  -0.22894  -0.22534  -0.22490  -0.22372
 Alpha  occ. eigenvalues --   -0.22046  -0.21735  -0.21277  -0.21112  -0.20371
 Alpha  occ. eigenvalues --   -0.16321  -0.15447  -0.12375
 Alpha virt. eigenvalues --   -0.11388  -0.09184  -0.04069  -0.02896  -0.02682
 Alpha virt. eigenvalues --   -0.02070  -0.00608  -0.00097   0.00099   0.00448
 Alpha virt. eigenvalues --    0.00596   0.01150   0.01346   0.01374   0.01711
 Alpha virt. eigenvalues --    0.01798   0.01940   0.02061   0.02593   0.02763
 Alpha virt. eigenvalues --    0.02862   0.03002   0.03039   0.03300   0.04064
 Alpha virt. eigenvalues --    0.04096   0.04410   0.04519   0.04853   0.05059
 Alpha virt. eigenvalues --    0.05123   0.05466   0.05625   0.05896   0.05962
 Alpha virt. eigenvalues --    0.06246   0.06631   0.06768   0.06957   0.07305
 Alpha virt. eigenvalues --    0.07473   0.07792   0.08045   0.08232   0.08442
 Alpha virt. eigenvalues --    0.08549   0.08650   0.08824   0.09013   0.09371
 Alpha virt. eigenvalues --    0.09552   0.09903   0.10119   0.10263   0.10344
 Alpha virt. eigenvalues --    0.10628   0.10801   0.11127   0.11311   0.11488
 Alpha virt. eigenvalues --    0.11704   0.11982   0.12066   0.12377   0.12556
 Alpha virt. eigenvalues --    0.12646   0.12769   0.12851   0.13009   0.13334
 Alpha virt. eigenvalues --    0.13348   0.13418   0.13525   0.13774   0.13950
 Alpha virt. eigenvalues --    0.14035   0.14310   0.14515   0.14621   0.14799
 Alpha virt. eigenvalues --    0.14904   0.15072   0.15150   0.15200   0.15506
 Alpha virt. eigenvalues --    0.15604   0.15636   0.15682   0.15887   0.16074
 Alpha virt. eigenvalues --    0.16209   0.16229   0.16307   0.16627   0.16787
 Alpha virt. eigenvalues --    0.17123   0.17155   0.17295   0.17349   0.17549
 Alpha virt. eigenvalues --    0.17811   0.18059   0.18185   0.18257   0.18486
 Alpha virt. eigenvalues --    0.18675   0.18897   0.19012   0.19118   0.19250
 Alpha virt. eigenvalues --    0.19769   0.20100   0.20332   0.20350   0.20641
 Alpha virt. eigenvalues --    0.20898   0.21063   0.21320   0.21370   0.21670
 Alpha virt. eigenvalues --    0.22028   0.22262   0.22443   0.22606   0.22710
 Alpha virt. eigenvalues --    0.23086   0.23316   0.23520   0.23650   0.23905
 Alpha virt. eigenvalues --    0.24184   0.24401   0.24653   0.24760   0.24956
 Alpha virt. eigenvalues --    0.25090   0.25620   0.25684   0.25809   0.26135
 Alpha virt. eigenvalues --    0.26385   0.26551   0.26695   0.26981   0.27361
 Alpha virt. eigenvalues --    0.27689   0.27802   0.27976   0.28322   0.28639
 Alpha virt. eigenvalues --    0.28828   0.29233   0.29510   0.29554   0.29768
 Alpha virt. eigenvalues --    0.29936   0.30024   0.30115   0.30297   0.30372
 Alpha virt. eigenvalues --    0.30649   0.31006   0.31241   0.31629   0.31700
 Alpha virt. eigenvalues --    0.31807   0.31975   0.32259   0.32851   0.33093
 Alpha virt. eigenvalues --    0.33369   0.33685   0.33900   0.34071   0.34275
 Alpha virt. eigenvalues --    0.34644   0.34725   0.34891   0.35081   0.35630
 Alpha virt. eigenvalues --    0.36142   0.36331   0.36533   0.37033   0.37104
 Alpha virt. eigenvalues --    0.37387   0.37811   0.38200   0.38798   0.39088
 Alpha virt. eigenvalues --    0.39179   0.39740   0.40041   0.40124   0.40440
 Alpha virt. eigenvalues --    0.40590   0.40958   0.41232   0.41387   0.41579
 Alpha virt. eigenvalues --    0.42115   0.42353   0.42543   0.42677   0.42694
 Alpha virt. eigenvalues --    0.43191   0.43383   0.43508   0.43620   0.43974
 Alpha virt. eigenvalues --    0.44349   0.44567   0.44688   0.44932   0.45065
 Alpha virt. eigenvalues --    0.45187   0.45553   0.45632   0.45774   0.45995
 Alpha virt. eigenvalues --    0.46108   0.46206   0.46367   0.46682   0.46857
 Alpha virt. eigenvalues --    0.46997   0.47133   0.47276   0.47465   0.47762
 Alpha virt. eigenvalues --    0.47769   0.47879   0.48080   0.48140   0.48442
 Alpha virt. eigenvalues --    0.48601   0.48831   0.49070   0.49156   0.49419
 Alpha virt. eigenvalues --    0.49561   0.49589   0.49936   0.49978   0.50035
 Alpha virt. eigenvalues --    0.50776   0.51002   0.51046   0.51207   0.51457
 Alpha virt. eigenvalues --    0.51738   0.52039   0.52150   0.52253   0.52301
 Alpha virt. eigenvalues --    0.52616   0.52829   0.53222   0.53306   0.53466
 Alpha virt. eigenvalues --    0.53739   0.53852   0.53985   0.54369   0.54452
 Alpha virt. eigenvalues --    0.54714   0.54829   0.54913   0.55064   0.55455
 Alpha virt. eigenvalues --    0.55543   0.55825   0.56093   0.56247   0.56501
 Alpha virt. eigenvalues --    0.56556   0.56738   0.56869   0.56952   0.57213
 Alpha virt. eigenvalues --    0.57277   0.57439   0.57548   0.57702   0.57867
 Alpha virt. eigenvalues --    0.58068   0.58316   0.58434   0.58794   0.58908
 Alpha virt. eigenvalues --    0.58988   0.59239   0.59379   0.59482   0.59794
 Alpha virt. eigenvalues --    0.59995   0.60085   0.60231   0.60671   0.60740
 Alpha virt. eigenvalues --    0.60780   0.60928   0.61030   0.61362   0.61554
 Alpha virt. eigenvalues --    0.61659   0.61726   0.61910   0.62029   0.62088
 Alpha virt. eigenvalues --    0.62309   0.62418   0.62484   0.62595   0.62740
 Alpha virt. eigenvalues --    0.62842   0.62953   0.63237   0.63456   0.63551
 Alpha virt. eigenvalues --    0.63795   0.63820   0.64007   0.64120   0.64152
 Alpha virt. eigenvalues --    0.64302   0.64554   0.64613   0.64790   0.64810
 Alpha virt. eigenvalues --    0.64912   0.64948   0.65040   0.65191   0.65270
 Alpha virt. eigenvalues --    0.65444   0.65536   0.65725   0.65855   0.65994
 Alpha virt. eigenvalues --    0.66063   0.66118   0.66203   0.66327   0.66393
 Alpha virt. eigenvalues --    0.66562   0.66648   0.66690   0.66878   0.66955
 Alpha virt. eigenvalues --    0.67223   0.67338   0.67459   0.67535   0.67671
 Alpha virt. eigenvalues --    0.67703   0.67736   0.67804   0.67973   0.68001
 Alpha virt. eigenvalues --    0.68019   0.68261   0.68371   0.68506   0.68526
 Alpha virt. eigenvalues --    0.68785   0.68890   0.68996   0.69077   0.69139
 Alpha virt. eigenvalues --    0.69209   0.69252   0.69448   0.69604   0.69698
 Alpha virt. eigenvalues --    0.69720   0.69735   0.69832   0.69897   0.70005
 Alpha virt. eigenvalues --    0.70145   0.70302   0.70387   0.70512   0.70636
 Alpha virt. eigenvalues --    0.70761   0.70816   0.70981   0.71059   0.71211
 Alpha virt. eigenvalues --    0.71281   0.71451   0.71490   0.71535   0.71683
 Alpha virt. eigenvalues --    0.71913   0.72059   0.72351   0.72365   0.72517
 Alpha virt. eigenvalues --    0.72712   0.72966   0.73263   0.73473   0.73612
 Alpha virt. eigenvalues --    0.73833   0.73952   0.74188   0.74412   0.74458
 Alpha virt. eigenvalues --    0.74655   0.74883   0.75063   0.75243   0.75452
 Alpha virt. eigenvalues --    0.75460   0.75657   0.75757   0.76219   0.76284
 Alpha virt. eigenvalues --    0.76442   0.76964   0.77078   0.77293   0.77407
 Alpha virt. eigenvalues --    0.77499   0.77562   0.77728   0.77782   0.78106
 Alpha virt. eigenvalues --    0.78119   0.78303   0.78789   0.78965   0.79387
 Alpha virt. eigenvalues --    0.79494   0.80011   0.80343   0.80719   0.80973
 Alpha virt. eigenvalues --    0.81051   0.81346   0.81568   0.81757   0.81939
 Alpha virt. eigenvalues --    0.82276   0.82446   0.82830   0.83103   0.83275
 Alpha virt. eigenvalues --    0.83317   0.83697   0.83948   0.84009   0.84471
 Alpha virt. eigenvalues --    0.84743   0.84981   0.85304   0.85588   0.86595
 Alpha virt. eigenvalues --    0.86710   0.87021   0.87075   0.87370   0.87626
 Alpha virt. eigenvalues --    0.87994   0.88043   0.88637   0.89154   0.89310
 Alpha virt. eigenvalues --    0.89509   0.89777   0.89933   0.90280   0.90462
 Alpha virt. eigenvalues --    0.90800   0.91056   0.91333   0.91500   0.91605
 Alpha virt. eigenvalues --    0.91914   0.92170   0.92276   0.92711   0.93205
 Alpha virt. eigenvalues --    0.93635   0.93874   0.94083   0.94295   0.94343
 Alpha virt. eigenvalues --    0.94635   0.94950   0.95312   0.95504   0.95821
 Alpha virt. eigenvalues --    0.96013   0.96220   0.96763   0.97014   0.97461
 Alpha virt. eigenvalues --    0.97823   0.98424   0.98941   0.99095   0.99215
 Alpha virt. eigenvalues --    0.99634   0.99845   0.99921   1.00142   1.00247
 Alpha virt. eigenvalues --    1.00713   1.00831   1.01069   1.01456   1.01808
 Alpha virt. eigenvalues --    1.02053   1.02305   1.02703   1.03027   1.03731
 Alpha virt. eigenvalues --    1.04046   1.04412   1.04599   1.05139   1.05398
 Alpha virt. eigenvalues --    1.05490   1.05868   1.06012   1.06135   1.06412
 Alpha virt. eigenvalues --    1.06675   1.06900   1.07177   1.07527   1.08064
 Alpha virt. eigenvalues --    1.08373   1.08651   1.08695   1.08923   1.09016
 Alpha virt. eigenvalues --    1.09426   1.09579   1.09671   1.09881   1.10093
 Alpha virt. eigenvalues --    1.10249   1.10393   1.10764   1.10907   1.11021
 Alpha virt. eigenvalues --    1.11332   1.11871   1.12113   1.12327   1.12662
 Alpha virt. eigenvalues --    1.12922   1.13370   1.13472   1.13652   1.14129
 Alpha virt. eigenvalues --    1.14284   1.14503   1.14611   1.14648   1.14813
 Alpha virt. eigenvalues --    1.15016   1.15263   1.15621   1.15873   1.16184
 Alpha virt. eigenvalues --    1.16310   1.16712   1.16894   1.17113   1.17164
 Alpha virt. eigenvalues --    1.17563   1.18004   1.18197   1.18550   1.18642
 Alpha virt. eigenvalues --    1.19221   1.19279   1.19617   1.19826   1.20112
 Alpha virt. eigenvalues --    1.20595   1.20809   1.20982   1.21332   1.21487
 Alpha virt. eigenvalues --    1.21645   1.21825   1.22108   1.22309   1.22880
 Alpha virt. eigenvalues --    1.23013   1.23707   1.23895   1.24111   1.24401
 Alpha virt. eigenvalues --    1.24606   1.24784   1.25294   1.25425   1.25523
 Alpha virt. eigenvalues --    1.25814   1.25984   1.26142   1.26381   1.26553
 Alpha virt. eigenvalues --    1.26971   1.27242   1.27650   1.27876   1.28243
 Alpha virt. eigenvalues --    1.28463   1.28739   1.28978   1.29173   1.29694
 Alpha virt. eigenvalues --    1.29829   1.30017   1.30285   1.30783   1.31071
 Alpha virt. eigenvalues --    1.31288   1.31849   1.31963   1.32037   1.32338
 Alpha virt. eigenvalues --    1.32387   1.32947   1.33229   1.33436   1.33546
 Alpha virt. eigenvalues --    1.34026   1.34391   1.35062   1.35184   1.35901
 Alpha virt. eigenvalues --    1.35975   1.36444   1.36766   1.36846   1.37498
 Alpha virt. eigenvalues --    1.37573   1.37839   1.38140   1.38545   1.39119
 Alpha virt. eigenvalues --    1.39398   1.39666   1.39977   1.40063   1.40717
 Alpha virt. eigenvalues --    1.40833   1.41189   1.41296   1.41425   1.41709
 Alpha virt. eigenvalues --    1.42007   1.42268   1.42541   1.42633   1.43199
 Alpha virt. eigenvalues --    1.43358   1.43639   1.43969   1.44086   1.44390
 Alpha virt. eigenvalues --    1.44640   1.44872   1.45000   1.45023   1.45331
 Alpha virt. eigenvalues --    1.45830   1.46070   1.46670   1.46794   1.47198
 Alpha virt. eigenvalues --    1.47787   1.47957   1.48258   1.48495   1.48679
 Alpha virt. eigenvalues --    1.48818   1.49232   1.49855   1.49955   1.50704
 Alpha virt. eigenvalues --    1.50876   1.51468   1.51798   1.52346   1.52409
 Alpha virt. eigenvalues --    1.52443   1.52907   1.53081   1.53596   1.53771
 Alpha virt. eigenvalues --    1.53870   1.54314   1.54339   1.54475   1.55494
 Alpha virt. eigenvalues --    1.56076   1.56259   1.56528   1.57293   1.58626
 Alpha virt. eigenvalues --    1.58958   1.59035   1.59636   1.59983   1.60234
 Alpha virt. eigenvalues --    1.60595   1.60879   1.61177   1.61656   1.61734
 Alpha virt. eigenvalues --    1.62359   1.62777   1.62813   1.63140   1.63386
 Alpha virt. eigenvalues --    1.63540   1.63674   1.63798   1.63852   1.63855
 Alpha virt. eigenvalues --    1.64239   1.64441   1.64722   1.65849   1.66167
 Alpha virt. eigenvalues --    1.66456   1.66541   1.66856   1.67161   1.67594
 Alpha virt. eigenvalues --    1.67642   1.68027   1.68241   1.68432   1.69137
 Alpha virt. eigenvalues --    1.69291   1.69489   1.69532   1.69904   1.70079
 Alpha virt. eigenvalues --    1.70557   1.70661   1.70971   1.71325   1.71575
 Alpha virt. eigenvalues --    1.71656   1.71924   1.72697   1.72715   1.72844
 Alpha virt. eigenvalues --    1.72920   1.73106   1.73378   1.73424   1.73598
 Alpha virt. eigenvalues --    1.73974   1.74247   1.74390   1.74616   1.74732
 Alpha virt. eigenvalues --    1.74967   1.75201   1.75470   1.75493   1.75756
 Alpha virt. eigenvalues --    1.75829   1.76022   1.76339   1.76475   1.76626
 Alpha virt. eigenvalues --    1.76858   1.76999   1.77169   1.77232   1.77527
 Alpha virt. eigenvalues --    1.77620   1.77691   1.77923   1.78281   1.78388
 Alpha virt. eigenvalues --    1.78555   1.78732   1.78802   1.79035   1.79431
 Alpha virt. eigenvalues --    1.79656   1.79792   1.79826   1.79990   1.80329
 Alpha virt. eigenvalues --    1.80364   1.80405   1.80579   1.81031   1.81112
 Alpha virt. eigenvalues --    1.81210   1.81282   1.81389   1.81531   1.81743
 Alpha virt. eigenvalues --    1.81932   1.82056   1.82332   1.82624   1.82781
 Alpha virt. eigenvalues --    1.83073   1.83154   1.83319   1.83422   1.83462
 Alpha virt. eigenvalues --    1.83533   1.83875   1.83988   1.84204   1.84747
 Alpha virt. eigenvalues --    1.84823   1.85104   1.85158   1.85441   1.85679
 Alpha virt. eigenvalues --    1.85859   1.85950   1.86431   1.86458   1.86593
 Alpha virt. eigenvalues --    1.86891   1.87149   1.87234   1.87485   1.87666
 Alpha virt. eigenvalues --    1.87791   1.88000   1.88394   1.88508   1.88675
 Alpha virt. eigenvalues --    1.88753   1.88907   1.89071   1.89254   1.89410
 Alpha virt. eigenvalues --    1.89614   1.89779   1.89867   1.90088   1.90215
 Alpha virt. eigenvalues --    1.90423   1.90687   1.90864   1.90953   1.91122
 Alpha virt. eigenvalues --    1.91371   1.91769   1.91845   1.92219   1.92431
 Alpha virt. eigenvalues --    1.92619   1.92723   1.93104   1.93374   1.93474
 Alpha virt. eigenvalues --    1.93618   1.93713   1.94098   1.94231   1.94611
 Alpha virt. eigenvalues --    1.94711   1.94947   1.95286   1.95425   1.95447
 Alpha virt. eigenvalues --    1.95677   1.95761   1.95855   1.95983   1.96172
 Alpha virt. eigenvalues --    1.96243   1.96579   1.96756   1.97084   1.97426
 Alpha virt. eigenvalues --    1.97487   1.97602   1.97980   1.98179   1.98245
 Alpha virt. eigenvalues --    1.98438   1.98671   1.98954   1.99233   1.99425
 Alpha virt. eigenvalues --    1.99653   1.99775   1.99849   2.00353   2.00488
 Alpha virt. eigenvalues --    2.01485   2.01745   2.01941   2.02207   2.02315
 Alpha virt. eigenvalues --    2.02528   2.02744   2.02773   2.02940   2.03199
 Alpha virt. eigenvalues --    2.03373   2.03601   2.03865   2.04051   2.04566
 Alpha virt. eigenvalues --    2.04671   2.04927   2.05238   2.05531   2.05784
 Alpha virt. eigenvalues --    2.06375   2.06583   2.06796   2.07002   2.08020
 Alpha virt. eigenvalues --    2.08161   2.08742   2.08799   2.08967   2.09429
 Alpha virt. eigenvalues --    2.09504   2.09801   2.10116   2.10372   2.10584
 Alpha virt. eigenvalues --    2.10796   2.11076   2.11602   2.11868   2.11955
 Alpha virt. eigenvalues --    2.12009   2.12338   2.12566   2.12725   2.13095
 Alpha virt. eigenvalues --    2.13262   2.13389   2.13751   2.13979   2.14202
 Alpha virt. eigenvalues --    2.14393   2.14720   2.14959   2.15197   2.15671
 Alpha virt. eigenvalues --    2.15700   2.16131   2.16576   2.16989   2.17081
 Alpha virt. eigenvalues --    2.17317   2.17431   2.17563   2.17808   2.17850
 Alpha virt. eigenvalues --    2.18084   2.18370   2.18650   2.18908   2.18998
 Alpha virt. eigenvalues --    2.19419   2.19582   2.19799   2.20029   2.20541
 Alpha virt. eigenvalues --    2.20825   2.21053   2.21273   2.21284   2.21526
 Alpha virt. eigenvalues --    2.22272   2.22856   2.23587   2.23681   2.24063
 Alpha virt. eigenvalues --    2.24325   2.24618   2.25029   2.25054   2.25362
 Alpha virt. eigenvalues --    2.25750   2.26225   2.26925   2.27785   2.28331
 Alpha virt. eigenvalues --    2.28536   2.28969   2.29243   2.29444   2.29904
 Alpha virt. eigenvalues --    2.30180   2.30497   2.30638   2.30816   2.31465
 Alpha virt. eigenvalues --    2.31767   2.32083   2.32433   2.32721   2.32800
 Alpha virt. eigenvalues --    2.33067   2.33080   2.33226   2.33840   2.33965
 Alpha virt. eigenvalues --    2.34238   2.34519   2.35068   2.35320   2.35954
 Alpha virt. eigenvalues --    2.36067   2.36330   2.36878   2.37087   2.37303
 Alpha virt. eigenvalues --    2.37712   2.38329   2.38613   2.38725   2.39077
 Alpha virt. eigenvalues --    2.39205   2.39634   2.40063   2.40427   2.41069
 Alpha virt. eigenvalues --    2.41138   2.41270   2.42336   2.42854   2.43058
 Alpha virt. eigenvalues --    2.43252   2.43456   2.43654   2.44084   2.44448
 Alpha virt. eigenvalues --    2.44983   2.45310   2.45495   2.46064   2.46284
 Alpha virt. eigenvalues --    2.46565   2.46595   2.46649   2.47682   2.48067
 Alpha virt. eigenvalues --    2.48427   2.49318   2.49478   2.49495   2.49885
 Alpha virt. eigenvalues --    2.50153   2.50339   2.50762   2.51048   2.51342
 Alpha virt. eigenvalues --    2.51448   2.52133   2.52406   2.52933   2.53680
 Alpha virt. eigenvalues --    2.53965   2.54385   2.54635   2.55034   2.55330
 Alpha virt. eigenvalues --    2.55681   2.55874   2.56195   2.56684   2.57271
 Alpha virt. eigenvalues --    2.57540   2.57676   2.57859   2.57971   2.58819
 Alpha virt. eigenvalues --    2.58933   2.59025   2.59234   2.59700   2.59713
 Alpha virt. eigenvalues --    2.60206   2.60509   2.60527   2.61442   2.61498
 Alpha virt. eigenvalues --    2.61675   2.62010   2.62485   2.62899   2.63111
 Alpha virt. eigenvalues --    2.63246   2.63945   2.64044   2.64348   2.64763
 Alpha virt. eigenvalues --    2.65054   2.65678   2.65744   2.65803   2.66007
 Alpha virt. eigenvalues --    2.66292   2.66520   2.66759   2.67238   2.67351
 Alpha virt. eigenvalues --    2.67453   2.67909   2.68064   2.68409   2.68474
 Alpha virt. eigenvalues --    2.68826   2.68992   2.69189   2.69781   2.69840
 Alpha virt. eigenvalues --    2.70411   2.70570   2.70855   2.71101   2.71352
 Alpha virt. eigenvalues --    2.71495   2.71646   2.72079   2.72707   2.73148
 Alpha virt. eigenvalues --    2.73400   2.73485   2.74026   2.74278   2.74430
 Alpha virt. eigenvalues --    2.74718   2.74862   2.74980   2.75726   2.76006
 Alpha virt. eigenvalues --    2.76154   2.76398   2.76577   2.76882   2.77071
 Alpha virt. eigenvalues --    2.77313   2.77460   2.77744   2.77989   2.78146
 Alpha virt. eigenvalues --    2.78773   2.79229   2.79327   2.79344   2.79447
 Alpha virt. eigenvalues --    2.79792   2.80434   2.80596   2.80817   2.80922
 Alpha virt. eigenvalues --    2.81275   2.81404   2.82140   2.82224   2.82323
 Alpha virt. eigenvalues --    2.82452   2.82885   2.83158   2.83448   2.84053
 Alpha virt. eigenvalues --    2.84383   2.84697   2.84835   2.85055   2.85417
 Alpha virt. eigenvalues --    2.85566   2.85824   2.86006   2.86809   2.86880
 Alpha virt. eigenvalues --    2.87057   2.87100   2.87399   2.87497   2.88119
 Alpha virt. eigenvalues --    2.88281   2.89630   2.90114   2.90331   2.90677
 Alpha virt. eigenvalues --    2.90826   2.91173   2.91574   2.91897   2.92002
 Alpha virt. eigenvalues --    2.92167   2.92749   2.92995   2.93120   2.93300
 Alpha virt. eigenvalues --    2.93391   2.93635   2.94072   2.94399   2.94930
 Alpha virt. eigenvalues --    2.94939   2.95653   2.95753   2.95905   2.96469
 Alpha virt. eigenvalues --    2.96779   2.97129   2.97694   2.97898   2.98448
 Alpha virt. eigenvalues --    2.98811   2.99288   2.99406   2.99432   2.99900
 Alpha virt. eigenvalues --    3.00227   3.00642   3.00834   3.00969   3.01543
 Alpha virt. eigenvalues --    3.01593   3.01954   3.02093   3.02306   3.02374
 Alpha virt. eigenvalues --    3.03236   3.03289   3.03591   3.04092   3.04174
 Alpha virt. eigenvalues --    3.04470   3.04547   3.05285   3.05608   3.06395
 Alpha virt. eigenvalues --    3.06639   3.07436   3.07554   3.07613   3.08770
 Alpha virt. eigenvalues --    3.08914   3.09269   3.09573   3.11370   3.11934
 Alpha virt. eigenvalues --    3.12038   3.12811   3.13902   3.14086   3.14388
 Alpha virt. eigenvalues --    3.14636   3.15435   3.15727   3.15912   3.16465
 Alpha virt. eigenvalues --    3.16528   3.16866   3.17066   3.17367   3.17788
 Alpha virt. eigenvalues --    3.17967   3.18227   3.18457   3.18527   3.18527
 Alpha virt. eigenvalues --    3.18700   3.18862   3.19252   3.19409   3.20037
 Alpha virt. eigenvalues --    3.20155   3.20314   3.20602   3.21130   3.21436
 Alpha virt. eigenvalues --    3.21696   3.21935   3.22623   3.23191   3.23805
 Alpha virt. eigenvalues --    3.24312   3.24738   3.25236   3.25545   3.25603
 Alpha virt. eigenvalues --    3.25734   3.26131   3.26446   3.27429   3.27734
 Alpha virt. eigenvalues --    3.29025   3.30359   3.31170   3.31693   3.31924
 Alpha virt. eigenvalues --    3.32485   3.33612   3.34216   3.35499   3.37167
 Alpha virt. eigenvalues --    3.39815   3.41378   3.42687   3.46611   3.47952
 Alpha virt. eigenvalues --    3.53371   3.54362   3.54676   3.55132   3.55519
 Alpha virt. eigenvalues --    3.55787   3.56137   3.56699   3.56858   3.58294
 Alpha virt. eigenvalues --    3.58961   3.59230   3.59306   3.59704   3.61792
 Alpha virt. eigenvalues --    3.62051   3.64329   3.64845   3.67617   3.67957
 Alpha virt. eigenvalues --    3.68264   3.68392   3.68634   3.69059   3.69416
 Alpha virt. eigenvalues --    3.69509   3.69564   3.69634   3.71070   3.71510
 Alpha virt. eigenvalues --    3.71944   3.72014   3.72040   3.72547   3.73550
 Alpha virt. eigenvalues --    3.74362   3.77131   3.78240   3.80604
          Condensed to atoms (all electrons):
 Mulliken charges:
               1
     1  C    0.071519
     2  C    0.001983
     3  O   -0.319910
     4  H   -0.010685
     5  H    0.021630
     6  H    0.028254
     7  N   -0.114021
     8  C    0.075833
     9  C    0.062193
    10  O   -0.295872
    11  C    0.082664
    12  C    0.080928
    13  O   -0.389006
    14  O   -0.331297
    15  H    0.119734
    16  H   -0.022295
    17  H    0.005864
    18  H    0.021176
    19  N   -0.109394
    20  C    0.070063
    21  C    0.112101
    22  O   -0.217927
    23  C    0.065496
    24  C   -0.031141
    25  C   -0.053972
    26  C    0.035047
    27  N    0.090273
    28  H    0.096982
    29  H    0.013596
    30  H    0.009836
    31  H    0.030635
    32  H    0.032067
    33  H    0.005006
    34  H    0.043947
    35  H    0.057542
    36  H    0.073731
    37  H    0.056899
    38  H    0.197007
    39  H    0.191580
    40  H    0.193166
    41  N   -0.145183
    42  C    0.108336
    43  C    0.026913
    44  O   -0.241729
    45  C    0.163400
    46  C    0.056991
    47  O   -0.433557
    48  O   -0.414869
    49  H    0.119573
    50  H    0.031909
    51  H    0.009909
    52  H   -0.009429
    53  N   -0.150928
    54  C    0.196983
    55  C    0.042719
    56  O   -0.252540
    57  H    0.116952
    58  H    0.032592
    59  H    0.019070
    60  N   -0.119234
    61  C    0.086967
    62  C    0.102550
    63  O   -0.282481
    64  C    0.127950
    65  C   -0.045655
    66  N   -0.051032
    67  O   -0.252836
    68  H    0.129001
    69  H   -0.026909
    70  H    0.024982
    71  H    0.010786
    72  H    0.116460
    73  H    0.130865
    74  N   -0.120481
    75  C    0.206390
    76  C    0.026078
    77  O   -0.281282
    78  H    0.127887
    79  H    0.009483
    80  H    0.042622
    81  N   -0.125194
    82  C    0.085184
    83  C    0.141848
    84  O   -0.319154
    85  C    0.152725
    86  C   -0.038665
    87  C   -0.000504
    88  C   -0.029798
    89  C   -0.009877
    90  C   -0.026970
    91  C    0.137709
    92  O   -0.195514
    93  H    0.132706
    94  H    0.010223
    95  H    0.015347
    96  H    0.018454
    97  H   -0.019408
    98  H   -0.037997
    99  H   -0.020301
   100  H   -0.042831
   101  H    0.175374
   102  N   -0.099507
   103  C    0.185117
   104  C    0.069750
   105  O   -0.278442
   106  C   -0.174306
   107  C    0.048551
   108  C    0.086417
   109  C    0.023249
   110  H    0.139215
   111  H    0.004932
   112  H   -0.010209
   113  H    0.000042
   114  H    0.007360
   115  H    0.014788
   116  H   -0.006866
   117  H   -0.022268
   118  H    0.010580
   119  H    0.000941
   120  H    0.009986
   121  N   -0.144597
   122  C    0.094429
   123  C    0.050066
   124  O   -0.273350
   125  C    0.208333
   126  O   -0.304529
   127  H    0.152484
   128  H    0.028703
   129  H   -0.007705
   130  H    0.028011
   131  H    0.172355
   132  N   -0.140331
   133  C    0.058501
   134  C    0.083826
   135  O   -0.289595
   136  C    0.063253
   137  H    0.129986
   138  H    0.025091
   139  H    0.031208
   140  H    0.018416
   141  H   -0.008624
   142  N   -0.115683
   143  C    0.081096
   144  C    0.070025
   145  O   -0.272099
   146  C    0.041956
   147  H    0.134599
   148  H    0.001344
   149  H    0.012025
   150  H    0.021381
   151  H    0.043842
   152  N   -0.138718
   153  C    0.113224
   154  C    0.057106
   155  O   -0.290765
   156  C   -0.009635
   157  C    0.104486
   158  C    0.102167
   159  O   -0.415881
   160  O   -0.448818
   161  H    0.114482
   162  H    0.001883
   163  H    0.007704
   164  H    0.006762
   165  H    0.004845
   166  H   -0.032952
   167  N   -0.134063
   168  C    0.142386
   169  H    0.036704
   170  H    0.024484
   171  H    0.013456
   172  H    0.122659
   173  Ca   1.235459
   174  O   -0.294490
   175  H    0.192096
   176  H    0.187854
 Sum of Mulliken charges =  -0.00000
 Mulliken charges with hydrogens summed into heavy atoms:
               1
     1  C    0.110718
     2  C    0.001983
     3  O   -0.319910
     7  N    0.005714
     8  C    0.053538
     9  C    0.062193
    10  O   -0.295872
    11  C    0.109703
    12  C    0.080928
    13  O   -0.389006
    14  O   -0.331297
    19  N   -0.012412
    20  C    0.083659
    21  C    0.112101
    22  O   -0.217927
    23  C    0.105967
    24  C    0.005933
    25  C    0.047517
    26  C    0.165678
    27  N    0.672026
    41  N   -0.025610
    42  C    0.140245
    43  C    0.026913
    44  O   -0.241729
    45  C    0.163881
    46  C    0.056991
    47  O   -0.433557
    48  O   -0.414869
    53  N   -0.033975
    54  C    0.248645
    55  C    0.042719
    56  O   -0.252540
    60  N    0.009766
    61  C    0.060058
    62  C    0.102550
    63  O   -0.282481
    64  C    0.163718
    65  C   -0.045655
    66  N    0.196292
    67  O   -0.252836
    74  N    0.007407
    75  C    0.258494
    76  C    0.026078
    77  O   -0.281282
    81  N    0.007512
    82  C    0.095408
    83  C    0.141848
    84  O   -0.319154
    85  C    0.186526
    86  C   -0.038665
    87  C   -0.019912
    88  C   -0.067796
    89  C   -0.030178
    90  C   -0.069801
    91  C    0.137709
    92  O   -0.020139
   102  N    0.039708
   103  C    0.190048
   104  C    0.069750
   105  O   -0.278442
   106  C   -0.184514
   107  C    0.055953
   108  C    0.072071
   109  C    0.044756
   121  N    0.007887
   122  C    0.123132
   123  C    0.050066
   124  O   -0.273350
   125  C    0.228639
   126  O   -0.132174
   132  N   -0.010345
   133  C    0.083592
   134  C    0.083826
   135  O   -0.289595
   136  C    0.104254
   142  N    0.018915
   143  C    0.082440
   144  C    0.070025
   145  O   -0.272099
   146  C    0.119205
   152  N   -0.024236
   153  C    0.115107
   154  C    0.057106
   155  O   -0.290765
   156  C    0.004831
   157  C    0.076379
   158  C    0.102167
   159  O   -0.415881
   160  O   -0.448818
   167  N   -0.011404
   168  C    0.217029
   173  Ca   1.235459
   174  O    0.085460
 DipInt: DoE/N= T F RetVal/Mat= T F Init=T NMatP=  1 IDeriv=0 Min/MaxMlt=  0  4
 Entering OneElI...
 OneElI was handed  1333951383 working-precision words.
 Multipole integrals L=0 to 4 MinM= 0 MaxM= 0.
 Requested accuracy = 0.1000D-12
 ShPair: Thresh= 1.00D-13 NBox=     0 BxSize= 0.00D+00 RnKept= 3.61D+01
         NSMCal=               327645 NSMKep=              123726
 PrmmSu-InSpLW:  IPartL=    0 NPrtUS=    1 NPrtUL=    1 DoSpLW=F IThBeg=    0 IThEnd=    0 NThAct=    1.
 PrsmSu:  NPrtUS=   1 ThrOK=F IAlg=1 NPAlg=1 LenDen=           0 ISkipM=0 DoSpLW=F IThBeg=    0 IThEnd=    0.
 Prism:   IPart=     0 DynPar=F LinDyn=F Incr=         512.
 PRISM was handed  1325329387 working-precision words and123726 shell-pairs
 IPart=  0 NShTot=      123726 NBatch=         288 AvBLen=       429.6
 PrsmSu-ThDecC:  IPartSL=    0    0 NPrtUSL=    1    1 IThBeg=    0 IThEnd=    0 CPU=   -1 GPU=   -1 NThAct=    1.
 PrSmSu:  NxtVal=            513.
 Electronic moments (au):
       -716.00000000          2.58545603          9.06242751          7.85147819
     -91328.63322609     -37425.58823838     -17976.10765088        196.80661109
         93.42157178          2.34594539     -22021.74658035    -104395.47749243
     -23710.82157679      53368.43497160     273687.75568225     206717.10374224
     -75548.98786866      20689.96501328       5028.44644860     -73017.75474588
  -24966083.49148310   -3835834.31101629   -1363867.10106884    -878982.83983012
    1266233.82977057     104346.23968876     403190.09992298     364068.45875740
    -147723.00142753   -4066273.23328656   -2126151.35902718    -777368.26842204
   -1055647.08762152      89709.38897764     108791.17321046
 Electronic spatial extent (au):  <R**2>=         146730.3291
 DipInt: DoE/N= F T RetVal/Mat= T F Init=T NMatP=  1 IDeriv=0 Min/MaxMlt=  0  4
 Nuclear    moments (au):
        716.00000000          0.00000000         -0.00000000          0.00000000
      91044.23545818      36946.07228809      17623.47382517          0.00000000
          0.00000000         -0.00000000      22466.46112114     104692.31241799
      24720.43050930     -53916.89723219    -270271.72529122    -205656.39157839
      76336.37416136     -20148.73276542      -4508.18531014      73017.57836418
   24735785.48121869    3699856.91241298    1314890.85723267     943698.65243228
   -1246494.59423413     -85777.52414270    -402335.69901847    -353152.33324182
     153519.58966654    3970969.47294640    2061187.14871511     749336.33244778
    1052692.12253121     -86823.86091312    -107264.57497344
 Total      moments (au):
         -0.00000000          2.58545603          9.06242751          7.85147819
       -284.39776791       -479.51595029       -352.63382571        196.80661109
         93.42157178          2.34594539        444.71454079        296.83492557
       1009.60893251       -548.46226059       3416.03039103       1060.71216386
        787.38629270        541.23224786        520.26113846         -0.17638170
    -230298.01026442    -135977.39860331     -48976.24383618      64715.81260216
      19739.23553644      18568.71554607        854.40090451      10916.12551558
       5796.58823901     -95303.76034016     -64964.21031207     -28031.93597426
      -2954.96509031       2885.52806452       1526.59823702
 Traceless Quadrup. (au):
         87.78474672       -107.33343565         19.54868893        196.80661109
         93.42157178          2.34594539
 Charge=             -0.0000 electrons
 Dipole moment (field-independent basis, Debye):
    X=              6.5716    Y=             23.0344    Z=             19.9565  Tot=             31.1774
 Quadrupole moment (field-independent basis, Debye-Ang):
   XX=           -382.5247   YY=           -644.9654   ZZ=           -474.3046
   XY=            264.7116   XZ=            125.6552   YZ=              3.1554
 Traceless Quadrupole moment (field-independent basis, Debye-Ang):
   XX=            118.0735   YY=           -144.3671   ZZ=             26.2937
   XY=            264.7116   XZ=            125.6552   YZ=              3.1554
 Octapole moment (field-independent basis, Debye-Ang**2):
  XXX=            316.5307  YYY=            211.2757  ZZZ=            718.6007  XYY=           -390.3743
  XXY=           2431.3988  XXZ=            754.9741  XZZ=            560.4312  YZZ=            385.2283
  YYZ=            370.3018  XYZ=             -0.1255
 Hexadecapole moment (field-independent basis, Debye-Ang**3):
 XXXX=         -86741.2738 YYYY=         -51215.6086 ZZZZ=         -18446.8019 XXXY=          24375.0783
 XXXZ=           7434.7426 YYYX=           6993.8687 YYYZ=            321.8084 ZZZX=           4111.5363
 ZZZY=           2183.2731 XXYY=         -35895.9661 XXZZ=         -24468.6367 YYZZ=         -10558.1713
 XXYZ=          -1112.9815 YYXZ=           1086.8282 ZZXY=            574.9901
 N-N= 1.879192597628D+04 E-N=-5.006503421248D+04  KE= 5.290523504586D+03
 Leave Link  601 at Tue Sep 17 12:56:35 2019, MaxMem=  1342177280 cpu:              43.7 elap:               1.2
 FitSet:  NAtFit=   176 NAtPot=   176 NAtFrz=     0 MDM=   180 TotChg=   0.00000
 Merz-Kollman atomic radii used.
 Read replacement radii for each type of atom:
 Rad(20) =   1.700000000000D+00
 Atom Element Radius
    1     6    1.50
    2     6    1.50
    3     8    1.40
    4     1    1.20
    5     1    1.20
    6     1    1.20
    7     7    1.50
    8     6    1.50
    9     6    1.50
   10     8    1.40
   11     6    1.50
   12     6    1.50
   13     8    1.40
   14     8    1.40
   15     1    1.20
   16     1    1.20
   17     1    1.20
   18     1    1.20
   19     7    1.50
   20     6    1.50
   21     6    1.50
   22     8    1.40
   23     6    1.50
   24     6    1.50
   25     6    1.50
   26     6    1.50
   27     7    1.50
   28     1    1.20
   29     1    1.20
   30     1    1.20
   31     1    1.20
   32     1    1.20
   33     1    1.20
   34     1    1.20
   35     1    1.20
   36     1    1.20
   37     1    1.20
   38     1    1.20
   39     1    1.20
   40     1    1.20
   41     7    1.50
   42     6    1.50
   43     6    1.50
   44     8    1.40
   45     6    1.50
   46     6    1.50
   47     8    1.40
   48     8    1.40
   49     1    1.20
   50     1    1.20
   51     1    1.20
   52     1    1.20
   53     7    1.50
   54     6    1.50
   55     6    1.50
   56     8    1.40
   57     1    1.20
   58     1    1.20
   59     1    1.20
   60     7    1.50
   61     6    1.50
   62     6    1.50
   63     8    1.40
   64     6    1.50
   65     6    1.50
   66     7    1.50
   67     8    1.40
   68     1    1.20
   69     1    1.20
   70     1    1.20
   71     1    1.20
   72     1    1.20
   73     1    1.20
   74     7    1.50
   75     6    1.50
   76     6    1.50
   77     8    1.40
   78     1    1.20
   79     1    1.20
   80     1    1.20
   81     7    1.50
   82     6    1.50
   83     6    1.50
   84     8    1.40
   85     6    1.50
   86     6    1.50
   87     6    1.50
   88     6    1.50
   89     6    1.50
   90     6    1.50
   91     6    1.50
   92     8    1.40
   93     1    1.20
   94     1    1.20
   95     1    1.20
   96     1    1.20
   97     1    1.20
   98     1    1.20
   99     1    1.20
  100     1    1.20
  101     1    1.20
  102     7    1.50
  103     6    1.50
  104     6    1.50
  105     8    1.40
  106     6    1.50
  107     6    1.50
  108     6    1.50
  109     6    1.50
  110     1    1.20
  111     1    1.20
  112     1    1.20
  113     1    1.20
  114     1    1.20
  115     1    1.20
  116     1    1.20
  117     1    1.20
  118     1    1.20
  119     1    1.20
  120     1    1.20
  121     7    1.50
  122     6    1.50
  123     6    1.50
  124     8    1.40
  125     6    1.50
  126     8    1.40
  127     1    1.20
  128     1    1.20
  129     1    1.20
  130     1    1.20
  131     1    1.20
  132     7    1.50
  133     6    1.50
  134     6    1.50
  135     8    1.40
  136     6    1.50
  137     1    1.20
  138     1    1.20
  139     1    1.20
  140     1    1.20
  141     1    1.20
  142     7    1.50
  143     6    1.50
  144     6    1.50
  145     8    1.40
  146     6    1.50
  147     1    1.20
  148     1    1.20
  149     1    1.20
  150     1    1.20
  151     1    1.20
  152     7    1.50
  153     6    1.50
  154     6    1.50
  155     8    1.40
  156     6    1.50
  157     6    1.50
  158     6    1.50
  159     8    1.40
  160     8    1.40
  161     1    1.20
[...]
 **** Fit       0.003312
 **** Fit      -0.001524
 **** Fit      -0.008692
 **** Fit       0.006465
 **** Fit       0.004345
 **** Fit       0.000631
 **** Fit      -0.005114
 **** Fit       0.004765
 **** Fit       0.001716
 **** Fit      -0.003152
 **** Fit      -0.010293
 **** Fit      -0.000652
 **** Fit      -0.006212
 **** Fit      -0.005804
 **** Fit       0.073901
 **** Fit       0.074744
 **** Fit       0.074280
 **** Fit       0.073282
 **** Fit       0.072550
 **** Fit       0.073079
 **** Fit       0.074188
 **** Fit       0.075200
 **** Fit       0.074812
 **** Fit       0.074180
 **** Fit       0.073586
 **** Fit       0.072480
 **** Fit       0.071156
 **** Fit       0.070573
 **** Fit       0.070918
 **** Fit       0.071822
 **** Fit       0.072936
 **** Fit       0.074041
 **** Fit       0.074903
 **** Fit       0.075381
 **** Fit       0.074958
 **** Fit       0.074104
 **** Fit       0.071703
 **** Fit       0.069667
 **** Fit       0.068264
 **** Fit       0.067863
 **** Fit       0.068254
 **** Fit       0.069091
 **** Fit       0.070117
 **** Fit       0.071202
 **** Fit       0.072298
 **** Fit       0.073386
 **** Fit       0.074393
 **** Fit       0.075143
 **** Fit       0.075377
 **** Fit       0.075001
 **** Fit       0.073951
 **** Fit       0.067981
 **** Fit       0.065598
 **** Fit       0.064439
 **** Fit       0.064325
 **** Fit       0.064891
 **** Fit       0.065807
 **** Fit       0.066858
 **** Fit       0.067934
 **** Fit       0.068993
 **** Fit       0.070034
 **** Fit       0.071081
 **** Fit       0.072160
 **** Fit       0.073263
 **** Fit       0.074296
 **** Fit       0.075078
 **** Fit       0.075233
 **** Fit       0.075024
 **** Fit       0.073962
 **** Fit       0.064410
 **** Fit       0.061267
 **** Fit       0.059808
 **** Fit       0.059631
 **** Fit       0.060264
 **** Fit       0.061309
 **** Fit       0.062500
 **** Fit       0.063699
 **** Fit       0.064853
 **** Fit       0.065949
 **** Fit       0.066992
 **** Fit       0.068001
 **** Fit       0.069022
 **** Fit       0.070111
 **** Fit       0.071301
 **** Fit       0.072560
 **** Fit       0.073771
 **** Fit       0.074740
 **** Fit       0.074947
 **** Fit       0.075076
 **** Fit       0.074331
 **** Fit       0.059064
 **** Fit       0.055309
 **** Fit       0.053694
 **** Fit       0.053596
 **** Fit       0.054433
 **** Fit       0.055736
 **** Fit       0.057183
 **** Fit       0.058600
 **** Fit       0.059924
 **** Fit       0.061151
 **** Fit       0.062298
 **** Fit       0.063371
 **** Fit       0.064375
 **** Fit       0.065332
 **** Fit       0.066297
 **** Fit       0.067352
 **** Fit       0.068565
 **** Fit       0.069951
 **** Fit       0.071448
 **** Fit       0.072913
 **** Fit       0.074153
 **** Fit       0.074464
 **** Fit       0.075076
 **** Fit       0.074889
 **** Fit       0.049299
 **** Fit       0.046312
 **** Fit       0.045596
 **** Fit       0.046358
 **** Fit       0.047929
 **** Fit       0.049810
 **** Fit       0.051682
 **** Fit       0.053393
 **** Fit       0.054911
 **** Fit       0.056273
 **** Fit       0.057534
 **** Fit       0.058721
 **** Fit       0.059829
 **** Fit       0.060839
 **** Fit       0.061760
 **** Fit       0.062652
 **** Fit       0.063623
 **** Fit       0.064788
 **** Fit       0.066218
 **** Fit       0.067907
 **** Fit       0.069757
 **** Fit       0.071603
 **** Fit       0.073242
 **** Fit       0.073685
 **** Fit       0.074885
 **** Fit       0.075463
 **** Fit       0.041686
 **** Fit       0.036895
 **** Fit       0.035299
 **** Fit       0.035894
 **** Fit       0.037799
 **** Fit       0.040298
 **** Fit       0.042884
 **** Fit       0.045260
 **** Fit       0.047300
 **** Fit       0.049014
 **** Fit       0.050489
 **** Fit       0.051834
 **** Fit       0.053130
 **** Fit       0.054391
 **** Fit       0.055571
 **** Fit       0.056608
 **** Fit       0.057483
 **** Fit       0.058259
 **** Fit       0.059070
 **** Fit       0.060084
 **** Fit       0.061437
 **** Fit       0.063180
 **** Fit       0.065265
 **** Fit       0.067554
 **** Fit       0.069854
 **** Fit       0.071959
 **** Fit       0.072479
 **** Fit       0.074301
 **** Fit       0.075681
 **** Fit       0.024511
 **** Fit       0.027862
 **** Fit       0.031496
 **** Fit       0.034921
 **** Fit       0.037874
 **** Fit       0.040271
 **** Fit       0.042163
 **** Fit       0.043693
 **** Fit       0.045046
 **** Fit       0.046383
 **** Fit       0.047780
 **** Fit       0.049203
 **** Fit       0.050536
 **** Fit       0.051647
 **** Fit       0.052477
 **** Fit       0.053084
 **** Fit       0.053640
 **** Fit       0.054379
 **** Fit       0.055513
 **** Fit       0.057167
 **** Fit       0.059345
 **** Fit       0.061938
 **** Fit       0.064756
 **** Fit       0.067583
 **** Fit       0.070210
 **** Fit       0.070703
 **** Fit       0.073204
 **** Fit       0.075356
 **** Fit       0.021524
 **** Fit       0.026085
 **** Fit       0.029776
 **** Fit       0.032567
 **** Fit       0.034579
 **** Fit       0.036053
 **** Fit       0.037298
 **** Fit       0.038609
 **** Fit       0.040166
 **** Fit       0.041952
 **** Fit       0.043770
 **** Fit       0.045335
 **** Fit       0.046425
 **** Fit       0.046999
 **** Fit       0.047225
 **** Fit       0.047433
 **** Fit       0.047996
 **** Fit       0.049211
 **** Fit       0.051213
 **** Fit       0.053957
 **** Fit       0.057251
 **** Fit       0.060828
 **** Fit       0.064409
 **** Fit       0.067754
 **** Fit       0.068209
 **** Fit       0.071346
 **** Fit       0.074128
 **** Fit       0.077006
 **** Fit       0.016324
 **** Fit       0.020791
 **** Fit       0.023910
 **** Fit       0.025880
 **** Fit       0.027050
 **** Fit       0.039908
 **** Fit       0.039514
 **** Fit       0.039810
 **** Fit       0.041171
 **** Fit       0.043695
 **** Fit       0.047223
 **** Fit       0.051434
 **** Fit       0.055949
 **** Fit       0.060414
 **** Fit       0.064556
 **** Fit       0.064855
 **** Fit       0.068622
 **** Fit       0.071883
 **** Fit       0.075135
 **** Fit       0.008807
 **** Fit       0.013054
 **** Fit       0.015450
 **** Fit       0.038348
 **** Fit       0.043838
 **** Fit       0.049630
 **** Fit       0.055259
 **** Fit       0.060395
 **** Fit       0.060509
 **** Fit       0.064835
 **** Fit       0.068366
 **** Fit       0.071550
 **** Fit       0.000968
 **** Fit       0.041904
 **** Fit       0.048942
 **** Fit       0.055206
 **** Fit       0.055044
 **** Fit       0.060027
 **** Fit       0.063729
 **** Fit       0.066561
 **** Fit       0.040693
 **** Fit       0.048599
 **** Fit       0.048353
 **** Fit       0.053948
 **** Fit       0.057621
 **** Fit       0.059719
 **** Fit       0.060776
 **** Fit       0.040650
 **** Fit       0.040371
 **** Fit       0.046602
 **** Fit       0.050043
 **** Fit       0.051008
 **** Fit       0.049901
 **** Fit       0.037839
 **** Fit       0.040757
 **** Fit       0.040167
 **** Fit       0.029602
 **** Fit       0.061517
 **** Fit       0.062052
 **** Fit       0.060656
 **** Fit       0.064877
 **** Fit       0.064527
 **** Fit       0.062785
 **** Fit       0.061049
 **** Fit       0.060303
 **** Fit       0.061133
 **** Fit       0.066296
 **** Fit       0.068468
 **** Fit       0.069293
 **** Fit       0.067940
 **** Fit       0.065136
 **** Fit       0.062338
 **** Fit       0.060626
 **** Fit       0.060588
 **** Fit       0.061254
 **** Fit       0.062476
 **** Fit       0.070510
 **** Fit       0.069384
 **** Fit       0.065310
 **** Fit       0.062366
 **** Fit       0.060841
 **** Fit       0.061572
 **** Fit       0.062191
 **** Fit       0.063226
 **** Fit       0.064413
 **** Fit       0.067765
 **** Fit       0.070843
 **** Fit       0.066152
 **** Fit       0.063165
 **** Fit       0.061755
 **** Fit       0.063243
 **** Fit       0.063903
 **** Fit       0.072890
 **** Fit       0.067703
 **** Fit       0.064652
 **** Fit       0.063328
 **** Fit       0.069531
 **** Fit       0.066595
 **** Fit       0.065445
 **** Fit       0.071831
 **** Fit       0.068942
 **** Fit       0.074634
 **** Fit       0.071491
 **** Fit       0.076949
 **** Fit       0.048925
 **** Fit       0.045242
 **** Fit       0.058568
 **** Fit       0.059476
 **** Fit       0.058530
 **** Fit       0.057427
 **** Fit       0.057494
 **** Fit       0.059040
 **** Fit       0.059866
 **** Fit       0.060367
 **** Fit       0.059788
 **** Fit       0.058812
 **** Fit       0.057541
 **** Fit       0.056337
 **** Fit       0.055683
 **** Fit       0.056116
 **** Fit       0.057838
 **** Fit       0.060118
 **** Fit       0.061515
 **** Fit       0.061466
 **** Fit       0.060851
 **** Fit       0.061423
 **** Fit       0.061117
 **** Fit       0.060429
 **** Fit       0.059338
 **** Fit       0.057989
 **** Fit       0.056557
 **** Fit       0.055215
 **** Fit       0.054179
 **** Fit       0.053751
 **** Fit       0.054294
 **** Fit       0.056070
 **** Fit       0.058932
 **** Fit       0.062063
 **** Fit       0.064212
 **** Fit       0.062811
 **** Fit       0.062253
 **** Fit       0.061205
 **** Fit       0.059815
 **** Fit       0.058248
 **** Fit       0.056621
 **** Fit       0.055016
 **** Fit       0.053518
 **** Fit       0.052262
 **** Fit       0.051470
 **** Fit       0.051463
 **** Fit       0.052616
 **** Fit       0.055206
 **** Fit       0.059161
 **** Fit       0.063790
 **** Fit       0.064675
 **** Fit       0.063475
 **** Fit       0.061855
 **** Fit       0.060034
 **** Fit       0.058152
 **** Fit       0.056276
 **** Fit       0.054432
 **** Fit       0.052641
 **** Fit       0.050956
 **** Fit       0.049503
 **** Fit       0.048508
 **** Fit       0.048316
 **** Fit       0.049378
 **** Fit       0.052150
 **** Fit       0.056882
 **** Fit       0.063305
 **** Fit       0.066645
 **** Fit       0.064617
 **** Fit       0.062383
 **** Fit       0.060133
 **** Fit       0.057948
 **** Fit       0.055842
 **** Fit       0.053792
 **** Fit       0.051770
 **** Fit       0.049771
 **** Fit       0.047841
 **** Fit       0.046099
 **** Fit       0.044774
 **** Fit       0.044232
 **** Fit       0.044990
 **** Fit       0.047663
 **** Fit       0.052827
 **** Fit       0.060730
 **** Fit       0.064675
 **** Fit       0.061727
 **** Fit       0.058991
 **** Fit       0.056452
 **** Fit       0.054048
 **** Fit       0.051700
 **** Fit       0.049344
 **** Fit       0.046945
 **** Fit       0.044526
 **** Fit       0.042197
 **** Fit       0.040197
 **** Fit       0.038948
 **** Fit       0.039111
 **** Fit       0.041592
 **** Fit       0.047440
 **** Fit       0.063796
 **** Fit       0.060331
 **** Fit       0.057253
 **** Fit       0.054448
 **** Fit       0.051786
 **** Fit       0.049144
 **** Fit       0.046421
 **** Fit       0.043552
 **** Fit       0.040532
 **** Fit       0.037439
 **** Fit       0.034493
 **** Fit       0.032135
 **** Fit       0.031146
 **** Fit       0.032741
 **** Fit       0.038555
 **** Fit       0.061202
 **** Fit       0.057457
 **** Fit       0.054166
 **** Fit       0.051125
 **** Fit       0.048146
 **** Fit       0.045063
 **** Fit       0.041742
 **** Fit       0.038093
 **** Fit       0.034087
 **** Fit       0.029791
 **** Fit       0.025458
 **** Fit       0.021696
 **** Fit       0.060125
 **** Fit       0.055730
 **** Fit       0.051944
 **** Fit       0.048442
 **** Fit       0.044937
 **** Fit       0.041171
 **** Fit       0.036931
 **** Fit       0.032046
 **** Fit       0.026385
 **** Fit       0.019894
 **** Fit       0.052137
 **** Fit       0.047925
 **** Fit       0.043866
 **** Fit       0.039529
 **** Fit       0.034524
 **** Fit       0.028514
 **** Fit       0.021157
 **** Fit       0.042748
 **** Fit       0.064416
 **** Fit       0.064331
 **** Fit       0.064568
 **** Fit       0.065219
 **** Fit       0.066523
 **** Fit       0.064651
 **** Fit       0.064249
 **** Fit       0.064062
 **** Fit       0.064102
 **** Fit       0.064474
 **** Fit       0.065381
 **** Fit       0.067147
 **** Fit       0.065371
 **** Fit       0.065064
 **** Fit       0.064428
 **** Fit       0.063939
 **** Fit       0.063572
 **** Fit       0.063369
 **** Fit       0.063425
 **** Fit       0.063890
 **** Fit       0.064987
 **** Fit       0.067402
 **** Fit       0.065970
 **** Fit       0.065486
 **** Fit       0.064639
 **** Fit       0.063896
 **** Fit       0.063217
 **** Fit       0.062629
 **** Fit       0.062194
 **** Fit       0.062008
 **** Fit       0.062203
 **** Fit       0.062955
 **** Fit       0.070886
 **** Fit       0.068195
 **** Fit       0.066573
 **** Fit       0.065751
 **** Fit       0.064740
 **** Fit       0.063784
 **** Fit       0.062844
 **** Fit       0.061940
 **** Fit       0.061117
 **** Fit       0.060437
 **** Fit       0.059977
 **** Fit       0.059825
 **** Fit       0.060087
 **** Fit       0.071332
 **** Fit       0.068622
 **** Fit       0.066947
 **** Fit       0.065665
 **** Fit       0.064512
 **** Fit       0.063357
 **** Fit       0.062175
 **** Fit       0.060989
 **** Fit       0.059841
 **** Fit       0.058779
 **** Fit       0.057854
 **** Fit       0.057112
 **** Fit       0.056590
 **** Fit       0.056308
 **** Fit       0.075921
 **** Fit       0.071249
 **** Fit       0.068607
 **** Fit       0.066935
 **** Fit       0.064974
 **** Fit       0.063666
 **** Fit       0.062284
 **** Fit       0.060824
 **** Fit       0.059326
 **** Fit       0.057840
 **** Fit       0.056415
 **** Fit       0.055086
 **** Fit       0.053871
 **** Fit       0.052757
 **** Fit       0.051680
 **** Fit       0.070605
 **** Fit       0.067970
 **** Fit       0.066309
 **** Fit       0.063333
 **** Fit       0.061907
 **** Fit       0.060301
 **** Fit       0.058548
 **** Fit       0.056715
 **** Fit       0.054870
 **** Fit       0.053059
 **** Fit       0.051302
 **** Fit       0.049578
 **** Fit       0.047806
 **** Fit       0.045818
 **** Fit       0.068609
 **** Fit       0.066165
 **** Fit       0.064652
 **** Fit       0.060301
 **** Fit       0.058883
 **** Fit       0.057141
 **** Fit       0.055158
 **** Fit       0.053034
 **** Fit       0.050849
 **** Fit       0.048647
 **** Fit       0.046424
 **** Fit       0.044111
 **** Fit       0.041561
 **** Fit       0.064179
 **** Fit       0.062464
 **** Fit       0.061410
 **** Fit       0.055339
 **** Fit       0.054030
 **** Fit       0.052134
 **** Fit       0.049825
 **** Fit       0.047261
 **** Fit       0.044540
 **** Fit       0.041677
 **** Fit       0.038590
 **** Fit       0.035096
 **** Fit       0.056113
 **** Fit       0.055972
 **** Fit       0.047853
 **** Fit       0.046969
 **** Fit       0.045058
 **** Fit       0.042429
 **** Fit       0.039304
 **** Fit       0.035765
 **** Fit       0.031727
 **** Fit       0.045571
 **** Fit       0.047419
 **** Fit       0.037230
 **** Fit       0.037157
 **** Fit       0.035128
 **** Fit       0.031707
 **** Fit       0.027133
 -----------------------------------------------------------------
 Leave Link  602 at Tue Sep 17 12:56:39 2019, MaxMem=  1342177280 cpu:             141.5 elap:               3.0

 Test job not archived.
 1\1\GINC-C499-051\SP\RB3LYP\SVP\C54H83Ca1N15O23\PENGZHI\17-Sep-2019\0\
 \#b3lyp/svp scf=(tight,noincore) Test #IOP(5/87=12) Density=Current Po
 p=(MK,readradii) iop(6/33=2) iop(6/42=6)\\Ng-293_loop3_6.0\\0,1\C,0,43
 .46,81.42,66.79\C,0,43.72,81.5,65.3\O,0,44.76,82.05,64.94\H,0,42.413,8
 1.169,66.963\H,0,44.094,80.65,67.229\H,0,43.683,82.382,67.251\N,0,42.7
 9,81.03,64.47\C,0,42.91,80.95,63.02\C,0,42.76,79.52,62.51\O,0,42.09,78
 .78,63.23\C,0,41.8,81.85,62.49\C,0,42.15,82.31,61.08\O,0,43.21,81.98,6
 0.51\O,0,41.33,83.02,60.45\H,0,41.91,80.65,64.79\H,0,43.91,81.29,62.74
 \H,0,41.69,82.7,63.15\H,0,40.86,81.3,62.48\N,0,43.22,79.23,61.3\C,0,42
 .9,78.06,60.5\C,0,41.4,77.96,60.24\O,0,40.62,78.84,60.58\C,0,43.49,76.
 76,61.03\C,0,44.98,76.85,61.37\C,0,45.82,77.04,60.11\C,0,47.27,77.06,6
 0.59\N,0,47.75,78.31,61.21\H,0,43.64,80.01,60.82\H,0,43.36,78.19,59.52
 \H,0,43.38,76.06,60.2\H,0,43.08,76.39,61.96\H,0,45.15,75.84,61.75\H,0,
 45.12,77.63,62.12\H,0,45.59,77.94,59.54\H,0,45.63,76.13,59.54\H,0,47.7
 9,76.74,59.68\H,0,47.38,76.29,61.35\H,0,47.,78.82,61.66\H,0,48.46,78.1
 7,61.91\H,0,48.17,78.9,60.51\N,0,40.95,77.02,59.39\C,0,39.71,76.95,58.
 65\C,0,38.67,76.06,59.32\O,0,38.1,76.46,60.33\C,0,39.93,76.65,57.17\C,
 0,40.89,75.52,56.8\O,0,42.13,75.71,56.79\O,0,40.49,74.37,56.55\H,0,41.
 54,76.2,59.31\H,0,39.24,77.93,58.75\H,0,40.26,77.59,56.74\H,0,38.98,76
 .35,56.74\N,0,38.56,74.79,58.94\C,0,37.63,73.87,59.57\C,0,36.19,73.87,
 59.08\O,0,35.24,74.17,59.8\H,0,39.23,74.46,58.26\H,0,37.61,73.91,60.66
 \H,0,37.99,72.85,59.39\N,0,36.08,73.38,57.85\C,0,34.82,73.53,57.14\C,0
 ,33.75,72.5,57.46\O,0,33.99,71.31,57.3\C,0,35.06,73.72,55.64\C,0,33.85
 ,74.29,54.93\N,0,33.65,75.61,54.93\O,0,33.02,73.6,54.34\H,0,36.9,73.,5
 7.4\H,0,34.41,74.5,57.42\H,0,35.25,72.74,55.21\H,0,35.93,74.37,55.51\H
 ,0,34.14,76.21,55.59\H,0,32.79,75.99,54.55\N,0,32.55,72.96,57.85\C,0,3
 1.54,72.04,58.32\C,0,31.9,71.5,59.69\O,0,32.17,72.28,60.61\H,0,32.52,7
 3.94,58.06\H,0,31.47,71.27,57.54\H,0,30.51,72.39,58.32\N,0,31.71,70.2,
 59.91\C,0,31.87,69.45,61.14\C,0,33.18,69.54,61.91\O,0,33.37,68.8,62.87
 \C,0,30.63,69.75,61.98\C,0,29.3,69.3,61.42\C,0,28.25,70.2,61.19\C,0,29
 .05,67.95,61.16\C,0,27.01,69.82,60.67\C,0,27.76,67.53,60.83\C,0,26.75,
 68.45,60.48\O,0,25.48,68.15,60.09\H,0,31.52,69.64,59.08\H,0,31.78,68.4
 1,60.83\H,0,30.67,70.81,62.24\H,0,30.69,69.15,62.89\H,0,28.53,71.25,61
 .23\H,0,29.86,67.25,61.3\H,0,26.2,70.5,60.44\H,0,27.58,66.48,60.64\H,0
 ,25.32,67.2,60.14\N,0,34.21,70.11,61.28\C,0,35.63,70.03,61.53\C,0,36.2
 6,68.65,61.38\O,0,37.31,68.62,60.73\C,0,35.91,70.62,62.91\C,0,35.33,71
 .98,63.26\C,0,37.41,70.65,63.16\C,0,35.57,72.43,64.7\H,0,33.99,70.71,6
 0.5\H,0,36.16,70.75,60.89\H,0,35.5,69.94,63.66\H,0,34.24,71.89,63.18\H
 ,0,35.61,72.71,62.5\H,0,38.,71.15,62.39\H,0,37.65,71.08,64.14\H,0,37.8
 2,69.65,63.33\H,0,34.98,73.3,64.97\H,0,35.44,71.6,65.4\H,0,36.59,72.8,
 64.85\N,0,35.58,67.58,61.78\C,0,35.85,66.23,61.31\C,0,37.09,65.57,61.9
 1\O,0,37.58,64.55,61.44\C,0,34.66,65.32,61.57\O,0,33.55,66.,61.05\H,0,
 34.66,67.7,62.18\H,0,35.93,66.31,60.22\H,0,34.48,65.14,62.63\H,0,34.89
 ,64.37,61.07\H,0,32.8,65.39,61.02\N,0,37.74,66.25,62.85\C,0,38.99,65.8
 5,63.46\C,0,40.18,65.89,62.51\O,0,41.24,65.34,62.78\C,0,38.81,64.59,64
 .3\H,0,37.27,67.1,63.14\H,0,39.17,66.6,64.24\H,0,38.73,63.65,63.74\H,0
 ,39.6,64.46,65.03\H,0,37.85,64.74,64.8\N,0,40.1,66.73,61.48\C,0,41.09,
 66.95,60.44\C,0,41.94,68.13,60.88\O,0,41.51,68.94,61.7\C,0,40.27,67.36
 ,59.22\H,0,39.31,67.36,61.48\H,0,41.71,66.08,60.23\H,0,40.89,67.68,58.
 39\H,0,39.68,66.5,58.92\H,0,39.51,68.09,59.5\N,0,43.17,68.22,60.36\C,0
 ,44.1,69.33,60.44\C,0,44.54,69.79,61.82\O,0,45.08,70.89,61.93\C,0,43.5
 8,70.45,59.55\C,0,43.23,70.1,58.11\C,0,42.93,71.35,57.3\O,0,43.44,72.4
 4,57.62\O,0,42.13,71.28,56.34\H,0,43.48,67.45,59.78\H,0,45.06,68.99,60
 .03\H,0,44.27,71.3,59.59\H,0,42.7,70.94,59.96\H,0,42.36,69.46,58.22\H,
 0,44.08,69.56,57.68\N,0,44.44,68.91,62.81\C,0,44.45,69.32,64.2\H,0,44.
 069,70.338,64.281\H,0,43.818,68.649,64.782\H,0,45.47,69.283,64.583\H,0
 ,44.16,67.97,62.56\Ca,0,42.66,73.57,55.24\O,0,44.69,71.96,54.8\H,0,44.
 78,71.16,54.28\H,0,45.57,72.12,55.15\\Version=ES64L-G16RevA.03\State=1
 -A\HF=-5333.3731556\RMSD=2.116e-09\Dipole=8.619131,-6.0053861,-6.33275
 64\Quadrupole=215.7969963,-229.152199,13.3552027,60.3210377,-57.494978
 4,-26.4065828\PG=C01 [X(C54H83Ca1N15O23)]\\@


 HEAVEN'S NET CASTS WIDE.
 THOUGH ITS MESHES ARE COARSE, NOTHING SLIPS THROUGH.

                                          -- LAO-TSU
 Job cpu time:       0 days  8 hours 16 minutes  8.7 seconds.
 Elapsed time:       0 days  0 hours 10 minutes 28.7 seconds.
 File lengths (MBytes):  RWF=   1517 Int=      0 D2E=      0 Chk=    171 Scr=      1
 Normal termination of Gaussian 16 at Tue Sep 17 12:56:40 2019.
