 Entering Gaussian System, Link 0=g16
 Initial command:
 /home1/apps/gaussian/16rA.03/g16/l1.exe "/scratch/01990/pengzhi/4353705/Gau-70731.inp" -scrdir="/scratch/01990/pengzhi/4353705/"
 Entering Link 1 = /home1/apps/gaussian/16rA.03/g16/l1.exe PID=     70732.
  
 Copyright (c) 1988,1990,1992,1993,1995,1998,2003,2009,2016,
            Gaussian, Inc.  All Rights Reserved.
  
 This is part of the Gaussian(R) 16 program.  It is based on
 the Gaussian(R) 09 system (copyright 2009, Gaussian, Inc.),
 the Gaussian(R) 03 system (copyright 2003, Gaussian, Inc.),
 the Gaussian(R) 98 system (copyright 1998, Gaussian, Inc.),
 the Gaussian(R) 94 system (copyright 1995, Gaussian, Inc.),
 the Gaussian 92(TM) system (copyright 1992, Gaussian, Inc.),
 the Gaussian 90(TM) system (copyright 1990, Gaussian, Inc.),
 the Gaussian 88(TM) system (copyright 1988, Gaussian, Inc.),
 the Gaussian 86(TM) system (copyright 1986, Carnegie Mellon
 University), and the Gaussian 82(TM) system (copyright 1983,
 Carnegie Mellon University). Gaussian is a federally registered
 trademark of Gaussian, Inc.
  
 This software contains proprietary and confidential information,
 including trade secrets, belonging to Gaussian, Inc.
  
 This software is provided under written license and may be
 used, copied, transmitted, or stored only in accord with that
 written license.
  
 The following legend is applicable only to US Government
 contracts under FAR:
  
                    RESTRICTED RIGHTS LEGEND
  
 Use, reproduction and disclosure by the US Government is
 subject to restrictions as set forth in subparagraphs (a)
 and (c) of the Commercial Computer Software - Restricted
 Rights clause in FAR 52.227-19.
  
 Gaussian, Inc.
 340 Quinnipiac St., Bldg. 40, Wallingford CT 06492
  
  
 ---------------------------------------------------------------
 Warning -- This program may not be used in any manner that
 competes with the business of Gaussian, Inc. or will provide
 assistance to any competitor of Gaussian, Inc.  The licensee
 of this program is prohibited from giving any competitor of
 Gaussian, Inc. access to this program.  By using this program,
 the user acknowledges that Gaussian, Inc. is engaged in the
 business of creating and licensing software in the field of
 computational chemistry and represents and warrants to the
 licensee that it is not a competitor of Gaussian, Inc. and that
 it will not use this program in any manner prohibited above.
 ---------------------------------------------------------------
  

 Cite this work as:
 Gaussian 16, Revision A.03,
 M. J. Frisch, G. W. Trucks, H. B. Schlegel, G. E. Scuseria, 
 M. A. Robb, J. R. Cheeseman, G. Scalmani, V. Barone, 
 G. A. Petersson, H. Nakatsuji, X. Li, M. Caricato, A. V. Marenich, 
 J. Bloino, B. G. Janesko, R. Gomperts, B. Mennucci, H. P. Hratchian, 
 J. V. Ortiz, A. F. Izmaylov, J. L. Sonnenberg, D. Williams-Young, 
 F. Ding, F. Lipparini, F. Egidi, J. Goings, B. Peng, A. Petrone, 
 T. Henderson, D. Ranasinghe, V. G. Zakrzewski, J. Gao, N. Rega, 
 G. Zheng, W. Liang, M. Hada, M. Ehara, K. Toyota, R. Fukuda, 
 J. Hasegawa, M. Ishida, T. Nakajima, Y. Honda, O. Kitao, H. Nakai, 
 T. Vreven, K. Throssell, J. A. Montgomery, Jr., J. E. Peralta, 
 F. Ogliaro, M. J. Bearpark, J. J. Heyd, E. N. Brothers, K. N. Kudin, 
 V. N. Staroverov, T. A. Keith, R. Kobayashi, J. Normand, 
 K. Raghavachari, A. P. Rendell, J. C. Burant, S. S. Iyengar, 
 J. Tomasi, M. Cossi, J. M. Millam, M. Klene, C. Adamo, R. Cammi, 
 J. W. Ochterski, R. L. Martin, K. Morokuma, O. Farkas, 
 J. B. Foresman, and D. J. Fox, Gaussian, Inc., Wallingford CT, 2016.
 
 ******************************************
 Gaussian 16:  ES64L-G16RevA.03 25-Dec-2016
                18-Sep-2019 
 ******************************************
 %chk=Ng-295_loop3_5.0.chk
 %nprocshared=48
 Will use up to   48 processors via shared memory.
 %mem=10GB
 %nosave
 ----------------------------------------------------------------------
 #b3lyp/svp scf=(tight,noincore) Test #IOP(5/87=12) Density=Current Pop
 =(MK,readradii) iop(6/33=2) iop(6/42=6)
 ----------------------------------------------------------------------
 1/30=1,38=1,172=1/1;
 2/12=2,17=6,18=5,40=1/2;
 3/5=18,7=101,11=2,25=1,30=1,74=-5/1,2,3;
 4//1;
 5/5=4,32=2,38=5,87=12/2;
 6/7=2,8=2,9=2,10=2,15=8,20=101,22=-1,28=1,33=2,42=6/1,2;
 99/5=1,9=1/99;
 ----------------
 Ng-295_loop3_5.0
 ----------------
 Symbolic Z-matrix:
 Charge =  0 Multiplicity = 1
 C                     86.5      48.72     76.84 
 C                     86.86     48.04     78.15 
 O                     87.71     48.56     78.88 
 H                     85.662    49.398    77.002 
 H                     87.358    49.285    76.475 
 H                     86.22     47.967    76.104 
 N                     86.13     46.99     78.54 
 C                     86.5      46.21     79.7 
 C                     87.79     45.4      79.65 
 O                     88.2      44.9      78.6 
 C                     85.26     45.45     80.16 
 C                     85.38     44.82     81.54 
 O                     84.59     45.18     82.44 
 O                     85.97     43.72     81.54 
 H                     85.53     46.61     77.82 
 H                     86.54     46.96     80.5 
 H                     85.12     44.71     79.36 
 H                     84.43     46.15     80.14 
 N                     88.38     45.12     80.81 
 C                     89.61     44.35     80.88 
 C                     89.39     42.9      80.5 
 O                     90.06     42.43     79.57 
 C                     90.19     44.36     82.29 
 C                     91.63     43.97     82.62 
 C                     92.67     44.98     82.14 
 C                     94.1      44.52     82.44 
 N                     94.42     44.15     83.83 
 H                     87.99     45.52     81.65 
 H                     90.34     44.77     80.19 
 H                     89.47     43.83     82.92 
 H                     90.14     45.4      82.58 
 H                     91.79     42.95     82.29 
 H                     91.78     44.03     83.7 
 H                     92.54     45.96     82.59 
 H                     92.51     45.03     81.07 
 H                     94.65     45.42     82.17 
 H                     94.38     43.78     81.69 
 H                     95.42     44.15     83.94 
 H                     94.       44.83     84.44 
 H                     94.06     43.22     84.01 
 N                     88.45     42.2      81.15 
 C                     88.03     40.84     80.87 
 C                     87.       40.75     79.75 
 O                     86.75     39.7      79.15 
 C                     87.57     40.06     82.1 
 C                     86.56     40.91     82.85 
 O                     85.37     40.71     82.51 
 O                     86.97     41.8      83.63 
 H                     87.87     42.76     81.75 
 H                     88.91     40.29     80.56 
 H                     88.36     39.82     82.81 
 H                     87.13     39.13     81.76 
 N                     86.39     41.88     79.42 
 C                     85.5      42.1      78.29 
 C                     84.01     41.97     78.58 
 O                     83.19     42.04     77.67 
 H                     86.49     42.66     80.06 
 H                     85.73     41.32     77.57 
 H                     85.67     43.02     77.73 
 N                     83.67     41.63     79.82 
 C                     82.28     41.67     80.23 
 C                     82.07     42.84     81.17 
 O                     82.93     43.03     82.03 
 C                     81.78     40.37     80.86 
 C                     81.62     39.32     79.77 
 N                     82.49     38.31     79.72 
 O                     80.62     39.31     79.05 
 H                     84.4      41.55     80.51 
 H                     81.63     41.96     79.41 
 H                     80.8      40.54     81.3 
 H                     82.55     39.99     81.52 
 H                     83.26     38.39     80.37 
 H                     82.18     37.54     79.14 
 N                     81.02     43.66     81.03 
 C                     80.94     44.96     81.68 
 C                     80.85     44.9      83.2 
 O                     81.08     45.89     83.9 
 H                     80.27     43.27     80.49 
 H                     80.09     45.5      81.28 
 H                     81.82     45.52     81.37 
 N                     80.4      43.78     83.77 
 C                     80.25     43.54     85.19 
 C                     81.5      43.88     85.99 
 O                     82.55     43.66     85.4 
 C                     79.75     42.12     85.46 
 C                     78.39     41.82     84.88 
 C                     77.3      42.21     85.67 
 C                     78.19     41.29     83.61 
 C                     75.99     41.99     85.22 
 C                     76.89     41.06     83.12 
 C                     75.81     41.42     83.95 
 O                     74.52     41.29     83.52 
 H                     80.34     42.96     83.18 
 H                     79.57     44.28     85.61 
 H                     79.65     42.01     86.54 
 H                     80.39     41.35     85.05 
 H                     77.55     42.72     86.59 
 H                     79.05     41.05     83.01 
 H                     75.11     42.34     85.75 
 H                     76.8      40.61     82.14 
 H                     74.41     40.94     82.63 
 N                     81.22     44.38     87.2 
 C                     82.19     44.58     88.26 
 C                     83.04     43.41     88.7 
 O                     83.32     42.44     88. 
 C                     83.05     45.83     88.06 
 C                     82.2      46.96     87.5 
 C                     84.31     45.7      87.2 
 C                     81.01     47.3      88.4 
 H                     80.27     44.69     87.36 
 H                     81.56     44.8      89.12 
 H                     83.42     46.13     89.04 
 H                     81.83     46.7      86.5 
 H                     82.81     47.87     87.52 
 H                     85.14     45.14     87.62 
 H                     84.03     45.36     86.21 
 H                     84.81     46.62     86.92 
 H                     81.21     47.33     89.47 
 H                     80.73     48.28     88.02 
 H                     80.25     46.55     88.17 
 N                     83.4      43.45     89.99 
 C                     83.98     42.39     90.79 
 C                     83.09     42.       91.96 
 O                     83.05     40.81     92.23 
 C                     85.37     42.79     91.27 
 O                     85.3      43.94     92.1 
 H                     83.05     44.23     90.52 
 H                     84.14     41.53     90.13 
 H                     86.03     42.98     90.42 
 H                     85.76     41.98     91.88 
 H                     86.21     44.08     92.37 
 N                     82.41     43.       92.53 
 C                     81.5      42.86     93.64 
 C                     82.07     42.06     94.81 
 O                     81.4      41.15     95.28 
 C                     80.15     42.5      93.03 
 H                     82.74     43.93     92.28 
 H                     81.42     43.88     94.02 
 H                     79.95     43.09     92.14 
 H                     80.18     41.45     92.74 
 H                     79.42     42.67     93.82 
 N                     83.24     42.34     95.39 
 C                     84.06     43.53     95.33 
 C                     83.6      44.61     96.3 
 O                     83.35     44.4      97.49 
 C                     85.46     43.03     95.65 
 H                     83.49     41.77     96.19 
 H                     84.04     43.99     94.35 
 H                     86.27     43.74     95.52 
 H                     85.47     42.73     96.7 
 H                     85.69     42.11     95.1 
 N                     83.46     45.87     95.88 
 C                     83.36     46.38     94.53 
 C                     82.48     47.61     94.32 
 O                     81.97     47.79     93.22 
 C                     84.78     46.62     94. 
 C                     85.52     47.72     94.75 
 C                     86.91     48.03     94.2 
 O                     87.29     49.21     94.26 
 O                     87.66     47.14     93.75 
 H                     83.33     46.49     96.66 
 H                     82.93     45.63     93.87 
 H                     84.55     46.86     92.97 
 H                     85.28     45.65     94. 
 H                     85.71     47.32     95.75 
 H                     84.92     48.63     94.83 
 N                     82.08     48.3      95.39 
 C                     81.18     49.43     95.39 
 H                     80.257    49.159    95.903 
 H                     81.649    50.269    95.905 
 H                     80.953    49.715    94.363 
 H                     82.66     48.18     96.2 
 Ca                    84.71     43.09     83.92 
 O                     83.98     40.63     84.79 
 H                     84.39     39.88     84.36 
 H                     83.44     40.25     85.48 
 
 Stoichiometry    C54H83CaN15O23
 Framework group  C1[X(C54H83CaN15O23)]
 Deg. of freedom   522
 Full point group                 C1      NOp   1
 Largest Abelian subgroup         C1      NOp   1
 Largest concise Abelian subgroup C1      NOp   1
                         Standard orientation:                         
 ---------------------------------------------------------------------
 Center     Atomic      Atomic             Coordinates (Angstroms)
 Number     Number       Type             X           Y           Z
 ---------------------------------------------------------------------
      1          6           0        8.499986   -2.405390    5.633500
      2          6           0        7.388734   -2.729816    4.649646
      3          8           0        6.787476   -3.803270    4.759120
      4          1           0        8.085176   -1.861537    6.482222
      5          1           0        8.957417   -3.330682    5.984505
      6          1           0        9.253175   -1.790393    5.141981
      7          7           0        6.995018   -1.774336    3.801385
      8          6           0        6.044148   -2.053126    2.748284
      9          6           0        6.459384   -2.995380    1.624703
     10          8           0        7.625980   -3.057458    1.229987
     11          6           0        5.441368   -0.723333    2.306572
     12          6           0        4.206791   -0.849938    1.425953
     13          8           0        3.126036   -0.364658    1.826168
     14          8           0        4.467531   -1.053062    0.222269
     15          1           0        7.619771   -0.980734    3.749626
     16          1           0        5.180214   -2.452560    3.294335
     17          1           0        6.283606   -0.233512    1.798724
     18          1           0        5.202034   -0.165701    3.207164
     19          7           0        5.489685   -3.638580    0.978112
     20          6           0        5.771098   -4.556006   -0.112683
     21          6           0        6.279883   -3.831329   -1.342025
     22          8           0        7.379277   -4.164795   -1.805526
     23          6           0        4.519733   -5.320620   -0.529878
     24          6           0        4.543223   -6.595387   -1.371909
     25          6           0        5.092696   -7.814247   -0.633967
     26          6           0        5.152188   -9.052802   -1.533379
     27          7           0        3.915594   -9.450538   -2.229110
     28          1           0        4.543748   -3.530911    1.311743
     29          1           0        6.536321   -5.265122    0.198746
     30          1           0        3.828813   -4.576661   -0.936517
     31          1           0        4.095444   -5.648687    0.408499
     32          1           0        5.026248   -6.370371   -2.315813
     33          1           0        3.517968   -6.922346   -1.557516
     34          1           0        4.504427   -8.073266    0.241618
     35          1           0        6.092178   -7.514372   -0.343946
     36          1           0        5.411802   -9.810923   -0.796322
     37          1           0        6.031662   -8.963687   -2.171409
     38          1           0        4.013035  -10.403198   -2.537401
     39          1           0        3.151063   -9.367916   -1.581371
     40          1           0        3.785956   -8.846699   -3.032523
     41          7           0        5.546303   -2.830727   -1.848735
     42          6           0        5.905712   -1.962993   -2.954295
     43          6           0        6.793915   -0.796992   -2.536040
     44          8           0        7.459100   -0.136971   -3.340342
     45          6           0        4.717410   -1.476104   -3.781204
     46          6           0        3.674839   -0.917125   -2.829527
     47          8           0        3.787336    0.312420   -2.612126
     48          8           0        2.888022   -1.704027   -2.254805
     49          1           0        4.774106   -2.558799   -1.265840
     50          1           0        6.456425   -2.563770   -3.667585
     51          1           0        4.220217   -2.249278   -4.364985
     52          1           0        5.076142   -0.716726   -4.465862
     53          7           0        6.845559   -0.533463   -1.237662
     54          6           0        7.732530    0.404788   -0.566566
     55          6           0        7.163368    1.795048   -0.312926
     56          8           0        7.870230    2.681242    0.156549
     57          1           0        6.145347   -0.973719   -0.651251
     58          1           0        8.577777    0.548713   -1.233306
     59          1           0        8.193467    0.040850    0.352121
     60          7           0        5.933762    2.028564   -0.762745
     61          6           0        5.246874    3.252726   -0.400238
     62          6           0        4.142454    2.932258    0.586755
     63          8           0        3.459138    1.933938    0.359299
     64          6           0        4.699061    4.035067   -1.593864
     65          6           0        5.858213    4.686921   -2.333900
     66          7           0        6.213184    4.201046   -3.524455
     67          8           0        6.354106    5.737411   -1.922729
     68          1           0        5.423326    1.263883   -1.175201
     69          1           0        5.873046    3.896129    0.210452
     70          1           0        4.050204    4.829751   -1.232808
     71          1           0        4.264164    3.332766   -2.294248
     72          1           0        5.729340    3.354404   -3.790708
     73          1           0        6.811003    4.825295   -4.052022
     74          7           0        3.959363    3.676283    1.685575
     75          6           0        3.146384    3.237959    2.810669
     76          6           0        1.660362    3.105323    2.500435
     77          8           0        0.901684    2.467526    3.235706
     78          1           0        4.380055    4.585463    1.634494
     79          1           0        3.292190    3.924016    3.636603
     80          1           0        3.555563    2.285134    3.140515
     81          7           0        1.158043    3.793106    1.472607
     82          6           0       -0.220222    3.789212    1.028904
     83          6           0       -0.784788    2.387748    0.841119
     84          8           0        0.030327    1.566707    0.440520
     85          6           0       -0.403322    4.665475   -0.211231
     86          6           0       -0.079848    6.123029    0.005336
     87          6           0       -1.118925    6.896542    0.540404
     88          6           0        1.179537    6.675316   -0.201371
     89          6           0       -0.921618    8.261770    0.793822
     90          6           0        1.418985    8.040567    0.047132
     91          6           0        0.346952    8.808032    0.543763
     92          8           0        0.517455   10.122901    0.872318
     93          1           0        1.822994    4.200866    0.827881
     94          1           0       -0.861084    4.125542    1.842893
     95          1           0       -1.457952    4.626331   -0.484586
     96          1           0        0.223492    4.374532   -1.043731
     97          1           0       -2.025844    6.358130    0.778335
     98          1           0        1.968109    6.039932   -0.564196
     99          1           0       -1.660359    8.891841    1.278665
    100          1           0        2.409162    8.419565   -0.169457
    101          1           0        1.403444   10.474929    0.738901
    102          7           0       -2.080131    2.303370    1.168938
    103          6           0       -2.936377    1.167928    0.882383
    104          6           0       -3.040677    0.675474   -0.542963
    105          8           0       -2.180405    0.829776   -1.406342
    106          6           0       -2.726027   -0.002094    1.846179
    107          6           0       -2.500157    0.521668    3.256021
    108          6           0       -1.617446   -1.006256    1.519366
    109          6           0       -3.660044    1.387528    3.752658
    110          1           0       -2.468948    3.069034    1.704457
    111          1           0       -3.927784    1.554123    1.112306
    112          1           0       -3.639900   -0.595483    1.841151
    113          1           0       -1.571972    1.105474    3.302321
    114          1           0       -2.511035   -0.340761    3.931816
    115          1           0       -1.784198   -1.670361    0.676717
    116          1           0       -0.670389   -0.482831    1.462720
    117          1           0       -1.360886   -1.722388    2.291461
    118          1           0       -4.661557    1.024856    3.526297
    119          1           0       -3.473356    1.397644    4.824220
    120          1           0       -3.496374    2.372137    3.309085
    121          7           0       -4.224322    0.125797   -0.846507
    122          6           0       -4.747195   -0.204799   -2.156969
    123          6           0       -6.014798    0.570012   -2.482468
    124          8           0       -6.133291    0.942958   -3.638959
    125          6           0       -4.980235   -1.706619   -2.269796
    126          8           0       -5.946751   -2.134657   -1.321677
    127          1           0       -4.909662    0.123626   -0.110230
    128          1           0       -3.964277    0.020680   -2.889771
    129          1           0       -4.044685   -2.252469   -2.124899
    130          1           0       -5.389372   -1.909258   -3.255617
    131          1           0       -6.040834   -3.072344   -1.501928
    132          7           0       -6.834401    0.800604   -1.451751
    133          6           0       -8.079731    1.524148   -1.525504
    134          6           0       -8.996915    1.063032   -2.656850
    135          8           0       -9.473877    1.905560   -3.405552
    136          6           0       -7.717447    2.996031   -1.362681
    137          1           0       -6.642949    0.235696   -0.626812
    138          1           0       -8.594949    1.216526   -0.613847
    139          1           0       -6.969694    3.134133   -0.586799
    140          1           0       -7.295966    3.345982   -2.304695
    141          1           0       -8.654958    3.502506   -1.138057
    142          7           0       -9.356638   -0.210416   -2.837485
    143          6           0       -9.282689   -1.345710   -1.944321
    144          6           0      -10.455803   -1.408391   -0.975417
    145          8           0      -11.635077   -1.292550   -1.319789
    146          6           0       -9.243635   -2.546614   -2.876364
    147          1           0      -10.009378   -0.387675   -3.592409
    148          1           0       -8.394250   -1.320818   -1.325890
    149          1           0       -9.042582   -3.509452   -2.418522
    150          1           0      -10.222458   -2.623758   -3.354437
    151          1           0       -8.545537   -2.384666   -3.705961
    152          7           0      -10.237404   -1.611854    0.326314
    153          6           0       -9.012560   -1.470558    1.082879
    154          6           0       -9.145272   -1.004756    2.530918
    155          8           0       -8.204721   -0.413999    3.049445
    156          6           0       -8.238778   -2.792971    0.996951
    157          6           0       -8.955865   -3.950566    1.679490
    158          6           0       -8.177723   -5.264010    1.671668
    159          8           0       -8.308820   -6.003092    2.660086
    160          8           0       -7.474322   -5.613602    0.702074
    161          1           0      -11.100065   -1.807904    0.802844
    162          1           0       -8.364149   -0.727968    0.623397
    163          1           0       -7.316641   -2.494072    1.478327
    164          1           0       -8.012992   -2.953123   -0.058640
    165          1           0       -9.836652   -4.156641    1.064796
    166          1           0       -9.272068   -3.690240    2.692775
    167          7           0      -10.353464   -1.015399    3.097626
    168          6           0      -10.681333   -0.531757    4.418797
    169          1           0      -11.333172    0.338138    4.335563
    170          1           0      -11.192393   -1.316561    4.977373
    171          1           0       -9.767234   -0.250401    4.941046
    172          1           0      -11.005900   -1.645675    2.668699
    173         20           0        1.980562   -0.043728   -0.444910
    174          8           0        1.300749    1.284461   -2.706584
    175          1           0        1.897458    1.205464   -3.450357
    176          1           0        0.569225    1.803129   -3.035151
 ---------------------------------------------------------------------
 Rotational constants (GHZ):           0.0203053           0.0091579           0.0075222
 Standard basis: SVP (5D, 7F)
 There are  1809 symmetry adapted cartesian basis functions of A   symmetry.
 There are  1717 symmetry adapted basis functions of A   symmetry.
  1717 basis functions,  2922 primitive gaussians,  1809 cartesian basis functions
   358 alpha electrons      358 beta electrons
       nuclear repulsion energy     19552.8507035845 Hartrees.
 NAtoms=  176 NActive=  176 NUniq=  176 SFac= 1.00D+00 NAtFMM=   60 NAOKFM=T Big=T
 Integral buffers will be    131072 words long.
 Raffenetti 2 integral format.
 Two-electron integral symmetry is turned on.
 One-electron integrals computed using PRISM.
 NBasis=  1717 RedAO= T EigKep=  2.81D-04  NBF=  1717
 NBsUse=  1717 1.00D-06 EigRej= -1.00D+00 NBFU=  1717
 ExpMin= 1.98D-02 ExpMax= 3.51D+04 ExpMxC= 5.28D+03 IAcc=3 IRadAn=         5 AccDes= 0.00D+00
 Harris functional with IExCor=  402 and IRadAn=       5 diagonalized for initial guess.
 HarFok:  IExCor=  402 AccDes= 0.00D+00 IRadAn=         5 IDoV= 1 UseB2=F ITyADJ=14
 ICtDFT=  3500011 ScaDFX=  1.000000  1.000000  1.000000  1.000000
 FoFCou: FMM=F IPFlag=           0 FMFlag=      100000 FMFlg1=        2001
         NFxFlg=           0 DoJE=T BraDBF=F KetDBF=T FulRan=T
         wScrn=  0.000000 ICntrl=       500 IOpCl=  0 I1Cent=   200000004 NGrid=           0
         NMat0=    1 NMatS0=      1 NMatT0=    0 NMatD0=    1 NMtDS0=    0 NMtDT0=    0
 Petite list used in FoFCou.
 Requested convergence on RMS density matrix=1.00D-08 within 128 cycles.
 Requested convergence on MAX density matrix=1.00D-06.
 Requested convergence on             energy=1.00D-06.
 No special actions if energy rises.
 EnCoef did     2 forward-backward iterations
 EnCoef did     3 forward-backward iterations
 EnCoef did     1 forward-backward iterations
 EnCoef did     8 forward-backward iterations
 EnCoef did   100 forward-backward iterations
 EnCoef did   100 forward-backward iterations
 EnCoef did     7 forward-backward iterations
 EnCoef did    10 forward-backward iterations
 EnCoef did    52 forward-backward iterations
 Rare condition: small coef for last iteration:  0.222D-15
 EnCoef did   100 forward-backward iterations
 EnCoef did   100 forward-backward iterations
 EnCoef did   100 forward-backward iterations
 EnCoef did     2 forward-backward iterations
 Rare condition: small coef for last iteration: -0.444D-15
 Restarting incremental Fock formation.
 EnCoef did   100 forward-backward iterations
 Rare condition: small coef for last iteration:  0.000D+00
 EnCoef did   100 forward-backward iterations
 EnCoef did     2 forward-backward iterations
 Rare condition: small coef for last iteration:  0.000D+00
 EnCoef did   100 forward-backward iterations
 Rare condition: small coef for last iteration:  0.000D+00
 EnCoef did   100 forward-backward iterations
 EnCoef did     2 forward-backward iterations
 Rare condition: small coef for last iteration: -0.222D-15
 EnCoef did   100 forward-backward iterations
 Rare condition: small coef for last iteration:  0.000D+00
 EnCoef did   100 forward-backward iterations
 EnCoef did     2 forward-backward iterations
 Rare condition: small coef for last iteration: -0.444D-15
 EnCoef did   100 forward-backward iterations
 Rare condition: small coef for last iteration:  0.000D+00
 EnCoef did   100 forward-backward iterations
 EnCoef did   100 forward-backward iterations
 EnCoef did   100 forward-backward iterations
 Rare condition: small coef for last iteration:  0.184D-15
 EnCoef did    61 forward-backward iterations
 Restarting incremental Fock formation.
 SCF Done:  E(RB3LYP) =  -5333.41692691     A.U. after   52 cycles
            NFock= 52  Conv=0.11D-08     -V/T= 2.0081
 SCF density gives NOpUse=  1 NOpAll=  1.
 Hyperfine terms turned off by default for NAtoms > 100.

 **********************************************************************

            Population analysis using the SCF density.

 **********************************************************************

 Orbital symmetries:
 BldTbl:  Degeneracy threshold= 1.00D-02
       Occupied  (A) (A) (A) (A) (A) (A) (A) (A) (A) (A) (A) (A)
                 (A) (A) (A) (A) (A) (A) (A) (A) (A) (A) (A) (A)
                 (A) (A) (A) (A) (A) (A) (A) (A) (A) (A) (A) (A)
                 (A) (A) (A) (A) (A) (A) (A) (A) (A) (A) (A) (A)
                 (A) (A) (A) (A) (A) (A) (A) (A) (A) (A) (A) (A)
                 (A) (A) (A) (A) (A) (A) (A) (A) (A) (A) (A) (A)
                 (A) (A) (A) (A) (A) (A) (A) (A) (A) (A) (A) (A)
                 (A) (A) (A) (A) (A) (A) (A) (A) (A) (A) (A) (A)
                 (A) (A) (A) (A) (A) (A) (A) (A) (A) (A) (A) (A)
                 (A) (A) (A) (A) (A) (A) (A) (A) (A) (A) (A) (A)
                 (A) (A) (A) (A) (A) (A) (A) (A) (A) (A) (A) (A)
                 (A) (A) (A) (A) (A) (A) (A) (A) (A) (A) (A) (A)
                 (A) (A) (A) (A) (A) (A) (A) (A) (A) (A) (A) (A)
                 (A) (A) (A) (A) (A) (A) (A) (A) (A) (A) (A) (A)
                 (A) (A) (A) (A) (A) (A) (A) (A) (A) (A) (A) (A)
                 (A) (A) (A) (A) (A) (A) (A) (A) (A) (A) (A) (A)
                 (A) (A) (A) (A) (A) (A) (A) (A) (A) (A) (A) (A)
                 (A) (A) (A) (A) (A) (A) (A) (A) (A) (A) (A) (A)
                 (A) (A) (A) (A) (A) (A) (A) (A) (A) (A) (A) (A)
                 (A) (A) (A) (A) (A) (A) (A) (A) (A) (A) (A) (A)
                 (A) (A) (A) (A) (A) (A) (A) (A) (A) (A) (A) (A)
                 (A) (A) (A) (A) (A) (A) (A) (A) (A) (A) (A) (A)
                 (A) (A) (A) (A) (A) (A) (A) (A) (A) (A) (A) (A)
                 (A) (A) (A) (A) (A) (A) (A) (A) (A) (A) (A) (A)
                 (A) (A) (A) (A) (A) (A) (A) (A) (A) (A) (A) (A)
                 (A) (A) (A) (A) (A) (A) (A) (A) (A) (A) (A) (A)
                 (A) (A) (A) (A) (A) (A) (A) (A) (A) (A) (A) (A)
                 (A) (A) (A) (A) (A) (A) (A) (A) (A) (A) (A) (A)
                 (A) (A) (A) (A) (A) (A) (A) (A) (A) (A) (A) (A)
                 (A) (A) (A) (A) (A) (A) (A) (A) (A) (A)
       Virtual   (A) (A) (A) (A) (A) (A) (A) (A) (A) (A) (A) (A)
                 (A) (A) (A) (A) (A) (A) (A) (A) (A) (A) (A) (A)
                 (A) (A) (A) (A) (A) (A) (A) (A) (A) (A) (A) (A)
                 (A) (A) (A) (A) (A) (A) (A) (A) (A) (A) (A) (A)
                 (A) (A) (A) (A) (A) (A) (A) (A) (A) (A) (A) (A)
                 (A) (A) (A) (A) (A) (A) (A) (A) (A) (A) (A) (A)
                 (A) (A) (A) (A) (A) (A) (A) (A) (A) (A) (A) (A)
                 (A) (A) (A) (A) (A) (A) (A) (A) (A) (A) (A) (A)
                 (A) (A) (A) (A) (A) (A) (A) (A) (A) (A) (A) (A)
                 (A) (A) (A) (A) (A) (A) (A) (A) (A) (A) (A) (A)
                 (A) (A) (A) (A) (A) (A) (A) (A) (A) (A) (A) (A)
                 (A) (A) (A) (A) (A) (A) (A) (A) (A) (A) (A) (A)
                 (A) (A) (A) (A) (A) (A) (A) (A) (A) (A) (A) (A)
                 (A) (A) (A) (A) (A) (A) (A) (A) (A) (A) (A) (A)
                 (A) (A) (A) (A) (A) (A) (A) (A) (A) (A) (A) (A)
                 (A) (A) (A) (A) (A) (A) (A) (A) (A) (A) (A) (A)
                 (A) (A) (A) (A) (A) (A) (A) (A) (A) (A) (A) (A)
                 (A) (A) (A) (A) (A) (A) (A) (A) (A) (A) (A) (A)
                 (A) (A) (A) (A) (A) (A) (A) (A) (A) (A) (A) (A)
                 (A) (A) (A) (A) (A) (A) (A) (A) (A) (A) (A) (A)
                 (A) (A) (A) (A) (A) (A) (A) (A) (A) (A) (A) (A)
                 (A) (A) (A) (A) (A) (A) (A) (A) (A) (A) (A) (A)
                 (A) (A) (A) (A) (A) (A) (A) (A) (A) (A) (A) (A)
                 (A) (A) (A) (A) (A) (A) (A) (A) (A) (A) (A) (A)
                 (A) (A) (A) (A) (A) (A) (A) (A) (A) (A) (A) (A)
                 (A) (A) (A) (A) (A) (A) (A) (A) (A) (A) (A) (A)
                 (A) (A) (A) (A) (A) (A) (A) (A) (A) (A) (A) (A)
                 (A) (A) (A) (A) (A) (A) (A) (A) (A) (A) (A) (A)
                 (A) (A) (A) (A) (A) (A) (A) (A) (A) (A) (A) (A)
                 (A) (A) (A) (A) (A) (A) (A) (A) (A) (A) (A) (A)
                 (A) (A) (A) (A) (A) (A) (A) (A) (A) (A) (A) (A)
                 (A) (A) (A) (A) (A) (A) (A) (A) (A) (A) (A) (A)
                 (A) (A) (A) (A) (A) (A) (A) (A) (A) (A) (A) (A)
                 (A) (A) (A) (A) (A) (A) (A) (A) (A) (A) (A) (A)
                 (A) (A) (A) (A) (A) (A) (A) (A) (A) (A) (A) (A)
                 (A) (A) (A) (A) (A) (A) (A) (A) (A) (A) (A) (A)
                 (A) (A) (A) (A) (A) (A) (A) (A) (A) (A) (A) (A)
                 (A) (A) (A) (A) (A) (A) (A) (A) (A) (A) (A) (A)
                 (A) (A) (A) (A) (A) (A) (A) (A) (A) (A) (A) (A)
                 (A) (A) (A) (A) (A) (A) (A) (A) (A) (A) (A) (A)
                 (A) (A) (A) (A) (A) (A) (A) (A) (A) (A) (A) (A)
                 (A) (A) (A) (A) (A) (A) (A) (A) (A) (A) (A) (A)
                 (A) (A) (A) (A) (A) (A) (A) (A) (A) (A) (A) (A)
                 (A) (A) (A) (A) (A) (A) (A) (A) (A) (A) (A) (A)
                 (A) (A) (A) (A) (A) (A) (A) (A) (A) (A) (A) (A)
                 (A) (A) (A) (A) (A) (A) (A) (A) (A) (A) (A) (A)
                 (A) (A) (A) (A) (A) (A) (A) (A) (A) (A) (A) (A)
                 (A) (A) (A) (A) (A) (A) (A) (A) (A) (A) (A) (A)
                 (A) (A) (A) (A) (A) (A) (A) (A) (A) (A) (A) (A)
                 (A) (A) (A) (A) (A) (A) (A) (A) (A) (A) (A) (A)
                 (A) (A) (A) (A) (A) (A) (A) (A) (A) (A) (A) (A)
                 (A) (A) (A) (A) (A) (A) (A) (A) (A) (A) (A) (A)
                 (A) (A) (A) (A) (A) (A) (A) (A) (A) (A) (A) (A)
                 (A) (A) (A) (A) (A) (A) (A) (A) (A) (A) (A) (A)
                 (A) (A) (A) (A) (A) (A) (A) (A) (A) (A) (A) (A)
                 (A) (A) (A) (A) (A) (A) (A) (A) (A) (A) (A) (A)
                 (A) (A) (A) (A) (A) (A) (A) (A) (A) (A) (A) (A)
                 (A) (A) (A) (A) (A) (A) (A) (A) (A) (A) (A) (A)
                 (A) (A) (A) (A) (A) (A) (A) (A) (A) (A) (A) (A)
                 (A) (A) (A) (A) (A) (A) (A) (A) (A) (A) (A) (A)
                 (A) (A) (A) (A) (A) (A) (A) (A) (A) (A) (A) (A)
                 (A) (A) (A) (A) (A) (A) (A) (A) (A) (A) (A) (A)
                 (A) (A) (A) (A) (A) (A) (A) (A) (A) (A) (A) (A)
                 (A) (A) (A) (A) (A) (A) (A) (A) (A) (A) (A) (A)
                 (A) (A) (A) (A) (A) (A) (A) (A) (A) (A) (A) (A)
                 (A) (A) (A) (A) (A) (A) (A) (A) (A) (A) (A) (A)
                 (A) (A) (A) (A) (A) (A) (A) (A) (A) (A) (A) (A)
                 (A) (A) (A) (A) (A) (A) (A) (A) (A) (A) (A) (A)
                 (A) (A) (A) (A) (A) (A) (A) (A) (A) (A) (A) (A)
                 (A) (A) (A) (A) (A) (A) (A) (A) (A) (A) (A) (A)
                 (A) (A) (A) (A) (A) (A) (A) (A) (A) (A) (A) (A)
                 (A) (A) (A) (A) (A) (A) (A) (A) (A) (A) (A) (A)
                 (A) (A) (A) (A) (A) (A) (A) (A) (A) (A) (A) (A)
                 (A) (A) (A) (A) (A) (A) (A) (A) (A) (A) (A) (A)
                 (A) (A) (A) (A) (A) (A) (A) (A) (A) (A) (A) (A)
                 (A) (A) (A) (A) (A) (A) (A) (A) (A) (A) (A) (A)
                 (A) (A) (A) (A) (A) (A) (A) (A) (A) (A) (A) (A)
                 (A) (A) (A) (A) (A) (A) (A) (A) (A) (A) (A) (A)
                 (A) (A) (A) (A) (A) (A) (A) (A) (A) (A) (A) (A)
                 (A) (A) (A) (A) (A) (A) (A) (A) (A) (A) (A) (A)
                 (A) (A) (A) (A) (A) (A) (A) (A) (A) (A) (A) (A)
                 (A) (A) (A) (A) (A) (A) (A) (A) (A) (A) (A) (A)
                 (A) (A) (A) (A) (A) (A) (A) (A) (A) (A) (A) (A)
                 (A) (A) (A) (A) (A) (A) (A) (A) (A) (A) (A) (A)
                 (A) (A) (A) (A) (A) (A) (A) (A) (A) (A) (A) (A)
                 (A) (A) (A) (A) (A) (A) (A) (A) (A) (A) (A) (A)
                 (A) (A) (A) (A) (A) (A) (A) (A) (A) (A) (A) (A)
                 (A) (A) (A) (A) (A) (A) (A) (A) (A) (A) (A) (A)
                 (A) (A) (A) (A) (A) (A) (A) (A) (A) (A) (A) (A)
                 (A) (A) (A) (A) (A) (A) (A) (A) (A) (A) (A) (A)
                 (A) (A) (A) (A) (A) (A) (A) (A) (A) (A) (A) (A)
                 (A) (A) (A) (A) (A) (A) (A) (A) (A) (A) (A) (A)
                 (A) (A) (A) (A) (A) (A) (A) (A) (A) (A) (A) (A)
                 (A) (A) (A) (A) (A) (A) (A) (A) (A) (A) (A) (A)
                 (A) (A) (A) (A) (A) (A) (A) (A) (A) (A) (A) (A)
                 (A) (A) (A) (A) (A) (A) (A) (A) (A) (A) (A) (A)
                 (A) (A) (A) (A) (A) (A) (A) (A) (A) (A) (A) (A)
                 (A) (A) (A) (A) (A) (A) (A) (A) (A) (A) (A) (A)
                 (A) (A) (A) (A) (A) (A) (A) (A) (A) (A) (A) (A)
                 (A) (A) (A) (A) (A) (A) (A) (A) (A) (A) (A) (A)
                 (A) (A) (A) (A) (A) (A) (A) (A) (A) (A) (A) (A)
                 (A) (A) (A) (A) (A) (A) (A) (A) (A) (A) (A) (A)
                 (A) (A) (A) (A) (A) (A) (A) (A) (A) (A) (A) (A)
                 (A) (A) (A) (A) (A) (A) (A) (A) (A) (A) (A) (A)
                 (A) (A) (A) (A) (A) (A) (A) (A) (A) (A) (A) (A)
                 (A) (A) (A) (A) (A) (A) (A) (A) (A) (A) (A) (A)
                 (A) (A) (A) (A) (A) (A) (A) (A) (A) (A) (A) (A)
                 (A) (A) (A) (A) (A) (A) (A) (A) (A) (A) (A) (A)
                 (A) (A) (A) (A) (A) (A) (A) (A) (A) (A) (A) (A)
                 (A) (A) (A) (A) (A) (A) (A) (A) (A) (A) (A) (A)
                 (A) (A) (A) (A) (A) (A) (A) (A) (A) (A) (A) (A)
                 (A) (A) (A) (A) (A) (A) (A) (A) (A) (A) (A) (A)
                 (A) (A) (A) (A) (A) (A) (A) (A) (A) (A) (A) (A)
                 (A) (A) (A)
 The electronic state is 1-A.
 Alpha  occ. eigenvalues -- -145.42039 -19.17854 -19.17120 -19.15146 -19.14748
 Alpha  occ. eigenvalues --  -19.14358 -19.12091 -19.11712 -19.10529 -19.10366
 Alpha  occ. eigenvalues --  -19.10359 -19.10310 -19.09906 -19.09091 -19.08980
 Alpha  occ. eigenvalues --  -19.08929 -19.08864 -19.08714 -19.08406 -19.07737
 Alpha  occ. eigenvalues --  -19.07537 -19.07445 -18.97042 -18.96658 -15.47815
 Alpha  occ. eigenvalues --  -14.57818 -14.40572 -14.40324 -14.38123 -14.37748
 Alpha  occ. eigenvalues --  -14.37358 -14.36762 -14.36088 -14.35438 -14.35406
 Alpha  occ. eigenvalues --  -14.34989 -14.34832 -14.33901 -14.33754 -14.33481
 Alpha  occ. eigenvalues --  -12.61442 -12.61382 -12.61361 -10.34727 -10.33084
 Alpha  occ. eigenvalues --  -10.32309 -10.31168 -10.30939 -10.29278 -10.29204
 Alpha  occ. eigenvalues --  -10.28970 -10.28340 -10.28153 -10.28068 -10.27907
 Alpha  occ. eigenvalues --  -10.27822 -10.27690 -10.27619 -10.27402 -10.27207
 Alpha  occ. eigenvalues --  -10.26811 -10.26777 -10.26646 -10.26598 -10.26590
 Alpha  occ. eigenvalues --  -10.26153 -10.25581 -10.25357 -10.24745 -10.24406
 Alpha  occ. eigenvalues --  -10.24309 -10.23916 -10.23715 -10.23269 -10.22955
 Alpha  occ. eigenvalues --  -10.22498 -10.22043 -10.21895 -10.21886 -10.21868
 Alpha  occ. eigenvalues --  -10.21731 -10.21699 -10.21565 -10.21444 -10.21428
 Alpha  occ. eigenvalues --  -10.21244 -10.20164 -10.19309 -10.19131 -10.19129
 Alpha  occ. eigenvalues --  -10.19024 -10.18340 -10.18091 -10.17761 -10.16524
 Alpha  occ. eigenvalues --  -10.14932 -10.12293  -1.84538  -1.13262  -1.12189
 Alpha  occ. eigenvalues --   -1.11889  -1.11712  -1.07664  -1.07366  -1.06350
 Alpha  occ. eigenvalues --   -1.05308  -1.05214  -1.04377  -1.03837  -1.03730
 Alpha  occ. eigenvalues --   -1.03661  -1.02985  -1.02643  -1.02334  -1.01947
 Alpha  occ. eigenvalues --   -1.01891  -1.01886  -1.01512  -1.01334  -1.00629
 Alpha  occ. eigenvalues --   -1.00444  -0.97700  -0.96653  -0.95478  -0.95153
 Alpha  occ. eigenvalues --   -0.94463  -0.94259  -0.93969  -0.93470  -0.92613
 Alpha  occ. eigenvalues --   -0.92598  -0.91995  -0.91808  -0.91665  -0.90792
 Alpha  occ. eigenvalues --   -0.90155  -0.90091  -0.89596  -0.89437  -0.87679
 Alpha  occ. eigenvalues --   -0.84605  -0.83496  -0.81936  -0.81358  -0.80755
 Alpha  occ. eigenvalues --   -0.80070  -0.79700  -0.78508  -0.77576  -0.77015
 Alpha  occ. eigenvalues --   -0.76973  -0.76545  -0.76431  -0.75924  -0.75461
 Alpha  occ. eigenvalues --   -0.74667  -0.73160  -0.73152  -0.73035  -0.72904
 Alpha  occ. eigenvalues --   -0.72267  -0.71176  -0.70600  -0.69263  -0.68620
 Alpha  occ. eigenvalues --   -0.67168  -0.66996  -0.66805  -0.66530  -0.65966
 Alpha  occ. eigenvalues --   -0.65434  -0.65135  -0.65064  -0.64490  -0.63561
 Alpha  occ. eigenvalues --   -0.63229  -0.62394  -0.61910  -0.61808  -0.61414
 Alpha  occ. eigenvalues --   -0.61280  -0.60805  -0.59750  -0.59394  -0.59205
 Alpha  occ. eigenvalues --   -0.59173  -0.59062  -0.58563  -0.58346  -0.58204
 Alpha  occ. eigenvalues --   -0.57470  -0.57371  -0.57283  -0.56654  -0.56629
 Alpha  occ. eigenvalues --   -0.56393  -0.56198  -0.55986  -0.55892  -0.55170
 Alpha  occ. eigenvalues --   -0.54738  -0.54308  -0.53946  -0.53475  -0.53292
 Alpha  occ. eigenvalues --   -0.53161  -0.52778  -0.52494  -0.51792  -0.51665
 Alpha  occ. eigenvalues --   -0.51489  -0.51299  -0.51171  -0.50949  -0.50848
 Alpha  occ. eigenvalues --   -0.50649  -0.50411  -0.50000  -0.49778  -0.49597
 Alpha  occ. eigenvalues --   -0.49220  -0.48691  -0.48470  -0.48308  -0.48104
 Alpha  occ. eigenvalues --   -0.47555  -0.47360  -0.47270  -0.47148  -0.47072
 Alpha  occ. eigenvalues --   -0.46774  -0.46533  -0.46249  -0.45984  -0.45914
 Alpha  occ. eigenvalues --   -0.45832  -0.45736  -0.45678  -0.45627  -0.45547
 Alpha  occ. eigenvalues --   -0.45434  -0.45072  -0.45019  -0.44656  -0.44601
 Alpha  occ. eigenvalues --   -0.44315  -0.44129  -0.44052  -0.43989  -0.43926
 Alpha  occ. eigenvalues --   -0.43631  -0.43578  -0.43324  -0.43200  -0.43075
 Alpha  occ. eigenvalues --   -0.42876  -0.42790  -0.42441  -0.42404  -0.42207
 Alpha  occ. eigenvalues --   -0.42145  -0.41959  -0.41863  -0.41753  -0.41650
 Alpha  occ. eigenvalues --   -0.41462  -0.41282  -0.41157  -0.40935  -0.40774
 Alpha  occ. eigenvalues --   -0.40676  -0.40546  -0.40443  -0.40311  -0.40027
 Alpha  occ. eigenvalues --   -0.39843  -0.39799  -0.39320  -0.39276  -0.39207
 Alpha  occ. eigenvalues --   -0.39199  -0.39088  -0.39083  -0.38950  -0.38872
 Alpha  occ. eigenvalues --   -0.38734  -0.38667  -0.38611  -0.38418  -0.38188
 Alpha  occ. eigenvalues --   -0.38052  -0.38003  -0.37882  -0.37517  -0.37450
 Alpha  occ. eigenvalues --   -0.37100  -0.37090  -0.36755  -0.36645  -0.36411
 Alpha  occ. eigenvalues --   -0.36341  -0.35992  -0.35567  -0.35431  -0.35332
 Alpha  occ. eigenvalues --   -0.35296  -0.35021  -0.34785  -0.34652  -0.34622
 Alpha  occ. eigenvalues --   -0.34547  -0.34094  -0.33296  -0.33279  -0.32133
 Alpha  occ. eigenvalues --   -0.32131  -0.31851  -0.31527  -0.30458  -0.30307
 Alpha  occ. eigenvalues --   -0.29739  -0.29193  -0.29069  -0.28842  -0.28669
 Alpha  occ. eigenvalues --   -0.28285  -0.28172  -0.28016  -0.27443  -0.27413
 Alpha  occ. eigenvalues --   -0.27355  -0.27310  -0.27048  -0.26966  -0.26884
 Alpha  occ. eigenvalues --   -0.26808  -0.26709  -0.26481  -0.25960  -0.25879
 Alpha  occ. eigenvalues --   -0.25872  -0.25487  -0.25185  -0.24987  -0.24943
 Alpha  occ. eigenvalues --   -0.24868  -0.24819  -0.24606  -0.24541  -0.24296
 Alpha  occ. eigenvalues --   -0.23335  -0.23264  -0.22900  -0.22757  -0.22450
 Alpha  occ. eigenvalues --   -0.14597  -0.14179  -0.11439
 Alpha virt. eigenvalues --   -0.10624  -0.04470  -0.04279  -0.04047  -0.03525
 Alpha virt. eigenvalues --   -0.03342  -0.02925  -0.01804  -0.01696  -0.01271
 Alpha virt. eigenvalues --   -0.00921  -0.00523  -0.00437  -0.00323   0.00130
 Alpha virt. eigenvalues --    0.00686   0.00783   0.01307   0.01630   0.01661
 Alpha virt. eigenvalues --    0.01940   0.02073   0.02204   0.02315   0.02736
 Alpha virt. eigenvalues --    0.03104   0.03216   0.03366   0.03557   0.03706
 Alpha virt. eigenvalues --    0.03833   0.04157   0.04315   0.04363   0.04865
 Alpha virt. eigenvalues --    0.05010   0.05126   0.05154   0.05587   0.06037
 Alpha virt. eigenvalues --    0.06599   0.06735   0.07049   0.07345   0.07429
 Alpha virt. eigenvalues --    0.07499   0.07724   0.08120   0.08482   0.08674
 Alpha virt. eigenvalues --    0.08741   0.08867   0.09060   0.09386   0.09633
 Alpha virt. eigenvalues --    0.09701   0.09980   0.10107   0.10216   0.10595
 Alpha virt. eigenvalues --    0.10798   0.11143   0.11240   0.11377   0.11553
 Alpha virt. eigenvalues --    0.11691   0.11846   0.11982   0.12067   0.12122
 Alpha virt. eigenvalues --    0.12358   0.12661   0.12775   0.12814   0.12952
 Alpha virt. eigenvalues --    0.13121   0.13202   0.13305   0.13384   0.13551
 Alpha virt. eigenvalues --    0.13850   0.13897   0.14054   0.14319   0.14516
 Alpha virt. eigenvalues --    0.14764   0.14777   0.14866   0.15031   0.15252
 Alpha virt. eigenvalues --    0.15377   0.15559   0.15627   0.15793   0.15916
 Alpha virt. eigenvalues --    0.16080   0.16150   0.16297   0.16608   0.16712
 Alpha virt. eigenvalues --    0.16909   0.16950   0.17199   0.17393   0.17569
 Alpha virt. eigenvalues --    0.17710   0.18043   0.18158   0.18218   0.18507
 Alpha virt. eigenvalues --    0.18678   0.18841   0.18969   0.19132   0.19161
 Alpha virt. eigenvalues --    0.19477   0.19799   0.19886   0.19985   0.20194
 Alpha virt. eigenvalues --    0.20347   0.20874   0.21060   0.21258   0.21343
 Alpha virt. eigenvalues --    0.21543   0.21834   0.21894   0.22040   0.22166
 Alpha virt. eigenvalues --    0.22277   0.22351   0.22692   0.22778   0.23303
 Alpha virt. eigenvalues --    0.23436   0.23730   0.23937   0.24257   0.24460
 Alpha virt. eigenvalues --    0.24745   0.25062   0.25242   0.25646   0.25858
 Alpha virt. eigenvalues --    0.26159   0.26224   0.26588   0.26754   0.26948
 Alpha virt. eigenvalues --    0.27261   0.27357   0.27621   0.27691   0.28192
 Alpha virt. eigenvalues --    0.28735   0.28816   0.28854   0.29202   0.29362
 Alpha virt. eigenvalues --    0.29486   0.29632   0.29918   0.30088   0.30352
 Alpha virt. eigenvalues --    0.30453   0.30702   0.31031   0.31346   0.31497
 Alpha virt. eigenvalues --    0.31600   0.31614   0.31832   0.32363   0.33082
 Alpha virt. eigenvalues --    0.33144   0.33689   0.33823   0.34126   0.34394
 Alpha virt. eigenvalues --    0.35093   0.35357   0.35789   0.35871   0.36058
 Alpha virt. eigenvalues --    0.36475   0.36639   0.36808   0.37104   0.37239
 Alpha virt. eigenvalues --    0.37423   0.37692   0.38161   0.38525   0.38864
 Alpha virt. eigenvalues --    0.39124   0.39161   0.39334   0.39586   0.40034
 Alpha virt. eigenvalues --    0.40172   0.40547   0.40765   0.41066   0.41127
 Alpha virt. eigenvalues --    0.41495   0.41609   0.41853   0.41959   0.42128
 Alpha virt. eigenvalues --    0.42281   0.42406   0.42900   0.43146   0.43642
 Alpha virt. eigenvalues --    0.43771   0.44019   0.44318   0.44380   0.44484
 Alpha virt. eigenvalues --    0.44676   0.44887   0.44894   0.44993   0.45089
 Alpha virt. eigenvalues --    0.45173   0.45301   0.45384   0.45899   0.46250
 Alpha virt. eigenvalues --    0.46346   0.46586   0.46862   0.46907   0.47018
 Alpha virt. eigenvalues --    0.47125   0.47402   0.48056   0.48279   0.48450
 Alpha virt. eigenvalues --    0.48713   0.48902   0.49114   0.49392   0.49532
 Alpha virt. eigenvalues --    0.49626   0.49845   0.50037   0.50148   0.50176
 Alpha virt. eigenvalues --    0.50227   0.50491   0.50776   0.50878   0.50945
 Alpha virt. eigenvalues --    0.51188   0.51451   0.51545   0.51740   0.51880
 Alpha virt. eigenvalues --    0.52106   0.52322   0.52448   0.52669   0.52892
 Alpha virt. eigenvalues --    0.53065   0.53169   0.53289   0.53538   0.53689
 Alpha virt. eigenvalues --    0.53831   0.54072   0.54318   0.54543   0.54745
 Alpha virt. eigenvalues --    0.54893   0.55033   0.55260   0.55472   0.55742
 Alpha virt. eigenvalues --    0.56119   0.56421   0.56486   0.56699   0.57012
 Alpha virt. eigenvalues --    0.57227   0.57514   0.57931   0.58035   0.58095
 Alpha virt. eigenvalues --    0.58216   0.58356   0.58477   0.58633   0.58763
 Alpha virt. eigenvalues --    0.58889   0.58917   0.59016   0.59243   0.59348
 Alpha virt. eigenvalues --    0.59573   0.59779   0.59905   0.59993   0.60141
 Alpha virt. eigenvalues --    0.60227   0.60381   0.60571   0.60716   0.60827
 Alpha virt. eigenvalues --    0.61039   0.61305   0.61384   0.61527   0.61622
 Alpha virt. eigenvalues --    0.61871   0.62015   0.62157   0.62197   0.62291
 Alpha virt. eigenvalues --    0.62403   0.62497   0.62692   0.62736   0.63005
 Alpha virt. eigenvalues --    0.63141   0.63212   0.63245   0.63448   0.63610
 Alpha virt. eigenvalues --    0.63629   0.63778   0.63859   0.64067   0.64157
 Alpha virt. eigenvalues --    0.64355   0.64439   0.64538   0.64606   0.64657
 Alpha virt. eigenvalues --    0.64806   0.64911   0.64949   0.65086   0.65124
 Alpha virt. eigenvalues --    0.65271   0.65333   0.65389   0.65550   0.65632
 Alpha virt. eigenvalues --    0.65642   0.65797   0.65936   0.66030   0.66150
 Alpha virt. eigenvalues --    0.66362   0.66425   0.66568   0.66616   0.66673
 Alpha virt. eigenvalues --    0.66711   0.66913   0.66967   0.67194   0.67298
 Alpha virt. eigenvalues --    0.67421   0.67455   0.67554   0.67780   0.67788
 Alpha virt. eigenvalues --    0.67899   0.68104   0.68196   0.68302   0.68464
 Alpha virt. eigenvalues --    0.68533   0.68728   0.68833   0.68960   0.69152
 Alpha virt. eigenvalues --    0.69223   0.69383   0.69475   0.69577   0.69702
 Alpha virt. eigenvalues --    0.69807   0.70163   0.70366   0.70398   0.70583
 Alpha virt. eigenvalues --    0.70674   0.70822   0.71059   0.71106   0.71173
 Alpha virt. eigenvalues --    0.71437   0.71613   0.71948   0.72097   0.72315
 Alpha virt. eigenvalues --    0.72532   0.72546   0.72719   0.72956   0.73171
 Alpha virt. eigenvalues --    0.73367   0.73527   0.73682   0.73754   0.73955
 Alpha virt. eigenvalues --    0.74086   0.74284   0.74548   0.74624   0.74787
 Alpha virt. eigenvalues --    0.74861   0.75011   0.75315   0.75381   0.75772
 Alpha virt. eigenvalues --    0.75838   0.75933   0.76304   0.76523   0.76777
 Alpha virt. eigenvalues --    0.76932   0.76988   0.77257   0.77599   0.77974
 Alpha virt. eigenvalues --    0.78165   0.78348   0.78397   0.78563   0.78667
 Alpha virt. eigenvalues --    0.79123   0.79486   0.79921   0.80004   0.80180
 Alpha virt. eigenvalues --    0.80371   0.80782   0.81109   0.81361   0.81649
 Alpha virt. eigenvalues --    0.82019   0.82087   0.82314   0.82534   0.82668
 Alpha virt. eigenvalues --    0.83128   0.83429   0.83606   0.83721   0.84405
 Alpha virt. eigenvalues --    0.84767   0.85212   0.85330   0.85899   0.86138
 Alpha virt. eigenvalues --    0.86166   0.86343   0.86767   0.87106   0.87368
 Alpha virt. eigenvalues --    0.87550   0.87798   0.88017   0.88470   0.88498
 Alpha virt. eigenvalues --    0.88630   0.88980   0.89248   0.90013   0.90224
 Alpha virt. eigenvalues --    0.90401   0.90419   0.90650   0.91320   0.91444
 Alpha virt. eigenvalues --    0.91702   0.91873   0.91892   0.92209   0.92546
 Alpha virt. eigenvalues --    0.92984   0.93310   0.93670   0.93838   0.94601
 Alpha virt. eigenvalues --    0.94712   0.95044   0.95341   0.95373   0.95492
 Alpha virt. eigenvalues --    0.95909   0.96128   0.96621   0.96759   0.96972
 Alpha virt. eigenvalues --    0.97075   0.97487   0.97653   0.97930   0.98357
 Alpha virt. eigenvalues --    0.98612   0.98866   0.99116   0.99482   0.99796
 Alpha virt. eigenvalues --    0.99906   1.00501   1.00651   1.00908   1.01533
 Alpha virt. eigenvalues --    1.01975   1.02124   1.02427   1.02918   1.03439
 Alpha virt. eigenvalues --    1.03506   1.03702   1.03756   1.03986   1.04092
 Alpha virt. eigenvalues --    1.04381   1.04561   1.05063   1.05353   1.05611
 Alpha virt. eigenvalues --    1.06089   1.06132   1.06511   1.06874   1.07472
 Alpha virt. eigenvalues --    1.07574   1.07798   1.08025   1.08219   1.08474
 Alpha virt. eigenvalues --    1.08537   1.08796   1.09114   1.09491   1.09656
 Alpha virt. eigenvalues --    1.10224   1.10353   1.10786   1.11235   1.11284
 Alpha virt. eigenvalues --    1.11543   1.11935   1.12082   1.12544   1.12706
 Alpha virt. eigenvalues --    1.13149   1.13328   1.13465   1.13893   1.14276
 Alpha virt. eigenvalues --    1.14709   1.14834   1.15012   1.15265   1.15491
 Alpha virt. eigenvalues --    1.15529   1.15761   1.16385   1.16468   1.16962
 Alpha virt. eigenvalues --    1.17146   1.17354   1.17489   1.17776   1.18242
 Alpha virt. eigenvalues --    1.18470   1.18781   1.18984   1.19150   1.19390
 Alpha virt. eigenvalues --    1.19529   1.19813   1.19908   1.20279   1.20679
 Alpha virt. eigenvalues --    1.20866   1.21231   1.21365   1.21529   1.21773
 Alpha virt. eigenvalues --    1.21949   1.22125   1.22350   1.22645   1.22760
 Alpha virt. eigenvalues --    1.23051   1.23543   1.23593   1.23717   1.23822
 Alpha virt. eigenvalues --    1.24561   1.24676   1.24857   1.25057   1.25346
 Alpha virt. eigenvalues --    1.25399   1.25994   1.26332   1.26447   1.26535
 Alpha virt. eigenvalues --    1.26602   1.26803   1.26998   1.27086   1.27598
 Alpha virt. eigenvalues --    1.27983   1.28167   1.28272   1.28902   1.29032
 Alpha virt. eigenvalues --    1.29319   1.30181   1.30578   1.30871   1.31034
 Alpha virt. eigenvalues --    1.31827   1.32199   1.32314   1.32623   1.32807
 Alpha virt. eigenvalues --    1.32820   1.33327   1.33431   1.33861   1.34211
 Alpha virt. eigenvalues --    1.34598   1.35196   1.35670   1.35846   1.36045
 Alpha virt. eigenvalues --    1.36323   1.36563   1.36722   1.37047   1.37136
 Alpha virt. eigenvalues --    1.37581   1.37859   1.38177   1.38695   1.38773
 Alpha virt. eigenvalues --    1.38843   1.39525   1.39847   1.40229   1.40408
 Alpha virt. eigenvalues --    1.40478   1.40848   1.41357   1.41626   1.41810
 Alpha virt. eigenvalues --    1.42020   1.42503   1.42725   1.43215   1.43563
 Alpha virt. eigenvalues --    1.43790   1.43980   1.44181   1.44304   1.44439
 Alpha virt. eigenvalues --    1.44715   1.44989   1.45382   1.45615   1.45750
 Alpha virt. eigenvalues --    1.45911   1.46056   1.46406   1.47096   1.47278
 Alpha virt. eigenvalues --    1.47374   1.47524   1.47684   1.47801   1.47931
 Alpha virt. eigenvalues --    1.48689   1.49226   1.49302   1.49568   1.50085
 Alpha virt. eigenvalues --    1.50473   1.50566   1.50831   1.50895   1.52035
 Alpha virt. eigenvalues --    1.52208   1.52272   1.52734   1.52999   1.53210
 Alpha virt. eigenvalues --    1.53383   1.53675   1.53871   1.53945   1.54234
 Alpha virt. eigenvalues --    1.54799   1.54997   1.55122   1.55388   1.55428
 Alpha virt. eigenvalues --    1.55657   1.55947   1.56099   1.56736   1.57073
 Alpha virt. eigenvalues --    1.57466   1.57898   1.58195   1.58748   1.59102
 Alpha virt. eigenvalues --    1.59288   1.59632   1.60017   1.60485   1.60934
 Alpha virt. eigenvalues --    1.61038   1.61662   1.61763   1.62191   1.62609
 Alpha virt. eigenvalues --    1.62809   1.62942   1.63301   1.64056   1.64320
 Alpha virt. eigenvalues --    1.64746   1.65134   1.65409   1.65541   1.66337
 Alpha virt. eigenvalues --    1.66653   1.66902   1.67305   1.67450   1.67846
 Alpha virt. eigenvalues --    1.68169   1.68347   1.68605   1.69048   1.69315
 Alpha virt. eigenvalues --    1.69554   1.69898   1.70092   1.70273   1.70554
 Alpha virt. eigenvalues --    1.70607   1.71268   1.71464   1.71544   1.71662
 Alpha virt. eigenvalues --    1.71916   1.72087   1.72346   1.72537   1.72712
 Alpha virt. eigenvalues --    1.72833   1.73125   1.73327   1.73445   1.73809
 Alpha virt. eigenvalues --    1.73885   1.74096   1.74362   1.74584   1.74921
 Alpha virt. eigenvalues --    1.74990   1.75260   1.75408   1.75509   1.75824
 Alpha virt. eigenvalues --    1.75891   1.76003   1.76124   1.76475   1.76556
 Alpha virt. eigenvalues --    1.76627   1.76771   1.76825   1.77023   1.77166
 Alpha virt. eigenvalues --    1.77241   1.77428   1.77720   1.77880   1.78020
 Alpha virt. eigenvalues --    1.78427   1.78462   1.78523   1.78728   1.78875
 Alpha virt. eigenvalues --    1.79072   1.79348   1.79442   1.79892   1.79953
 Alpha virt. eigenvalues --    1.80064   1.80241   1.80452   1.80473   1.80721
 Alpha virt. eigenvalues --    1.80841   1.81271   1.81332   1.81399   1.81476
 Alpha virt. eigenvalues --    1.81562   1.81754   1.82167   1.82208   1.82337
 Alpha virt. eigenvalues --    1.82506   1.82609   1.82704   1.82815   1.82884
 Alpha virt. eigenvalues --    1.83201   1.83384   1.83534   1.83604   1.83848
 Alpha virt. eigenvalues --    1.83975   1.84323   1.84695   1.85102   1.85307
 Alpha virt. eigenvalues --    1.85353   1.85533   1.85700   1.85865   1.85992
 Alpha virt. eigenvalues --    1.86184   1.86371   1.86509   1.86543   1.86747
 Alpha virt. eigenvalues --    1.86832   1.86904   1.87283   1.87598   1.87754
 Alpha virt. eigenvalues --    1.88084   1.88451   1.88662   1.88940   1.89036
 Alpha virt. eigenvalues --    1.89092   1.89187   1.89387   1.89451   1.89893
 Alpha virt. eigenvalues --    1.90004   1.90215   1.90920   1.91114   1.91530
 Alpha virt. eigenvalues --    1.91695   1.91830   1.91893   1.92289   1.92481
 Alpha virt. eigenvalues --    1.92768   1.92821   1.93111   1.93128   1.93180
 Alpha virt. eigenvalues --    1.93394   1.93583   1.93984   1.94122   1.94382
 Alpha virt. eigenvalues --    1.94437   1.94680   1.95023   1.95121   1.95545
 Alpha virt. eigenvalues --    1.95629   1.95961   1.96248   1.96280   1.96428
 Alpha virt. eigenvalues --    1.96552   1.96801   1.96959   1.97327   1.97436
 Alpha virt. eigenvalues --    1.97946   1.98027   1.98159   1.98395   1.98599
 Alpha virt. eigenvalues --    1.98662   1.98863   1.98928   1.99181   1.99374
 Alpha virt. eigenvalues --    1.99539   1.99985   2.00121   2.00303   2.00705
 Alpha virt. eigenvalues --    2.01062   2.01388   2.01571   2.01813   2.02204
 Alpha virt. eigenvalues --    2.02283   2.02385   2.02762   2.02965   2.03419
 Alpha virt. eigenvalues --    2.03585   2.03784   2.03901   2.04345   2.04810
 Alpha virt. eigenvalues --    2.05037   2.05304   2.05681   2.05914   2.05966
 Alpha virt. eigenvalues --    2.06110   2.06416   2.07009   2.07124   2.07714
 Alpha virt. eigenvalues --    2.07990   2.08132   2.08234   2.08293   2.08854
 Alpha virt. eigenvalues --    2.08975   2.09197   2.09244   2.09586   2.09799
 Alpha virt. eigenvalues --    2.09828   2.10422   2.10452   2.10685   2.11058
 Alpha virt. eigenvalues --    2.11448   2.11563   2.12280   2.12564   2.12784
 Alpha virt. eigenvalues --    2.13217   2.13350   2.13405   2.13621   2.14010
 Alpha virt. eigenvalues --    2.14230   2.14326   2.14997   2.15167   2.15518
 Alpha virt. eigenvalues --    2.15860   2.15906   2.15948   2.16660   2.16992
 Alpha virt. eigenvalues --    2.17174   2.17369   2.17568   2.17629   2.18231
 Alpha virt. eigenvalues --    2.18753   2.18981   2.19274   2.19408   2.19730
 Alpha virt. eigenvalues --    2.19986   2.20149   2.20544   2.21153   2.21335
 Alpha virt. eigenvalues --    2.21615   2.21800   2.22273   2.23816   2.24139
 Alpha virt. eigenvalues --    2.24559   2.24939   2.24996   2.25395   2.25706
 Alpha virt. eigenvalues --    2.26080   2.26103   2.26460   2.26528   2.26919
 Alpha virt. eigenvalues --    2.27067   2.27533   2.27726   2.28452   2.28708
 Alpha virt. eigenvalues --    2.28876   2.28950   2.29668   2.29894   2.30257
 Alpha virt. eigenvalues --    2.30592   2.30744   2.31017   2.31233   2.31395
 Alpha virt. eigenvalues --    2.31758   2.31887   2.32184   2.32216   2.32472
 Alpha virt. eigenvalues --    2.32725   2.33278   2.33450   2.33830   2.33959
 Alpha virt. eigenvalues --    2.34785   2.35328   2.35480   2.35649   2.35688
 Alpha virt. eigenvalues --    2.36250   2.36628   2.37433   2.38053   2.38140
 Alpha virt. eigenvalues --    2.38434   2.38930   2.39100   2.39131   2.39475
 Alpha virt. eigenvalues --    2.40225   2.40386   2.40451   2.40842   2.41056
 Alpha virt. eigenvalues --    2.41309   2.41921   2.42164   2.42835   2.43105
 Alpha virt. eigenvalues --    2.43187   2.43891   2.43970   2.44580   2.45006
 Alpha virt. eigenvalues --    2.45240   2.45498   2.45852   2.46213   2.46520
 Alpha virt. eigenvalues --    2.46784   2.46822   2.48005   2.48296   2.49584
 Alpha virt. eigenvalues --    2.49728   2.49813   2.50204   2.50323   2.50813
 Alpha virt. eigenvalues --    2.51113   2.51214   2.51375   2.52032   2.52417
 Alpha virt. eigenvalues --    2.52505   2.52854   2.53254   2.53317   2.53608
 Alpha virt. eigenvalues --    2.53769   2.54298   2.55138   2.55616   2.55897
 Alpha virt. eigenvalues --    2.56007   2.56411   2.56774   2.57049   2.57299
 Alpha virt. eigenvalues --    2.57385   2.57629   2.58257   2.58362   2.58551
 Alpha virt. eigenvalues --    2.59295   2.59434   2.59577   2.59687   2.60264
 Alpha virt. eigenvalues --    2.60388   2.60429   2.60563   2.61000   2.61092
 Alpha virt. eigenvalues --    2.61311   2.61638   2.62026   2.62144   2.62871
 Alpha virt. eigenvalues --    2.63108   2.63532   2.63765   2.63889   2.64665
 Alpha virt. eigenvalues --    2.64925   2.65168   2.65431   2.65712   2.66027
 Alpha virt. eigenvalues --    2.66322   2.66529   2.67076   2.67177   2.67369
 Alpha virt. eigenvalues --    2.67610   2.67730   2.68349   2.68589   2.68850
 Alpha virt. eigenvalues --    2.69219   2.69225   2.69857   2.69953   2.70406
 Alpha virt. eigenvalues --    2.70766   2.71269   2.71489   2.71604   2.72082
 Alpha virt. eigenvalues --    2.72240   2.72338   2.72813   2.73033   2.73122
 Alpha virt. eigenvalues --    2.73239   2.73480   2.73907   2.74161   2.75138
 Alpha virt. eigenvalues --    2.75551   2.75844   2.75974   2.76191   2.76610
 Alpha virt. eigenvalues --    2.76886   2.77033   2.77368   2.77705   2.78182
 Alpha virt. eigenvalues --    2.78324   2.78505   2.78547   2.78769   2.79459
 Alpha virt. eigenvalues --    2.79648   2.79792   2.80088   2.80129   2.80329
 Alpha virt. eigenvalues --    2.80490   2.80507   2.80683   2.80994   2.81100
 Alpha virt. eigenvalues --    2.81252   2.81809   2.81947   2.82141   2.82425
 Alpha virt. eigenvalues --    2.82991   2.83299   2.83574   2.84337   2.84862
 Alpha virt. eigenvalues --    2.85124   2.85308   2.86010   2.86534   2.86793
 Alpha virt. eigenvalues --    2.86926   2.87002   2.87142   2.87381   2.87826
 Alpha virt. eigenvalues --    2.88037   2.88136   2.88980   2.89307   2.89604
 Alpha virt. eigenvalues --    2.89774   2.90079   2.90128   2.90196   2.90713
 Alpha virt. eigenvalues --    2.90817   2.91191   2.91535   2.91677   2.91960
 Alpha virt. eigenvalues --    2.92057   2.92267   2.92608   2.92710   2.92879
 Alpha virt. eigenvalues --    2.93359   2.93409   2.94093   2.94355   2.94520
 Alpha virt. eigenvalues --    2.95121   2.95427   2.95573   2.96456   2.96838
 Alpha virt. eigenvalues --    2.97450   2.97571   2.97814   2.98367   2.98577
 Alpha virt. eigenvalues --    2.98802   2.98951   2.99154   2.99230   2.99462
 Alpha virt. eigenvalues --    2.99979   3.00073   3.00210   3.00649   3.00998
 Alpha virt. eigenvalues --    3.01349   3.01435   3.01882   3.02199   3.02227
 Alpha virt. eigenvalues --    3.03044   3.03435   3.03470   3.03678   3.04335
 Alpha virt. eigenvalues --    3.05309   3.05571   3.05683   3.06190   3.07065
 Alpha virt. eigenvalues --    3.07448   3.09005   3.09496   3.09862   3.10469
 Alpha virt. eigenvalues --    3.11458   3.11902   3.12223   3.12867   3.12877
 Alpha virt. eigenvalues --    3.13762   3.14833   3.14872   3.14930   3.15007
 Alpha virt. eigenvalues --    3.15122   3.15376   3.15597   3.16243   3.16561
 Alpha virt. eigenvalues --    3.16821   3.17209   3.17404   3.17783   3.17848
 Alpha virt. eigenvalues --    3.18013   3.18224   3.18647   3.18960   3.19011
 Alpha virt. eigenvalues --    3.19254   3.19548   3.19975   3.19999   3.20275
 Alpha virt. eigenvalues --    3.20695   3.21413   3.21685   3.21885   3.22302
 Alpha virt. eigenvalues --    3.23346   3.23579   3.23764   3.24291   3.25636
 Alpha virt. eigenvalues --    3.26348   3.26610   3.26784   3.27957   3.28964
 Alpha virt. eigenvalues --    3.29793   3.30296   3.30411   3.33299   3.35092
 Alpha virt. eigenvalues --    3.35451   3.35806   3.35909   3.36934   3.37776
 Alpha virt. eigenvalues --    3.39679   3.41708   3.42267   3.44212   3.46083
 Alpha virt. eigenvalues --    3.49294   3.51435   3.52301   3.53486   3.53685
 Alpha virt. eigenvalues --    3.54818   3.54838   3.55157   3.56113   3.56841
 Alpha virt. eigenvalues --    3.57604   3.58095   3.58248   3.58801   3.61088
 Alpha virt. eigenvalues --    3.61142   3.62966   3.64100   3.65638   3.65970
 Alpha virt. eigenvalues --    3.66167   3.67278   3.67443   3.67692   3.67998
 Alpha virt. eigenvalues --    3.68037   3.68917   3.68960   3.69118   3.70221
 Alpha virt. eigenvalues --    3.70404   3.72076   3.72883   3.74254   3.74417
 Alpha virt. eigenvalues --    3.78209   3.79025   3.79821   3.81582
          Condensed to atoms (all electrons):
 Mulliken charges:
               1
     1  C    0.054170
     2  C    0.024475
     3  O   -0.300255
     4  H    0.041928
     5  H    0.036702
     6  H    0.009989
     7  N   -0.120241
     8  C    0.051986
     9  C    0.119160
    10  O   -0.269662
    11  C    0.103805
    12  C    0.108083
    13  O   -0.403827
    14  O   -0.414941
    15  H    0.117514
    16  H    0.007948
    17  H    0.004904
    18  H    0.009192
    19  N   -0.116506
    20  C    0.149926
    21  C    0.040548
    22  O   -0.266408
    23  C    0.014814
    24  C    0.038343
    25  C   -0.047015
    26  C    0.013893
    27  N    0.136583
    28  H    0.118803
    29  H   -0.001401
    30  H    0.022857
    31  H   -0.016191
    32  H    0.028003
    33  H   -0.040449
    34  H    0.027912
    35  H    0.063490
    36  H    0.060394
    37  H    0.081251
    38  H    0.137061
    39  H    0.141481
    40  H    0.156461
    41  N   -0.154482
    42  C    0.090125
    43  C    0.070300
    44  O   -0.287008
    45  C    0.174780
    46  C    0.081759
    47  O   -0.417792
    48  O   -0.442687
    49  H    0.153772
    50  H    0.017050
    51  H   -0.015249
    52  H    0.003704
    53  N   -0.190385
    54  C    0.227515
    55  C    0.002805
    56  O   -0.281681
    57  H    0.156899
    58  H    0.038871
    59  H    0.034599
    60  N   -0.140628
    61  C    0.115392
    62  C    0.087109
    63  O   -0.348162
    64  C    0.129798
    65  C   -0.018914
    66  N   -0.023888
    67  O   -0.278049
    68  H    0.154937
    69  H    0.012182
    70  H    0.007041
    71  H    0.003530
    72  H    0.128596
    73  H    0.138804
    74  N   -0.166801
    75  C    0.235556
    76  C    0.045560
    77  O   -0.280526
    78  H    0.136959
    79  H    0.043188
    80  H    0.055885
    81  N   -0.099567
    82  C    0.088580
    83  C    0.203408
    84  O   -0.350089
    85  C    0.143083
    86  C   -0.011036
    87  C   -0.008579
    88  C   -0.033025
    89  C    0.013700
    90  C   -0.027112
    91  C    0.174541
    92  O   -0.207196
    93  H    0.107366
    94  H   -0.024695
    95  H    0.001269
    96  H   -0.000120
    97  H   -0.033959
    98  H   -0.054692
    99  H   -0.009376
   100  H   -0.026514
   101  H    0.179626
   102  N   -0.146167
   103  C    0.106938
   104  C    0.095156
   105  O   -0.272811
   106  C   -0.103595
   107  C   -0.014667
   108  C    0.077045
   109  C    0.031209
   110  H    0.152568
   111  H    0.000615
   112  H    0.008035
   113  H    0.034083
   114  H    0.014177
   115  H    0.008318
   116  H   -0.016004
   117  H    0.001105
   118  H    0.040106
   119  H    0.025138
   120  H   -0.039738
   121  N   -0.130693
   122  C    0.071806
   123  C    0.092347
   124  O   -0.245051
   125  C    0.239451
   126  O   -0.316732
   127  H    0.109224
   128  H    0.027940
   129  H    0.002628
   130  H    0.008070
   131  H    0.195620
   132  N   -0.179242
   133  C    0.010419
   134  C    0.068359
   135  O   -0.243220
   136  C    0.105014
   137  H    0.152662
   138  H    0.020635
   139  H   -0.013848
   140  H    0.039659
   141  H    0.023964
   142  N   -0.097174
   143  C    0.053901
   144  C    0.054371
   145  O   -0.279993
   146  C    0.026916
   147  H    0.131804
   148  H   -0.005350
   149  H    0.041265
   150  H    0.017662
   151  H    0.019358
   152  N   -0.092797
   153  C    0.046118
   154  C    0.073353
   155  O   -0.283981
   156  C    0.076107
   157  C    0.035301
   158  C    0.034168
   159  O   -0.339009
   160  O   -0.375970
   161  H    0.109403
   162  H   -0.032893
   163  H   -0.020572
   164  H   -0.013355
   165  H   -0.018304
   166  H   -0.028992
   167  N   -0.146132
   168  C    0.121436
   169  H    0.024575
   170  H    0.029002
   171  H    0.045729
   172  H    0.109523
   173  Ca   1.331221
   174  O   -0.293427
   175  H    0.181158
   176  H    0.174203
 Sum of Mulliken charges =  -0.00000
 Mulliken charges with hydrogens summed into heavy atoms:
               1
     1  C    0.142789
     2  C    0.024475
     3  O   -0.300255
     7  N   -0.002727
     8  C    0.059935
     9  C    0.119160
    10  O   -0.269662
    11  C    0.117901
    12  C    0.108083
    13  O   -0.403827
    14  O   -0.414941
    19  N    0.002297
    20  C    0.148525
    21  C    0.040548
    22  O   -0.266408
    23  C    0.021480
    24  C    0.025897
    25  C    0.044387
    26  C    0.155539
    27  N    0.571586
    41  N   -0.000710
    42  C    0.107175
    43  C    0.070300
    44  O   -0.287008
    45  C    0.163234
    46  C    0.081759
    47  O   -0.417792
    48  O   -0.442687
    53  N   -0.033486
    54  C    0.300985
    55  C    0.002805
    56  O   -0.281681
    60  N    0.014309
    61  C    0.127574
    62  C    0.087109
    63  O   -0.348162
    64  C    0.140369
    65  C   -0.018914
    66  N    0.243513
    67  O   -0.278049
    74  N   -0.029842
    75  C    0.334629
    76  C    0.045560
    77  O   -0.280526
    81  N    0.007799
    82  C    0.063885
    83  C    0.203408
    84  O   -0.350089
    85  C    0.144231
    86  C   -0.011036
    87  C   -0.042538
    88  C   -0.087718
    89  C    0.004324
    90  C   -0.053626
    91  C    0.174541
    92  O   -0.027570
   102  N    0.006402
   103  C    0.107553
   104  C    0.095156
   105  O   -0.272811
   106  C   -0.095560
   107  C    0.033593
   108  C    0.070463
   109  C    0.056715
   121  N   -0.021469
   122  C    0.099745
   123  C    0.092347
   124  O   -0.245051
   125  C    0.250149
   126  O   -0.121113
   132  N   -0.026580
   133  C    0.031054
   134  C    0.068359
   135  O   -0.243220
   136  C    0.154789
   142  N    0.034630
   143  C    0.048551
   144  C    0.054371
   145  O   -0.279993
   146  C    0.105202
   152  N    0.016605
   153  C    0.013226
   154  C    0.073353
   155  O   -0.283981
   156  C    0.042180
   157  C   -0.011994
   158  C    0.034168
   159  O   -0.339009
   160  O   -0.375970
   167  N   -0.036609
   168  C    0.220742
   173  Ca   1.331221
   174  O    0.061934
 DipInt: DoE/N= T F RetVal/Mat= T F Init=T NMatP=  1 IDeriv=0 Min/MaxMlt=  0  4
 Entering OneElI...
 OneElI was handed  1333951383 working-precision words.
 Multipole integrals L=0 to 4 MinM= 0 MaxM= 0.
 Requested accuracy = 0.1000D-12
 ShPair: Thresh= 1.00D-13 NBox=     0 BxSize= 0.00D+00 RnKept= 2.70D+01
         NSMCal=               327645 NSMKep=              129014
 PrmmSu-InSpLW:  IPartL=    0 NPrtUS=    1 NPrtUL=    1 DoSpLW=F IThBeg=    0 IThEnd=    0 NThAct=    1.
 PrsmSu:  NPrtUS=   1 ThrOK=F IAlg=1 NPAlg=1 LenDen=           0 ISkipM=0 DoSpLW=F IThBeg=    0 IThEnd=    0.
 Prism:   IPart=     0 DynPar=F LinDyn=F Incr=         512.
 PRISM was handed  1325047867 working-precision words and129014 shell-pairs
 IPart=  0 NShTot=      129014 NBatch=         304 AvBLen=       424.4
 PrsmSu-ThDecC:  IPartSL=    0    0 NPrtUSL=    1    1 IThBeg=    0 IThEnd=    0 CPU=   -1 GPU=   -1 NThAct=    1.
 PrSmSu:  NxtVal=            513.
 Electronic moments (au):
       -716.00000000          8.28593824         -3.48631742         -1.89412994
     -93196.02177768     -35860.93363258     -12964.66255131       -148.71745078
        -14.87774888         98.38813917     447491.72660700     -27890.31768495
     -19354.92299743    -101150.40673579     195156.68366756      -7286.13265068
      -7670.60773896      15876.22553942       5954.23288729      -7324.95310056
  -21879721.98834780   -6331546.21561810    -600478.46803368   -1134765.56613448
    -171670.72976198     581260.06051840    -418306.95207415    -159769.83078838
     118922.96465853   -2994175.16150611   -2170739.45924558    -391746.12015817
     599866.34735153     340447.54355823     130937.53791181
 Electronic spatial extent (au):  <R**2>=         142021.6180
 DipInt: DoE/N= F T RetVal/Mat= T F Init=T NMatP=  1 IDeriv=0 Min/MaxMlt=  0  4
 Nuclear    moments (au):
        716.00000000         -0.00000000         -0.00000000         -0.00000000
      92558.09126281      35604.01331145      12539.67718141          0.00000000
          0.00000000         -0.00000000    -446366.20884019      24990.15550154
      19211.22357914     104025.03837996    -194566.03214165       8074.19329759
       8068.83301862     -15921.32514095      -7234.48225183       7222.61090027
   21486701.58071774    6278153.36832381     556682.99525375    1116889.28852043
     163431.49018054    -625007.73586138     441234.13745604     157651.70842962
    -116398.28177005    2908295.87730037    2107592.22149522     365594.41554656
    -588167.79369856    -343541.30528526    -130172.52001939
 Total      moments (au):
         -0.00000000          8.28593824         -3.48631742         -1.89412994
       -637.93051487       -256.92032112       -424.98536989       -148.71745078
        -14.87774888         98.38813917       1125.51776681      -2900.16218342
       -143.69941829       2874.63164417        590.65152591        788.06064691
        398.22527966        -45.09960153      -1280.24936454       -102.34220029
    -393020.40763006     -53392.84729430     -43795.47277993     -17876.27761405
      -8239.23958144     -43747.67534298      22927.18538189      -2118.12235876
       2524.68288848     -85879.28420574     -63147.23775036     -26151.70461160
      11698.55365297      -3093.76172703        765.01789243
 Traceless Quadrup. (au):
       -197.98511291        183.02508084         14.96003207       -148.71745078
        -14.87774888         98.38813917
 Charge=             -0.0000 electrons
 Dipole moment (field-independent basis, Debye):
    X=             21.0608    Y=             -8.8613    Z=             -4.8144  Tot=             23.3507
 Quadrupole moment (field-independent basis, Debye-Ang):
   XX=           -858.0384   YY=           -345.5666   ZZ=           -571.6199
   XY=           -200.0301   XZ=            -20.0111   YZ=            132.3354
 Traceless Quadrupole moment (field-independent basis, Debye-Ang):
   XX=           -266.2968   YY=            246.1750   ZZ=             20.1218
   XY=           -200.0301   XZ=            -20.0111   YZ=            132.3354
 Octapole moment (field-independent basis, Debye-Ang**2):
  XXX=            801.1002  YYY=          -2064.2237  ZZZ=           -102.2797  XYY=           2046.0521
  XXY=            420.4030  XXZ=            560.9112  XZZ=            283.4414  YZZ=            -32.1002
  YYZ=           -911.2322  XYZ=            -72.8432
 Hexadecapole moment (field-independent basis, Debye-Ang**3):
 XXXX=        -148030.3315 YYYY=         -20110.3066 ZZZZ=         -16495.4751 XXXY=          -6733.0633
 XXXZ=          -3103.2927 YYYX=         -16477.4723 YYYZ=           8635.4774 ZZZX=           -797.7864
 ZZZY=            950.9166 XXYY=         -32346.2565 XXZZ=         -23784.2777 YYZZ=          -9849.9860
 XXYZ=           4406.2363 YYXZ=          -1165.2590 ZZXY=            288.1424
 N-N= 1.955285070358D+04 E-N=-5.157602066970D+04  KE= 5.290596924676D+03
 Leave Link  601 at Wed Sep 18 11:26:44 2019, MaxMem=  1342177280 cpu:              38.2 elap:               1.0
 FitSet:  NAtFit=   176 NAtPot=   176 NAtFrz=     0 MDM=   180 TotChg=   0.00000
 Merz-Kollman atomic radii used.
 Read replacement radii for each type of atom:
 Rad(20) =   1.700000000000D+00
 Atom Element Radius
    1     6    1.50
    2     6    1.50
    3     8    1.40
    4     1    1.20
    5     1    1.20
    6     1    1.20
    7     7    1.50
    8     6    1.50
    9     6    1.50
   10     8    1.40
   11     6    1.50
   12     6    1.50
   13     8    1.40
   14     8    1.40
   15     1    1.20
   16     1    1.20
   17     1    1.20
   18     1    1.20
   19     7    1.50
   20     6    1.50
   21     6    1.50
   22     8    1.40
   23     6    1.50
   24     6    1.50
   25     6    1.50
   26     6    1.50
   27     7    1.50
   28     1    1.20
   29     1    1.20
   30     1    1.20
   31     1    1.20
   32     1    1.20
   33     1    1.20
   34     1    1.20
   35     1    1.20
   36     1    1.20
   37     1    1.20
   38     1    1.20
   39     1    1.20
   40     1    1.20
   41     7    1.50
   42     6    1.50
   43     6    1.50
   44     8    1.40
   45     6    1.50
   46     6    1.50
   47     8    1.40
   48     8    1.40
   49     1    1.20
   50     1    1.20
   51     1    1.20
   52     1    1.20
   53     7    1.50
   54     6    1.50
   55     6    1.50
   56     8    1.40
   57     1    1.20
   58     1    1.20
   59     1    1.20
   60     7    1.50
   61     6    1.50
   62     6    1.50
   63     8    1.40
   64     6    1.50
   65     6    1.50
   66     7    1.50
   67     8    1.40
   68     1    1.20
   69     1    1.20
   70     1    1.20
   71     1    1.20
   72     1    1.20
   73     1    1.20
   74     7    1.50
   75     6    1.50
   76     6    1.50
   77     8    1.40
   78     1    1.20
   79     1    1.20
   80     1    1.20
   81     7    1.50
[...]
 **** Fit      -0.009498
 **** Fit       0.002073
 **** Fit       0.002877
 **** Fit       0.003930
 **** Fit       0.005104
 **** Fit       0.006219
 **** Fit      -0.012850
 **** Fit      -0.008930
 **** Fit       0.002449
 **** Fit       0.003818
 **** Fit       0.005567
 **** Fit       0.007575
 **** Fit      -0.010785
 **** Fit      -0.007705
 **** Fit       0.001963
 **** Fit       0.003865
 **** Fit       0.000272
 **** Fit       0.000498
 **** Fit      -0.000330
 **** Fit       0.000064
 **** Fit       0.000339
 **** Fit       0.000513
 **** Fit       0.000637
 **** Fit       0.000792
 **** Fit      -0.001103
 **** Fit      -0.000504
 **** Fit      -0.000049
 **** Fit       0.000262
 **** Fit       0.000452
 **** Fit       0.000559
 **** Fit       0.000637
 **** Fit       0.000758
 **** Fit      -0.002212
 **** Fit      -0.001361
 **** Fit      -0.000693
 **** Fit      -0.000200
 **** Fit       0.000138
 **** Fit       0.000351
 **** Fit       0.000469
 **** Fit       0.000532
 **** Fit       0.000589
 **** Fit       0.000704
 **** Fit       0.000959
 **** Fit      -0.003275
 **** Fit      -0.002129
 **** Fit      -0.001264
 **** Fit      -0.000634
 **** Fit      -0.000193
 **** Fit       0.000095
 **** Fit       0.000266
 **** Fit       0.000358
 **** Fit       0.000410
 **** Fit       0.000475
 **** Fit       0.000617
 **** Fit       0.000915
 **** Fit      -0.004587
 **** Fit      -0.003091
 **** Fit      -0.002007
 **** Fit      -0.001232
 **** Fit      -0.000689
 **** Fit      -0.000323
 **** Fit      -0.000090
 **** Fit       0.000046
 **** Fit       0.000124
 **** Fit       0.000187
 **** Fit       0.000287
 **** Fit       0.000490
 **** Fit       0.000876
 **** Fit      -0.005741
 **** Fit      -0.003933
 **** Fit      -0.002680
 **** Fit      -0.001812
 **** Fit      -0.001215
 **** Fit      -0.000814
 **** Fit      -0.000555
 **** Fit      -0.000395
 **** Fit      -0.000294
 **** Fit      -0.000210
 **** Fit      -0.000089
 **** Fit       0.000132
 **** Fit       0.000536
 **** Fit       0.001226
 **** Fit      -0.006073
 **** Fit      -0.004206
 **** Fit      -0.002975
 **** Fit      -0.002160
 **** Fit      -0.001624
 **** Fit      -0.001277
 **** Fit      -0.001058
 **** Fit      -0.000917
 **** Fit      -0.000802
 **** Fit      -0.000657
 **** Fit      -0.000409
 **** Fit       0.000037
 **** Fit       0.000804
 **** Fit      -0.005846
 **** Fit      -0.004201
 **** Fit      -0.003167
 **** Fit      -0.002517
 **** Fit      -0.002110
 **** Fit      -0.001856
 **** Fit      -0.001687
 **** Fit      -0.001536
 **** Fit      -0.001331
 **** Fit      -0.000975
 **** Fit      -0.000338
 **** Fit       0.000758
 **** Fit      -0.005649
 **** Fit      -0.004360
 **** Fit      -0.003582
 **** Fit      -0.003114
 **** Fit      -0.002828
 **** Fit      -0.002632
 **** Fit      -0.002445
 **** Fit      -0.002172
 **** Fit      -0.001692
 **** Fit      -0.000832
 **** Fit       0.000657
 **** Fit      -0.006566
 **** Fit      -0.005242
 **** Fit      -0.004489
 **** Fit      -0.004063
 **** Fit      -0.003800
 **** Fit      -0.003572
 **** Fit      -0.003245
 **** Fit      -0.002645
 **** Fit      -0.001518
 **** Fit       0.000524
 **** Fit      -0.006265
 **** Fit      -0.005547
 **** Fit      -0.005148
 **** Fit      -0.004858
 **** Fit      -0.004484
 **** Fit      -0.003787
 **** Fit      -0.002411
 **** Fit      -0.003905
 **** Fit      -0.004827
 **** Fit      -0.002588
 **** Fit      -0.003101
 **** Fit      -0.004442
 **** Fit      -0.005439
 **** Fit      -0.001712
 **** Fit      -0.002413
 **** Fit      -0.003531
 **** Fit      -0.004972
 **** Fit      -0.006392
 **** Fit      -0.007236
 **** Fit      -0.007064
 **** Fit      -0.001157
 **** Fit      -0.001833
 **** Fit      -0.002774
 **** Fit      -0.004019
 **** Fit      -0.005526
 **** Fit      -0.007121
 **** Fit      -0.008504
 **** Fit      -0.009339
 **** Fit      -0.009384
 **** Fit      -0.000432
 **** Fit      -0.001000
 **** Fit      -0.001734
 **** Fit      -0.002708
 **** Fit      -0.003975
 **** Fit      -0.005535
 **** Fit      -0.007303
 **** Fit      -0.009095
 **** Fit      -0.010646
 **** Fit      -0.011675
 **** Fit      -0.011983
 **** Fit      -0.000034
 **** Fit      -0.000593
 **** Fit      -0.001278
 **** Fit      -0.002177
 **** Fit      -0.003360
 **** Fit      -0.004870
 **** Fit      -0.006694
 **** Fit      -0.008747
 **** Fit      -0.010848
 **** Fit      -0.012737
 **** Fit      -0.014126
 **** Fit      -0.014800
 **** Fit      -0.014680
 **** Fit       0.000315
 **** Fit      -0.000215
 **** Fit      -0.000841
 **** Fit      -0.001651
 **** Fit      -0.002723
 **** Fit      -0.004119
 **** Fit      -0.005869
 **** Fit      -0.007955
 **** Fit      -0.010293
 **** Fit      -0.012709
 **** Fit      -0.014945
 **** Fit      -0.016703
 **** Fit      -0.017740
 **** Fit      -0.017961
 **** Fit       0.000725
 **** Fit       0.000207
 **** Fit      -0.000385
 **** Fit      -0.001156
 **** Fit      -0.002197
 **** Fit      -0.003586
 **** Fit      -0.005379
 **** Fit      -0.007595
 **** Fit      -0.010192
 **** Fit      -0.013037
 **** Fit      -0.015890
 **** Fit      -0.018405
 **** Fit      -0.020222
 **** Fit      -0.021105
 **** Fit       0.000731
 **** Fit       0.000196
 **** Fit      -0.000506
 **** Fit      -0.001473
 **** Fit      -0.002797
 **** Fit      -0.004550
 **** Fit      -0.006780
 **** Fit      -0.009489
 **** Fit      -0.012600
 **** Fit      -0.015921
 **** Fit      -0.019122
 **** Fit      -0.021770
 **** Fit      -0.023472
 **** Fit       0.001260
 **** Fit       0.000735
 **** Fit      -0.000006
 **** Fit      -0.001070
 **** Fit      -0.002553
 **** Fit      -0.004537
 **** Fit      -0.007078
 **** Fit      -0.010173
 **** Fit      -0.013725
 **** Fit      -0.017488
 **** Fit      -0.021037
 **** Fit      -0.023839
 **** Fit       0.002265
 **** Fit       0.001746
 **** Fit       0.000924
 **** Fit      -0.000330
 **** Fit      -0.002133
 **** Fit      -0.004584
 **** Fit      -0.007729
 **** Fit      -0.011511
 **** Fit      -0.015694
 **** Fit      -0.019781
 **** Fit       0.003923
 **** Fit       0.003250
 **** Fit       0.002057
 **** Fit       0.000185
 **** Fit      -0.002497
 **** Fit      -0.006039
 **** Fit      -0.005020
 **** Fit      -0.006375
 **** Fit      -0.004956
 **** Fit      -0.003739
 **** Fit      -0.006599
 **** Fit      -0.007903
 **** Fit      -0.006536
 **** Fit      -0.005036
 **** Fit      -0.003714
 **** Fit      -0.008516
 **** Fit      -0.008697
 **** Fit      -0.009755
 **** Fit      -0.008361
 **** Fit      -0.006819
 **** Fit      -0.005328
 **** Fit      -0.004004
 **** Fit      -0.002873
 **** Fit      -0.010814
 **** Fit      -0.011182
 **** Fit      -0.010769
 **** Fit      -0.012116
 **** Fit      -0.010598
 **** Fit      -0.008907
 **** Fit      -0.007215
 **** Fit      -0.005650
 **** Fit      -0.004271
 **** Fit      -0.003066
 **** Fit      -0.013361
 **** Fit      -0.014027
 **** Fit      -0.013964
 **** Fit      -0.013286
 **** Fit      -0.015238
 **** Fit      -0.013533
 **** Fit      -0.011590
 **** Fit      -0.009592
 **** Fit      -0.007696
 **** Fit      -0.005998
 **** Fit      -0.004518
 **** Fit      -0.003215
 **** Fit      -0.017143
 **** Fit      -0.017555
 **** Fit      -0.017333
 **** Fit      -0.016540
 **** Fit      -0.019497
 **** Fit      -0.017599
 **** Fit      -0.015349
 **** Fit      -0.012961
 **** Fit      -0.010632
 **** Fit      -0.008503
 **** Fit      -0.006637
 **** Fit      -0.005023
 **** Fit      -0.003594
 **** Fit      -0.020432
 **** Fit      -0.021418
 **** Fit      -0.021810
 **** Fit      -0.021637
 **** Fit      -0.020869
 **** Fit      -0.025501
 **** Fit      -0.023221
 **** Fit      -0.020353
 **** Fit      -0.017228
 **** Fit      -0.014152
 **** Fit      -0.011337
 **** Fit      -0.008886
 **** Fit      -0.006801
 **** Fit      -0.005007
 **** Fit      -0.024903
 **** Fit      -0.026298
 **** Fit      -0.027183
 **** Fit      -0.027460
 **** Fit      -0.026938
 **** Fit      -0.019241
 **** Fit      -0.015414
 **** Fit      -0.012109
 **** Fit      -0.009340
 **** Fit      -0.007021
 **** Fit      -0.029932
 **** Fit      -0.016006
 **** Fit      -0.012261
 **** Fit      -0.009214
 **** Fit      -0.014451
 **** Fit       0.002521
 **** Fit      -0.001309
 **** Fit      -0.006061
 **** Fit       0.007865
 **** Fit       0.006737
 **** Fit       0.004931
 **** Fit       0.002311
 **** Fit      -0.001250
 **** Fit      -0.005847
 **** Fit      -0.011473
 **** Fit       0.007269
 **** Fit       0.006951
 **** Fit       0.006126
 **** Fit       0.004664
 **** Fit       0.002428
 **** Fit      -0.000723
 **** Fit      -0.004923
 **** Fit      -0.010268
 **** Fit       0.005870
 **** Fit       0.006074
 **** Fit       0.005837
 **** Fit       0.005040
 **** Fit       0.003549
 **** Fit       0.001220
 **** Fit      -0.002101
 **** Fit      -0.006561
 **** Fit      -0.012267
 **** Fit       0.003881
 **** Fit       0.004665
 **** Fit       0.005050
 **** Fit       0.004910
 **** Fit       0.004091
 **** Fit       0.002427
 **** Fit      -0.000259
 **** Fit      -0.004139
 **** Fit      -0.009364
 **** Fit       0.001890
 **** Fit       0.003201
 **** Fit       0.036824
 **** Fit       0.036310
 **** Fit       0.035861
 **** Fit       0.041351
 **** Fit       0.041294
 **** Fit       0.041408
 **** Fit       0.043913
 **** Fit       0.043978
 **** Fit       0.043971
 **** Fit       0.044320
 **** Fit       0.044696
 **** Fit       0.044630
 **** Fit       0.044280
 **** Fit       0.043950
 **** Fit       0.044042
 **** Fit       0.044024
 **** Fit       0.043789
 **** Fit       0.043020
 **** Fit       0.041933
 **** Fit       0.040855
 **** Fit       0.042257
 **** Fit       0.041805
 **** Fit       0.040581
 **** Fit       0.038721
 **** Fit       0.036469
 **** Fit       0.039432
 **** Fit       0.038482
 **** Fit       0.036414
 **** Fit       0.035342
 **** Fit       0.035620
 **** Fit       0.034181
 **** Fit       0.031164
 **** Fit       0.025599
 **** Fit       0.029855
 **** Fit       0.031159
 **** Fit       0.030056
 **** Fit       0.022923
 **** Fit       0.025773
 **** Fit       0.025558
 **** Fit       0.016058
 **** Fit       0.020046
 **** Fit       0.020432
 **** Fit       0.014317
 **** Fit       0.015485
 **** Fit       0.010936
 **** Fit       0.031960
 **** Fit       0.008018
 **** Fit       0.011545
 **** Fit       0.032351
 **** Fit       0.005643
 **** Fit       0.007803
 **** Fit       0.007465
 **** Fit       0.031982
 **** Fit       0.033370
 **** Fit       0.004702
 **** Fit       0.006447
 **** Fit       0.007484
 **** Fit       0.007215
 **** Fit       0.005085
 **** Fit       0.032968
 **** Fit       0.033966
 **** Fit       0.009074
 **** Fit       0.009221
 **** Fit       0.009255
 **** Fit       0.008674
 **** Fit       0.007148
 **** Fit       0.035119
 **** Fit       0.014109
 **** Fit       0.012950
 **** Fit       0.012306
 **** Fit       0.011729
 **** Fit       0.010949
 **** Fit       0.010035
 **** Fit       0.017653
 **** Fit       0.016269
 **** Fit       0.015473
 **** Fit       0.015032
 **** Fit       0.014952
 **** Fit       0.021553
 **** Fit       0.019991
 **** Fit       0.019296
 **** Fit       0.026268
 **** Fit       0.024225
 **** Fit       0.030971
 **** Fit       0.031510
 **** Fit       0.032566
 **** Fit       0.024776
 **** Fit       0.028564
 **** Fit       0.030442
 **** Fit       0.031760
 **** Fit       0.033281
 **** Fit       0.035348
 **** Fit       0.021575
 **** Fit       0.026211
 **** Fit       0.029095
 **** Fit       0.030997
 **** Fit       0.032681
 **** Fit       0.034561
 **** Fit       0.036739
 **** Fit       0.017859
 **** Fit       0.016752
 **** Fit       0.016443
 **** Fit       0.020145
 **** Fit       0.024255
 **** Fit       0.027562
 **** Fit       0.029924
 **** Fit       0.031773
 **** Fit       0.033474
 **** Fit       0.035089
 **** Fit       0.023096
 **** Fit       0.021310
 **** Fit       0.020113
 **** Fit       0.019375
 **** Fit       0.020799
 **** Fit       0.023537
 **** Fit       0.026571
 **** Fit       0.029088
 **** Fit       0.031021
 **** Fit       0.032523
 **** Fit       0.033489
 **** Fit       0.033508
 **** Fit       0.032221
 **** Fit       0.029844
 **** Fit       0.027153
 **** Fit       0.024859
 **** Fit       0.023202
 **** Fit       0.022089
 **** Fit       0.021285
 **** Fit       0.020468
 **** Fit       0.019615
 **** Fit       0.019442
 **** Fit       0.023790
 **** Fit       0.026129
 **** Fit       0.028600
 **** Fit       0.030434
 **** Fit       0.031324
 **** Fit       0.030884
 **** Fit       0.029115
 **** Fit       0.026857
 **** Fit       0.024991
 **** Fit       0.023736
 **** Fit       0.022920
 **** Fit       0.022702
 **** Fit       0.025866
 **** Fit       0.028037
 **** Fit       0.029314
 **** Fit       0.028332
 **** Fit       0.026327
 **** Fit       0.025202
 **** Fit       0.027310
 **** Fit       0.026381
 **** Fit       0.021467
 **** Fit       0.034289
 **** Fit       0.034577
 **** Fit       0.034200
 **** Fit       0.033065
 **** Fit       0.031171
 **** Fit       0.028518
 **** Fit       0.025007
 **** Fit       0.020475
 **** Fit       0.014825
 **** Fit       0.034193
 **** Fit       0.034098
 **** Fit       0.033689
 **** Fit       0.032797
 **** Fit       0.031321
 **** Fit       0.029191
 **** Fit       0.026336
 **** Fit       0.022698
 **** Fit       0.018316
 **** Fit       0.013426
 **** Fit       0.034520
 **** Fit       0.033838
 **** Fit       0.032946
 **** Fit       0.031671
 **** Fit       0.029899
 **** Fit       0.027556
 **** Fit       0.024626
 **** Fit       0.021198
 **** Fit       0.017531
 **** Fit       0.014079
 **** Fit       0.011404
 **** Fit       0.009939
 **** Fit       0.009739
 **** Fit       0.010450
 **** Fit       0.035214
 **** Fit       0.034045
 **** Fit       0.032833
 **** Fit       0.031334
 **** Fit       0.029403
 **** Fit       0.026989
 **** Fit       0.024163
 **** Fit       0.021167
 **** Fit       0.018411
 **** Fit       0.016353
 **** Fit       0.015279
 **** Fit       0.015139
 **** Fit       0.015627
 **** Fit       0.036042
 **** Fit       0.034384
 **** Fit       0.032845
 **** Fit       0.031128
 **** Fit       0.029082
 **** Fit       0.026713
 **** Fit       0.024211
 **** Fit       0.021935
 **** Fit       0.020280
 **** Fit       0.019474
 **** Fit       0.019480
 **** Fit       0.020140
 **** Fit       0.036382
 **** Fit       0.034301
 **** Fit       0.032392
 **** Fit       0.030360
 **** Fit       0.028145
 **** Fit       0.025958
 **** Fit       0.024201
 **** Fit       0.023251
 **** Fit       0.023262
 **** Fit       0.035859
 **** Fit       0.033406
 **** Fit       0.031063
 **** Fit       0.028808
 **** Fit       0.027102
 **** Fit       0.026581
 **** Fit       0.027675
 **** Fit       0.034727
 **** Fit       0.031924
 **** Fit       0.029941
 **** Fit       0.030597
 **** Fit       0.032966
 -----------------------------------------------------------------
 Leave Link  602 at Wed Sep 18 11:26:47 2019, MaxMem=  1342177280 cpu:             133.7 elap:               2.8

 Test job not archived.
 1\1\GINC-C502-021\SP\RB3LYP\SVP\C54H83Ca1N15O23\PENGZHI\18-Sep-2019\0\
 \#b3lyp/svp scf=(tight,noincore) Test #IOP(5/87=12) Density=Current Po
 p=(MK,readradii) iop(6/33=2) iop(6/42=6)\\Ng-295_loop3_5.0\\0,1\C,0,86
 .5,48.72,76.84\C,0,86.86,48.04,78.15\O,0,87.71,48.56,78.88\H,0,85.662,
 49.398,77.002\H,0,87.358,49.285,76.475\H,0,86.22,47.967,76.104\N,0,86.
 13,46.99,78.54\C,0,86.5,46.21,79.7\C,0,87.79,45.4,79.65\O,0,88.2,44.9,
 78.6\C,0,85.26,45.45,80.16\C,0,85.38,44.82,81.54\O,0,84.59,45.18,82.44
 \O,0,85.97,43.72,81.54\H,0,85.53,46.61,77.82\H,0,86.54,46.96,80.5\H,0,
 85.12,44.71,79.36\H,0,84.43,46.15,80.14\N,0,88.38,45.12,80.81\C,0,89.6
 1,44.35,80.88\C,0,89.39,42.9,80.5\O,0,90.06,42.43,79.57\C,0,90.19,44.3
 6,82.29\C,0,91.63,43.97,82.62\C,0,92.67,44.98,82.14\C,0,94.1,44.52,82.
 44\N,0,94.42,44.15,83.83\H,0,87.99,45.52,81.65\H,0,90.34,44.77,80.19\H
 ,0,89.47,43.83,82.92\H,0,90.14,45.4,82.58\H,0,91.79,42.95,82.29\H,0,91
 .78,44.03,83.7\H,0,92.54,45.96,82.59\H,0,92.51,45.03,81.07\H,0,94.65,4
 5.42,82.17\H,0,94.38,43.78,81.69\H,0,95.42,44.15,83.94\H,0,94.,44.83,8
 4.44\H,0,94.06,43.22,84.01\N,0,88.45,42.2,81.15\C,0,88.03,40.84,80.87\
 C,0,87.,40.75,79.75\O,0,86.75,39.7,79.15\C,0,87.57,40.06,82.1\C,0,86.5
 6,40.91,82.85\O,0,85.37,40.71,82.51\O,0,86.97,41.8,83.63\H,0,87.87,42.
 76,81.75\H,0,88.91,40.29,80.56\H,0,88.36,39.82,82.81\H,0,87.13,39.13,8
 1.76\N,0,86.39,41.88,79.42\C,0,85.5,42.1,78.29\C,0,84.01,41.97,78.58\O
 ,0,83.19,42.04,77.67\H,0,86.49,42.66,80.06\H,0,85.73,41.32,77.57\H,0,8
 5.67,43.02,77.73\N,0,83.67,41.63,79.82\C,0,82.28,41.67,80.23\C,0,82.07
 ,42.84,81.17\O,0,82.93,43.03,82.03\C,0,81.78,40.37,80.86\C,0,81.62,39.
 32,79.77\N,0,82.49,38.31,79.72\O,0,80.62,39.31,79.05\H,0,84.4,41.55,80
 .51\H,0,81.63,41.96,79.41\H,0,80.8,40.54,81.3\H,0,82.55,39.99,81.52\H,
 0,83.26,38.39,80.37\H,0,82.18,37.54,79.14\N,0,81.02,43.66,81.03\C,0,80
 .94,44.96,81.68\C,0,80.85,44.9,83.2\O,0,81.08,45.89,83.9\H,0,80.27,43.
 27,80.49\H,0,80.09,45.5,81.28\H,0,81.82,45.52,81.37\N,0,80.4,43.78,83.
 77\C,0,80.25,43.54,85.19\C,0,81.5,43.88,85.99\O,0,82.55,43.66,85.4\C,0
 ,79.75,42.12,85.46\C,0,78.39,41.82,84.88\C,0,77.3,42.21,85.67\C,0,78.1
 9,41.29,83.61\C,0,75.99,41.99,85.22\C,0,76.89,41.06,83.12\C,0,75.81,41
 .42,83.95\O,0,74.52,41.29,83.52\H,0,80.34,42.96,83.18\H,0,79.57,44.28,
 85.61\H,0,79.65,42.01,86.54\H,0,80.39,41.35,85.05\H,0,77.55,42.72,86.5
 9\H,0,79.05,41.05,83.01\H,0,75.11,42.34,85.75\H,0,76.8,40.61,82.14\H,0
 ,74.41,40.94,82.63\N,0,81.22,44.38,87.2\C,0,82.19,44.58,88.26\C,0,83.0
 4,43.41,88.7\O,0,83.32,42.44,88.\C,0,83.05,45.83,88.06\C,0,82.2,46.96,
 87.5\C,0,84.31,45.7,87.2\C,0,81.01,47.3,88.4\H,0,80.27,44.69,87.36\H,0
 ,81.56,44.8,89.12\H,0,83.42,46.13,89.04\H,0,81.83,46.7,86.5\H,0,82.81,
 47.87,87.52\H,0,85.14,45.14,87.62\H,0,84.03,45.36,86.21\H,0,84.81,46.6
 2,86.92\H,0,81.21,47.33,89.47\H,0,80.73,48.28,88.02\H,0,80.25,46.55,88
 .17\N,0,83.4,43.45,89.99\C,0,83.98,42.39,90.79\C,0,83.09,42.,91.96\O,0
 ,83.05,40.81,92.23\C,0,85.37,42.79,91.27\O,0,85.3,43.94,92.1\H,0,83.05
 ,44.23,90.52\H,0,84.14,41.53,90.13\H,0,86.03,42.98,90.42\H,0,85.76,41.
 98,91.88\H,0,86.21,44.08,92.37\N,0,82.41,43.,92.53\C,0,81.5,42.86,93.6
 4\C,0,82.07,42.06,94.81\O,0,81.4,41.15,95.28\C,0,80.15,42.5,93.03\H,0,
 82.74,43.93,92.28\H,0,81.42,43.88,94.02\H,0,79.95,43.09,92.14\H,0,80.1
 8,41.45,92.74\H,0,79.42,42.67,93.82\N,0,83.24,42.34,95.39\C,0,84.06,43
 .53,95.33\C,0,83.6,44.61,96.3\O,0,83.35,44.4,97.49\C,0,85.46,43.03,95.
 65\H,0,83.49,41.77,96.19\H,0,84.04,43.99,94.35\H,0,86.27,43.74,95.52\H
 ,0,85.47,42.73,96.7\H,0,85.69,42.11,95.1\N,0,83.46,45.87,95.88\C,0,83.
 36,46.38,94.53\C,0,82.48,47.61,94.32\O,0,81.97,47.79,93.22\C,0,84.78,4
 6.62,94.\C,0,85.52,47.72,94.75\C,0,86.91,48.03,94.2\O,0,87.29,49.21,94
 .26\O,0,87.66,47.14,93.75\H,0,83.33,46.49,96.66\H,0,82.93,45.63,93.87\
 H,0,84.55,46.86,92.97\H,0,85.28,45.65,94.\H,0,85.71,47.32,95.75\H,0,84
 .92,48.63,94.83\N,0,82.08,48.3,95.39\C,0,81.18,49.43,95.39\H,0,80.257,
 49.159,95.903\H,0,81.649,50.269,95.905\H,0,80.953,49.715,94.363\H,0,82
 .66,48.18,96.2\Ca,0,84.71,43.09,83.92\O,0,83.98,40.63,84.79\H,0,84.39,
 39.88,84.36\H,0,83.44,40.25,85.48\\Version=ES64L-G16RevA.03\State=1-A\
 HF=-5333.4169269\RMSD=1.140e-09\Dipole=5.4993966,-1.7308367,-7.1526045
 \Quadrupole=264.7983341,-38.7092259,-226.0891082,-33.6139843,-45.98765
 48,-62.1876969\PG=C01 [X(C54H83Ca1N15O23)]\\@


 BE CAREFUL NOT TO BECOME TOO GOOD OF A SONGBIRD OR 
 THEY'LL THROW YOU INTO A CAGE.

                                    -- SNOOPY TO WOODSTOCK
 Job cpu time:       0 days 16 hours 55 minutes 22.1 seconds.
 Elapsed time:       0 days  0 hours 21 minutes 25.5 seconds.
 File lengths (MBytes):  RWF=   1517 Int=      0 D2E=      0 Chk=    171 Scr=      1
 Normal termination of Gaussian 16 at Wed Sep 18 11:26:48 2019.
