 Entering Gaussian System, Link 0=g16
 Initial command:
 /home1/apps/gaussian/16rA.03/g16/l1.exe "/scratch/01990/pengzhi/4342287/Gau-210882.inp" -scrdir="/scratch/01990/pengzhi/4342287/"
 Entering Link 1 = /home1/apps/gaussian/16rA.03/g16/l1.exe PID=    210883.
  
 Copyright (c) 1988,1990,1992,1993,1995,1998,2003,2009,2016,
            Gaussian, Inc.  All Rights Reserved.
  
 This is part of the Gaussian(R) 16 program.  It is based on
 the Gaussian(R) 09 system (copyright 2009, Gaussian, Inc.),
 the Gaussian(R) 03 system (copyright 2003, Gaussian, Inc.),
 the Gaussian(R) 98 system (copyright 1998, Gaussian, Inc.),
 the Gaussian(R) 94 system (copyright 1995, Gaussian, Inc.),
 the Gaussian 92(TM) system (copyright 1992, Gaussian, Inc.),
 the Gaussian 90(TM) system (copyright 1990, Gaussian, Inc.),
 the Gaussian 88(TM) system (copyright 1988, Gaussian, Inc.),
 the Gaussian 86(TM) system (copyright 1986, Carnegie Mellon
 University), and the Gaussian 82(TM) system (copyright 1983,
 Carnegie Mellon University). Gaussian is a federally registered
 trademark of Gaussian, Inc.
  
 This software contains proprietary and confidential information,
 including trade secrets, belonging to Gaussian, Inc.
  
 This software is provided under written license and may be
 used, copied, transmitted, or stored only in accord with that
 written license.
  
 The following legend is applicable only to US Government
 contracts under FAR:
  
                    RESTRICTED RIGHTS LEGEND
  
 Use, reproduction and disclosure by the US Government is
 subject to restrictions as set forth in subparagraphs (a)
 and (c) of the Commercial Computer Software - Restricted
 Rights clause in FAR 52.227-19.
  
 Gaussian, Inc.
 340 Quinnipiac St., Bldg. 40, Wallingford CT 06492
  
  
 ---------------------------------------------------------------
 Warning -- This program may not be used in any manner that
 competes with the business of Gaussian, Inc. or will provide
 assistance to any competitor of Gaussian, Inc.  The licensee
 of this program is prohibited from giving any competitor of
 Gaussian, Inc. access to this program.  By using this program,
 the user acknowledges that Gaussian, Inc. is engaged in the
 business of creating and licensing software in the field of
 computational chemistry and represents and warrants to the
 licensee that it is not a competitor of Gaussian, Inc. and that
 it will not use this program in any manner prohibited above.
 ---------------------------------------------------------------
  

 Cite this work as:
 Gaussian 16, Revision A.03,
 M. J. Frisch, G. W. Trucks, H. B. Schlegel, G. E. Scuseria, 
 M. A. Robb, J. R. Cheeseman, G. Scalmani, V. Barone, 
 G. A. Petersson, H. Nakatsuji, X. Li, M. Caricato, A. V. Marenich, 
 J. Bloino, B. G. Janesko, R. Gomperts, B. Mennucci, H. P. Hratchian, 
 J. V. Ortiz, A. F. Izmaylov, J. L. Sonnenberg, D. Williams-Young, 
 F. Ding, F. Lipparini, F. Egidi, J. Goings, B. Peng, A. Petrone, 
 T. Henderson, D. Ranasinghe, V. G. Zakrzewski, J. Gao, N. Rega, 
 G. Zheng, W. Liang, M. Hada, M. Ehara, K. Toyota, R. Fukuda, 
 J. Hasegawa, M. Ishida, T. Nakajima, Y. Honda, O. Kitao, H. Nakai, 
 T. Vreven, K. Throssell, J. A. Montgomery, Jr., J. E. Peralta, 
 F. Ogliaro, M. J. Bearpark, J. J. Heyd, E. N. Brothers, K. N. Kudin, 
 V. N. Staroverov, T. A. Keith, R. Kobayashi, J. Normand, 
 K. Raghavachari, A. P. Rendell, J. C. Burant, S. S. Iyengar, 
 J. Tomasi, M. Cossi, J. M. Millam, M. Klene, C. Adamo, R. Cammi, 
 J. W. Ochterski, R. L. Martin, K. Morokuma, O. Farkas, 
 J. B. Foresman, and D. J. Fox, Gaussian, Inc., Wallingford CT, 2016.
 
 ******************************************
 Gaussian 16:  ES64L-G16RevA.03 25-Dec-2016
                17-Sep-2019 
 ******************************************
 %chk=Ng-293_loop3_2.0.chk
 %nprocshared=48
 Will use up to   48 processors via shared memory.
 %mem=10GB
 %nosave
 ----------------------------------------------------------------------
 #b3lyp/svp scf=(tight,noincore) Test #IOP(5/87=12) Density=Current Pop
 =(MK,readradii) iop(6/33=2) iop(6/42=6)
 ----------------------------------------------------------------------
 1/30=1,38=1,172=1/1;
 2/12=2,17=6,18=5,40=1/2;
 3/5=18,7=101,11=2,25=1,30=1,74=-5/1,2,3;
 4//1;
 5/5=4,32=2,38=5,87=12/2;
 6/7=2,8=2,9=2,10=2,15=8,20=101,22=-1,28=1,33=2,42=6/1,2;
 99/5=1,9=1/99;
 ----------------
 Ng-293_loop3_2.0
 ----------------
 Symbolic Z-matrix:
 Charge =  0 Multiplicity = 1
 C                     39.62     7.95      7.96 
 C                     38.5      8.68      7.22 
 O                     37.6      8.04      6.68 
 H                     40.467    8.624     8.092 
 H                     39.26     7.624     8.936 
 H                     39.934    7.082     7.38 
 N                     38.58     10.       7.12 
 C                     37.61     10.73     6.32 
 C                     36.48     11.24     7.2 
 O                     36.63     11.25     8.42 
 C                     38.26     11.84     5.5 
 C                     39.49     11.5      4.66 
 O                     39.99     12.43     4. 
 O                     40.06     10.39     4.68 
 H                     39.23     10.51     7.7 
 H                     37.12     10.1      5.58 
 H                     38.55     12.59     6.24 
 H                     37.51     12.29     4.85 
 N                     35.37     11.68     6.61 
 C                     34.16     12.16     7.25 
 C                     34.37     13.43     8.07 
 O                     33.37     14.01     8.48 
 C                     33.31     11.05     7.84 
 C                     32.86     9.96      6.87 
 C                     33.71     8.7       7.01 
 C                     34.2      8.31      5.61 
 N                     35.01     7.08      5.7 
 H                     35.36     11.59     5.6 
 H                     33.56     12.56     6.43 
 H                     32.38     11.44     8.26 
 H                     33.76     10.65     8.76 
 H                     32.94     10.33     5.84 
 H                     31.81     9.72      7.04 
 H                     32.92     8.        7.28 
 H                     34.51     8.82      7.73 
 H                     34.77     9.13      5.18 
 H                     33.36     8.18      4.93 
 H                     35.78     7.17      6.35 
 H                     34.42     6.31      5.97 
 H                     35.35     6.84      4.78 
 N                     35.57     13.81     8.52 
 C                     35.9      14.98     9.3 
 C                     37.21     15.54     8.79 
 O                     38.07     14.86     8.23 
 C                     36.01     14.58     10.77 
 C                     36.13     15.66     11.83 
 O                     36.83     16.69     11.67 
 O                     35.53     15.59     12.92 
 H                     36.33     13.24     8.17 
 H                     35.25     15.85     9.19 
 H                     36.67     13.72     10.92 
 H                     35.06     14.07     10.95 
 N                     37.45     16.82     9.11 
 C                     38.68     17.55     8.88 
 C                     38.73     18.76     9.8 
 O                     37.94     19.67     9.54 
 H                     36.73     17.44     9.44 
 H                     38.8      17.78     7.82 
 H                     39.46     16.84     9.15 
 N                     39.64     18.84     10.78 
 C                     40.       20.01     11.54 
 C                     40.82     21.09     10.86 
 O                     41.29     22.05     11.47 
 C                     40.52     19.63     12.92 
 C                     39.52     18.68     13.57 
 N                     39.95     17.6      14.23 
 O                     38.32     18.83     13.39 
 H                     40.16     17.97     10.82 
 H                     39.11     20.6      11.76 
 H                     40.56     20.56     13.48 
 H                     41.49     19.15     12.79 
 H                     40.89     17.61     14.6 
 H                     39.19     17.09     14.65 
 N                     41.07     21.03     9.55 
 C                     41.86     21.98     8.78 
 C                     43.35     22.02     9.1 
 O                     44.04     21.       9.13 
 H                     40.89     20.14     9.1 
 H                     41.31     22.91     8.94 
 H                     41.91     21.74     7.72 
 N                     43.86     23.22     9.38 
 C                     45.13     23.45     10.05 
 C                     45.33     22.69     11.36 
 O                     46.46     22.61     11.83 
 C                     46.29     23.38     9.06 
 C                     46.38     24.45     7.99 
 C                     45.8      24.19     6.75 
 C                     46.95     25.7      8.26 
 C                     45.74     25.2      5.78 
 C                     46.96     26.67     7.25 
 C                     46.29     26.47     6.03 
 O                     46.35     27.4      5.03 
 H                     43.36     23.99     8.97 
 H                     45.2      24.48     10.41 
 H                     46.14     22.38     8.65 
 H                     47.26     23.36     9.55 
 H                     45.37     23.22     6.55 
 H                     47.32     25.86     9.26 
 H                     45.28     24.9      4.85 
 H                     47.29     27.68     7.44 
 H                     46.31     28.3      5.35 
 N                     44.29     22.13     11.98 
 C                     44.28     21.38     13.22 
 C                     44.44     22.29     14.43 
 O                     43.46     22.47     15.14 
 C                     45.2      20.16     13.19 
 C                     44.78     19.2      12.08 
 C                     45.34     19.47     14.55 
 C                     45.92     18.35     11.54 
 H                     43.41     22.27     11.5 
 H                     43.24     21.06     13.19 
 H                     46.22     20.51     13.03 
 H                     44.31     19.78     11.29 
 H                     43.95     18.56     12.4 
 H                     46.22     18.83     14.56 
 H                     45.53     20.15     15.39 
 H                     44.53     18.79     14.83 
 H                     46.75     19.01     11.28 
 H                     46.33     17.71     12.32 
 H                     45.57     17.73     10.71 
 N                     45.62     22.89     14.6 
 C                     45.84     23.81     15.7 
 C                     46.       23.21     17.08 
 O                     45.74     23.84     18.11 
 C                     47.14     24.53     15.36 
 O                     46.94     25.41     14.27 
 H                     46.31     22.76     13.87 
 H                     44.99     24.5      15.7 
 H                     47.93     23.81     15.14 
 H                     47.46     25.2      16.16 
 H                     47.81     25.65     13.96 
 N                     46.32     21.91     17.15 
 C                     46.48     21.11     18.35 
 C                     45.29     21.19     19.29 
 O                     45.47     21.15     20.51 
 C                     47.83     21.35     19.02 
 H                     46.76     21.5      16.34 
 H                     46.4      20.07     18.02 
 H                     48.51     21.43     18.17 
 H                     47.88     22.22     19.67 
 H                     48.12     20.45     19.57 
 N                     44.09     21.01     18.75 
 C                     42.77     20.98     19.35 
 C                     41.99     19.75     18.9 
 O                     42.51     18.98     18.1 
 C                     42.13     22.27     18.85 
 H                     43.97     21.18     17.76 
 H                     42.83     20.85     20.43 
 H                     42.42     23.08     19.52 
 H                     42.51     22.47     17.85 
 H                     41.05     22.15     18.84 
 N                     40.8      19.49     19.43 
 C                     39.92     18.36     19.19 
 C                     40.54     17.03     19.61 
 O                     39.96     16.       19.28 
 C                     39.35     18.3      17.77 
 C                     37.99     17.61     17.75 
 C                     37.37     17.72     16.36 
 O                     37.63     16.86     15.49 
 O                     36.61     18.68     16.1 
 H                     40.3      20.25     19.87 
 H                     39.14     18.48     19.94 
 H                     40.01     17.75     17.11 
 H                     39.25     19.3      17.33 
 H                     37.36     17.93     18.57 
 H                     38.17     16.56     17.97 
 N                     41.62     16.96     20.38 
 C                     42.5      15.81     20.5 
 H                     43.424    16.11     20.994 
 H                     42.009    15.036    21.089 
 H                     42.729    15.422    19.508 
 H                     42.08     17.83     20.62 
 Ca                    35.8      18.11     13.72 
 O                     34.45     20.01     14.79 
 H                     34.29     20.9      14.47 
 H                     34.63     20.12     15.72 
 
 Stoichiometry    C54H83CaN15O23
 Framework group  C1[X(C54H83CaN15O23)]
 Deg. of freedom   522
 Full point group                 C1      NOp   1
 Largest Abelian subgroup         C1      NOp   1
 Largest concise Abelian subgroup C1      NOp   1
                         Standard orientation:                         
 ---------------------------------------------------------------------
 Center     Atomic      Atomic             Coordinates (Angstroms)
 Number     Number       Type             X           Y           Z
 ---------------------------------------------------------------------
      1          6           0        9.528573    0.136259    5.482659
      2          6           0        9.972124    0.644152    4.111453
      3          8           0       11.163051    0.633342    3.806865
      4          1           0        8.524969    0.504088    5.698505
      5          1           0        9.523591   -0.953891    5.483484
      6          1           0       10.219032    0.497073    6.245220
      7          7           0        9.047739    1.158453    3.311573
      8          6           0        9.434226    1.769942    2.050418
      9          6           0        9.316599    0.761120    0.919117
     10          8           0        8.683015   -0.275573    1.105774
     11          6           0        8.658938    3.053997    1.772695
     12          6           0        8.583901    4.111724    2.872551
     13          8           0        7.947213    5.148548    2.607742
     14          8           0        9.033885    3.948929    4.025118
     15          1           0        8.069635    1.010967    3.512968
     16          1           0       10.478194    2.077467    2.037833
     17          1           0        7.642632    2.716010    1.555700
     18          1           0        9.051879    3.520353    0.869584
     19          7           0        9.890870    1.050857   -0.247101
     20          6           0        9.945704    0.220684   -1.435337
     21          6           0        8.574395   -0.058517   -2.044399
     22          8           0        8.544284   -0.583073   -3.152747
     23          6           0       10.935008   -0.924605   -1.324470
     24          6           0       12.381046   -0.537113   -1.023935
     25          6           0       12.726309   -0.759016    0.446186
     26          6           0       13.348662    0.537136    0.979914
     27          7           0       13.717502    0.355612    2.396990
     28          1           0       10.408853    1.922506   -0.262010
     29          1           0       10.365531    0.873801   -2.203180
     30          1           0       10.994389   -1.492091   -2.256046
     31          1           0       10.554447   -1.717047   -0.664083
     32          1           0       12.535601    0.521207   -1.269436
     33          1           0       13.059768   -1.111403   -1.655225
     34          1           0       13.537424   -1.474759    0.316555
     35          1           0       11.875214   -1.099230    1.022980
     36          1           0       12.647567    1.358664    0.854388
     37          1           0       14.211297    0.825270    0.381801
     38          1           0       12.935310    0.058869    2.965865
     39          1           0       14.465948   -0.314583    2.464585
     40          1           0       14.105024    1.218284    2.750861
     41          7           0        7.438030    0.054232   -1.349515
     42          6           0        6.087525   -0.179413   -1.805306
     43          6           0        5.190847    0.881800   -1.205644
     44          8           0        5.435890    1.463492   -0.148672
     45          6           0        5.652107   -1.576460   -1.367502
     46          6           0        4.357299   -2.157366   -1.906408
     47          8           0        3.316446   -1.470299   -2.051546
     48          8           0        4.256372   -3.352098   -2.246154
     49          1           0        7.568460    0.448207   -0.426058
     50          1           0        5.890295   -0.035318   -2.869184
     51          1           0        5.818955   -1.749932   -0.299902
     52          1           0        6.459581   -2.207819   -1.747465
     53          7           0        4.018252    1.062221   -1.830839
     54          6           0        2.922637    1.897965   -1.383781
     55          6           0        1.638188    1.458001   -2.069070
     56          8           0        1.557868    1.701477   -3.274918
     57          1           0        3.839377    0.714532   -2.757562
     58          1           0        3.166225    2.954171   -1.510251
     59          1           0        2.864061    1.702573   -0.314299
     60          7           0        0.637991    0.910152   -1.365957
     61          6           0       -0.720367    0.704371   -1.800257
     62          6           0       -1.631870    1.910996   -1.920342
     63          8           0       -2.837879    1.812498   -2.144927
     64          6           0       -1.358689   -0.469575   -1.069782
     65          6           0       -0.424346   -1.670180   -1.172502
     66          7           0       -0.201949   -2.442246   -0.104160
     67          8           0        0.220803   -1.864168   -2.192821
     68          1           0        0.938960    0.785245   -0.405376
     69          1           0       -0.734366    0.389212   -2.843846
     70          1           0       -2.281334   -0.675809   -1.604847
     71          1           0       -1.506424   -0.174944   -0.030760
     72          1           0       -0.898476   -2.456360    0.627449
     73          1           0        0.392643   -3.224637   -0.324214
     74          7           0       -1.146595    3.146332   -1.776627
     75          6           0       -1.910281    4.384117   -1.841221
     76          6           0       -2.912688    4.607061   -0.714466
     77          8           0       -2.597175    4.502494    0.471670
     78          1           0       -0.222723    3.219712   -1.366657
     79          1           0       -2.325494    4.338486   -2.850437
     80          1           0       -1.298532    5.275164   -1.716733
     81          7           0       -4.162242    4.889076   -1.085385
     82          6           0       -5.330557    4.783392   -0.225984
     83          6           0       -5.492985    3.450631    0.502757
     84          8           0       -6.277088    3.383376    1.443427
     85          6           0       -5.488807    6.033239    0.636247
     86          6           0       -5.812149    7.341847   -0.057219
     87          6           0       -4.754514    8.177622   -0.410048
     88          6           0       -7.125766    7.667883   -0.415564
     89          6           0       -4.996579    9.328801   -1.172145
     90          6           0       -7.361116    8.866055   -1.101198
     91          6           0       -6.304133    9.672069   -1.559922
     92          8           0       -6.543846   10.865907   -2.181041
     93          1           0       -4.239736    5.320962   -1.990078
     94          1           0       -6.250982    4.795976   -0.815949
     95          1           0       -4.522468    6.047699    1.142782
     96          1           0       -6.234474    5.912887    1.417846
     97          1           0       -3.746262    7.920222   -0.121996
     98          1           0       -7.889336    6.946297   -0.173128
     99          1           0       -4.115877    9.915615   -1.387813
    100          1           0       -8.337084    9.111122   -1.491747
    101          1           0       -7.294029   10.838322   -2.773041
    102          7           0       -4.796019    2.381171    0.115338
    103          6           0       -4.817039    1.043946    0.673540
    104          6           0       -6.081897    0.291096    0.284761
    105          8           0       -5.976594   -0.615455   -0.530086
    106          6           0       -4.463232    1.009294    2.159918
    107          6           0       -3.062674    1.571063    2.390034
    108          6           0       -4.663414   -0.367007    2.801029
    109          6           0       -2.863856    2.176933    3.771010
    110          1           0       -4.189077    2.558802   -0.674895
    111          1           0       -3.998901    0.627492    0.088632
    112          1           0       -5.206668    1.597843    2.697889
    113          1           0       -2.854816    2.295036    1.606415
    114          1           0       -2.293479    0.815431    2.194437
    115          1           0       -4.711158   -0.275706    3.884304
    116          1           0       -5.619362   -0.848773    2.559857
    117          1           0       -3.859583   -1.092315    2.643912
    118          1           0       -3.673750    2.885009    3.957559
    119          1           0       -2.991752    1.423786    4.547227
    120          1           0       -1.865022    2.614535    3.852463
    121          7           0       -7.236545    0.713662    0.803919
    122          6           0       -8.492967    0.082083    0.447109
    123          6           0       -8.776229   -1.278257    1.046472
    124          8           0       -9.530426   -2.094830    0.508146
    125          6           0       -9.571725    1.036398    0.946673
    126          8           0       -9.591201    2.208864    0.154560
    127          1           0       -7.206020    1.556491    1.364817
    128          1           0       -8.501431    0.006939   -0.645083
    129          1           0       -9.410866    1.278994    1.998420
    130          1           0      -10.575467    0.630679    0.808129
    131          1           0      -10.107119    2.848198    0.640028
    132          7           0       -8.075862   -1.626384    2.135321
    133          6           0       -8.139005   -2.886298    2.852421
    134          6           0       -7.948757   -4.098467    1.957685
    135          8           0       -8.564085   -5.140246    2.199486
    136          6           0       -9.358993   -2.962295    3.766123
    137          1           0       -7.674097   -0.879928    2.682302
    138          1           0       -7.219342   -2.932029    3.443208
    139          1           0       -9.416525   -1.952247    4.175747
    140          1           0      -10.285257   -3.263689    3.283322
    141          1           0       -9.135505   -3.628462    4.604499
    142          7           0       -6.912380   -4.070477    1.127541
    143          6           0       -6.421244   -5.055484    0.183165
    144          6           0       -4.924277   -5.284713    0.357360
    145          8           0       -4.319578   -4.629150    1.198714
    146          6           0       -6.744599   -4.432969   -1.170207
    147          1           0       -6.523911   -3.174907    0.862125
    148          1           0       -6.844259   -6.039375    0.382960
    149          1           0       -7.771769   -4.690327   -1.430570
    150          1           0       -6.651887   -3.352736   -1.075863
    151          1           0       -6.053055   -4.820272   -1.913621
    152          7           0       -4.313553   -6.233262   -0.343974
    153          6           0       -2.924197   -6.653225   -0.296824
    154          6           0       -2.526073   -7.223020    1.062047
    155          8           0       -1.334210   -7.432412    1.266541
    156          6           0       -1.932089   -5.592988   -0.783157
    157          6           0       -0.680655   -6.236697   -1.371077
    158          6           0        0.206999   -5.168627   -2.003451
    159          8           0        1.051042   -4.564369   -1.305909
    160          8           0        0.074919   -4.900062   -3.218864
    161          1           0       -4.762241   -6.563621   -1.187030
    162          1           0       -2.906363   -7.546938   -0.918321
    163          1           0       -1.621892   -4.949419    0.031274
    164          1           0       -2.380633   -4.931561   -1.534770
    165          1           0       -0.917758   -7.082581   -2.003503
    166          1           0       -0.143890   -6.690037   -0.540616
    167          7           0       -3.422739   -7.571888    1.977734
    168          6           0       -3.162347   -7.732733    3.398166
    169          1           0       -4.108157   -7.775431    3.938011
    170          1           0       -2.608318   -8.656066    3.564257
    171          1           0       -2.577185   -6.887412    3.758813
    172          1           0       -4.395524   -7.370390    1.779777
    173         20           0        1.985262   -3.216245   -3.619801
    174          8           0        0.932730   -4.048680   -5.805350
    175          1           0        0.541315   -3.547632   -6.523574
    176          1           0        0.341410   -4.786167   -5.679435
 ---------------------------------------------------------------------
 Rotational constants (GHZ):           0.0178998           0.0078685           0.0063012
 Standard basis: SVP (5D, 7F)
 There are  1809 symmetry adapted cartesian basis functions of A   symmetry.
 There are  1717 symmetry adapted basis functions of A   symmetry.
  1717 basis functions,  2922 primitive gaussians,  1809 cartesian basis functions
   358 alpha electrons      358 beta electrons
       nuclear repulsion energy     18583.3053384486 Hartrees.
 NAtoms=  176 NActive=  176 NUniq=  176 SFac= 1.00D+00 NAtFMM=   60 NAOKFM=T Big=T
 Integral buffers will be    131072 words long.
 Raffenetti 2 integral format.
 Two-electron integral symmetry is turned on.
 One-electron integrals computed using PRISM.
 NBasis=  1717 RedAO= T EigKep=  2.88D-04  NBF=  1717
 NBsUse=  1717 1.00D-06 EigRej= -1.00D+00 NBFU=  1717
 ExpMin= 1.98D-02 ExpMax= 3.51D+04 ExpMxC= 5.28D+03 IAcc=3 IRadAn=         5 AccDes= 0.00D+00
 Harris functional with IExCor=  402 and IRadAn=       5 diagonalized for initial guess.
 HarFok:  IExCor=  402 AccDes= 0.00D+00 IRadAn=         5 IDoV= 1 UseB2=F ITyADJ=14
 ICtDFT=  3500011 ScaDFX=  1.000000  1.000000  1.000000  1.000000
 FoFCou: FMM=F IPFlag=           0 FMFlag=      100000 FMFlg1=        2001
         NFxFlg=           0 DoJE=T BraDBF=F KetDBF=T FulRan=T
         wScrn=  0.000000 ICntrl=       500 IOpCl=  0 I1Cent=   200000004 NGrid=           0
         NMat0=    1 NMatS0=      1 NMatT0=    0 NMatD0=    1 NMtDS0=    0 NMtDT0=    0
 Petite list used in FoFCou.
 Requested convergence on RMS density matrix=1.00D-08 within 128 cycles.
 Requested convergence on MAX density matrix=1.00D-06.
 Requested convergence on             energy=1.00D-06.
 No special actions if energy rises.
 EnCoef did     2 forward-backward iterations
 EnCoef did     2 forward-backward iterations
 Restarting incremental Fock formation.
 SCF Done:  E(RB3LYP) =  -5333.45199299     A.U. after   23 cycles
            NFock= 23  Conv=0.14D-08     -V/T= 2.0081
 SCF density gives NOpUse=  1 NOpAll=  1.
 Hyperfine terms turned off by default for NAtoms > 100.

 **********************************************************************

            Population analysis using the SCF density.

 **********************************************************************

 Orbital symmetries:
 BldTbl:  Degeneracy threshold= 1.00D-02
       Occupied  (A) (A) (A) (A) (A) (A) (A) (A) (A) (A) (A) (A)
                 (A) (A) (A) (A) (A) (A) (A) (A) (A) (A) (A) (A)
                 (A) (A) (A) (A) (A) (A) (A) (A) (A) (A) (A) (A)
                 (A) (A) (A) (A) (A) (A) (A) (A) (A) (A) (A) (A)
                 (A) (A) (A) (A) (A) (A) (A) (A) (A) (A) (A) (A)
                 (A) (A) (A) (A) (A) (A) (A) (A) (A) (A) (A) (A)
                 (A) (A) (A) (A) (A) (A) (A) (A) (A) (A) (A) (A)
                 (A) (A) (A) (A) (A) (A) (A) (A) (A) (A) (A) (A)
                 (A) (A) (A) (A) (A) (A) (A) (A) (A) (A) (A) (A)
                 (A) (A) (A) (A) (A) (A) (A) (A) (A) (A) (A) (A)
                 (A) (A) (A) (A) (A) (A) (A) (A) (A) (A) (A) (A)
                 (A) (A) (A) (A) (A) (A) (A) (A) (A) (A) (A) (A)
                 (A) (A) (A) (A) (A) (A) (A) (A) (A) (A) (A) (A)
                 (A) (A) (A) (A) (A) (A) (A) (A) (A) (A) (A) (A)
                 (A) (A) (A) (A) (A) (A) (A) (A) (A) (A) (A) (A)
                 (A) (A) (A) (A) (A) (A) (A) (A) (A) (A) (A) (A)
                 (A) (A) (A) (A) (A) (A) (A) (A) (A) (A) (A) (A)
                 (A) (A) (A) (A) (A) (A) (A) (A) (A) (A) (A) (A)
                 (A) (A) (A) (A) (A) (A) (A) (A) (A) (A) (A) (A)
                 (A) (A) (A) (A) (A) (A) (A) (A) (A) (A) (A) (A)
                 (A) (A) (A) (A) (A) (A) (A) (A) (A) (A) (A) (A)
                 (A) (A) (A) (A) (A) (A) (A) (A) (A) (A) (A) (A)
                 (A) (A) (A) (A) (A) (A) (A) (A) (A) (A) (A) (A)
                 (A) (A) (A) (A) (A) (A) (A) (A) (A) (A) (A) (A)
                 (A) (A) (A) (A) (A) (A) (A) (A) (A) (A) (A) (A)
                 (A) (A) (A) (A) (A) (A) (A) (A) (A) (A) (A) (A)
                 (A) (A) (A) (A) (A) (A) (A) (A) (A) (A) (A) (A)
                 (A) (A) (A) (A) (A) (A) (A) (A) (A) (A) (A) (A)
                 (A) (A) (A) (A) (A) (A) (A) (A) (A) (A) (A) (A)
                 (A) (A) (A) (A) (A) (A) (A) (A) (A) (A)
       Virtual   (A) (A) (A) (A) (A) (A) (A) (A) (A) (A) (A) (A)
                 (A) (A) (A) (A) (A) (A) (A) (A) (A) (A) (A) (A)
                 (A) (A) (A) (A) (A) (A) (A) (A) (A) (A) (A) (A)
                 (A) (A) (A) (A) (A) (A) (A) (A) (A) (A) (A) (A)
                 (A) (A) (A) (A) (A) (A) (A) (A) (A) (A) (A) (A)
                 (A) (A) (A) (A) (A) (A) (A) (A) (A) (A) (A) (A)
                 (A) (A) (A) (A) (A) (A) (A) (A) (A) (A) (A) (A)
                 (A) (A) (A) (A) (A) (A) (A) (A) (A) (A) (A) (A)
                 (A) (A) (A) (A) (A) (A) (A) (A) (A) (A) (A) (A)
                 (A) (A) (A) (A) (A) (A) (A) (A) (A) (A) (A) (A)
                 (A) (A) (A) (A) (A) (A) (A) (A) (A) (A) (A) (A)
                 (A) (A) (A) (A) (A) (A) (A) (A) (A) (A) (A) (A)
                 (A) (A) (A) (A) (A) (A) (A) (A) (A) (A) (A) (A)
                 (A) (A) (A) (A) (A) (A) (A) (A) (A) (A) (A) (A)
                 (A) (A) (A) (A) (A) (A) (A) (A) (A) (A) (A) (A)
                 (A) (A) (A) (A) (A) (A) (A) (A) (A) (A) (A) (A)
                 (A) (A) (A) (A) (A) (A) (A) (A) (A) (A) (A) (A)
                 (A) (A) (A) (A) (A) (A) (A) (A) (A) (A) (A) (A)
                 (A) (A) (A) (A) (A) (A) (A) (A) (A) (A) (A) (A)
                 (A) (A) (A) (A) (A) (A) (A) (A) (A) (A) (A) (A)
                 (A) (A) (A) (A) (A) (A) (A) (A) (A) (A) (A) (A)
                 (A) (A) (A) (A) (A) (A) (A) (A) (A) (A) (A) (A)
                 (A) (A) (A) (A) (A) (A) (A) (A) (A) (A) (A) (A)
                 (A) (A) (A) (A) (A) (A) (A) (A) (A) (A) (A) (A)
                 (A) (A) (A) (A) (A) (A) (A) (A) (A) (A) (A) (A)
                 (A) (A) (A) (A) (A) (A) (A) (A) (A) (A) (A) (A)
                 (A) (A) (A) (A) (A) (A) (A) (A) (A) (A) (A) (A)
                 (A) (A) (A) (A) (A) (A) (A) (A) (A) (A) (A) (A)
                 (A) (A) (A) (A) (A) (A) (A) (A) (A) (A) (A) (A)
                 (A) (A) (A) (A) (A) (A) (A) (A) (A) (A) (A) (A)
                 (A) (A) (A) (A) (A) (A) (A) (A) (A) (A) (A) (A)
                 (A) (A) (A) (A) (A) (A) (A) (A) (A) (A) (A) (A)
                 (A) (A) (A) (A) (A) (A) (A) (A) (A) (A) (A) (A)
                 (A) (A) (A) (A) (A) (A) (A) (A) (A) (A) (A) (A)
                 (A) (A) (A) (A) (A) (A) (A) (A) (A) (A) (A) (A)
                 (A) (A) (A) (A) (A) (A) (A) (A) (A) (A) (A) (A)
                 (A) (A) (A) (A) (A) (A) (A) (A) (A) (A) (A) (A)
                 (A) (A) (A) (A) (A) (A) (A) (A) (A) (A) (A) (A)
                 (A) (A) (A) (A) (A) (A) (A) (A) (A) (A) (A) (A)
                 (A) (A) (A) (A) (A) (A) (A) (A) (A) (A) (A) (A)
                 (A) (A) (A) (A) (A) (A) (A) (A) (A) (A) (A) (A)
                 (A) (A) (A) (A) (A) (A) (A) (A) (A) (A) (A) (A)
                 (A) (A) (A) (A) (A) (A) (A) (A) (A) (A) (A) (A)
                 (A) (A) (A) (A) (A) (A) (A) (A) (A) (A) (A) (A)
                 (A) (A) (A) (A) (A) (A) (A) (A) (A) (A) (A) (A)
                 (A) (A) (A) (A) (A) (A) (A) (A) (A) (A) (A) (A)
                 (A) (A) (A) (A) (A) (A) (A) (A) (A) (A) (A) (A)
                 (A) (A) (A) (A) (A) (A) (A) (A) (A) (A) (A) (A)
                 (A) (A) (A) (A) (A) (A) (A) (A) (A) (A) (A) (A)
                 (A) (A) (A) (A) (A) (A) (A) (A) (A) (A) (A) (A)
                 (A) (A) (A) (A) (A) (A) (A) (A) (A) (A) (A) (A)
                 (A) (A) (A) (A) (A) (A) (A) (A) (A) (A) (A) (A)
                 (A) (A) (A) (A) (A) (A) (A) (A) (A) (A) (A) (A)
                 (A) (A) (A) (A) (A) (A) (A) (A) (A) (A) (A) (A)
                 (A) (A) (A) (A) (A) (A) (A) (A) (A) (A) (A) (A)
                 (A) (A) (A) (A) (A) (A) (A) (A) (A) (A) (A) (A)
                 (A) (A) (A) (A) (A) (A) (A) (A) (A) (A) (A) (A)
                 (A) (A) (A) (A) (A) (A) (A) (A) (A) (A) (A) (A)
                 (A) (A) (A) (A) (A) (A) (A) (A) (A) (A) (A) (A)
                 (A) (A) (A) (A) (A) (A) (A) (A) (A) (A) (A) (A)
                 (A) (A) (A) (A) (A) (A) (A) (A) (A) (A) (A) (A)
                 (A) (A) (A) (A) (A) (A) (A) (A) (A) (A) (A) (A)
                 (A) (A) (A) (A) (A) (A) (A) (A) (A) (A) (A) (A)
                 (A) (A) (A) (A) (A) (A) (A) (A) (A) (A) (A) (A)
                 (A) (A) (A) (A) (A) (A) (A) (A) (A) (A) (A) (A)
                 (A) (A) (A) (A) (A) (A) (A) (A) (A) (A) (A) (A)
                 (A) (A) (A) (A) (A) (A) (A) (A) (A) (A) (A) (A)
                 (A) (A) (A) (A) (A) (A) (A) (A) (A) (A) (A) (A)
                 (A) (A) (A) (A) (A) (A) (A) (A) (A) (A) (A) (A)
                 (A) (A) (A) (A) (A) (A) (A) (A) (A) (A) (A) (A)
                 (A) (A) (A) (A) (A) (A) (A) (A) (A) (A) (A) (A)
                 (A) (A) (A) (A) (A) (A) (A) (A) (A) (A) (A) (A)
                 (A) (A) (A) (A) (A) (A) (A) (A) (A) (A) (A) (A)
                 (A) (A) (A) (A) (A) (A) (A) (A) (A) (A) (A) (A)
                 (A) (A) (A) (A) (A) (A) (A) (A) (A) (A) (A) (A)
                 (A) (A) (A) (A) (A) (A) (A) (A) (A) (A) (A) (A)
                 (A) (A) (A) (A) (A) (A) (A) (A) (A) (A) (A) (A)
                 (A) (A) (A) (A) (A) (A) (A) (A) (A) (A) (A) (A)
                 (A) (A) (A) (A) (A) (A) (A) (A) (A) (A) (A) (A)
                 (A) (A) (A) (A) (A) (A) (A) (A) (A) (A) (A) (A)
                 (A) (A) (A) (A) (A) (A) (A) (A) (A) (A) (A) (A)
                 (A) (A) (A) (A) (A) (A) (A) (A) (A) (A) (A) (A)
                 (A) (A) (A) (A) (A) (A) (A) (A) (A) (A) (A) (A)
                 (A) (A) (A) (A) (A) (A) (A) (A) (A) (A) (A) (A)
                 (A) (A) (A) (A) (A) (A) (A) (A) (A) (A) (A) (A)
                 (A) (A) (A) (A) (A) (A) (A) (A) (A) (A) (A) (A)
                 (A) (A) (A) (A) (A) (A) (A) (A) (A) (A) (A) (A)
                 (A) (A) (A) (A) (A) (A) (A) (A) (A) (A) (A) (A)
                 (A) (A) (A) (A) (A) (A) (A) (A) (A) (A) (A) (A)
                 (A) (A) (A) (A) (A) (A) (A) (A) (A) (A) (A) (A)
                 (A) (A) (A) (A) (A) (A) (A) (A) (A) (A) (A) (A)
                 (A) (A) (A) (A) (A) (A) (A) (A) (A) (A) (A) (A)
                 (A) (A) (A) (A) (A) (A) (A) (A) (A) (A) (A) (A)
                 (A) (A) (A) (A) (A) (A) (A) (A) (A) (A) (A) (A)
                 (A) (A) (A) (A) (A) (A) (A) (A) (A) (A) (A) (A)
                 (A) (A) (A) (A) (A) (A) (A) (A) (A) (A) (A) (A)
                 (A) (A) (A) (A) (A) (A) (A) (A) (A) (A) (A) (A)
                 (A) (A) (A) (A) (A) (A) (A) (A) (A) (A) (A) (A)
                 (A) (A) (A) (A) (A) (A) (A) (A) (A) (A) (A) (A)
                 (A) (A) (A) (A) (A) (A) (A) (A) (A) (A) (A) (A)
                 (A) (A) (A) (A) (A) (A) (A) (A) (A) (A) (A) (A)
                 (A) (A) (A) (A) (A) (A) (A) (A) (A) (A) (A) (A)
                 (A) (A) (A) (A) (A) (A) (A) (A) (A) (A) (A) (A)
                 (A) (A) (A) (A) (A) (A) (A) (A) (A) (A) (A) (A)
                 (A) (A) (A) (A) (A) (A) (A) (A) (A) (A) (A) (A)
                 (A) (A) (A) (A) (A) (A) (A) (A) (A) (A) (A) (A)
                 (A) (A) (A) (A) (A) (A) (A) (A) (A) (A) (A) (A)
                 (A) (A) (A) (A) (A) (A) (A) (A) (A) (A) (A) (A)
                 (A) (A) (A) (A) (A) (A) (A) (A) (A) (A) (A) (A)
                 (A) (A) (A) (A) (A) (A) (A) (A) (A) (A) (A) (A)
                 (A) (A) (A) (A) (A) (A) (A) (A) (A) (A) (A) (A)
                 (A) (A) (A) (A) (A) (A) (A) (A) (A) (A) (A) (A)
                 (A) (A) (A) (A) (A) (A) (A) (A) (A) (A) (A) (A)
                 (A) (A) (A)
 The electronic state is 1-A.
 Alpha  occ. eigenvalues -- -145.42167 -19.21281 -19.16324 -19.13467 -19.12043
 Alpha  occ. eigenvalues --  -19.11864 -19.11256 -19.10418 -19.10358 -19.09932
 Alpha  occ. eigenvalues --  -19.09775 -19.09703 -19.09570 -19.09463 -19.07977
 Alpha  occ. eigenvalues --  -19.07818 -19.07677 -19.07601 -19.06996 -19.06076
 Alpha  occ. eigenvalues --  -19.05486 -19.05469 -18.94388 -18.93502 -15.48085
 Alpha  occ. eigenvalues --  -14.53158 -14.37995 -14.37775 -14.37545 -14.36665
 Alpha  occ. eigenvalues --  -14.36360 -14.35889 -14.35316 -14.35288 -14.34438
 Alpha  occ. eigenvalues --  -14.34027 -14.33745 -14.33664 -14.33372 -14.33300
 Alpha  occ. eigenvalues --  -12.61698 -12.61665 -12.61583 -10.31884 -10.30909
 Alpha  occ. eigenvalues --  -10.30485 -10.29842 -10.29481 -10.29181 -10.28623
 Alpha  occ. eigenvalues --  -10.28367 -10.28036 -10.27742 -10.27642 -10.27238
 Alpha  occ. eigenvalues --  -10.27165 -10.26989 -10.26267 -10.26019 -10.25666
 Alpha  occ. eigenvalues --  -10.25555 -10.25515 -10.25290 -10.25009 -10.24970
 Alpha  occ. eigenvalues --  -10.24954 -10.24613 -10.23830 -10.23662 -10.23321
 Alpha  occ. eigenvalues --  -10.23274 -10.23223 -10.22727 -10.22530 -10.22463
 Alpha  occ. eigenvalues --  -10.21716 -10.21517 -10.20809 -10.20687 -10.19904
 Alpha  occ. eigenvalues --  -10.19686 -10.19457 -10.19324 -10.19231 -10.18818
 Alpha  occ. eigenvalues --  -10.18609 -10.18500 -10.18060 -10.17919 -10.17859
 Alpha  occ. eigenvalues --  -10.17595 -10.17212 -10.17079 -10.16716 -10.15376
 Alpha  occ. eigenvalues --  -10.14892 -10.13111  -1.84856  -1.12435  -1.12197
 Alpha  occ. eigenvalues --   -1.11840  -1.08792  -1.07129  -1.05805  -1.04933
 Alpha  occ. eigenvalues --   -1.04738  -1.04276  -1.03811  -1.03496  -1.03457
 Alpha  occ. eigenvalues --   -1.03410  -1.03127  -1.02312  -1.01980  -1.01964
 Alpha  occ. eigenvalues --   -1.01505  -1.01432  -1.01383  -1.01093  -1.00401
 Alpha  occ. eigenvalues --   -1.00390  -0.94637  -0.94399  -0.93465  -0.93346
 Alpha  occ. eigenvalues --   -0.93195  -0.93149  -0.92374  -0.91837  -0.91175
 Alpha  occ. eigenvalues --   -0.90925  -0.90513  -0.90482  -0.90376  -0.90052
 Alpha  occ. eigenvalues --   -0.89669  -0.89233  -0.89080  -0.86723  -0.85496
 Alpha  occ. eigenvalues --   -0.81382  -0.81221  -0.80627  -0.79721  -0.79534
 Alpha  occ. eigenvalues --   -0.78652  -0.78436  -0.77458  -0.76691  -0.76165
 Alpha  occ. eigenvalues --   -0.76135  -0.75096  -0.74778  -0.74104  -0.74036
 Alpha  occ. eigenvalues --   -0.72791  -0.72372  -0.72353  -0.70720  -0.70498
 Alpha  occ. eigenvalues --   -0.69522  -0.69095  -0.69041  -0.67924  -0.66686
 Alpha  occ. eigenvalues --   -0.66622  -0.66028  -0.65441  -0.65338  -0.63913
 Alpha  occ. eigenvalues --   -0.63059  -0.63013  -0.62485  -0.62381  -0.61854
 Alpha  occ. eigenvalues --   -0.61624  -0.61231  -0.60823  -0.60339  -0.60135
 Alpha  occ. eigenvalues --   -0.59952  -0.59612  -0.59179  -0.58947  -0.58842
 Alpha  occ. eigenvalues --   -0.58533  -0.58239  -0.57975  -0.57753  -0.57699
 Alpha  occ. eigenvalues --   -0.57672  -0.57293  -0.56218  -0.55920  -0.55861
 Alpha  occ. eigenvalues --   -0.55376  -0.55315  -0.55201  -0.54470  -0.54341
 Alpha  occ. eigenvalues --   -0.53916  -0.53705  -0.53031  -0.52807  -0.51966
 Alpha  occ. eigenvalues --   -0.51563  -0.50942  -0.50849  -0.50654  -0.50528
 Alpha  occ. eigenvalues --   -0.49908  -0.49591  -0.49486  -0.49208  -0.48578
 Alpha  occ. eigenvalues --   -0.48447  -0.47982  -0.47822  -0.47729  -0.47493
 Alpha  occ. eigenvalues --   -0.47253  -0.47028  -0.46950  -0.46770  -0.46658
 Alpha  occ. eigenvalues --   -0.46566  -0.46551  -0.46483  -0.46302  -0.46157
 Alpha  occ. eigenvalues --   -0.45901  -0.45692  -0.45360  -0.45302  -0.45254
 Alpha  occ. eigenvalues --   -0.45018  -0.44941  -0.44739  -0.44518  -0.44266
 Alpha  occ. eigenvalues --   -0.44048  -0.43943  -0.43807  -0.43606  -0.43514
 Alpha  occ. eigenvalues --   -0.43272  -0.43147  -0.43057  -0.42772  -0.42751
 Alpha  occ. eigenvalues --   -0.42493  -0.42339  -0.42255  -0.42003  -0.41762
 Alpha  occ. eigenvalues --   -0.41630  -0.41494  -0.41363  -0.41148  -0.41100
 Alpha  occ. eigenvalues --   -0.41035  -0.40901  -0.40797  -0.40581  -0.40479
 Alpha  occ. eigenvalues --   -0.40320  -0.40158  -0.40089  -0.39999  -0.39740
 Alpha  occ. eigenvalues --   -0.39599  -0.39575  -0.39477  -0.39410  -0.39216
 Alpha  occ. eigenvalues --   -0.39042  -0.38985  -0.38831  -0.38814  -0.38552
 Alpha  occ. eigenvalues --   -0.38532  -0.38358  -0.38316  -0.37951  -0.37750
 Alpha  occ. eigenvalues --   -0.37732  -0.37470  -0.37408  -0.37135  -0.36998
 Alpha  occ. eigenvalues --   -0.36902  -0.36837  -0.36631  -0.36562  -0.36441
 Alpha  occ. eigenvalues --   -0.36277  -0.36170  -0.35792  -0.35649  -0.35319
 Alpha  occ. eigenvalues --   -0.35081  -0.34981  -0.34946  -0.34683  -0.34248
 Alpha  occ. eigenvalues --   -0.34182  -0.33926  -0.33619  -0.33422  -0.33184
 Alpha  occ. eigenvalues --   -0.32836  -0.32719  -0.32672  -0.32611  -0.31779
 Alpha  occ. eigenvalues --   -0.30563  -0.30399  -0.29755  -0.28662  -0.28467
 Alpha  occ. eigenvalues --   -0.28208  -0.28030  -0.27700  -0.27601  -0.27542
 Alpha  occ. eigenvalues --   -0.27398  -0.26870  -0.26652  -0.26571  -0.26432
 Alpha  occ. eigenvalues --   -0.26419  -0.26341  -0.26159  -0.26122  -0.25919
 Alpha  occ. eigenvalues --   -0.25532  -0.25373  -0.25044  -0.24970  -0.24701
 Alpha  occ. eigenvalues --   -0.24673  -0.24588  -0.24387  -0.24279  -0.24235
 Alpha  occ. eigenvalues --   -0.24102  -0.23981  -0.23553  -0.23450  -0.23212
 Alpha  occ. eigenvalues --   -0.23191  -0.23051  -0.22757  -0.22155  -0.19780
 Alpha  occ. eigenvalues --   -0.12883  -0.11568  -0.09210
 Alpha virt. eigenvalues --   -0.05767  -0.05747  -0.02278  -0.02106  -0.01184
 Alpha virt. eigenvalues --   -0.00734  -0.00434  -0.00413   0.00198   0.00497
 Alpha virt. eigenvalues --    0.00970   0.01020   0.01361   0.01432   0.01669
 Alpha virt. eigenvalues --    0.01994   0.02103   0.02340   0.02400   0.02667
 Alpha virt. eigenvalues --    0.02727   0.03560   0.03737   0.03911   0.04130
 Alpha virt. eigenvalues --    0.04144   0.04192   0.04426   0.04627   0.04658
 Alpha virt. eigenvalues --    0.05123   0.05172   0.05360   0.05856   0.06010
 Alpha virt. eigenvalues --    0.06397   0.06606   0.06937   0.07119   0.07287
 Alpha virt. eigenvalues --    0.07527   0.07735   0.07821   0.08155   0.08304
 Alpha virt. eigenvalues --    0.08516   0.08924   0.09098   0.09178   0.09393
 Alpha virt. eigenvalues --    0.09558   0.09590   0.09656   0.10077   0.10228
 Alpha virt. eigenvalues --    0.10589   0.10726   0.10773   0.10909   0.11110
 Alpha virt. eigenvalues --    0.11177   0.11362   0.11651   0.11824   0.11948
 Alpha virt. eigenvalues --    0.12063   0.12214   0.12434   0.12753   0.12863
 Alpha virt. eigenvalues --    0.13106   0.13244   0.13370   0.13463   0.13661
 Alpha virt. eigenvalues --    0.13723   0.13847   0.14088   0.14184   0.14423
 Alpha virt. eigenvalues --    0.14680   0.14732   0.14930   0.14969   0.15138
 Alpha virt. eigenvalues --    0.15246   0.15263   0.15367   0.15476   0.15576
 Alpha virt. eigenvalues --    0.15729   0.16063   0.16120   0.16231   0.16484
 Alpha virt. eigenvalues --    0.16771   0.16871   0.17173   0.17334   0.17457
 Alpha virt. eigenvalues --    0.17520   0.17724   0.18038   0.18053   0.18215
 Alpha virt. eigenvalues --    0.18322   0.18558   0.18718   0.18873   0.18929
 Alpha virt. eigenvalues --    0.19283   0.19472   0.19716   0.19955   0.20254
 Alpha virt. eigenvalues --    0.20313   0.20679   0.20788   0.20899   0.21298
 Alpha virt. eigenvalues --    0.21357   0.21736   0.21878   0.22328   0.22508
 Alpha virt. eigenvalues --    0.22573   0.22975   0.23312   0.23467   0.23526
 Alpha virt. eigenvalues --    0.23643   0.23755   0.23887   0.24234   0.24390
 Alpha virt. eigenvalues --    0.24741   0.24868   0.25113   0.25382   0.25621
 Alpha virt. eigenvalues --    0.25690   0.25933   0.26286   0.26547   0.26578
 Alpha virt. eigenvalues --    0.26609   0.26912   0.27566   0.27763   0.27963
 Alpha virt. eigenvalues --    0.28335   0.28741   0.28878   0.29018   0.29334
 Alpha virt. eigenvalues --    0.29598   0.29632   0.29810   0.29916   0.30115
 Alpha virt. eigenvalues --    0.30407   0.30559   0.30987   0.31312   0.31634
 Alpha virt. eigenvalues --    0.32113   0.32260   0.32347   0.32435   0.32667
 Alpha virt. eigenvalues --    0.32774   0.33031   0.33517   0.33961   0.34119
 Alpha virt. eigenvalues --    0.34695   0.34851   0.35181   0.35465   0.35500
 Alpha virt. eigenvalues --    0.36084   0.36631   0.36794   0.36961   0.37485
 Alpha virt. eigenvalues --    0.38056   0.38282   0.38450   0.38807   0.38911
 Alpha virt. eigenvalues --    0.39074   0.39391   0.39710   0.39932   0.40097
 Alpha virt. eigenvalues --    0.40377   0.40541   0.40632   0.40827   0.41033
 Alpha virt. eigenvalues --    0.41418   0.41581   0.41689   0.41951   0.42094
 Alpha virt. eigenvalues --    0.42217   0.42442   0.42753   0.42916   0.43005
 Alpha virt. eigenvalues --    0.43427   0.44080   0.44204   0.44404   0.44536
 Alpha virt. eigenvalues --    0.44570   0.44903   0.45143   0.45557   0.45663
 Alpha virt. eigenvalues --    0.46166   0.46258   0.46326   0.46567   0.46698
 Alpha virt. eigenvalues --    0.46892   0.47131   0.47198   0.47319   0.47659
 Alpha virt. eigenvalues --    0.47773   0.47817   0.48054   0.48242   0.48270
 Alpha virt. eigenvalues --    0.48448   0.48742   0.48814   0.49117   0.49375
 Alpha virt. eigenvalues --    0.49702   0.49832   0.50211   0.50385   0.50537
 Alpha virt. eigenvalues --    0.50609   0.50929   0.51168   0.51238   0.51403
 Alpha virt. eigenvalues --    0.51543   0.51686   0.51772   0.51889   0.52173
 Alpha virt. eigenvalues --    0.52271   0.52429   0.52898   0.53241   0.53277
 Alpha virt. eigenvalues --    0.53594   0.53933   0.54012   0.54245   0.54437
 Alpha virt. eigenvalues --    0.54721   0.54978   0.55370   0.55524   0.55568
 Alpha virt. eigenvalues --    0.55659   0.55877   0.55979   0.56215   0.56475
 Alpha virt. eigenvalues --    0.56586   0.56774   0.57162   0.57239   0.57467
 Alpha virt. eigenvalues --    0.57616   0.57676   0.57782   0.57959   0.58282
 Alpha virt. eigenvalues --    0.58319   0.58441   0.58660   0.58692   0.58892
 Alpha virt. eigenvalues --    0.58941   0.59324   0.59446   0.59556   0.59676
 Alpha virt. eigenvalues --    0.59988   0.60150   0.60358   0.60442   0.60597
 Alpha virt. eigenvalues --    0.60612   0.60788   0.60966   0.61015   0.61149
 Alpha virt. eigenvalues --    0.61352   0.61504   0.61539   0.61607   0.61725
 Alpha virt. eigenvalues --    0.61903   0.62027   0.62139   0.62200   0.62263
 Alpha virt. eigenvalues --    0.62429   0.62600   0.62797   0.62888   0.62971
 Alpha virt. eigenvalues --    0.63096   0.63307   0.63396   0.63535   0.63793
 Alpha virt. eigenvalues --    0.63864   0.63963   0.64077   0.64163   0.64188
 Alpha virt. eigenvalues --    0.64338   0.64547   0.64586   0.64634   0.64736
 Alpha virt. eigenvalues --    0.64922   0.65082   0.65163   0.65303   0.65328
 Alpha virt. eigenvalues --    0.65408   0.65487   0.65637   0.65833   0.65942
 Alpha virt. eigenvalues --    0.66034   0.66095   0.66149   0.66225   0.66312
 Alpha virt. eigenvalues --    0.66386   0.66407   0.66559   0.66792   0.66921
 Alpha virt. eigenvalues --    0.67053   0.67058   0.67163   0.67314   0.67370
 Alpha virt. eigenvalues --    0.67427   0.67546   0.67663   0.67761   0.67846
 Alpha virt. eigenvalues --    0.67900   0.67932   0.67968   0.68161   0.68378
 Alpha virt. eigenvalues --    0.68471   0.68604   0.68635   0.68781   0.68953
 Alpha virt. eigenvalues --    0.69141   0.69229   0.69353   0.69474   0.69550
 Alpha virt. eigenvalues --    0.69782   0.69842   0.70024   0.70250   0.70333
 Alpha virt. eigenvalues --    0.70354   0.70465   0.70631   0.70722   0.70822
 Alpha virt. eigenvalues --    0.70935   0.70997   0.71145   0.71281   0.71439
 Alpha virt. eigenvalues --    0.71572   0.71926   0.72049   0.72138   0.72304
 Alpha virt. eigenvalues --    0.72478   0.72687   0.72846   0.72941   0.73117
 Alpha virt. eigenvalues --    0.73163   0.73243   0.73439   0.73551   0.73691
 Alpha virt. eigenvalues --    0.73977   0.74286   0.74553   0.74701   0.75192
 Alpha virt. eigenvalues --    0.75381   0.75404   0.75578   0.75796   0.75880
 Alpha virt. eigenvalues --    0.76151   0.76479   0.76733   0.77019   0.77139
 Alpha virt. eigenvalues --    0.77464   0.77757   0.77838   0.78095   0.78185
 Alpha virt. eigenvalues --    0.78346   0.78429   0.78709   0.79139   0.79219
 Alpha virt. eigenvalues --    0.79452   0.79570   0.79878   0.80154   0.80585
 Alpha virt. eigenvalues --    0.80650   0.81059   0.81423   0.81701   0.81837
 Alpha virt. eigenvalues --    0.82119   0.82234   0.82345   0.82772   0.82926
 Alpha virt. eigenvalues --    0.83181   0.83292   0.83818   0.83975   0.84438
 Alpha virt. eigenvalues --    0.84592   0.84981   0.85226   0.85585   0.85740
 Alpha virt. eigenvalues --    0.85856   0.86620   0.86778   0.87208   0.87420
 Alpha virt. eigenvalues --    0.87670   0.88067   0.88186   0.88371   0.88852
 Alpha virt. eigenvalues --    0.89261   0.89484   0.89600   0.90296   0.90410
 Alpha virt. eigenvalues --    0.90981   0.91004   0.91403   0.91447   0.91588
 Alpha virt. eigenvalues --    0.91778   0.92150   0.92401   0.92477   0.92903
 Alpha virt. eigenvalues --    0.93328   0.93880   0.94123   0.94548   0.94716
 Alpha virt. eigenvalues --    0.95246   0.95333   0.95853   0.96189   0.96450
 Alpha virt. eigenvalues --    0.97007   0.97155   0.97258   0.97568   0.98171
 Alpha virt. eigenvalues --    0.98210   0.98348   0.98827   0.98948   0.99356
 Alpha virt. eigenvalues --    0.99451   0.99850   1.00307   1.00420   1.00894
 Alpha virt. eigenvalues --    1.01065   1.01301   1.01710   1.01908   1.02432
 Alpha virt. eigenvalues --    1.02840   1.03047   1.03271   1.03479   1.03672
 Alpha virt. eigenvalues --    1.04016   1.04164   1.04461   1.05202   1.05516
 Alpha virt. eigenvalues --    1.05636   1.05832   1.06018   1.06063   1.06357
 Alpha virt. eigenvalues --    1.06680   1.06716   1.06844   1.07277   1.07346
 Alpha virt. eigenvalues --    1.07957   1.08186   1.08452   1.08696   1.09025
 Alpha virt. eigenvalues --    1.09420   1.09710   1.09898   1.10093   1.10363
 Alpha virt. eigenvalues --    1.10560   1.10684   1.10948   1.11198   1.11569
 Alpha virt. eigenvalues --    1.12081   1.12294   1.12441   1.12718   1.12756
 Alpha virt. eigenvalues --    1.13005   1.13225   1.13362   1.13547   1.13956
 Alpha virt. eigenvalues --    1.14532   1.14672   1.14940   1.15094   1.15434
 Alpha virt. eigenvalues --    1.15486   1.15715   1.15765   1.16108   1.16241
 Alpha virt. eigenvalues --    1.16800   1.16998   1.17326   1.17566   1.17660
 Alpha virt. eigenvalues --    1.17763   1.18517   1.18803   1.19026   1.19131
 Alpha virt. eigenvalues --    1.19391   1.19784   1.20086   1.20860   1.20963
 Alpha virt. eigenvalues --    1.21430   1.21513   1.21679   1.22020   1.22330
 Alpha virt. eigenvalues --    1.22646   1.23460   1.23582   1.23625   1.23855
 Alpha virt. eigenvalues --    1.24114   1.24333   1.24804   1.25183   1.25231
 Alpha virt. eigenvalues --    1.25473   1.25786   1.25994   1.26072   1.26286
 Alpha virt. eigenvalues --    1.26557   1.26779   1.26816   1.27256   1.27568
 Alpha virt. eigenvalues --    1.27774   1.28005   1.28099   1.28112   1.28388
 Alpha virt. eigenvalues --    1.28602   1.29174   1.29366   1.29611   1.29810
 Alpha virt. eigenvalues --    1.29922   1.30061   1.30622   1.30738   1.31192
 Alpha virt. eigenvalues --    1.31333   1.31704   1.31954   1.32023   1.32497
 Alpha virt. eigenvalues --    1.32878   1.33064   1.33131   1.33638   1.34091
 Alpha virt. eigenvalues --    1.34437   1.34525   1.35091   1.35384   1.35556
 Alpha virt. eigenvalues --    1.35917   1.36427   1.36718   1.36789   1.37172
 Alpha virt. eigenvalues --    1.37645   1.37784   1.37878   1.38509   1.38732
 Alpha virt. eigenvalues --    1.39051   1.39207   1.39589   1.39694   1.40280
 Alpha virt. eigenvalues --    1.40498   1.40824   1.41222   1.41641   1.42355
 Alpha virt. eigenvalues --    1.42506   1.42847   1.42869   1.43349   1.43560
 Alpha virt. eigenvalues --    1.43866   1.44281   1.45027   1.45341   1.45387
 Alpha virt. eigenvalues --    1.45483   1.45837   1.45968   1.46269   1.46431
 Alpha virt. eigenvalues --    1.46909   1.47058   1.47399   1.47544   1.48018
 Alpha virt. eigenvalues --    1.48439   1.48608   1.48781   1.49036   1.49345
 Alpha virt. eigenvalues --    1.49625   1.49689   1.50509   1.50621   1.51071
 Alpha virt. eigenvalues --    1.51332   1.51506   1.51843   1.51965   1.52124
 Alpha virt. eigenvalues --    1.52541   1.52640   1.52843   1.53155   1.53482
 Alpha virt. eigenvalues --    1.53882   1.53986   1.54107   1.54523   1.54686
 Alpha virt. eigenvalues --    1.54867   1.55574   1.56143   1.56520   1.56798
 Alpha virt. eigenvalues --    1.57261   1.57845   1.58333   1.58710   1.59061
 Alpha virt. eigenvalues --    1.59414   1.59665   1.60093   1.60606   1.60708
 Alpha virt. eigenvalues --    1.60886   1.61244   1.61731   1.61873   1.62174
 Alpha virt. eigenvalues --    1.62417   1.62570   1.62888   1.63494   1.63694
 Alpha virt. eigenvalues --    1.64346   1.65231   1.65462   1.65574   1.65712
 Alpha virt. eigenvalues --    1.66078   1.66157   1.66476   1.66746   1.67351
 Alpha virt. eigenvalues --    1.67634   1.68102   1.68203   1.68441   1.68670
 Alpha virt. eigenvalues --    1.68876   1.69094   1.69235   1.69767   1.69858
 Alpha virt. eigenvalues --    1.69885   1.70509   1.70770   1.71198   1.71483
 Alpha virt. eigenvalues --    1.71606   1.71667   1.71905   1.72251   1.72502
 Alpha virt. eigenvalues --    1.72525   1.72765   1.72899   1.73053   1.73500
 Alpha virt. eigenvalues --    1.73827   1.73865   1.74152   1.74440   1.74490
 Alpha virt. eigenvalues --    1.74535   1.74839   1.75207   1.75271   1.75401
 Alpha virt. eigenvalues --    1.75537   1.75842   1.75888   1.76131   1.76214
 Alpha virt. eigenvalues --    1.76367   1.76566   1.76622   1.76643   1.76912
 Alpha virt. eigenvalues --    1.77280   1.77374   1.77618   1.77686   1.77859
 Alpha virt. eigenvalues --    1.78196   1.78276   1.78510   1.78616   1.78715
 Alpha virt. eigenvalues --    1.78875   1.79159   1.79224   1.79366   1.79567
 Alpha virt. eigenvalues --    1.79726   1.79909   1.80024   1.80052   1.80366
 Alpha virt. eigenvalues --    1.80561   1.80632   1.80835   1.80992   1.81119
 Alpha virt. eigenvalues --    1.81161   1.81579   1.81738   1.81882   1.82178
 Alpha virt. eigenvalues --    1.82458   1.82655   1.82796   1.82930   1.83103
 Alpha virt. eigenvalues --    1.83374   1.83665   1.83768   1.83989   1.84003
 Alpha virt. eigenvalues --    1.84246   1.84371   1.84655   1.85177   1.85239
 Alpha virt. eigenvalues --    1.85362   1.85501   1.85634   1.85692   1.85994
 Alpha virt. eigenvalues --    1.86253   1.86400   1.86766   1.86881   1.87000
 Alpha virt. eigenvalues --    1.87168   1.87645   1.87737   1.87888   1.87929
 Alpha virt. eigenvalues --    1.88085   1.88181   1.88542   1.88606   1.89063
 Alpha virt. eigenvalues --    1.89173   1.89248   1.89493   1.89573   1.89723
 Alpha virt. eigenvalues --    1.89760   1.90000   1.90510   1.90629   1.90981
 Alpha virt. eigenvalues --    1.91171   1.91555   1.91588   1.91749   1.91862
 Alpha virt. eigenvalues --    1.92104   1.92222   1.92347   1.92873   1.93027
 Alpha virt. eigenvalues --    1.93408   1.93537   1.93641   1.93709   1.94208
 Alpha virt. eigenvalues --    1.94267   1.94589   1.94816   1.94951   1.95148
 Alpha virt. eigenvalues --    1.95219   1.95638   1.95821   1.95950   1.96203
 Alpha virt. eigenvalues --    1.96350   1.96536   1.96881   1.97130   1.97254
 Alpha virt. eigenvalues --    1.97424   1.97720   1.97868   1.98059   1.98100
 Alpha virt. eigenvalues --    1.98577   1.98666   1.98755   1.98900   1.99017
 Alpha virt. eigenvalues --    1.99800   1.99948   2.00161   2.00224   2.00496
 Alpha virt. eigenvalues --    2.00809   2.00947   2.01375   2.01730   2.02018
 Alpha virt. eigenvalues --    2.02702   2.03020   2.03055   2.03182   2.03341
 Alpha virt. eigenvalues --    2.03778   2.03874   2.04034   2.04111   2.04365
 Alpha virt. eigenvalues --    2.04941   2.05270   2.05659   2.05785   2.05916
 Alpha virt. eigenvalues --    2.06244   2.06653   2.06853   2.07154   2.07201
 Alpha virt. eigenvalues --    2.07623   2.07655   2.08248   2.08543   2.08824
 Alpha virt. eigenvalues --    2.08936   2.09301   2.09647   2.09950   2.10094
 Alpha virt. eigenvalues --    2.10138   2.10433   2.10733   2.11233   2.11572
 Alpha virt. eigenvalues --    2.11692   2.11829   2.12219   2.12314   2.12363
 Alpha virt. eigenvalues --    2.12687   2.12850   2.12884   2.13207   2.13338
 Alpha virt. eigenvalues --    2.13429   2.13908   2.14044   2.14715   2.15053
 Alpha virt. eigenvalues --    2.15181   2.15486   2.15720   2.16159   2.16585
 Alpha virt. eigenvalues --    2.16770   2.16920   2.17154   2.17704   2.18297
 Alpha virt. eigenvalues --    2.18335   2.18546   2.18895   2.19195   2.19427
 Alpha virt. eigenvalues --    2.19923   2.20105   2.20184   2.20357   2.20549
 Alpha virt. eigenvalues --    2.20698   2.20971   2.22290   2.22397   2.22861
 Alpha virt. eigenvalues --    2.23535   2.24082   2.24174   2.24358   2.24698
 Alpha virt. eigenvalues --    2.24807   2.25175   2.25583   2.25910   2.26394
 Alpha virt. eigenvalues --    2.26500   2.26959   2.27124   2.27537   2.27903
 Alpha virt. eigenvalues --    2.28453   2.28548   2.28754   2.29052   2.29643
 Alpha virt. eigenvalues --    2.29767   2.30114   2.30279   2.30363   2.31306
 Alpha virt. eigenvalues --    2.31410   2.31607   2.32273   2.32546   2.32659
 Alpha virt. eigenvalues --    2.32903   2.33058   2.33453   2.33743   2.34248
 Alpha virt. eigenvalues --    2.34350   2.34418   2.34800   2.35360   2.35751
 Alpha virt. eigenvalues --    2.35920   2.36224   2.36305   2.36617   2.36871
 Alpha virt. eigenvalues --    2.37124   2.37333   2.37629   2.37986   2.38408
 Alpha virt. eigenvalues --    2.38461   2.38997   2.39308   2.39834   2.40127
 Alpha virt. eigenvalues --    2.41147   2.41424   2.41538   2.41865   2.42653
 Alpha virt. eigenvalues --    2.42703   2.42779   2.43753   2.44180   2.44278
 Alpha virt. eigenvalues --    2.44602   2.44857   2.45004   2.45207   2.45899
 Alpha virt. eigenvalues --    2.45969   2.46280   2.46359   2.46649   2.46993
 Alpha virt. eigenvalues --    2.47148   2.47707   2.48179   2.49015   2.49136
 Alpha virt. eigenvalues --    2.49412   2.49874   2.50185   2.50860   2.51095
 Alpha virt. eigenvalues --    2.51581   2.51823   2.51966   2.52155   2.52347
 Alpha virt. eigenvalues --    2.52899   2.53273   2.54671   2.54849   2.55026
 Alpha virt. eigenvalues --    2.55139   2.55387   2.55637   2.56235   2.56413
 Alpha virt. eigenvalues --    2.56543   2.56906   2.57215   2.57410   2.57654
 Alpha virt. eigenvalues --    2.57912   2.58214   2.58362   2.58671   2.58724
 Alpha virt. eigenvalues --    2.58932   2.59261   2.59542   2.59794   2.60065
 Alpha virt. eigenvalues --    2.60637   2.60757   2.61378   2.61966   2.62168
 Alpha virt. eigenvalues --    2.62226   2.62521   2.62946   2.63246   2.63296
 Alpha virt. eigenvalues --    2.63997   2.64371   2.64523   2.64748   2.64908
 Alpha virt. eigenvalues --    2.65455   2.65596   2.65682   2.66114   2.66263
 Alpha virt. eigenvalues --    2.66511   2.67436   2.67866   2.68070   2.68651
 Alpha virt. eigenvalues --    2.68863   2.68957   2.69108   2.69500   2.69555
 Alpha virt. eigenvalues --    2.70265   2.70606   2.70900   2.71081   2.71300
 Alpha virt. eigenvalues --    2.71470   2.72169   2.72351   2.72520   2.72682
 Alpha virt. eigenvalues --    2.72809   2.73333   2.73655   2.73850   2.73955
 Alpha virt. eigenvalues --    2.74083   2.74406   2.74499   2.74825   2.74889
 Alpha virt. eigenvalues --    2.75291   2.75992   2.76192   2.76365   2.76623
 Alpha virt. eigenvalues --    2.77072   2.78356   2.78445   2.79074   2.79251
 Alpha virt. eigenvalues --    2.79344   2.79424   2.79552   2.80054   2.80218
 Alpha virt. eigenvalues --    2.80300   2.80496   2.80574   2.80726   2.80863
 Alpha virt. eigenvalues --    2.80987   2.81683   2.82364   2.82548   2.82565
 Alpha virt. eigenvalues --    2.83222   2.83770   2.83800   2.83974   2.84481
 Alpha virt. eigenvalues --    2.84729   2.84805   2.84892   2.85452   2.85473
 Alpha virt. eigenvalues --    2.86073   2.86271   2.86440   2.86477   2.86600
 Alpha virt. eigenvalues --    2.86850   2.87715   2.88328   2.88542   2.88681
 Alpha virt. eigenvalues --    2.89525   2.89668   2.89800   2.90172   2.90305
 Alpha virt. eigenvalues --    2.90705   2.90785   2.91332   2.91488   2.91553
 Alpha virt. eigenvalues --    2.92006   2.92044   2.92208   2.92745   2.93030
 Alpha virt. eigenvalues --    2.93492   2.93609   2.93987   2.94106   2.94601
 Alpha virt. eigenvalues --    2.94638   2.94947   2.95659   2.95891   2.96092
 Alpha virt. eigenvalues --    2.96144   2.96478   2.96998   2.97045   2.97072
 Alpha virt. eigenvalues --    2.97360   2.97543   2.98491   2.98836   2.98987
 Alpha virt. eigenvalues --    2.99138   2.99732   2.99795   3.00224   3.00507
 Alpha virt. eigenvalues --    3.00600   3.00735   3.00841   3.02087   3.02370
 Alpha virt. eigenvalues --    3.02478   3.02568   3.02646   3.03217   3.03957
 Alpha virt. eigenvalues --    3.04496   3.04635   3.05738   3.05764   3.06419
 Alpha virt. eigenvalues --    3.07111   3.07745   3.08226   3.08322   3.08543
 Alpha virt. eigenvalues --    3.08970   3.10457   3.10732   3.10897   3.11597
 Alpha virt. eigenvalues --    3.12311   3.12550   3.12683   3.13434   3.13459
 Alpha virt. eigenvalues --    3.13761   3.13776   3.14361   3.14568   3.14887
 Alpha virt. eigenvalues --    3.15111   3.15577   3.15756   3.16007   3.16423
 Alpha virt. eigenvalues --    3.16926   3.17401   3.17885   3.18345   3.18597
 Alpha virt. eigenvalues --    3.18721   3.18997   3.19255   3.19414   3.19591
 Alpha virt. eigenvalues --    3.19982   3.20037   3.20499   3.20773   3.21007
 Alpha virt. eigenvalues --    3.21121   3.21553   3.21878   3.22045   3.22175
 Alpha virt. eigenvalues --    3.22563   3.22893   3.23106   3.25062   3.25392
 Alpha virt. eigenvalues --    3.26116   3.26596   3.27014   3.27070   3.27456
 Alpha virt. eigenvalues --    3.27868   3.29955   3.30234   3.30294   3.31737
 Alpha virt. eigenvalues --    3.32180   3.34823   3.34920   3.36165   3.37111
 Alpha virt. eigenvalues --    3.38267   3.39704   3.43157   3.47475   3.49954
 Alpha virt. eigenvalues --    3.53559   3.53703   3.54945   3.54969   3.55626
 Alpha virt. eigenvalues --    3.55845   3.56568   3.56919   3.57244   3.57253
 Alpha virt. eigenvalues --    3.58395   3.59432   3.60033   3.60755   3.61189
 Alpha virt. eigenvalues --    3.63367   3.65489   3.66111   3.66667   3.67058
 Alpha virt. eigenvalues --    3.67378   3.68230   3.68802   3.69025   3.69106
 Alpha virt. eigenvalues --    3.69316   3.69485   3.69784   3.70115   3.70126
 Alpha virt. eigenvalues --    3.70563   3.71449   3.71571   3.72538   3.74752
 Alpha virt. eigenvalues --    3.76899   3.77411   3.78359   3.81995
          Condensed to atoms (all electrons):
 Mulliken charges:
               1
     1  C    0.063717
     2  C    0.065719
     3  O   -0.390616
     4  H    0.024856
     5  H    0.025371
     6  H    0.034894
     7  N   -0.036602
     8  C    0.111069
     9  C    0.035288
    10  O   -0.297362
    11  C    0.032562
    12  C    0.024433
    13  O   -0.380956
    14  O   -0.389859
    15  H    0.130236
    16  H   -0.041750
    17  H    0.011474
    18  H   -0.031259
    19  N   -0.148789
    20  C    0.126508
    21  C    0.050824
    22  O   -0.301319
    23  C    0.061881
    24  C    0.002766
    25  C    0.002080
    26  C   -0.004672
    27  N    0.102001
    28  H    0.120000
    29  H    0.006918
    30  H    0.007225
    31  H    0.022703
    32  H   -0.009635
    33  H    0.015876
    34  H    0.012754
    35  H    0.069745
    36  H    0.063762
    37  H    0.053805
    38  H    0.180313
    39  H    0.167632
    40  H    0.183582
    41  N   -0.099377
    42  C    0.095239
    43  C    0.076934
    44  O   -0.281875
    45  C    0.128694
    46  C    0.100448
    47  O   -0.439681
    48  O   -0.420235
    49  H    0.142624
    50  H   -0.005414
    51  H    0.028550
    52  H    0.010879
    53  N   -0.125365
    54  C    0.266850
    55  C   -0.007006
    56  O   -0.302690
    57  H    0.109601
    58  H    0.036739
    59  H   -0.008421
    60  N   -0.124183
    61  C    0.147247
    62  C    0.058567
    63  O   -0.303975
    64  C    0.059933
    65  C    0.058945
    66  N   -0.026772
    67  O   -0.356823
    68  H    0.139669
    69  H    0.033586
    70  H    0.066625
    71  H    0.012224
    72  H    0.133152
    73  H    0.150877
    74  N   -0.109655
    75  C    0.220407
    76  C    0.008555
    77  O   -0.258883
    78  H    0.127771
    79  H    0.017292
    80  H    0.042684
    81  N   -0.130779
    82  C    0.132210
    83  C    0.074233
    84  O   -0.308756
    85  C    0.134923
    86  C   -0.051668
    87  C   -0.028203
    88  C    0.008640
    89  C   -0.024596
    90  C   -0.013471
    91  C    0.180602
    92  O   -0.217860
    93  H    0.130402
    94  H    0.020059
    95  H    0.007500
    96  H    0.008424
    97  H   -0.025522
    98  H   -0.028239
    99  H   -0.025247
   100  H   -0.041136
   101  H    0.178956
   102  N   -0.133740
   103  C    0.200254
   104  C    0.043671
   105  O   -0.263988
   106  C   -0.090497
   107  C    0.012080
   108  C    0.059660
   109  C    0.048686
   110  H    0.141758
   111  H   -0.031225
   112  H   -0.001265
   113  H    0.000202
   114  H   -0.022032
   115  H   -0.006389
   116  H   -0.018291
   117  H    0.008316
   118  H    0.012924
   119  H   -0.006570
   120  H    0.018523
   121  N   -0.147997
   122  C    0.130060
   123  C    0.057859
   124  O   -0.265088
   125  C    0.197732
   126  O   -0.304852
   127  H    0.142875
   128  H    0.034923
   129  H   -0.010708
   130  H    0.013736
   131  H    0.159879
   132  N   -0.147797
   133  C    0.029745
   134  C    0.074430
   135  O   -0.284037
   136  C    0.113390
   137  H    0.124751
   138  H    0.027312
   139  H   -0.025066
   140  H    0.045033
   141  H    0.013435
   142  N   -0.113866
   143  C    0.081649
   144  C    0.019627
   145  O   -0.268101
   146  C    0.061400
   147  H    0.129288
   148  H    0.015325
   149  H    0.040747
   150  H    0.038403
   151  H   -0.016776
   152  N   -0.130061
   153  C    0.117192
   154  C    0.015711
   155  O   -0.270009
   156  C    0.046452
   157  C    0.113890
   158  C    0.108399
   159  O   -0.400407
   160  O   -0.476477
   161  H    0.117846
   162  H    0.011296
   163  H    0.000359
   164  H   -0.005541
   165  H   -0.034859
   166  H    0.028381
   167  N   -0.119433
   168  C    0.134750
   169  H    0.017945
   170  H    0.030817
   171  H    0.031596
   172  H    0.116518
   173  Ca   1.371006
   174  O   -0.322358
   175  H    0.190650
   176  H    0.205569
 Sum of Mulliken charges =  -0.00000
 Mulliken charges with hydrogens summed into heavy atoms:
               1
     1  C    0.148838
     2  C    0.065719
     3  O   -0.390616
     7  N    0.093634
     8  C    0.069319
     9  C    0.035288
    10  O   -0.297362
    11  C    0.012777
    12  C    0.024433
    13  O   -0.380956
    14  O   -0.389859
    19  N   -0.028789
    20  C    0.133426
    21  C    0.050824
    22  O   -0.301319
    23  C    0.091809
    24  C    0.009007
    25  C    0.084578
    26  C    0.112895
    27  N    0.633527
    41  N    0.043247
    42  C    0.089826
    43  C    0.076934
    44  O   -0.281875
    45  C    0.168124
    46  C    0.100448
    47  O   -0.439681
    48  O   -0.420235
    53  N   -0.015764
    54  C    0.295167
    55  C   -0.007006
    56  O   -0.302690
    60  N    0.015486
    61  C    0.180834
    62  C    0.058567
    63  O   -0.303975
    64  C    0.138782
    65  C    0.058945
    66  N    0.257258
    67  O   -0.356823
    74  N    0.018117
    75  C    0.280383
    76  C    0.008555
    77  O   -0.258883
    81  N   -0.000377
    82  C    0.152269
    83  C    0.074233
    84  O   -0.308756
    85  C    0.150847
    86  C   -0.051668
    87  C   -0.053725
    88  C   -0.019600
    89  C   -0.049843
    90  C   -0.054607
    91  C    0.180602
    92  O   -0.038903
   102  N    0.008019
   103  C    0.169029
   104  C    0.043671
   105  O   -0.263988
   106  C   -0.091762
   107  C   -0.009750
   108  C    0.043296
   109  C    0.073563
   121  N   -0.005122
   122  C    0.164983
   123  C    0.057859
   124  O   -0.265088
   125  C    0.200760
   126  O   -0.144973
   132  N   -0.023046
   133  C    0.057058
   134  C    0.074430
   135  O   -0.284037
   136  C    0.146791
   142  N    0.015422
   143  C    0.096974
   144  C    0.019627
   145  O   -0.268101
   146  C    0.123774
   152  N   -0.012216
   153  C    0.128488
   154  C    0.015711
   155  O   -0.270009
   156  C    0.041270
   157  C    0.107412
   158  C    0.108399
   159  O   -0.400407
   160  O   -0.476477
   167  N   -0.002915
   168  C    0.215107
   173  Ca   1.371006
   174  O    0.073861
 DipInt: DoE/N= T F RetVal/Mat= T F Init=T NMatP=  1 IDeriv=0 Min/MaxMlt=  0  4
 Entering OneElI...
 OneElI was handed  1333951383 working-precision words.
 Multipole integrals L=0 to 4 MinM= 0 MaxM= 0.
 Requested accuracy = 0.1000D-12
 ShPair: Thresh= 1.00D-13 NBox=     0 BxSize= 0.00D+00 RnKept= 3.19D+01
         NSMCal=               327645 NSMKep=              118417
 PrmmSu-InSpLW:  IPartL=    0 NPrtUS=    1 NPrtUL=    1 DoSpLW=F IThBeg=    0 IThEnd=    0 NThAct=    1.
 PrsmSu:  NPrtUS=   1 ThrOK=F IAlg=1 NPAlg=1 LenDen=           0 ISkipM=0 DoSpLW=F IThBeg=    0 IThEnd=    0.
 Prism:   IPart=     0 DynPar=F LinDyn=F Incr=         512.
 PRISM was handed  1325469689 working-precision words and118417 shell-pairs
 IPart=  0 NShTot=      118417 NBatch=         284 AvBLen=       417.0
 PrsmSu-ThDecC:  IPartSL=    0    0 NPrtUSL=    1    1 IThBeg=    0 IThEnd=    0 CPU=   -1 GPU=   -1 NThAct=    1.
 PrSmSu:  NxtVal=            513.
 Electronic moments (au):
       -716.00000000          4.67334668         -3.08634667         -5.11898477
    -111823.08597602     -42382.94090920     -12277.98293748       -107.78695238
         -4.96566513        -31.03222439    -628769.92635324    -101343.98838862
      -8773.03039268     277067.60442356    -112162.06551758    -190310.88050833
     -48141.08848914      15033.17568620      18344.75095258     -83917.77057063
  -35397013.82604910   -7621476.25247953    -611130.86558688   -1012919.34604684
   -1613737.18138938    1880095.41353524     756033.05744033    -208054.83169544
    -134110.35853049   -4348576.42004418   -1983959.45873464    -582816.15337242
      50542.54791703    -250260.51543541    -178735.00552196
 Electronic spatial extent (au):  <R**2>=         166484.0098
 DipInt: DoE/N= F T RetVal/Mat= T F Init=T NMatP=  1 IDeriv=0 Min/MaxMlt=  0  4
 Nuclear    moments (au):
        716.00000000         -0.00000000         -0.00000000         -0.00000000
     111671.15314578      41909.64508663      11894.44651188          0.00000000
          0.00000000         -0.00000000     638807.77362199     100734.89516461
       8167.09453779    -278277.72645705     111967.28435255     190857.93158246
      47801.31302028     -15662.35668578     -19311.00630845      83341.49084116
   35297496.46577834    7465846.62698470     575720.81078508     979503.95601880
    1640585.43105489   -1889495.60046621    -761515.13554513     207037.15057284
     135156.34205556    4248748.05798778    1912130.70065706     552664.34579528
     -62210.37004172     249473.50942884     173052.81917449
 Total      moments (au):
         -0.00000000          4.67334668         -3.08634667         -5.11898477
       -151.93283024       -473.29582257       -383.53642561       -107.78695238
         -4.96566513        -31.03222439      10037.84726875       -609.09322401
       -605.93585488      -1210.12203349       -194.78116503        547.05107413
       -339.77546886       -629.18099958       -966.25535587       -576.27972947
     -99517.36027076    -155629.62549483     -35410.05480180     -33415.39002804
      26848.24966550      -9400.18693097      -5482.07810480      -1017.68112260
       1045.98352507     -99828.36205641     -71828.75807758     -30151.80757714
     -11667.82212469       -787.00600658      -5682.18634747
 Traceless Quadrup. (au):
        184.32219590       -137.04079643        -47.28139947       -107.78695238
         -4.96566513        -31.03222439
 Charge=             -0.0000 electrons
 Dipole moment (field-independent basis, Debye):
    X=             11.8785    Y=             -7.8447    Z=            -13.0112  Tot=             19.2854
 Quadrupole moment (field-independent basis, Debye-Ang):
   XX=           -204.3549   YY=           -636.5991   ZZ=           -515.8696
   XY=           -144.9771   XZ=             -6.6790   YZ=            -41.7394
 Traceless Quadrupole moment (field-independent basis, Debye-Ang):
   XX=            247.9197   YY=           -184.3246   ZZ=            -63.5951
   XY=           -144.9771   XZ=             -6.6790   YZ=            -41.7394
 Octapole moment (field-independent basis, Debye-Ang**2):
  XXX=           7144.5530  YYY=           -433.5291  ZZZ=           -431.2818  XYY=           -861.3182
  XXY=           -138.6377  XXZ=            389.3699  XZZ=           -241.8391  YZZ=           -447.8268
  YYZ=           -687.7433  XYZ=           -410.1737
 Hexadecapole moment (field-independent basis, Debye-Ang**3):
 XXXX=         -37483.0099 YYYY=         -58617.5796 ZZZZ=         -13337.1246 XXXY=         -12585.8382
 XXXZ=          10112.3382 YYYX=          -3540.5612 YYYZ=          -2064.8135 ZZZX=           -383.3075
 ZZZY=            393.9676 XXYY=         -37600.1481 XXZZ=         -27054.1546 YYZZ=         -11356.6166
 XXYZ=          -4394.6613 YYXZ=           -296.4242 ZZXY=          -2140.1838
 N-N= 1.858330533845D+04 E-N=-4.964516297168D+04  KE= 5.290597805378D+03
 Leave Link  601 at Tue Sep 17 00:14:26 2019, MaxMem=  1342177280 cpu:              39.9 elap:               1.0
 FitSet:  NAtFit=   176 NAtPot=   176 NAtFrz=     0 MDM=   180 TotChg=   0.00000
 Merz-Kollman atomic radii used.
 Read replacement radii for each type of atom:
 Rad(20) =   1.700000000000D+00
 Atom Element Radius
    1     6    1.50
    2     6    1.50
    3     8    1.40
    4     1    1.20
    5     1    1.20
    6     1    1.20
    7     7    1.50
    8     6    1.50
    9     6    1.50
   10     8    1.40
   11     6    1.50
   12     6    1.50
   13     8    1.40
   14     8    1.40
   15     1    1.20
   16     1    1.20
   17     1    1.20
   18     1    1.20
   19     7    1.50
   20     6    1.50
   21     6    1.50
   22     8    1.40
   23     6    1.50
   24     6    1.50
   25     6    1.50
   26     6    1.50
   27     7    1.50
   28     1    1.20
   29     1    1.20
   30     1    1.20
   31     1    1.20
   32     1    1.20
   33     1    1.20
   34     1    1.20
   35     1    1.20
   36     1    1.20
   37     1    1.20
   38     1    1.20
   39     1    1.20
   40     1    1.20
   41     7    1.50
   42     6    1.50
   43     6    1.50
   44     8    1.40
   45     6    1.50
   46     6    1.50
   47     8    1.40
   48     8    1.40
   49     1    1.20
   50     1    1.20
   51     1    1.20
   52     1    1.20
   53     7    1.50
   54     6    1.50
   55     6    1.50
   56     8    1.40
   57     1    1.20
   58     1    1.20
   59     1    1.20
   60     7    1.50
   61     6    1.50
   62     6    1.50
   63     8    1.40
   64     6    1.50
   65     6    1.50
   66     7    1.50
   67     8    1.40
   68     1    1.20
   69     1    1.20
   70     1    1.20
   71     1    1.20
   72     1    1.20
   73     1    1.20
   74     7    1.50
   75     6    1.50
   76     6    1.50
   77     8    1.40
   78     1    1.20
   79     1    1.20
   80     1    1.20
   81     7    1.50
   82     6    1.50
   83     6    1.50
   84     8    1.40
   85     6    1.50
   86     6    1.50
   87     6    1.50
   88     6    1.50
   89     6    1.50
   90     6    1.50
   91     6    1.50
   92     8    1.40
   93     1    1.20
   94     1    1.20
   95     1    1.20
   96     1    1.20
   97     1    1.20
   98     1    1.20
   99     1    1.20
  100     1    1.20
  101     1    1.20
  102     7    1.50
  103     6    1.50
  104     6    1.50
  105     8    1.40
  106     6    1.50
  107     6    1.50
  108     6    1.50
  109     6    1.50
  110     1    1.20
  111     1    1.20
  112     1    1.20
  113     1    1.20
  114     1    1.20
  115     1    1.20
  116     1    1.20
  117     1    1.20
  118     1    1.20
  119     1    1.20
  120     1    1.20
  121     7    1.50
  122     6    1.50
  123     6    1.50
  124     8    1.40
  125     6    1.50
  126     8    1.40
  127     1    1.20
  128     1    1.20
  129     1    1.20
  130     1    1.20
  131     1    1.20
  132     7    1.50
  133     6    1.50
  134     6    1.50
  135     8    1.40
  136     6    1.50
  137     1    1.20
  138     1    1.20
  139     1    1.20
  140     1    1.20
  141     1    1.20
  142     7    1.50
  143     6    1.50
  144     6    1.50
  145     8    1.40
  146     6    1.50
  147     1    1.20
  148     1    1.20
  149     1    1.20
  150     1    1.20
  151     1    1.20
  152     7    1.50
  153     6    1.50
  154     6    1.50
  155     8    1.40
  156     6    1.50
  157     6    1.50
  158     6    1.50
  159     8    1.40
  160     8    1.40
  161     1    1.20
  162     1    1.20
  163     1    1.20
  164     1    1.20
  165     1    1.20
  166     1    1.20
  167     7    1.50
  168     6    1.50
  169     1    1.20
  170     1    1.20
  171     1    1.20
  172     1    1.20
  173    20    1.70
  174     8    1.40
[...]
 **** Fit      -0.006720
 **** Fit      -0.006612
 **** Fit      -0.006103
 **** Fit      -0.005412
 **** Fit      -0.004683
 **** Fit      -0.003934
 **** Fit      -0.003064
 **** Fit      -0.006234
 **** Fit      -0.008742
 **** Fit      -0.008522
 **** Fit      -0.007921
 **** Fit      -0.007135
 **** Fit      -0.006337
 **** Fit      -0.005627
 **** Fit      -0.004993
 **** Fit      -0.004323
 **** Fit      -0.003456
 **** Fit      -0.008408
 **** Fit      -0.011245
 **** Fit      -0.010866
 **** Fit      -0.010084
 **** Fit      -0.009098
 **** Fit      -0.008103
 **** Fit      -0.007250
 **** Fit      -0.006603
 **** Fit      -0.006109
 **** Fit      -0.005614
 **** Fit      -0.004916
 **** Fit      -0.011047
 **** Fit      -0.014398
 **** Fit      -0.013817
 **** Fit      -0.012806
 **** Fit      -0.011562
 **** Fit      -0.010290
 **** Fit      -0.009179
 **** Fit      -0.008362
 **** Fit      -0.007874
 **** Fit      -0.007621
 **** Fit      -0.007399
 **** Fit      -0.006952
 **** Fit      -0.006053
 **** Fit      -0.014373
 **** Fit      -0.018441
 **** Fit      -0.017521
 **** Fit      -0.016094
 **** Fit      -0.014399
 **** Fit      -0.012686
 **** Fit      -0.011202
 **** Fit      -0.010152
 **** Fit      -0.009640
 **** Fit      -0.009611
 **** Fit      -0.009835
 **** Fit      -0.009944
 **** Fit      -0.009543
 **** Fit      -0.018636
 **** Fit      -0.023732
 **** Fit      -0.022316
 **** Fit      -0.020317
 **** Fit      -0.018017
 **** Fit      -0.015714
 **** Fit      -0.013713
 **** Fit      -0.012297
 **** Fit      -0.011664
 **** Fit      -0.011844
 **** Fit      -0.012635
 **** Fit      -0.013602
 **** Fit      -0.014148
 **** Fit      -0.013685
 **** Fit      -0.024291
 **** Fit      -0.030838
 **** Fit      -0.028582
 **** Fit      -0.025655
 **** Fit      -0.022426
 **** Fit      -0.019267
 **** Fit      -0.016564
 **** Fit      -0.014701
 **** Fit      -0.013986
 **** Fit      -0.014537
 **** Fit      -0.016174
 **** Fit      -0.018365
 **** Fit      -0.027345
 **** Fit      -0.022866
 **** Fit      -0.019280
 **** Fit      -0.017140
 **** Fit      -0.016897
 **** Fit      -0.018704
 **** Fit      -0.021913
 **** Fit      -0.020036
 **** Fit      -0.021365
 **** Fit      -0.005563
 **** Fit      -0.004879
 **** Fit      -0.001997
 **** Fit       0.001565
 **** Fit       0.004839
 **** Fit      -0.004156
 **** Fit      -0.000082
 **** Fit       0.003552
 **** Fit       0.006164
 **** Fit       0.007633
 **** Fit       0.003738
 **** Fit       0.006161
 **** Fit       0.007524
 **** Fit       0.007862
 **** Fit       0.006713
 **** Fit       0.008007
 **** Fit       0.008496
 **** Fit       0.008139
 **** Fit       0.009873
 **** Fit       0.009961
 **** Fit       0.009477
 **** Fit       0.012711
 **** Fit       0.011897
 **** Fit       0.010799
 **** Fit       0.015484
 **** Fit       0.013984
 **** Fit       0.012457
 **** Fit      -0.022194
 **** Fit      -0.010610
 **** Fit      -0.012677
 **** Fit      -0.001804
 **** Fit      -0.001753
 **** Fit      -0.003574
 **** Fit      -0.007493
 **** Fit       0.003995
 **** Fit       0.005934
 **** Fit       0.006146
 **** Fit       0.004689
 **** Fit       0.001508
 **** Fit       0.009864
 **** Fit       0.012355
 **** Fit       0.013228
 **** Fit       0.012631
 **** Fit       0.010600
 **** Fit       0.007151
 **** Fit       0.015496
 **** Fit       0.017927
 **** Fit       0.019127
 **** Fit       0.019175
 **** Fit       0.018099
 **** Fit       0.015933
 **** Fit       0.012777
 **** Fit       0.008853
 **** Fit       0.017380
 **** Fit       0.027191
 **** Fit       0.029112
 **** Fit       0.029894
 **** Fit       0.021629
 **** Fit       0.026813
 **** Fit       0.027157
 **** Fit       0.026639
 **** Fit       0.025479
 **** Fit       0.022379
 **** Fit       0.023673
 **** Fit       0.024287
 **** Fit       0.024109
 **** Fit       0.023102
 **** Fit       0.021320
 **** Fit       0.018931
 **** Fit       0.016245
 **** Fit       0.013714
 **** Fit       0.022895
 **** Fit       0.024375
 **** Fit       0.026539
 **** Fit       0.029047
 **** Fit       0.031510
 **** Fit       0.033550
 **** Fit       0.034845
 **** Fit       0.035115
 **** Fit       0.034132
 **** Fit       0.031880
 **** Fit       0.028827
 **** Fit       0.027211
 **** Fit       0.030312
 **** Fit       0.033167
 **** Fit       0.035145
 **** Fit       0.036142
 **** Fit       0.036328
 **** Fit       0.027731
 **** Fit       0.028227
 **** Fit       0.028190
 **** Fit       0.027568
 **** Fit       0.026443
 **** Fit       0.025026
 **** Fit       0.023627
 **** Fit       0.022611
 **** Fit       0.022303
 **** Fit       0.031411
 **** Fit       0.032667
 **** Fit       0.034398
 **** Fit       0.036351
 **** Fit       0.038205
 **** Fit       0.039631
 **** Fit       0.040347
 **** Fit       0.040173
 **** Fit       0.039123
 **** Fit       0.037535
 **** Fit       0.036077
 **** Fit       0.035501
 **** Fit       0.036229
 **** Fit       0.038097
 **** Fit       0.040502
 **** Fit       0.042807
 **** Fit       0.044659
 **** Fit       0.030973
 **** Fit       0.031578
 **** Fit       0.031696
 **** Fit       0.031425
 **** Fit       0.030989
 **** Fit       0.030676
 **** Fit       0.030757
 **** Fit       0.037916
 **** Fit       0.039192
 **** Fit       0.040748
 **** Fit       0.042391
 **** Fit       0.043861
 **** Fit       0.044906
 **** Fit       0.045351
 **** Fit       0.045192
 **** Fit       0.044664
 **** Fit       0.044231
 **** Fit       0.044412
 **** Fit       0.045508
 **** Fit       0.047454
 **** Fit       0.049943
 **** Fit       0.034219
 **** Fit       0.035227
 **** Fit       0.035866
 **** Fit       0.036373
 **** Fit       0.036996
 **** Fit       0.042656
 **** Fit       0.044143
 **** Fit       0.045721
 **** Fit       0.047256
 **** Fit       0.048566
 **** Fit       0.049503
 **** Fit       0.050043
 **** Fit       0.050349
 **** Fit       0.050766
 **** Fit       0.051699
 **** Fit       0.053445
 **** Fit       0.056125
 **** Fit       0.036439
 **** Fit       0.038413
 **** Fit       0.039943
 **** Fit       0.041289
 **** Fit       0.045853
 **** Fit       0.047787
 **** Fit       0.049619
 **** Fit       0.051283
 **** Fit       0.052696
 **** Fit       0.053862
 **** Fit       0.054960
 **** Fit       0.056353
 **** Fit       0.058501
 **** Fit       0.041378
 **** Fit       0.043777
 **** Fit       0.047765
 **** Fit       0.050378
 **** Fit       0.052682
 **** Fit       0.054746
 **** Fit       0.056671
 **** Fit       0.058731
 **** Fit       0.020899
 **** Fit       0.016500
 **** Fit       0.016389
 **** Fit       0.033168
 **** Fit       0.028982
 **** Fit       0.025487
 **** Fit       0.022557
 **** Fit       0.020148
 **** Fit       0.019722
 **** Fit       0.022201
 **** Fit       0.025867
 **** Fit       0.030772
 **** Fit       0.028911
 **** Fit       0.027626
 **** Fit       0.021441
 **** Fit       0.022352
 **** Fit       0.024357
 **** Fit       0.027544
 **** Fit       0.034776
 **** Fit       0.022353
 **** Fit       0.022135
 **** Fit       0.022930
 **** Fit       0.024786
 **** Fit       0.027750
 **** Fit       0.031859
 **** Fit       0.023344
 **** Fit       0.022246
 **** Fit       0.022099
 **** Fit       0.022943
 **** Fit       0.024800
 **** Fit       0.027676
 **** Fit       0.031545
 **** Fit       0.036319
 **** Fit       0.036085
 **** Fit       0.040720
 **** Fit       0.045373
 **** Fit       0.049655
 **** Fit       0.053199
 **** Fit       0.055752
 **** Fit       0.057244
 **** Fit       0.057804
 **** Fit       0.024500
 **** Fit       0.022861
 **** Fit       0.022088
 **** Fit       0.022226
 **** Fit       0.023295
 **** Fit       0.025285
 **** Fit       0.028156
 **** Fit       0.031811
 **** Fit       0.032787
 **** Fit       0.036780
 **** Fit       0.040885
 **** Fit       0.044788
 **** Fit       0.048218
 **** Fit       0.051011
 **** Fit       0.026891
 **** Fit       0.024588
 **** Fit       0.023092
 **** Fit       0.022491
 **** Fit       0.022822
 **** Fit       0.024088
 **** Fit       0.026244
 **** Fit       0.029198
 **** Fit       0.031374
 **** Fit       0.035048
 **** Fit       0.038950
 **** Fit       0.042805
 **** Fit       0.046400
 **** Fit       0.030541
 **** Fit       0.027610
 **** Fit       0.025373
 **** Fit       0.024003
 **** Fit       0.023596
 **** Fit       0.024187
 **** Fit       0.025751
 **** Fit       0.028200
 **** Fit       0.031467
 **** Fit       0.034956
 **** Fit       0.038813
 **** Fit       0.042795
 **** Fit       0.038230
 **** Fit       0.034802
 **** Fit       0.031525
 **** Fit       0.028732
 **** Fit       0.026696
 **** Fit       0.025608
 **** Fit       0.025568
 **** Fit       0.026589
 **** Fit       0.028605
 **** Fit       0.032782
 **** Fit       0.036304
 **** Fit       0.040664
 **** Fit       0.037115
 **** Fit       0.033746
 **** Fit       0.030912
 **** Fit       0.028952
 **** Fit       0.028108
 **** Fit       0.028496
 **** Fit       0.030100
 **** Fit       0.035077
 **** Fit       0.037501
 **** Fit       0.034259
 **** Fit       0.032120
 **** Fit       0.031476
 **** Fit       0.032494
 **** Fit       0.035949
 **** Fit       0.035779
 **** Fit       0.045245
 **** Fit       0.040958
 **** Fit       0.037685
 **** Fit       0.035167
 **** Fit       0.033306
 **** Fit       0.050269
 **** Fit       0.046079
 **** Fit       0.042909
 **** Fit       0.040443
 **** Fit       0.038490
 **** Fit       0.036987
 **** Fit       0.035950
 **** Fit       0.035445
 **** Fit       0.035592
 **** Fit       0.056425
 **** Fit       0.052173
 **** Fit       0.048573
 **** Fit       0.045726
 **** Fit       0.043521
 **** Fit       0.041781
 **** Fit       0.040384
 **** Fit       0.039291
 **** Fit       0.038524
 **** Fit       0.038141
 **** Fit       0.038224
 **** Fit       0.038888
 **** Fit       0.040295
 **** Fit       0.056024
 **** Fit       0.053836
 **** Fit       0.051226
 **** Fit       0.048678
 **** Fit       0.046480
 **** Fit       0.044707
 **** Fit       0.043303
 **** Fit       0.042178
 **** Fit       0.041284
 **** Fit       0.040625
 **** Fit       0.040244
 **** Fit       0.040204
 **** Fit       0.040583
 **** Fit       0.041471
 **** Fit       0.042970
 **** Fit       0.051048
 **** Fit       0.050621
 **** Fit       0.049454
 **** Fit       0.047968
 **** Fit       0.046492
 **** Fit       0.045203
 **** Fit       0.044143
 **** Fit       0.043284
 **** Fit       0.042602
 **** Fit       0.042099
 **** Fit       0.041814
 **** Fit       0.041798
 **** Fit       0.042110
 **** Fit       0.042807
 **** Fit       0.043925
 **** Fit       0.045454
 **** Fit       0.046677
 **** Fit       0.047524
 **** Fit       0.047551
 **** Fit       0.047039
 **** Fit       0.046274
 **** Fit       0.045470
 **** Fit       0.044740
 **** Fit       0.044118
 **** Fit       0.043610
 **** Fit       0.043229
 **** Fit       0.043004
 **** Fit       0.042975
 **** Fit       0.043183
 **** Fit       0.043652
 **** Fit       0.044372
 **** Fit       0.045269
 **** Fit       0.046156
 **** Fit       0.041111
 **** Fit       0.043406
 **** Fit       0.044934
 **** Fit       0.045688
 **** Fit       0.045834
 **** Fit       0.045605
 **** Fit       0.045212
 **** Fit       0.044787
 **** Fit       0.044397
 **** Fit       0.044077
 **** Fit       0.043858
 **** Fit       0.043778
 **** Fit       0.043867
 **** Fit       0.044128
 **** Fit       0.044513
 **** Fit       0.044888
 **** Fit       0.045009
 **** Fit       0.044544
 **** Fit       0.038872
 **** Fit       0.041055
 **** Fit       0.042890
 **** Fit       0.044138
 **** Fit       0.044792
 **** Fit       0.044998
 **** Fit       0.044939
 **** Fit       0.044759
 **** Fit       0.044548
 **** Fit       0.044364
 **** Fit       0.044247
 **** Fit       0.044223
 **** Fit       0.044277
 **** Fit       0.044326
 **** Fit       0.044200
 **** Fit       0.043654
 **** Fit       0.042463
 **** Fit       0.040598
 **** Fit       0.039778
 **** Fit       0.041511
 **** Fit       0.042986
 **** Fit       0.043958
 **** Fit       0.044446
 **** Fit       0.044598
 **** Fit       0.044568
 **** Fit       0.044462
 **** Fit       0.044342
 **** Fit       0.044219
 **** Fit       0.044025
 **** Fit       0.043594
 **** Fit       0.042716
 **** Fit       0.041307
 **** Fit       0.039606
 **** Fit       0.038195
 **** Fit       0.037685
 **** Fit       0.038309
 **** Fit       0.040798
 **** Fit       0.042239
 **** Fit       0.043407
 **** Fit       0.044036
 **** Fit       0.044233
 **** Fit       0.044173
 **** Fit       0.043934
 **** Fit       0.043432
 **** Fit       0.042484
 **** Fit       0.041131
 **** Fit       0.039978
 **** Fit       0.039821
 **** Fit       0.041797
 **** Fit       0.042992
 **** Fit       0.043607
 **** Fit       0.043413
 **** Fit       0.042503
 **** Fit       0.041477
 **** Fit       0.042687
 **** Fit       0.011238
 **** Fit       0.015581
 **** Fit       0.017935
 **** Fit       0.016022
 **** Fit       0.014653
 **** Fit       0.013672
 **** Fit       0.012965
 **** Fit       0.012468
 **** Fit       0.012159
 **** Fit       0.012046
 **** Fit       0.012142
 **** Fit       0.012471
 **** Fit       0.013069
 **** Fit       0.013999
 **** Fit       0.015362
 **** Fit       0.017325
 **** Fit       0.027701
 **** Fit       0.025321
 **** Fit       0.023604
 **** Fit       0.022354
 **** Fit       0.021416
 **** Fit       0.020679
 **** Fit       0.020080
 **** Fit       0.019596
 **** Fit       0.019227
 **** Fit       0.018985
 **** Fit       0.018893
 **** Fit       0.018980
 **** Fit       0.019287
 **** Fit       0.019876
 **** Fit       0.020839
 **** Fit       0.033597
 **** Fit       0.031103
 **** Fit       0.029303
 **** Fit       0.027968
 **** Fit       0.026929
 **** Fit       0.026073
 **** Fit       0.025337
 **** Fit       0.024692
 **** Fit       0.024133
 **** Fit       0.023668
 **** Fit       0.023309
 **** Fit       0.023076
 **** Fit       0.022996
 **** Fit       0.023102
 **** Fit       0.040003
 **** Fit       0.036757
 **** Fit       0.034437
 **** Fit       0.032727
 **** Fit       0.031402
 **** Fit       0.030312
 **** Fit       0.029366
 **** Fit       0.028515
 **** Fit       0.027737
 **** Fit       0.027024
 **** Fit       0.026376
 **** Fit       0.025793
 **** Fit       0.025274
 **** Fit       0.041662
 **** Fit       0.038736
 **** Fit       0.036592
 **** Fit       0.034942
 **** Fit       0.033595
 **** Fit       0.032430
 **** Fit       0.031376
 **** Fit       0.030390
 **** Fit       0.029447
 **** Fit       0.028530
 **** Fit       0.027616
 **** Fit       0.042303
 **** Fit       0.039581
 **** Fit       0.037522
 **** Fit       0.035860
 **** Fit       0.034429
 **** Fit       0.033127
 **** Fit       0.031891
 **** Fit       0.030678
 **** Fit       0.029449
 **** Fit       0.045268
 **** Fit       0.041951
 **** Fit       0.039480
 **** Fit       0.037509
 **** Fit       0.035824
 **** Fit       0.034298
 **** Fit       0.032857
 **** Fit       0.045338
 **** Fit       0.041992
 **** Fit       0.039476
 **** Fit       0.037452
 -----------------------------------------------------------------
 Leave Link  602 at Tue Sep 17 00:14:29 2019, MaxMem=  1342177280 cpu:             114.6 elap:               2.4

 Test job not archived.
 1\1\GINC-C506-101\SP\RB3LYP\SVP\C54H83Ca1N15O23\PENGZHI\17-Sep-2019\0\
 \#b3lyp/svp scf=(tight,noincore) Test #IOP(5/87=12) Density=Current Po
 p=(MK,readradii) iop(6/33=2) iop(6/42=6)\\Ng-293_loop3_2.0\\0,1\C,0,39
 .62,7.95,7.96\C,0,38.5,8.68,7.22\O,0,37.6,8.04,6.68\H,0,40.467,8.624,8
 .092\H,0,39.26,7.624,8.936\H,0,39.934,7.082,7.38\N,0,38.58,10.,7.12\C,
 0,37.61,10.73,6.32\C,0,36.48,11.24,7.2\O,0,36.63,11.25,8.42\C,0,38.26,
 11.84,5.5\C,0,39.49,11.5,4.66\O,0,39.99,12.43,4.\O,0,40.06,10.39,4.68\
 H,0,39.23,10.51,7.7\H,0,37.12,10.1,5.58\H,0,38.55,12.59,6.24\H,0,37.51
 ,12.29,4.85\N,0,35.37,11.68,6.61\C,0,34.16,12.16,7.25\C,0,34.37,13.43,
 8.07\O,0,33.37,14.01,8.48\C,0,33.31,11.05,7.84\C,0,32.86,9.96,6.87\C,0
 ,33.71,8.7,7.01\C,0,34.2,8.31,5.61\N,0,35.01,7.08,5.7\H,0,35.36,11.59,
 5.6\H,0,33.56,12.56,6.43\H,0,32.38,11.44,8.26\H,0,33.76,10.65,8.76\H,0
 ,32.94,10.33,5.84\H,0,31.81,9.72,7.04\H,0,32.92,8.,7.28\H,0,34.51,8.82
 ,7.73\H,0,34.77,9.13,5.18\H,0,33.36,8.18,4.93\H,0,35.78,7.17,6.35\H,0,
 34.42,6.31,5.97\H,0,35.35,6.84,4.78\N,0,35.57,13.81,8.52\C,0,35.9,14.9
 8,9.3\C,0,37.21,15.54,8.79\O,0,38.07,14.86,8.23\C,0,36.01,14.58,10.77\
 C,0,36.13,15.66,11.83\O,0,36.83,16.69,11.67\O,0,35.53,15.59,12.92\H,0,
 36.33,13.24,8.17\H,0,35.25,15.85,9.19\H,0,36.67,13.72,10.92\H,0,35.06,
 14.07,10.95\N,0,37.45,16.82,9.11\C,0,38.68,17.55,8.88\C,0,38.73,18.76,
 9.8\O,0,37.94,19.67,9.54\H,0,36.73,17.44,9.44\H,0,38.8,17.78,7.82\H,0,
 39.46,16.84,9.15\N,0,39.64,18.84,10.78\C,0,40.,20.01,11.54\C,0,40.82,2
 1.09,10.86\O,0,41.29,22.05,11.47\C,0,40.52,19.63,12.92\C,0,39.52,18.68
 ,13.57\N,0,39.95,17.6,14.23\O,0,38.32,18.83,13.39\H,0,40.16,17.97,10.8
 2\H,0,39.11,20.6,11.76\H,0,40.56,20.56,13.48\H,0,41.49,19.15,12.79\H,0
 ,40.89,17.61,14.6\H,0,39.19,17.09,14.65\N,0,41.07,21.03,9.55\C,0,41.86
 ,21.98,8.78\C,0,43.35,22.02,9.1\O,0,44.04,21.,9.13\H,0,40.89,20.14,9.1
 \H,0,41.31,22.91,8.94\H,0,41.91,21.74,7.72\N,0,43.86,23.22,9.38\C,0,45
 .13,23.45,10.05\C,0,45.33,22.69,11.36\O,0,46.46,22.61,11.83\C,0,46.29,
 23.38,9.06\C,0,46.38,24.45,7.99\C,0,45.8,24.19,6.75\C,0,46.95,25.7,8.2
 6\C,0,45.74,25.2,5.78\C,0,46.96,26.67,7.25\C,0,46.29,26.47,6.03\O,0,46
 .35,27.4,5.03\H,0,43.36,23.99,8.97\H,0,45.2,24.48,10.41\H,0,46.14,22.3
 8,8.65\H,0,47.26,23.36,9.55\H,0,45.37,23.22,6.55\H,0,47.32,25.86,9.26\
 H,0,45.28,24.9,4.85\H,0,47.29,27.68,7.44\H,0,46.31,28.3,5.35\N,0,44.29
 ,22.13,11.98\C,0,44.28,21.38,13.22\C,0,44.44,22.29,14.43\O,0,43.46,22.
 47,15.14\C,0,45.2,20.16,13.19\C,0,44.78,19.2,12.08\C,0,45.34,19.47,14.
 55\C,0,45.92,18.35,11.54\H,0,43.41,22.27,11.5\H,0,43.24,21.06,13.19\H,
 0,46.22,20.51,13.03\H,0,44.31,19.78,11.29\H,0,43.95,18.56,12.4\H,0,46.
 22,18.83,14.56\H,0,45.53,20.15,15.39\H,0,44.53,18.79,14.83\H,0,46.75,1
 9.01,11.28\H,0,46.33,17.71,12.32\H,0,45.57,17.73,10.71\N,0,45.62,22.89
 ,14.6\C,0,45.84,23.81,15.7\C,0,46.,23.21,17.08\O,0,45.74,23.84,18.11\C
 ,0,47.14,24.53,15.36\O,0,46.94,25.41,14.27\H,0,46.31,22.76,13.87\H,0,4
 4.99,24.5,15.7\H,0,47.93,23.81,15.14\H,0,47.46,25.2,16.16\H,0,47.81,25
 .65,13.96\N,0,46.32,21.91,17.15\C,0,46.48,21.11,18.35\C,0,45.29,21.19,
 19.29\O,0,45.47,21.15,20.51\C,0,47.83,21.35,19.02\H,0,46.76,21.5,16.34
 \H,0,46.4,20.07,18.02\H,0,48.51,21.43,18.17\H,0,47.88,22.22,19.67\H,0,
 48.12,20.45,19.57\N,0,44.09,21.01,18.75\C,0,42.77,20.98,19.35\C,0,41.9
 9,19.75,18.9\O,0,42.51,18.98,18.1\C,0,42.13,22.27,18.85\H,0,43.97,21.1
 8,17.76\H,0,42.83,20.85,20.43\H,0,42.42,23.08,19.52\H,0,42.51,22.47,17
 .85\H,0,41.05,22.15,18.84\N,0,40.8,19.49,19.43\C,0,39.92,18.36,19.19\C
 ,0,40.54,17.03,19.61\O,0,39.96,16.,19.28\C,0,39.35,18.3,17.77\C,0,37.9
 9,17.61,17.75\C,0,37.37,17.72,16.36\O,0,37.63,16.86,15.49\O,0,36.61,18
 .68,16.1\H,0,40.3,20.25,19.87\H,0,39.14,18.48,19.94\H,0,40.01,17.75,17
 .11\H,0,39.25,19.3,17.33\H,0,37.36,17.93,18.57\H,0,38.17,16.56,17.97\N
 ,0,41.62,16.96,20.38\C,0,42.5,15.81,20.5\H,0,43.424,16.11,20.994\H,0,4
 2.009,15.036,21.089\H,0,42.729,15.422,19.508\H,0,42.08,17.83,20.62\Ca,
 0,35.8,18.11,13.72\O,0,34.45,20.01,14.79\H,0,34.29,20.9,14.47\H,0,34.6
 3,20.12,15.72\\Version=ES64L-G16RevA.03\State=1-A\HF=-5333.451993\RMSD
 =1.417e-09\Dipole=-7.5270724,-0.8909239,0.3451748\Quadrupole=43.585778
 2,111.2460175,-154.8317957,125.2680129,68.738378,23.6578693\PG=C01 [X(
 C54H83Ca1N15O23)]\\@


 IT IS BETTER TO THINK YOU ARE HALF DRY THAN TO KNOW YOU
 ARE ALL WET.  -- SNOOPY
 Job cpu time:       0 days  6 hours 48 minutes  6.2 seconds.
 Elapsed time:       0 days  0 hours  8 minutes 37.2 seconds.
 File lengths (MBytes):  RWF=   1517 Int=      0 D2E=      0 Chk=    171 Scr=      1
 Normal termination of Gaussian 16 at Tue Sep 17 00:14:30 2019.
