 Entering Gaussian System, Link 0=g16
 Initial command:
 /home1/apps/gaussian/16rA.03/g16/l1.exe "/scratch/01990/pengzhi/4345542/Gau-417801.inp" -scrdir="/scratch/01990/pengzhi/4345542/"
 Entering Link 1 = /home1/apps/gaussian/16rA.03/g16/l1.exe PID=    417802.
  
 Copyright (c) 1988,1990,1992,1993,1995,1998,2003,2009,2016,
            Gaussian, Inc.  All Rights Reserved.
  
 This is part of the Gaussian(R) 16 program.  It is based on
 the Gaussian(R) 09 system (copyright 2009, Gaussian, Inc.),
 the Gaussian(R) 03 system (copyright 2003, Gaussian, Inc.),
 the Gaussian(R) 98 system (copyright 1998, Gaussian, Inc.),
 the Gaussian(R) 94 system (copyright 1995, Gaussian, Inc.),
 the Gaussian 92(TM) system (copyright 1992, Gaussian, Inc.),
 the Gaussian 90(TM) system (copyright 1990, Gaussian, Inc.),
 the Gaussian 88(TM) system (copyright 1988, Gaussian, Inc.),
 the Gaussian 86(TM) system (copyright 1986, Carnegie Mellon
 University), and the Gaussian 82(TM) system (copyright 1983,
 Carnegie Mellon University). Gaussian is a federally registered
 trademark of Gaussian, Inc.
  
 This software contains proprietary and confidential information,
 including trade secrets, belonging to Gaussian, Inc.
  
 This software is provided under written license and may be
 used, copied, transmitted, or stored only in accord with that
 written license.
  
 The following legend is applicable only to US Government
 contracts under FAR:
  
                    RESTRICTED RIGHTS LEGEND
  
 Use, reproduction and disclosure by the US Government is
 subject to restrictions as set forth in subparagraphs (a)
 and (c) of the Commercial Computer Software - Restricted
 Rights clause in FAR 52.227-19.
  
 Gaussian, Inc.
 340 Quinnipiac St., Bldg. 40, Wallingford CT 06492
  
  
 ---------------------------------------------------------------
 Warning -- This program may not be used in any manner that
 competes with the business of Gaussian, Inc. or will provide
 assistance to any competitor of Gaussian, Inc.  The licensee
 of this program is prohibited from giving any competitor of
 Gaussian, Inc. access to this program.  By using this program,
 the user acknowledges that Gaussian, Inc. is engaged in the
 business of creating and licensing software in the field of
 computational chemistry and represents and warrants to the
 licensee that it is not a competitor of Gaussian, Inc. and that
 it will not use this program in any manner prohibited above.
 ---------------------------------------------------------------
  

 Cite this work as:
 Gaussian 16, Revision A.03,
 M. J. Frisch, G. W. Trucks, H. B. Schlegel, G. E. Scuseria, 
 M. A. Robb, J. R. Cheeseman, G. Scalmani, V. Barone, 
 G. A. Petersson, H. Nakatsuji, X. Li, M. Caricato, A. V. Marenich, 
 J. Bloino, B. G. Janesko, R. Gomperts, B. Mennucci, H. P. Hratchian, 
 J. V. Ortiz, A. F. Izmaylov, J. L. Sonnenberg, D. Williams-Young, 
 F. Ding, F. Lipparini, F. Egidi, J. Goings, B. Peng, A. Petrone, 
 T. Henderson, D. Ranasinghe, V. G. Zakrzewski, J. Gao, N. Rega, 
 G. Zheng, W. Liang, M. Hada, M. Ehara, K. Toyota, R. Fukuda, 
 J. Hasegawa, M. Ishida, T. Nakajima, Y. Honda, O. Kitao, H. Nakai, 
 T. Vreven, K. Throssell, J. A. Montgomery, Jr., J. E. Peralta, 
 F. Ogliaro, M. J. Bearpark, J. J. Heyd, E. N. Brothers, K. N. Kudin, 
 V. N. Staroverov, T. A. Keith, R. Kobayashi, J. Normand, 
 K. Raghavachari, A. P. Rendell, J. C. Burant, S. S. Iyengar, 
 J. Tomasi, M. Cossi, J. M. Millam, M. Klene, C. Adamo, R. Cammi, 
 J. W. Ochterski, R. L. Martin, K. Morokuma, O. Farkas, 
 J. B. Foresman, and D. J. Fox, Gaussian, Inc., Wallingford CT, 2016.
 
 ******************************************
 Gaussian 16:  ES64L-G16RevA.03 25-Dec-2016
                17-Sep-2019 
 ******************************************
 %chk=Ng-293_loop3_66.0.chk
 %nprocshared=48
 Will use up to   48 processors via shared memory.
 %mem=10GB
 %nosave
 ----------------------------------------------------------------------
 #b3lyp/svp scf=(tight,noincore) Test #IOP(5/87=12) Density=Current Pop
 =(MK,readradii) iop(6/33=2) iop(6/42=6)
 ----------------------------------------------------------------------
 1/30=1,38=1,172=1/1;
 2/12=2,17=6,18=5,40=1/2;
 3/5=18,7=101,11=2,25=1,30=1,74=-5/1,2,3;
 4//1;
 5/5=4,32=2,38=5,87=12/2;
 6/7=2,8=2,9=2,10=2,15=8,20=101,22=-1,28=1,33=2,42=6/1,2;
 99/5=1,9=1/99;
 -----------------
 Ng-293_loop3_66.0
 -----------------
 Symbolic Z-matrix:
 Charge =  0 Multiplicity = 1
 C                     59.27     92.03     75.43 
 C                     59.79     91.54     74.09 
 O                     60.99     91.29     73.97 
 H                     58.247    91.681    75.572 
 H                     59.901    91.641    76.229 
 H                     59.287    93.12     75.451 
 N                     59.       91.48     73.01 
 C                     59.42     91.2      71.65 
 C                     58.18     90.71     70.9 
 O                     57.1      91.19     71.21 
 C                     59.9      92.5      71.02 
 C                     60.55     92.16     69.69 
 O                     60.72     93.18     68.98 
 O                     60.87     91.03     69.27 
 H                     58.03     91.74     73.1 
 H                     60.21     90.45     71.58 
 H                     60.58     93.03     71.7 
 H                     59.07     93.2      70.91 
 N                     58.36     89.8      69.95 
 C                     57.37     89.29     69.01 
 C                     56.95     90.32     67.98 
 O                     57.77     90.69     67.14 
 C                     56.19     88.53     69.62 
 C                     55.57     87.68     68.51 
 C                     56.38     86.64     67.75 
 C                     55.61     85.57     66.98 
 N                     56.41     84.4      66.57 
 H                     59.27     89.38     69.86 
 H                     57.92     88.59     68.38 
 H                     55.55     89.24     70.12 
 H                     56.66     87.86     70.34 
 H                     55.14     88.37     67.78 
 H                     54.66     87.2      68.87 
 H                     57.02     86.11     68.46 
 H                     56.93     87.14     66.96 
 H                     55.25     86.14     66.12 
 H                     54.76     85.12     67.48 
 H                     56.75     84.44     65.62 
 H                     57.16     84.29     67.24 
 H                     55.89     83.53     66.55 
 N                     55.74     90.89     67.96 
 C                     55.32     91.87     66.97 
 C                     54.24     92.79     67.51 
 O                     53.55     92.43     68.46 
 C                     54.85     91.29     65.64 
 C                     53.68     90.33     65.64 
 O                     53.49     89.66     64.6 
 O                     52.87     90.21     66.58 
 H                     55.09     90.65     68.68 
 H                     56.11     92.6      66.79 
 H                     55.76     90.9      65.19 
 H                     54.46     92.14     65.07 
 N                     54.03     93.97     66.92 
 C                     52.73     94.57     67.14 
 C                     51.65     93.83     66.35 
 O                     51.91     93.32     65.26 
 H                     54.65     94.38     66.23 
 H                     52.7      95.62     66.88 
 H                     52.47     94.64     68.19 
 N                     50.43     93.82     66.88 
 C                     49.2      93.33     66.3 
 C                     48.28     94.46     65.86 
 O                     47.25     94.12     65.29 
 C                     48.6      92.42     67.37 
 C                     49.37     91.13     67.62 
 N                     49.62     90.65     68.84 
 O                     49.6      90.32     66.72 
 H                     50.37     94.3      67.77 
 H                     49.36     92.62     65.49 
 H                     47.64     92.05     67.02 
 H                     48.49     93.01     68.28 
 H                     49.36     91.08     69.72 
 H                     50.06     89.75     68.94 
 N                     48.56     95.75     66.08 
 C                     47.84     96.92     65.63 
 C                     46.43     97.14     66.17 
 O                     46.31     97.38     67.37 
 H                     49.36     95.93     66.67 
 H                     47.81     97.       64.54 
 H                     48.54     97.66     66.02 
 N                     45.41     97.07     65.31 
 C                     44.03     97.08     65.75 
 C                     43.52     95.92     66.6 
 O                     42.38     95.94     67.06 
 C                     43.66     98.4      66.42 
 C                     44.03     99.6      65.58 
 C                     45.33     100.11    65.65 
 C                     43.16     99.93     64.54 
 C                     45.64     101.14    64.76 
 C                     43.48     100.98    63.67 
 C                     44.78     101.53    63.71 
 O                     45.1      102.5     62.8 
 H                     45.48     96.74     64.36 
 H                     43.37     97.01     64.89 
 H                     44.12     98.44     67.41 
 H                     42.59     98.5      66.61 
 H                     45.95     99.72     66.44 
 H                     42.24     99.37     64.45 
 H                     46.62     101.59    64.73 
 H                     42.85     101.19    62.82 
 H                     44.34     102.96    62.45 
 N                     44.34     94.87     66.69 
 C                     44.12     93.59     67.33 
 C                     42.95     92.8      66.76 
 O                     43.16     91.6      66.6 
 C                     44.17     93.77     68.84 
 C                     45.53     94.21     69.36 
 C                     43.85     92.47     69.57 
 C                     45.56     94.9      70.72 
 H                     45.24     94.89     66.22 
 H                     44.93     92.87     67.18 
 H                     43.46     94.53     69.19 
 H                     46.06     94.85     68.66 
 H                     46.13     93.3      69.46 
 H                     42.91     92.05     69.2 
 H                     44.63     91.75     69.33 
 H                     43.76     92.57     70.65 
 H                     44.86     95.74     70.71 
 H                     45.36     94.18     71.51 
 H                     46.51     95.38     70.97 
 N                     41.77     93.3      66.41 
 C                     40.71     92.6      65.71 
 C                     40.3      91.26     66.3 
 O                     40.11     90.34     65.5 
 C                     39.49     93.49     65.54 
 O                     39.03     93.9      66.81 
 H                     41.68     94.28     66.65 
 H                     41.05     92.42     64.69 
 H                     38.64     92.91     65.18 
 H                     39.68     94.32     64.86 
 H                     38.11     94.17     66.83 
 N                     40.22     91.29     67.63 
 C                     39.98     90.15     68.5 
 C                     40.76     88.87     68.25 
 O                     40.33     87.78     68.62 
 C                     38.49     89.96     68.74 
 H                     40.45     92.16     68.08 
 H                     40.3      90.48     69.49 
 H                     38.1      89.26     68. 
 H                     38.22     89.66     69.75 
 H                     38.07     90.96     68.72 
 N                     41.92     88.94     67.6 
 C                     42.8      87.81     67.34 
 C                     44.02     87.94     68.23 
 O                     44.43     89.05     68.57 
 C                     43.17     87.89     65.86 
 H                     42.3      89.87     67.46 
 H                     42.42     86.81     67.51 
 H                     43.9      87.12     65.62 
 H                     42.28     87.71     65.26 
 H                     43.41     88.92     65.6 
 N                     44.78     86.87     68.49 
 C                     45.97     86.78     69.3 
 C                     45.76     87.14     70.76 
 O                     46.74     86.97     71.49 
 C                     47.14     87.46     68.59 
 C                     48.51     86.85     68.84 
 C                     49.58     87.37     67.89 
 O                     49.54     87.14     66.66 
 O                     50.49     88.08     68.36 
 H                     44.43     85.98     68.15 
 H                     46.31     85.74     69.27 
 H                     47.07     88.51     68.88 
 H                     46.95     87.39     67.52 
 H                     48.43     85.78     68.65 
 H                     48.75     86.98     69.9 
 N                     44.69     87.82     71.15 
 C                     44.58     88.5      72.43 
 H                     43.528    88.649    72.673 
 H                     45.049    87.894    73.205 
 H                     45.079    89.467    72.372 
 H                     44.17     88.1      70.33 
 Ca                    51.02     88.73     65.21 
 O                     52.45     86.55     65.39 
 H                     52.28     85.96     66.13 
 H                     53.21     86.17     64.95 
 
 Stoichiometry    C54H83CaN15O23
 Framework group  C1[X(C54H83CaN15O23)]
 Deg. of freedom   522
 Full point group                 C1      NOp   1
 Largest Abelian subgroup         C1      NOp   1
 Largest concise Abelian subgroup C1      NOp   1
                         Standard orientation:                         
 ---------------------------------------------------------------------
 Center     Atomic      Atomic             Coordinates (Angstroms)
 Number     Number       Type             X           Y           Z
 ---------------------------------------------------------------------
      1          6           0       11.097892    1.345410    6.267529
      2          6           0       11.474368    1.292557    4.797300
      3          8           0       12.659645    1.398690    4.479880
      4          1           0       10.224245    0.716900    6.441339
      5          1           0       11.931453    0.983704    6.869383
      6          1           0       10.866036    2.373334    6.547609
      7          7           0       10.543197    1.245803    3.835618
      8          6           0       10.771953    1.368536    2.408380
      9          6           0        9.567150    0.730425    1.714505
     10          8           0        8.476830    0.834392    2.256071
     11          6           0       10.820840    2.848884    2.056982
     12          6           0       11.288837    2.969827    0.617068
     13          8           0       11.091712    4.120368    0.157940
     14          8           0       11.782678    2.074215   -0.096865
     15          1           0        9.570495    1.216036    4.099368
     16          1           0       11.689071    0.884637    2.067446
     17          1           0       11.468184    3.390716    2.759166
     18          1           0        9.845501    3.311533    2.217198
     19          7           0        9.783461    0.112590    0.559304
     20          6           0        8.789314   -0.439726   -0.351970
     21          6           0        7.969215    0.628972   -1.047326
     22          8           0        8.521618    1.365011   -1.864637
     23          6           0        7.942216   -1.592116    0.192568
     24          6           0        7.351000   -2.332641   -1.007885
     25          6           0        8.233550   -2.944846   -2.085666
     26          6           0        7.609069   -4.001381   -2.993661
     27          7           0        8.573305   -4.809723   -3.764266
     28          1           0       10.735699   -0.024371    0.264203
     29          1           0        9.367217   -0.826510   -1.192105
     30          1           0        7.253123   -1.193375    0.920481
     31          1           0        8.672778   -2.245348    0.669817
     32          1           0        6.652352   -1.647942   -1.494689
     33          1           0        6.653903   -3.098937   -0.668849
     34          1           0        9.092729   -3.419073   -1.604499
     35          1           0        8.506253   -2.167815   -2.791680
     36          1           0        6.982398   -3.384956   -3.642817
     37          1           0        6.986957   -4.751886   -2.519615
     38          1           0        8.723293   -4.489537   -4.710143
     39          1           0        9.433743   -4.850752   -3.233734
     40          1           0        8.273095   -5.763523   -3.931118
     41          7           0        6.675954    0.850267   -0.786739
     42          6           0        5.874402    1.863719   -1.455567
     43          6           0        4.722672    2.335922   -0.586693
     44          8           0        4.311624    1.621420    0.323651
     45          6           0        5.325893    1.462028   -2.820845
     46          6           0        4.427859    0.247330   -2.913271
     47          8           0        4.218859   -0.223892   -4.053827
     48          8           0        3.844768   -0.270620   -1.940732
     49          1           0        6.235234    0.306096   -0.073897
     50          1           0        6.430383    2.797494   -1.546940
     51          1           0        6.208225    1.426303   -3.455599
     52          1           0        4.656556    2.275741   -3.119776
     53          7           0        4.145881    3.512449   -0.846878
     54          6           0        2.801535    3.689581   -0.337213
     55          6           0        1.800622    2.866205   -1.148586
     56          8           0        1.976606    2.675038   -2.352033
     57          1           0        4.523864    4.202884   -1.486431
     58          1           0        2.484780    4.724298   -0.331935
     59          1           0        2.720197    3.474009    0.721990
     60          7           0        0.727988    2.426562   -0.496228
     61          6           0       -0.437506    1.756647   -1.027488
     62          6           0       -1.656046    2.667769   -1.071296
     63          8           0       -2.663023    2.190172   -1.580510
     64          6           0       -0.614369    0.523088   -0.144284
     65          6           0        0.464331   -0.540075   -0.304261
     66          7           0        1.027906   -1.173703    0.726369
     67          8           0        0.714142   -1.060529   -1.393170
     68          1           0        0.715367    2.682892    0.483688
     69          1           0       -0.262049    1.293716   -1.997390
     70          1           0       -1.508934   -0.008852   -0.457002
     71          1           0       -0.696757    0.865846    0.887234
     72          1           0        0.833666   -1.015408    1.708262
     73          1           0        1.674430   -1.926086    0.554537
     74          7           0       -1.647576    3.913523   -0.582496
     75          6           0       -2.685686    4.917305   -0.649953
     76          6           0       -3.991551    4.642211    0.089736
     77          8           0       -3.951927    4.593568    1.317768
     78          1           0       -0.820271    4.175356   -0.065283
     79          1           0       -2.923555    5.205671   -1.677408
     80          1           0       -2.118442    5.721188   -0.179097
     81          7           0       -5.102060    4.480589   -0.635211
     82          6           0       -6.348193    4.035704   -0.045865
     83          6           0       -6.419649    2.634833    0.554680
     84          8           0       -7.434891    2.258828    1.137350
     85          6           0       -6.890047    5.046563    0.960494
     86          6           0       -6.960075    6.446076    0.395729
     87          6           0       -5.821419    7.256717    0.432140
     88          6           0       -8.050911    6.737751   -0.424272
     89          6           0       -5.918348    8.490205   -0.214552
     90          6           0       -8.139391    7.988690   -1.048071
     91          6           0       -7.015223    8.843122   -1.030956
     92          8           0       -7.092219   10.026740   -1.712513
     93          1           0       -5.125015    4.380488   -1.638084
     94          1           0       -7.114147    3.969340   -0.813335
     95          1           0       -6.285841    5.005379    1.869635
     96          1           0       -7.904004    4.819219    1.293969
     97          1           0       -4.999730    6.892981    1.026382
     98          1           0       -8.817818    5.984572   -0.536850
     99          1           0       -5.089596    9.179867   -0.251107
    100          1           0       -8.939565    8.192228   -1.742184
    101          1           0       -7.987103   10.330267   -1.849461
    102          7           0       -5.376526    1.843602    0.292292
    103          6           0       -5.179439    0.448881    0.627420
    104          6           0       -6.216455   -0.490032    0.026637
    105          8           0       -5.766243   -1.533435   -0.440609
    106          6           0       -4.909019    0.325832    2.119644
    107          6           0       -3.618048    0.995162    2.565727
    108          6           0       -4.787278   -1.132443    2.548493
    109          6           0       -3.510825    1.378059    4.038307
    110          1           0       -4.601977    2.195842   -0.262055
    111          1           0       -4.264104    0.014770    0.214250
    112          1           0       -5.702899    0.783588    2.723311
    113          1           0       -3.381085    1.880659    1.982423
    114          1           0       -2.816078    0.275687    2.372593
    115          1           0       -5.654649   -1.702180    2.202130
    116          1           0       -3.916399   -1.556255    2.052152
    117          1           0       -4.707591   -1.280827    3.623729
    118          1           0       -4.376590    1.986838    4.313152
    119          1           0       -3.397721    0.486217    4.650129
    120          1           0       -2.668735    2.031328    4.282283
    121          7           0       -7.522560   -0.259925   -0.051092
    122          6           0       -8.497828   -1.058534   -0.768502
    123          6           0       -8.477475   -2.549967   -0.473521
    124          8           0       -8.586740   -3.305530   -1.442896
    125          6           0       -9.900822   -0.507785   -0.574385
    126          8           0      -10.213637   -0.500297    0.802093
    127          1           0       -7.793104    0.591597    0.426208
    128          1           0       -8.309263   -0.931585   -1.834676
    129          1           0      -10.643344   -1.206586   -0.960181
    130          1           0      -10.029665    0.462832   -1.052614
    131          1           0      -11.153040   -0.493221    0.994895
    132          7           0       -8.328314   -2.812363    0.824592
    133          6           0       -8.142476   -4.126988    1.417320
    134          6           0       -7.143981   -5.076755    0.776813
    135          8           0       -7.239008   -6.293193    0.922244
    136          6           0       -9.482674   -4.749016    1.778912
    137          1           0       -8.230441   -2.022434    1.440005
    138          1           0       -7.739256   -3.931796    2.412667
    139          1           0       -9.823684   -5.362236    0.943823
    140          1           0       -9.495106   -5.307974    2.711871
    141          1           0      -10.119163   -3.913270    2.049486
    142          7           0       -6.163625   -4.572102    0.030336
    143          6           0       -5.105822   -5.351959   -0.595583
    144          6           0       -3.812507   -5.086927    0.149060
    145          8           0       -3.617041   -4.000800    0.694882
    146          6           0       -5.029076   -4.878722   -2.046050
    147          1           0       -6.039258   -3.566355    0.073979
    148          1           0       -5.208771   -6.429784   -0.627137
    149          1           0       -4.194502   -5.362905   -2.548497
    150          1           0       -5.944269   -5.162342   -2.562268
    151          1           0       -5.082795   -3.791419   -2.077468
    152          7           0       -2.792451   -5.947340    0.052750
    153          6           0       -1.491021   -5.881457    0.671005
    154          6           0       -1.519774   -5.893461    2.189007
    155          8           0       -0.414848   -5.942359    2.735767
    156          6           0       -0.652506   -4.786874    0.012080
    157          6           0        0.843365   -5.050153   -0.055410
    158          6           0        1.581148   -4.084250   -0.972201
    159          8           0        1.380831   -4.062436   -2.207837
    160          8           0        2.370307   -3.269296   -0.456276
    161          1           0       -2.981313   -6.810169   -0.447307
    162          1           0       -0.930606   -6.765952    0.352096
    163          1           0       -0.911332   -3.874194    0.552009
    164          1           0       -1.005360   -4.686321   -1.013241
    165          1           0        0.980740   -6.041644   -0.486076
    166          1           0        1.228464   -5.078880    0.968784
    167          7           0       -2.632731   -5.614494    2.854518
    168          6           0       -2.671186   -5.261858    4.264152
    169          1           0       -3.669963   -5.448981    4.658339
    170          1           0       -1.946744   -5.866159    4.809887
    171          1           0       -2.427127   -4.206355    4.381635
    172          1           0       -3.338547   -5.321930    2.193134
    173         20           0        2.176378   -1.877900   -3.397757
    174          8           0        4.080114   -3.591356   -3.916946
    175          1           0        4.183152   -4.342561   -3.325613
    176          1           0        4.818321   -3.659370   -4.521946
 ---------------------------------------------------------------------
 Rotational constants (GHZ):           0.0203736           0.0081266           0.0066330
 Standard basis: SVP (5D, 7F)
 There are  1809 symmetry adapted cartesian basis functions of A   symmetry.
 There are  1717 symmetry adapted basis functions of A   symmetry.
  1717 basis functions,  2922 primitive gaussians,  1809 cartesian basis functions
   358 alpha electrons      358 beta electrons
       nuclear repulsion energy     18958.8522682670 Hartrees.
 NAtoms=  176 NActive=  176 NUniq=  176 SFac= 1.00D+00 NAtFMM=   60 NAOKFM=T Big=T
 Integral buffers will be    131072 words long.
 Raffenetti 2 integral format.
 Two-electron integral symmetry is turned on.
 One-electron integrals computed using PRISM.
 NBasis=  1717 RedAO= T EigKep=  3.77D-04  NBF=  1717
 NBsUse=  1717 1.00D-06 EigRej= -1.00D+00 NBFU=  1717
 ExpMin= 1.98D-02 ExpMax= 3.51D+04 ExpMxC= 5.28D+03 IAcc=3 IRadAn=         5 AccDes= 0.00D+00
 Harris functional with IExCor=  402 and IRadAn=       5 diagonalized for initial guess.
 HarFok:  IExCor=  402 AccDes= 0.00D+00 IRadAn=         5 IDoV= 1 UseB2=F ITyADJ=14
 ICtDFT=  3500011 ScaDFX=  1.000000  1.000000  1.000000  1.000000
 FoFCou: FMM=F IPFlag=           0 FMFlag=      100000 FMFlg1=        2001
         NFxFlg=           0 DoJE=T BraDBF=F KetDBF=T FulRan=T
         wScrn=  0.000000 ICntrl=       500 IOpCl=  0 I1Cent=   200000004 NGrid=           0
         NMat0=    1 NMatS0=      1 NMatT0=    0 NMatD0=    1 NMtDS0=    0 NMtDT0=    0
 Petite list used in FoFCou.
 Requested convergence on RMS density matrix=1.00D-08 within 128 cycles.
 Requested convergence on MAX density matrix=1.00D-06.
 Requested convergence on             energy=1.00D-06.
 No special actions if energy rises.
 EnCoef did     2 forward-backward iterations
 EnCoef did     2 forward-backward iterations
 EnCoef did     3 forward-backward iterations
 EnCoef did     2 forward-backward iterations
 EnCoef did     5 forward-backward iterations
 EnCoef did     7 forward-backward iterations
 EnCoef did     7 forward-backward iterations
 EnCoef did    18 forward-backward iterations
 EnCoef did   100 forward-backward iterations
 EnCoef did   100 forward-backward iterations
 Rare condition: small coef for last iteration:  0.198D-14
 EnCoef did   100 forward-backward iterations
 EnCoef did   100 forward-backward iterations
 Restarting incremental Fock formation.
 SCF Done:  E(RB3LYP) =  -5333.37446448     A.U. after   32 cycles
            NFock= 32  Conv=0.62D-09     -V/T= 2.0081
 SCF density gives NOpUse=  1 NOpAll=  1.
 Hyperfine terms turned off by default for NAtoms > 100.

 **********************************************************************

            Population analysis using the SCF density.

 **********************************************************************

 Orbital symmetries:
 BldTbl:  Degeneracy threshold= 1.00D-02
       Occupied  (A) (A) (A) (A) (A) (A) (A) (A) (A) (A) (A) (A)
                 (A) (A) (A) (A) (A) (A) (A) (A) (A) (A) (A) (A)
                 (A) (A) (A) (A) (A) (A) (A) (A) (A) (A) (A) (A)
                 (A) (A) (A) (A) (A) (A) (A) (A) (A) (A) (A) (A)
                 (A) (A) (A) (A) (A) (A) (A) (A) (A) (A) (A) (A)
                 (A) (A) (A) (A) (A) (A) (A) (A) (A) (A) (A) (A)
                 (A) (A) (A) (A) (A) (A) (A) (A) (A) (A) (A) (A)
                 (A) (A) (A) (A) (A) (A) (A) (A) (A) (A) (A) (A)
                 (A) (A) (A) (A) (A) (A) (A) (A) (A) (A) (A) (A)
                 (A) (A) (A) (A) (A) (A) (A) (A) (A) (A) (A) (A)
                 (A) (A) (A) (A) (A) (A) (A) (A) (A) (A) (A) (A)
                 (A) (A) (A) (A) (A) (A) (A) (A) (A) (A) (A) (A)
                 (A) (A) (A) (A) (A) (A) (A) (A) (A) (A) (A) (A)
                 (A) (A) (A) (A) (A) (A) (A) (A) (A) (A) (A) (A)
                 (A) (A) (A) (A) (A) (A) (A) (A) (A) (A) (A) (A)
                 (A) (A) (A) (A) (A) (A) (A) (A) (A) (A) (A) (A)
                 (A) (A) (A) (A) (A) (A) (A) (A) (A) (A) (A) (A)
                 (A) (A) (A) (A) (A) (A) (A) (A) (A) (A) (A) (A)
                 (A) (A) (A) (A) (A) (A) (A) (A) (A) (A) (A) (A)
                 (A) (A) (A) (A) (A) (A) (A) (A) (A) (A) (A) (A)
                 (A) (A) (A) (A) (A) (A) (A) (A) (A) (A) (A) (A)
                 (A) (A) (A) (A) (A) (A) (A) (A) (A) (A) (A) (A)
                 (A) (A) (A) (A) (A) (A) (A) (A) (A) (A) (A) (A)
                 (A) (A) (A) (A) (A) (A) (A) (A) (A) (A) (A) (A)
                 (A) (A) (A) (A) (A) (A) (A) (A) (A) (A) (A) (A)
                 (A) (A) (A) (A) (A) (A) (A) (A) (A) (A) (A) (A)
                 (A) (A) (A) (A) (A) (A) (A) (A) (A) (A) (A) (A)
                 (A) (A) (A) (A) (A) (A) (A) (A) (A) (A) (A) (A)
                 (A) (A) (A) (A) (A) (A) (A) (A) (A) (A) (A) (A)
                 (A) (A) (A) (A) (A) (A) (A) (A) (A) (A)
       Virtual   (A) (A) (A) (A) (A) (A) (A) (A) (A) (A) (A) (A)
                 (A) (A) (A) (A) (A) (A) (A) (A) (A) (A) (A) (A)
                 (A) (A) (A) (A) (A) (A) (A) (A) (A) (A) (A) (A)
                 (A) (A) (A) (A) (A) (A) (A) (A) (A) (A) (A) (A)
                 (A) (A) (A) (A) (A) (A) (A) (A) (A) (A) (A) (A)
                 (A) (A) (A) (A) (A) (A) (A) (A) (A) (A) (A) (A)
                 (A) (A) (A) (A) (A) (A) (A) (A) (A) (A) (A) (A)
                 (A) (A) (A) (A) (A) (A) (A) (A) (A) (A) (A) (A)
                 (A) (A) (A) (A) (A) (A) (A) (A) (A) (A) (A) (A)
                 (A) (A) (A) (A) (A) (A) (A) (A) (A) (A) (A) (A)
                 (A) (A) (A) (A) (A) (A) (A) (A) (A) (A) (A) (A)
                 (A) (A) (A) (A) (A) (A) (A) (A) (A) (A) (A) (A)
                 (A) (A) (A) (A) (A) (A) (A) (A) (A) (A) (A) (A)
                 (A) (A) (A) (A) (A) (A) (A) (A) (A) (A) (A) (A)
                 (A) (A) (A) (A) (A) (A) (A) (A) (A) (A) (A) (A)
                 (A) (A) (A) (A) (A) (A) (A) (A) (A) (A) (A) (A)
                 (A) (A) (A) (A) (A) (A) (A) (A) (A) (A) (A) (A)
                 (A) (A) (A) (A) (A) (A) (A) (A) (A) (A) (A) (A)
                 (A) (A) (A) (A) (A) (A) (A) (A) (A) (A) (A) (A)
                 (A) (A) (A) (A) (A) (A) (A) (A) (A) (A) (A) (A)
                 (A) (A) (A) (A) (A) (A) (A) (A) (A) (A) (A) (A)
                 (A) (A) (A) (A) (A) (A) (A) (A) (A) (A) (A) (A)
                 (A) (A) (A) (A) (A) (A) (A) (A) (A) (A) (A) (A)
                 (A) (A) (A) (A) (A) (A) (A) (A) (A) (A) (A) (A)
                 (A) (A) (A) (A) (A) (A) (A) (A) (A) (A) (A) (A)
                 (A) (A) (A) (A) (A) (A) (A) (A) (A) (A) (A) (A)
                 (A) (A) (A) (A) (A) (A) (A) (A) (A) (A) (A) (A)
                 (A) (A) (A) (A) (A) (A) (A) (A) (A) (A) (A) (A)
                 (A) (A) (A) (A) (A) (A) (A) (A) (A) (A) (A) (A)
                 (A) (A) (A) (A) (A) (A) (A) (A) (A) (A) (A) (A)
                 (A) (A) (A) (A) (A) (A) (A) (A) (A) (A) (A) (A)
                 (A) (A) (A) (A) (A) (A) (A) (A) (A) (A) (A) (A)
                 (A) (A) (A) (A) (A) (A) (A) (A) (A) (A) (A) (A)
                 (A) (A) (A) (A) (A) (A) (A) (A) (A) (A) (A) (A)
                 (A) (A) (A) (A) (A) (A) (A) (A) (A) (A) (A) (A)
                 (A) (A) (A) (A) (A) (A) (A) (A) (A) (A) (A) (A)
                 (A) (A) (A) (A) (A) (A) (A) (A) (A) (A) (A) (A)
                 (A) (A) (A) (A) (A) (A) (A) (A) (A) (A) (A) (A)
                 (A) (A) (A) (A) (A) (A) (A) (A) (A) (A) (A) (A)
                 (A) (A) (A) (A) (A) (A) (A) (A) (A) (A) (A) (A)
                 (A) (A) (A) (A) (A) (A) (A) (A) (A) (A) (A) (A)
                 (A) (A) (A) (A) (A) (A) (A) (A) (A) (A) (A) (A)
                 (A) (A) (A) (A) (A) (A) (A) (A) (A) (A) (A) (A)
                 (A) (A) (A) (A) (A) (A) (A) (A) (A) (A) (A) (A)
                 (A) (A) (A) (A) (A) (A) (A) (A) (A) (A) (A) (A)
                 (A) (A) (A) (A) (A) (A) (A) (A) (A) (A) (A) (A)
                 (A) (A) (A) (A) (A) (A) (A) (A) (A) (A) (A) (A)
                 (A) (A) (A) (A) (A) (A) (A) (A) (A) (A) (A) (A)
                 (A) (A) (A) (A) (A) (A) (A) (A) (A) (A) (A) (A)
                 (A) (A) (A) (A) (A) (A) (A) (A) (A) (A) (A) (A)
                 (A) (A) (A) (A) (A) (A) (A) (A) (A) (A) (A) (A)
                 (A) (A) (A) (A) (A) (A) (A) (A) (A) (A) (A) (A)
                 (A) (A) (A) (A) (A) (A) (A) (A) (A) (A) (A) (A)
                 (A) (A) (A) (A) (A) (A) (A) (A) (A) (A) (A) (A)
                 (A) (A) (A) (A) (A) (A) (A) (A) (A) (A) (A) (A)
                 (A) (A) (A) (A) (A) (A) (A) (A) (A) (A) (A) (A)
                 (A) (A) (A) (A) (A) (A) (A) (A) (A) (A) (A) (A)
                 (A) (A) (A) (A) (A) (A) (A) (A) (A) (A) (A) (A)
                 (A) (A) (A) (A) (A) (A) (A) (A) (A) (A) (A) (A)
                 (A) (A) (A) (A) (A) (A) (A) (A) (A) (A) (A) (A)
                 (A) (A) (A) (A) (A) (A) (A) (A) (A) (A) (A) (A)
                 (A) (A) (A) (A) (A) (A) (A) (A) (A) (A) (A) (A)
                 (A) (A) (A) (A) (A) (A) (A) (A) (A) (A) (A) (A)
                 (A) (A) (A) (A) (A) (A) (A) (A) (A) (A) (A) (A)
                 (A) (A) (A) (A) (A) (A) (A) (A) (A) (A) (A) (A)
                 (A) (A) (A) (A) (A) (A) (A) (A) (A) (A) (A) (A)
                 (A) (A) (A) (A) (A) (A) (A) (A) (A) (A) (A) (A)
                 (A) (A) (A) (A) (A) (A) (A) (A) (A) (A) (A) (A)
                 (A) (A) (A) (A) (A) (A) (A) (A) (A) (A) (A) (A)
                 (A) (A) (A) (A) (A) (A) (A) (A) (A) (A) (A) (A)
                 (A) (A) (A) (A) (A) (A) (A) (A) (A) (A) (A) (A)
                 (A) (A) (A) (A) (A) (A) (A) (A) (A) (A) (A) (A)
                 (A) (A) (A) (A) (A) (A) (A) (A) (A) (A) (A) (A)
                 (A) (A) (A) (A) (A) (A) (A) (A) (A) (A) (A) (A)
                 (A) (A) (A) (A) (A) (A) (A) (A) (A) (A) (A) (A)
                 (A) (A) (A) (A) (A) (A) (A) (A) (A) (A) (A) (A)
                 (A) (A) (A) (A) (A) (A) (A) (A) (A) (A) (A) (A)
                 (A) (A) (A) (A) (A) (A) (A) (A) (A) (A) (A) (A)
                 (A) (A) (A) (A) (A) (A) (A) (A) (A) (A) (A) (A)
                 (A) (A) (A) (A) (A) (A) (A) (A) (A) (A) (A) (A)
                 (A) (A) (A) (A) (A) (A) (A) (A) (A) (A) (A) (A)
                 (A) (A) (A) (A) (A) (A) (A) (A) (A) (A) (A) (A)
                 (A) (A) (A) (A) (A) (A) (A) (A) (A) (A) (A) (A)
                 (A) (A) (A) (A) (A) (A) (A) (A) (A) (A) (A) (A)
                 (A) (A) (A) (A) (A) (A) (A) (A) (A) (A) (A) (A)
                 (A) (A) (A) (A) (A) (A) (A) (A) (A) (A) (A) (A)
                 (A) (A) (A) (A) (A) (A) (A) (A) (A) (A) (A) (A)
                 (A) (A) (A) (A) (A) (A) (A) (A) (A) (A) (A) (A)
                 (A) (A) (A) (A) (A) (A) (A) (A) (A) (A) (A) (A)
                 (A) (A) (A) (A) (A) (A) (A) (A) (A) (A) (A) (A)
                 (A) (A) (A) (A) (A) (A) (A) (A) (A) (A) (A) (A)
                 (A) (A) (A) (A) (A) (A) (A) (A) (A) (A) (A) (A)
                 (A) (A) (A) (A) (A) (A) (A) (A) (A) (A) (A) (A)
                 (A) (A) (A) (A) (A) (A) (A) (A) (A) (A) (A) (A)
                 (A) (A) (A) (A) (A) (A) (A) (A) (A) (A) (A) (A)
                 (A) (A) (A) (A) (A) (A) (A) (A) (A) (A) (A) (A)
                 (A) (A) (A) (A) (A) (A) (A) (A) (A) (A) (A) (A)
                 (A) (A) (A) (A) (A) (A) (A) (A) (A) (A) (A) (A)
                 (A) (A) (A) (A) (A) (A) (A) (A) (A) (A) (A) (A)
                 (A) (A) (A) (A) (A) (A) (A) (A) (A) (A) (A) (A)
                 (A) (A) (A) (A) (A) (A) (A) (A) (A) (A) (A) (A)
                 (A) (A) (A) (A) (A) (A) (A) (A) (A) (A) (A) (A)
                 (A) (A) (A) (A) (A) (A) (A) (A) (A) (A) (A) (A)
                 (A) (A) (A) (A) (A) (A) (A) (A) (A) (A) (A) (A)
                 (A) (A) (A) (A) (A) (A) (A) (A) (A) (A) (A) (A)
                 (A) (A) (A) (A) (A) (A) (A) (A) (A) (A) (A) (A)
                 (A) (A) (A) (A) (A) (A) (A) (A) (A) (A) (A) (A)
                 (A) (A) (A) (A) (A) (A) (A) (A) (A) (A) (A) (A)
                 (A) (A) (A) (A) (A) (A) (A) (A) (A) (A) (A) (A)
                 (A) (A) (A) (A) (A) (A) (A) (A) (A) (A) (A) (A)
                 (A) (A) (A) (A) (A) (A) (A) (A) (A) (A) (A) (A)
                 (A) (A) (A) (A) (A) (A) (A) (A) (A) (A) (A) (A)
                 (A) (A) (A) (A) (A) (A) (A) (A) (A) (A) (A) (A)
                 (A) (A) (A)
 The electronic state is 1-A.
 Alpha  occ. eigenvalues -- -145.44743 -19.22613 -19.17060 -19.14571 -19.13854
 Alpha  occ. eigenvalues --  -19.13454 -19.12626 -19.11869 -19.11346 -19.10416
 Alpha  occ. eigenvalues --  -19.10272 -19.09519 -19.08527 -19.07881 -19.07867
 Alpha  occ. eigenvalues --  -19.07546 -19.06610 -19.06401 -19.06024 -19.05996
 Alpha  occ. eigenvalues --  -19.05505 -19.02729 -18.97421 -18.96369 -15.50601
 Alpha  occ. eigenvalues --  -14.56268 -14.40536 -14.40021 -14.38825 -14.37699
 Alpha  occ. eigenvalues --  -14.36648 -14.35864 -14.35854 -14.35834 -14.34665
 Alpha  occ. eigenvalues --  -14.34236 -14.33481 -14.32790 -14.32187 -14.29194
 Alpha  occ. eigenvalues --  -12.64216 -12.64176 -12.64118 -10.33814 -10.32597
 Alpha  occ. eigenvalues --  -10.32476 -10.31285 -10.31257 -10.30301 -10.29203
 Alpha  occ. eigenvalues --  -10.28891 -10.28312 -10.27439 -10.27425 -10.27166
 Alpha  occ. eigenvalues --  -10.27117 -10.26925 -10.26485 -10.26350 -10.26205
 Alpha  occ. eigenvalues --  -10.25661 -10.25546 -10.25496 -10.25393 -10.24722
 Alpha  occ. eigenvalues --  -10.24548 -10.24356 -10.23765 -10.23539 -10.23484
 Alpha  occ. eigenvalues --  -10.23473 -10.23235 -10.22547 -10.22336 -10.21942
 Alpha  occ. eigenvalues --  -10.21884 -10.21611 -10.20311 -10.20209 -10.20181
 Alpha  occ. eigenvalues --  -10.20055 -10.19806 -10.19726 -10.19707 -10.19566
 Alpha  occ. eigenvalues --  -10.18703 -10.18316 -10.18263 -10.17925 -10.17663
 Alpha  occ. eigenvalues --  -10.17628 -10.17206 -10.16878 -10.16532 -10.16156
 Alpha  occ. eigenvalues --  -10.15269 -10.10798  -1.87224  -1.14746  -1.14489
 Alpha  occ. eigenvalues --   -1.14030  -1.11849  -1.08375  -1.07443  -1.06498
 Alpha  occ. eigenvalues --   -1.05682  -1.05540  -1.04767  -1.04426  -1.04328
 Alpha  occ. eigenvalues --   -1.04175  -1.02927  -1.02084  -1.01786  -1.01468
 Alpha  occ. eigenvalues --   -1.01399  -1.01122  -1.00833  -1.00134  -0.99279
 Alpha  occ. eigenvalues --   -0.96966  -0.96713  -0.96013  -0.95373  -0.94445
 Alpha  occ. eigenvalues --   -0.93455  -0.93237  -0.92209  -0.91728  -0.91382
 Alpha  occ. eigenvalues --   -0.90999  -0.90668  -0.90470  -0.90327  -0.89536
 Alpha  occ. eigenvalues --   -0.89337  -0.88875  -0.87549  -0.86252  -0.85584
 Alpha  occ. eigenvalues --   -0.82857  -0.82470  -0.81193  -0.80921  -0.80728
 Alpha  occ. eigenvalues --   -0.79778  -0.78982  -0.77618  -0.77290  -0.77020
 Alpha  occ. eigenvalues --   -0.75946  -0.75512  -0.75403  -0.74785  -0.74036
 Alpha  occ. eigenvalues --   -0.73525  -0.72580  -0.72250  -0.71522  -0.71022
 Alpha  occ. eigenvalues --   -0.70267  -0.70042  -0.69669  -0.68081  -0.67792
 Alpha  occ. eigenvalues --   -0.67153  -0.66750  -0.65833  -0.65503  -0.64690
 Alpha  occ. eigenvalues --   -0.64333  -0.63553  -0.63496  -0.62826  -0.62549
 Alpha  occ. eigenvalues --   -0.62180  -0.61621  -0.61555  -0.61508  -0.60822
 Alpha  occ. eigenvalues --   -0.60386  -0.60191  -0.60087  -0.59518  -0.59414
 Alpha  occ. eigenvalues --   -0.59303  -0.59044  -0.58854  -0.57727  -0.57348
 Alpha  occ. eigenvalues --   -0.57267  -0.56888  -0.56428  -0.56185  -0.55775
 Alpha  occ. eigenvalues --   -0.55769  -0.55466  -0.55250  -0.54505  -0.54264
 Alpha  occ. eigenvalues --   -0.54137  -0.53484  -0.52839  -0.52551  -0.52417
 Alpha  occ. eigenvalues --   -0.52114  -0.52014  -0.51649  -0.51527  -0.51476
 Alpha  occ. eigenvalues --   -0.50575  -0.50279  -0.50117  -0.49665  -0.49371
 Alpha  occ. eigenvalues --   -0.49268  -0.48922  -0.48530  -0.48310  -0.48084
 Alpha  occ. eigenvalues --   -0.47752  -0.47675  -0.47625  -0.47561  -0.47530
 Alpha  occ. eigenvalues --   -0.47322  -0.46812  -0.46592  -0.46479  -0.46401
 Alpha  occ. eigenvalues --   -0.46236  -0.46006  -0.45593  -0.45559  -0.45462
 Alpha  occ. eigenvalues --   -0.45146  -0.45022  -0.44851  -0.44710  -0.44551
 Alpha  occ. eigenvalues --   -0.44263  -0.43951  -0.43862  -0.43759  -0.43614
 Alpha  occ. eigenvalues --   -0.43477  -0.43291  -0.43247  -0.42984  -0.42809
 Alpha  occ. eigenvalues --   -0.42558  -0.42504  -0.42422  -0.42220  -0.42072
 Alpha  occ. eigenvalues --   -0.41999  -0.41830  -0.41683  -0.41596  -0.41465
 Alpha  occ. eigenvalues --   -0.41368  -0.41059  -0.40889  -0.40776  -0.40737
 Alpha  occ. eigenvalues --   -0.40407  -0.40338  -0.40279  -0.40223  -0.40026
 Alpha  occ. eigenvalues --   -0.39977  -0.39853  -0.39648  -0.39575  -0.39388
 Alpha  occ. eigenvalues --   -0.39133  -0.38764  -0.38694  -0.38564  -0.38509
 Alpha  occ. eigenvalues --   -0.38456  -0.38221  -0.38181  -0.37792  -0.37671
 Alpha  occ. eigenvalues --   -0.37574  -0.37387  -0.37062  -0.36856  -0.36810
 Alpha  occ. eigenvalues --   -0.36627  -0.36491  -0.36257  -0.36065  -0.35949
 Alpha  occ. eigenvalues --   -0.35913  -0.35442  -0.35337  -0.35121  -0.34905
 Alpha  occ. eigenvalues --   -0.34809  -0.34755  -0.34690  -0.34484  -0.33836
 Alpha  occ. eigenvalues --   -0.33808  -0.33719  -0.33536  -0.33495  -0.33449
 Alpha  occ. eigenvalues --   -0.33303  -0.33116  -0.32775  -0.32599  -0.32213
 Alpha  occ. eigenvalues --   -0.31630  -0.31299  -0.31208  -0.30259  -0.29518
 Alpha  occ. eigenvalues --   -0.29359  -0.28587  -0.28246  -0.28078  -0.28025
 Alpha  occ. eigenvalues --   -0.27942  -0.27912  -0.27709  -0.27583  -0.27495
 Alpha  occ. eigenvalues --   -0.26947  -0.26749  -0.26437  -0.26370  -0.25972
 Alpha  occ. eigenvalues --   -0.25922  -0.25531  -0.25249  -0.24819  -0.24687
 Alpha  occ. eigenvalues --   -0.24457  -0.24269  -0.24196  -0.23856  -0.23701
 Alpha  occ. eigenvalues --   -0.23627  -0.23609  -0.23206  -0.22993  -0.22320
 Alpha  occ. eigenvalues --   -0.21498  -0.21410  -0.21251  -0.19862  -0.18775
 Alpha  occ. eigenvalues --   -0.14173  -0.13859  -0.11044
 Alpha virt. eigenvalues --   -0.09981  -0.08003  -0.04841  -0.04492  -0.03967
 Alpha virt. eigenvalues --   -0.03160  -0.02894  -0.02530  -0.01778  -0.00915
 Alpha virt. eigenvalues --   -0.00525  -0.00136   0.00208   0.00527   0.00751
 Alpha virt. eigenvalues --    0.01447   0.01509   0.01847   0.01982   0.02163
 Alpha virt. eigenvalues --    0.02625   0.02860   0.02991   0.03182   0.03365
 Alpha virt. eigenvalues --    0.03420   0.04083   0.04139   0.04515   0.04587
 Alpha virt. eigenvalues --    0.05075   0.05267   0.05620   0.05808   0.05869
 Alpha virt. eigenvalues --    0.05892   0.06264   0.06526   0.06682   0.06820
 Alpha virt. eigenvalues --    0.07223   0.07373   0.07703   0.07981   0.08062
 Alpha virt. eigenvalues --    0.08227   0.08370   0.08684   0.09249   0.09331
 Alpha virt. eigenvalues --    0.09448   0.09625   0.09857   0.09986   0.10216
 Alpha virt. eigenvalues --    0.10487   0.10631   0.10841   0.11034   0.11139
 Alpha virt. eigenvalues --    0.11253   0.11437   0.11651   0.11830   0.12004
 Alpha virt. eigenvalues --    0.12031   0.12212   0.12355   0.12480   0.12517
 Alpha virt. eigenvalues --    0.12766   0.12886   0.12963   0.13044   0.13162
 Alpha virt. eigenvalues --    0.13387   0.13470   0.13700   0.13819   0.14148
 Alpha virt. eigenvalues --    0.14189   0.14534   0.14668   0.14797   0.14848
 Alpha virt. eigenvalues --    0.15135   0.15204   0.15333   0.15416   0.15474
 Alpha virt. eigenvalues --    0.15575   0.15843   0.15947   0.16065   0.16321
 Alpha virt. eigenvalues --    0.16431   0.16541   0.16633   0.16736   0.16917
 Alpha virt. eigenvalues --    0.17176   0.17223   0.17316   0.17546   0.17959
 Alpha virt. eigenvalues --    0.18055   0.18281   0.18367   0.18483   0.18758
 Alpha virt. eigenvalues --    0.19016   0.19425   0.19449   0.19544   0.19767
 Alpha virt. eigenvalues --    0.20066   0.20158   0.20404   0.20902   0.21007
 Alpha virt. eigenvalues --    0.21191   0.21462   0.21737   0.22081   0.22311
 Alpha virt. eigenvalues --    0.22393   0.22515   0.22779   0.22854   0.23345
 Alpha virt. eigenvalues --    0.23540   0.23628   0.23770   0.24053   0.24126
 Alpha virt. eigenvalues --    0.24257   0.24349   0.24685   0.24812   0.24849
 Alpha virt. eigenvalues --    0.25350   0.25400   0.25520   0.25859   0.25936
 Alpha virt. eigenvalues --    0.26003   0.26581   0.26861   0.27297   0.27429
 Alpha virt. eigenvalues --    0.27677   0.28094   0.28420   0.28523   0.28590
 Alpha virt. eigenvalues --    0.29013   0.29046   0.29339   0.29612   0.29816
 Alpha virt. eigenvalues --    0.29879   0.30002   0.30281   0.30724   0.31002
 Alpha virt. eigenvalues --    0.31417   0.31546   0.31811   0.32092   0.32410
 Alpha virt. eigenvalues --    0.32602   0.32873   0.33092   0.33617   0.33889
 Alpha virt. eigenvalues --    0.34154   0.34339   0.34691   0.34848   0.35242
 Alpha virt. eigenvalues --    0.35616   0.35819   0.36399   0.36710   0.37003
 Alpha virt. eigenvalues --    0.37561   0.37727   0.37853   0.38084   0.38142
 Alpha virt. eigenvalues --    0.38671   0.38893   0.39036   0.39351   0.39541
 Alpha virt. eigenvalues --    0.39783   0.39910   0.40093   0.40733   0.40865
 Alpha virt. eigenvalues --    0.41032   0.41201   0.41282   0.41478   0.41624
 Alpha virt. eigenvalues --    0.41830   0.42282   0.42460   0.42769   0.42883
 Alpha virt. eigenvalues --    0.43195   0.43401   0.43617   0.43905   0.44107
 Alpha virt. eigenvalues --    0.44216   0.44468   0.44544   0.44885   0.44966
 Alpha virt. eigenvalues --    0.45170   0.45400   0.45618   0.45659   0.45807
 Alpha virt. eigenvalues --    0.45829   0.46311   0.46414   0.46761   0.46982
 Alpha virt. eigenvalues --    0.47143   0.47320   0.47494   0.47716   0.47840
 Alpha virt. eigenvalues --    0.47969   0.48117   0.48324   0.48665   0.48925
 Alpha virt. eigenvalues --    0.49315   0.49524   0.49582   0.49909   0.50189
 Alpha virt. eigenvalues --    0.50598   0.50622   0.50730   0.50862   0.51060
 Alpha virt. eigenvalues --    0.51195   0.51268   0.51437   0.51586   0.51646
 Alpha virt. eigenvalues --    0.52214   0.52319   0.52370   0.52537   0.52826
 Alpha virt. eigenvalues --    0.52980   0.53043   0.53323   0.53426   0.53893
 Alpha virt. eigenvalues --    0.54032   0.54427   0.54653   0.54825   0.54944
 Alpha virt. eigenvalues --    0.55230   0.55331   0.55486   0.55552   0.55609
 Alpha virt. eigenvalues --    0.55867   0.55937   0.56031   0.56399   0.56463
 Alpha virt. eigenvalues --    0.56830   0.57098   0.57173   0.57231   0.57477
 Alpha virt. eigenvalues --    0.57603   0.57757   0.58330   0.58511   0.58687
 Alpha virt. eigenvalues --    0.58725   0.58953   0.59037   0.59241   0.59274
 Alpha virt. eigenvalues --    0.59502   0.59578   0.60036   0.60095   0.60168
 Alpha virt. eigenvalues --    0.60348   0.60538   0.60557   0.60698   0.60776
 Alpha virt. eigenvalues --    0.60910   0.61050   0.61173   0.61414   0.61592
 Alpha virt. eigenvalues --    0.61830   0.61975   0.61987   0.62079   0.62208
 Alpha virt. eigenvalues --    0.62242   0.62293   0.62453   0.62578   0.62685
 Alpha virt. eigenvalues --    0.62829   0.62908   0.63086   0.63187   0.63456
 Alpha virt. eigenvalues --    0.63551   0.63630   0.63806   0.63855   0.63999
 Alpha virt. eigenvalues --    0.64137   0.64159   0.64288   0.64406   0.64472
 Alpha virt. eigenvalues --    0.64706   0.64839   0.64982   0.65049   0.65074
 Alpha virt. eigenvalues --    0.65352   0.65551   0.65608   0.65664   0.65746
 Alpha virt. eigenvalues --    0.65838   0.66010   0.66094   0.66197   0.66295
 Alpha virt. eigenvalues --    0.66362   0.66490   0.66641   0.66780   0.66891
 Alpha virt. eigenvalues --    0.67098   0.67224   0.67281   0.67397   0.67477
 Alpha virt. eigenvalues --    0.67641   0.67755   0.67788   0.67926   0.68044
 Alpha virt. eigenvalues --    0.68072   0.68170   0.68290   0.68479   0.68627
 Alpha virt. eigenvalues --    0.68680   0.68810   0.68869   0.68994   0.69069
 Alpha virt. eigenvalues --    0.69463   0.69522   0.69583   0.69708   0.69728
 Alpha virt. eigenvalues --    0.69819   0.70134   0.70369   0.70506   0.70628
 Alpha virt. eigenvalues --    0.70685   0.70748   0.70813   0.70907   0.70982
 Alpha virt. eigenvalues --    0.71028   0.71262   0.71308   0.71323   0.71480
 Alpha virt. eigenvalues --    0.71669   0.71833   0.71968   0.72061   0.72127
 Alpha virt. eigenvalues --    0.72234   0.72382   0.72587   0.72738   0.72864
 Alpha virt. eigenvalues --    0.73027   0.73052   0.73330   0.73465   0.73566
 Alpha virt. eigenvalues --    0.73825   0.73913   0.74142   0.74377   0.74500
 Alpha virt. eigenvalues --    0.74632   0.75016   0.75039   0.75303   0.75506
 Alpha virt. eigenvalues --    0.75745   0.75886   0.75947   0.76039   0.76407
 Alpha virt. eigenvalues --    0.76633   0.76833   0.76990   0.77495   0.77680
 Alpha virt. eigenvalues --    0.77750   0.77997   0.78282   0.78817   0.79085
 Alpha virt. eigenvalues --    0.79098   0.79197   0.79368   0.79779   0.80103
 Alpha virt. eigenvalues --    0.80359   0.80721   0.81088   0.81277   0.81525
 Alpha virt. eigenvalues --    0.81841   0.82308   0.82441   0.82842   0.83054
 Alpha virt. eigenvalues --    0.83250   0.83572   0.83982   0.84153   0.84408
 Alpha virt. eigenvalues --    0.85034   0.85147   0.85520   0.86020   0.86290
 Alpha virt. eigenvalues --    0.86576   0.86744   0.87133   0.87239   0.87528
 Alpha virt. eigenvalues --    0.87800   0.87999   0.88064   0.88470   0.88793
 Alpha virt. eigenvalues --    0.89144   0.89543   0.89693   0.90281   0.90383
 Alpha virt. eigenvalues --    0.90732   0.90987   0.91134   0.91272   0.91809
 Alpha virt. eigenvalues --    0.91823   0.92086   0.92694   0.92808   0.93403
 Alpha virt. eigenvalues --    0.93639   0.93848   0.94329   0.94427   0.94702
 Alpha virt. eigenvalues --    0.95119   0.95191   0.95318   0.95791   0.96122
 Alpha virt. eigenvalues --    0.96554   0.96969   0.97029   0.97153   0.97437
 Alpha virt. eigenvalues --    0.97788   0.98308   0.98568   0.98770   0.98790
 Alpha virt. eigenvalues --    0.99324   0.99345   0.99792   1.00058   1.00444
 Alpha virt. eigenvalues --    1.01225   1.01365   1.01398   1.01826   1.02100
 Alpha virt. eigenvalues --    1.02333   1.02656   1.02749   1.02939   1.03226
 Alpha virt. eigenvalues --    1.03315   1.03694   1.03864   1.04054   1.04232
 Alpha virt. eigenvalues --    1.04439   1.05116   1.05170   1.05636   1.05812
 Alpha virt. eigenvalues --    1.06145   1.06539   1.06625   1.07243   1.07414
 Alpha virt. eigenvalues --    1.07982   1.08222   1.08391   1.08683   1.08831
 Alpha virt. eigenvalues --    1.09120   1.09310   1.09567   1.09935   1.10465
 Alpha virt. eigenvalues --    1.10934   1.11165   1.11307   1.11387   1.11899
 Alpha virt. eigenvalues --    1.12044   1.12335   1.12733   1.13143   1.13274
 Alpha virt. eigenvalues --    1.13288   1.13379   1.13534   1.14069   1.14228
 Alpha virt. eigenvalues --    1.14381   1.14695   1.14835   1.15272   1.15429
 Alpha virt. eigenvalues --    1.15575   1.15643   1.15797   1.16162   1.16499
 Alpha virt. eigenvalues --    1.16722   1.16971   1.17429   1.17475   1.17681
 Alpha virt. eigenvalues --    1.17753   1.17912   1.18578   1.19124   1.19348
 Alpha virt. eigenvalues --    1.20009   1.20093   1.20377   1.20421   1.20768
 Alpha virt. eigenvalues --    1.21115   1.21384   1.21607   1.21976   1.22086
 Alpha virt. eigenvalues --    1.22291   1.22550   1.22841   1.23089   1.23369
 Alpha virt. eigenvalues --    1.23879   1.24016   1.24122   1.24258   1.24397
 Alpha virt. eigenvalues --    1.24564   1.24727   1.25332   1.25668   1.25707
 Alpha virt. eigenvalues --    1.25796   1.26202   1.26539   1.26590   1.27094
 Alpha virt. eigenvalues --    1.27278   1.27907   1.28036   1.28324   1.28618
 Alpha virt. eigenvalues --    1.28731   1.29086   1.29258   1.29575   1.30083
 Alpha virt. eigenvalues --    1.30365   1.30527   1.30809   1.31068   1.31124
 Alpha virt. eigenvalues --    1.31421   1.31510   1.31681   1.31911   1.32648
 Alpha virt. eigenvalues --    1.33177   1.33408   1.33992   1.34195   1.34429
 Alpha virt. eigenvalues --    1.34508   1.34781   1.35210   1.35294   1.35593
 Alpha virt. eigenvalues --    1.35695   1.35892   1.36184   1.36622   1.36739
 Alpha virt. eigenvalues --    1.36963   1.37155   1.37654   1.37911   1.38044
 Alpha virt. eigenvalues --    1.38541   1.39138   1.39319   1.39484   1.39701
 Alpha virt. eigenvalues --    1.40180   1.40414   1.40678   1.40952   1.41173
 Alpha virt. eigenvalues --    1.41318   1.42006   1.42525   1.42734   1.43116
 Alpha virt. eigenvalues --    1.43159   1.43656   1.43811   1.43975   1.44244
 Alpha virt. eigenvalues --    1.44591   1.45002   1.45110   1.45704   1.45905
 Alpha virt. eigenvalues --    1.46083   1.46448   1.46795   1.47116   1.47368
 Alpha virt. eigenvalues --    1.47757   1.47900   1.48093   1.48483   1.48625
 Alpha virt. eigenvalues --    1.48801   1.49027   1.49152   1.49657   1.50068
 Alpha virt. eigenvalues --    1.50720   1.50959   1.51103   1.51633   1.51927
 Alpha virt. eigenvalues --    1.52156   1.52614   1.52880   1.53000   1.53450
 Alpha virt. eigenvalues --    1.53558   1.53972   1.54155   1.54525   1.54862
 Alpha virt. eigenvalues --    1.55231   1.55734   1.55899   1.56558   1.56929
 Alpha virt. eigenvalues --    1.57147   1.57335   1.57564   1.57963   1.58608
 Alpha virt. eigenvalues --    1.58947   1.59105   1.59810   1.60326   1.60512
 Alpha virt. eigenvalues --    1.60815   1.61260   1.61425   1.61784   1.62152
 Alpha virt. eigenvalues --    1.62301   1.62785   1.63130   1.63473   1.63581
 Alpha virt. eigenvalues --    1.63621   1.64583   1.64750   1.64822   1.64955
 Alpha virt. eigenvalues --    1.65453   1.65500   1.65882   1.66050   1.66333
 Alpha virt. eigenvalues --    1.66856   1.67265   1.67434   1.67630   1.67817
 Alpha virt. eigenvalues --    1.68151   1.68309   1.68674   1.68807   1.69091
 Alpha virt. eigenvalues --    1.69484   1.69718   1.70464   1.70729   1.70941
 Alpha virt. eigenvalues --    1.71317   1.71489   1.71529   1.71950   1.72104
 Alpha virt. eigenvalues --    1.72166   1.72440   1.72881   1.72985   1.73114
 Alpha virt. eigenvalues --    1.73207   1.73377   1.73625   1.73875   1.74002
 Alpha virt. eigenvalues --    1.74267   1.74285   1.74398   1.74672   1.75013
 Alpha virt. eigenvalues --    1.75197   1.75467   1.75759   1.75893   1.76033
 Alpha virt. eigenvalues --    1.76187   1.76510   1.76851   1.76952   1.77067
 Alpha virt. eigenvalues --    1.77122   1.77405   1.77720   1.77967   1.78146
 Alpha virt. eigenvalues --    1.78196   1.78398   1.78686   1.78735   1.78992
 Alpha virt. eigenvalues --    1.79067   1.79276   1.79343   1.79567   1.79795
 Alpha virt. eigenvalues --    1.79838   1.79902   1.80142   1.80321   1.80561
 Alpha virt. eigenvalues --    1.80811   1.81116   1.81274   1.81415   1.81620
 Alpha virt. eigenvalues --    1.81699   1.81804   1.82012   1.82285   1.82353
 Alpha virt. eigenvalues --    1.82455   1.82702   1.82808   1.83122   1.83290
 Alpha virt. eigenvalues --    1.83360   1.83549   1.83637   1.83771   1.83956
 Alpha virt. eigenvalues --    1.84013   1.84224   1.84350   1.84429   1.84661
 Alpha virt. eigenvalues --    1.84840   1.85117   1.85274   1.85425   1.85624
 Alpha virt. eigenvalues --    1.86100   1.86381   1.86426   1.86629   1.86842
 Alpha virt. eigenvalues --    1.86954   1.87195   1.87469   1.87546   1.87694
 Alpha virt. eigenvalues --    1.88078   1.88124   1.88322   1.88439   1.88808
 Alpha virt. eigenvalues --    1.89041   1.89235   1.89496   1.89523   1.89668
 Alpha virt. eigenvalues --    1.89984   1.90072   1.90273   1.90665   1.90913
 Alpha virt. eigenvalues --    1.91242   1.91259   1.91341   1.91627   1.91721
 Alpha virt. eigenvalues --    1.91808   1.92119   1.92441   1.92710   1.92778
 Alpha virt. eigenvalues --    1.93029   1.93165   1.93310   1.93604   1.94057
 Alpha virt. eigenvalues --    1.94281   1.94539   1.94782   1.95061   1.95167
 Alpha virt. eigenvalues --    1.95328   1.95562   1.95697   1.96155   1.96390
 Alpha virt. eigenvalues --    1.96598   1.96645   1.96697   1.96961   1.97144
 Alpha virt. eigenvalues --    1.97520   1.97762   1.97896   1.98100   1.98458
 Alpha virt. eigenvalues --    1.98486   1.98644   1.98991   1.99145   1.99232
 Alpha virt. eigenvalues --    1.99568   1.99654   1.99882   2.00439   2.00545
 Alpha virt. eigenvalues --    2.00798   2.00927   2.01317   2.01532   2.01673
 Alpha virt. eigenvalues --    2.01741   2.02098   2.02252   2.02874   2.03206
 Alpha virt. eigenvalues --    2.03402   2.03429   2.03571   2.03634   2.03848
 Alpha virt. eigenvalues --    2.04192   2.04383   2.04772   2.05360   2.05383
 Alpha virt. eigenvalues --    2.05595   2.05849   2.06027   2.06314   2.07133
 Alpha virt. eigenvalues --    2.07235   2.07429   2.07715   2.07870   2.08186
 Alpha virt. eigenvalues --    2.08518   2.08673   2.08989   2.09422   2.09534
 Alpha virt. eigenvalues --    2.10183   2.10562   2.10635   2.11131   2.11282
 Alpha virt. eigenvalues --    2.11524   2.11933   2.12166   2.12410   2.12602
 Alpha virt. eigenvalues --    2.12770   2.12928   2.13377   2.13724   2.14015
 Alpha virt. eigenvalues --    2.14198   2.14494   2.14689   2.14797   2.14807
 Alpha virt. eigenvalues --    2.14945   2.15390   2.15433   2.15650   2.15863
 Alpha virt. eigenvalues --    2.16082   2.16331   2.16541   2.17079   2.17373
 Alpha virt. eigenvalues --    2.17395   2.17601   2.18234   2.18438   2.18622
 Alpha virt. eigenvalues --    2.19004   2.19266   2.19517   2.19545   2.20163
 Alpha virt. eigenvalues --    2.20381   2.21375   2.21415   2.21580   2.22043
 Alpha virt. eigenvalues --    2.22414   2.22597   2.22976   2.23597   2.24065
 Alpha virt. eigenvalues --    2.24532   2.24597   2.24997   2.25635   2.25649
 Alpha virt. eigenvalues --    2.25801   2.26127   2.26678   2.27194   2.27445
 Alpha virt. eigenvalues --    2.27758   2.28065   2.28474   2.28655   2.28772
 Alpha virt. eigenvalues --    2.29285   2.29379   2.29516   2.29589   2.30406
 Alpha virt. eigenvalues --    2.30459   2.30665   2.31264   2.31325   2.31702
 Alpha virt. eigenvalues --    2.32184   2.32372   2.32455   2.33167   2.33502
 Alpha virt. eigenvalues --    2.33806   2.34392   2.34662   2.35032   2.35352
 Alpha virt. eigenvalues --    2.35515   2.36185   2.36433   2.36618   2.36955
 Alpha virt. eigenvalues --    2.37237   2.37353   2.37841   2.38189   2.38754
 Alpha virt. eigenvalues --    2.39128   2.39438   2.39673   2.40049   2.40331
 Alpha virt. eigenvalues --    2.40743   2.40896   2.41216   2.41415   2.41991
 Alpha virt. eigenvalues --    2.42372   2.42784   2.42997   2.43503   2.43806
 Alpha virt. eigenvalues --    2.43949   2.44385   2.44598   2.44705   2.45362
 Alpha virt. eigenvalues --    2.45812   2.46091   2.46377   2.46414   2.46963
 Alpha virt. eigenvalues --    2.47375   2.47992   2.48094   2.48484   2.48659
 Alpha virt. eigenvalues --    2.49360   2.49699   2.49981   2.50435   2.50805
 Alpha virt. eigenvalues --    2.51162   2.51769   2.51851   2.52278   2.53131
 Alpha virt. eigenvalues --    2.53374   2.53497   2.54445   2.54627   2.55162
 Alpha virt. eigenvalues --    2.55494   2.55583   2.56044   2.56323   2.56754
 Alpha virt. eigenvalues --    2.56995   2.57327   2.57568   2.57710   2.58059
 Alpha virt. eigenvalues --    2.58159   2.58494   2.58856   2.59054   2.59420
 Alpha virt. eigenvalues --    2.59830   2.60078   2.60248   2.60852   2.60963
 Alpha virt. eigenvalues --    2.61550   2.61828   2.61991   2.62403   2.62516
 Alpha virt. eigenvalues --    2.62719   2.62835   2.62988   2.63345   2.63539
 Alpha virt. eigenvalues --    2.63953   2.63980   2.64552   2.64819   2.64961
 Alpha virt. eigenvalues --    2.65275   2.65620   2.66344   2.66444   2.66749
 Alpha virt. eigenvalues --    2.67043   2.67558   2.68040   2.68106   2.68402
 Alpha virt. eigenvalues --    2.68528   2.68668   2.68763   2.69272   2.69702
 Alpha virt. eigenvalues --    2.69853   2.70306   2.70564   2.70962   2.71662
 Alpha virt. eigenvalues --    2.71772   2.71921   2.72169   2.72226   2.72502
 Alpha virt. eigenvalues --    2.73091   2.73115   2.73193   2.73381   2.73436
 Alpha virt. eigenvalues --    2.73909   2.74739   2.74949   2.75063   2.75188
 Alpha virt. eigenvalues --    2.75643   2.75912   2.76643   2.76698   2.76993
 Alpha virt. eigenvalues --    2.77175   2.77547   2.78164   2.78375   2.78476
 Alpha virt. eigenvalues --    2.79049   2.79093   2.79328   2.79535   2.79553
 Alpha virt. eigenvalues --    2.79676   2.80026   2.80240   2.80294   2.80483
 Alpha virt. eigenvalues --    2.80674   2.80881   2.81240   2.81646   2.81787
 Alpha virt. eigenvalues --    2.81972   2.82521   2.82932   2.82938   2.83228
 Alpha virt. eigenvalues --    2.83339   2.83554   2.83578   2.84427   2.85110
 Alpha virt. eigenvalues --    2.85259   2.85286   2.85367   2.85539   2.86102
 Alpha virt. eigenvalues --    2.86866   2.86990   2.87519   2.87769   2.88268
 Alpha virt. eigenvalues --    2.88724   2.88817   2.88952   2.89098   2.89225
 Alpha virt. eigenvalues --    2.90107   2.90127   2.90213   2.90521   2.90936
 Alpha virt. eigenvalues --    2.90949   2.91369   2.91792   2.91830   2.92554
 Alpha virt. eigenvalues --    2.93116   2.93712   2.94528   2.94673   2.94810
 Alpha virt. eigenvalues --    2.94894   2.95414   2.95479   2.95538   2.95763
 Alpha virt. eigenvalues --    2.96261   2.96604   2.96825   2.97236   2.97502
 Alpha virt. eigenvalues --    2.98045   2.98237   2.98940   2.98980   2.99699
 Alpha virt. eigenvalues --    2.99746   2.99867   3.00144   3.00839   3.01086
 Alpha virt. eigenvalues --    3.01361   3.01429   3.01754   3.01944   3.02021
 Alpha virt. eigenvalues --    3.02158   3.03239   3.03482   3.03577   3.04236
 Alpha virt. eigenvalues --    3.04640   3.04773   3.04861   3.05082   3.06215
 Alpha virt. eigenvalues --    3.06731   3.07576   3.07674   3.07983   3.08393
 Alpha virt. eigenvalues --    3.08477   3.08944   3.09214   3.09276   3.10431
 Alpha virt. eigenvalues --    3.10669   3.10852   3.11286   3.11438   3.11889
 Alpha virt. eigenvalues --    3.12335   3.12765   3.13247   3.13568   3.14409
 Alpha virt. eigenvalues --    3.15300   3.15722   3.15766   3.16052   3.16362
 Alpha virt. eigenvalues --    3.16394   3.16805   3.17411   3.17660   3.17797
 Alpha virt. eigenvalues --    3.18119   3.18156   3.18632   3.18755   3.18979
 Alpha virt. eigenvalues --    3.19274   3.19576   3.20034   3.21082   3.21365
 Alpha virt. eigenvalues --    3.21892   3.22039   3.23078   3.23241   3.23740
 Alpha virt. eigenvalues --    3.23810   3.25059   3.25633   3.25890   3.26350
 Alpha virt. eigenvalues --    3.26370   3.27254   3.27411   3.27599   3.27766
 Alpha virt. eigenvalues --    3.29537   3.29623   3.29876   3.30806   3.31509
 Alpha virt. eigenvalues --    3.32820   3.33139   3.35393   3.35601   3.35631
 Alpha virt. eigenvalues --    3.37666   3.39448   3.42553   3.48273   3.48743
 Alpha virt. eigenvalues --    3.49963   3.51392   3.52784   3.53665   3.54109
 Alpha virt. eigenvalues --    3.55141   3.55329   3.55645   3.57097   3.58498
 Alpha virt. eigenvalues --    3.58664   3.59732   3.61516   3.61772   3.62892
 Alpha virt. eigenvalues --    3.63869   3.65904   3.66123   3.66496   3.67317
 Alpha virt. eigenvalues --    3.67525   3.68055   3.68537   3.69100   3.69252
 Alpha virt. eigenvalues --    3.70017   3.70967   3.71024   3.71344   3.71735
 Alpha virt. eigenvalues --    3.71773   3.71820   3.72616   3.74436   3.75325
 Alpha virt. eigenvalues --    3.75353   3.75770   3.77012   3.80014
          Condensed to atoms (all electrons):
 Mulliken charges:
               1
     1  C    0.067775
     2  C    0.000726
     3  O   -0.305624
     4  H   -0.006009
     5  H    0.020722
     6  H    0.033306
     7  N   -0.119809
     8  C    0.101508
     9  C    0.051504
    10  O   -0.304877
    11  C    0.063999
    12  C    0.085671
    13  O   -0.345401
    14  O   -0.368889
    15  H    0.104251
    16  H   -0.002671
    17  H    0.018438
    18  H   -0.016959
    19  N   -0.047731
    20  C    0.087256
    21  C    0.029384
    22  O   -0.264375
    23  C    0.116864
    24  C   -0.006919
    25  C   -0.031503
    26  C    0.009966
    27  N    0.150102
    28  H    0.122875
    29  H   -0.023788
    30  H    0.046409
    31  H   -0.019450
    32  H    0.030360
    33  H    0.006032
    34  H    0.014277
    35  H    0.055457
    36  H    0.054777
    37  H    0.034880
    38  H    0.118441
    39  H    0.148575
    40  H    0.098322
    41  N   -0.111194
    42  C    0.161475
    43  C    0.067525
    44  O   -0.269689
    45  C    0.081149
    46  C    0.090966
    47  O   -0.462745
    48  O   -0.389124
    49  H    0.125110
    50  H    0.012690
    51  H    0.028479
    52  H    0.013220
    53  N   -0.130285
    54  C    0.188798
    55  C    0.043062
    56  O   -0.278453
    57  H    0.132676
    58  H    0.016581
    59  H    0.010707
    60  N   -0.140411
    61  C    0.119546
    62  C    0.093145
    63  O   -0.296948
    64  C    0.059458
    65  C    0.121156
    66  N   -0.021070
    67  O   -0.395436
    68  H    0.121918
    69  H    0.031105
    70  H    0.066591
    71  H   -0.007422
    72  H    0.112778
    73  H    0.143386
    74  N   -0.118079
    75  C    0.245748
    76  C    0.045533
    77  O   -0.268259
    78  H    0.109092
    79  H    0.014851
    80  H    0.014486
    81  N   -0.107363
    82  C    0.089287
    83  C    0.107137
    84  O   -0.301533
    85  C    0.110036
    86  C   -0.057077
    87  C    0.011594
    88  C   -0.030872
    89  C    0.010739
    90  C   -0.016886
    91  C    0.132494
    92  O   -0.210015
    93  H    0.138927
    94  H    0.012675
    95  H    0.013310
    96  H    0.012034
    97  H   -0.009262
    98  H   -0.024784
    99  H   -0.024911
   100  H   -0.033610
   101  H    0.178990
   102  N   -0.110507
   103  C    0.171180
   104  C    0.022711
   105  O   -0.292991
   106  C   -0.110144
   107  C    0.000238
   108  C    0.076539
   109  C    0.032961
   110  H    0.139713
   111  H    0.014256
   112  H    0.001196
   113  H   -0.013535
   114  H   -0.022360
   115  H   -0.012955
   116  H    0.022956
   117  H    0.002774
   118  H    0.015616
   119  H    0.009139
   120  H    0.000536
   121  N   -0.112628
   122  C    0.117799
   123  C    0.052776
   124  O   -0.264111
   125  C    0.224071
   126  O   -0.331130
   127  H    0.135044
   128  H    0.009000
   129  H    0.007035
   130  H    0.003448
   131  H    0.171740
   132  N   -0.119186
   133  C    0.051924
   134  C    0.048402
   135  O   -0.282884
   136  C    0.089435
   137  H    0.132654
   138  H    0.014477
   139  H    0.039166
   140  H    0.006809
   141  H   -0.017721
   142  N   -0.128708
   143  C    0.122583
   144  C    0.051649
   145  O   -0.301128
   146  C    0.076032
   147  H    0.161438
   148  H    0.000753
   149  H   -0.009891
   150  H    0.030191
   151  H    0.031052
   152  N   -0.119936
   153  C    0.085624
   154  C    0.039623
   155  O   -0.295867
   156  C    0.037047
   157  C    0.115848
   158  C    0.112873
   159  O   -0.487530
   160  O   -0.380405
   161  H    0.116235
   162  H   -0.001015
   163  H    0.005501
   164  H   -0.004979
   165  H   -0.034257
   166  H    0.014227
   167  N   -0.119094
   168  C    0.141261
   169  H    0.018810
   170  H    0.041002
   171  H    0.021771
   172  H    0.111830
   173  Ca   1.360920
   174  O   -0.291376
   175  H    0.192689
   176  H    0.170887
 Sum of Mulliken charges =  -0.00000
 Mulliken charges with hydrogens summed into heavy atoms:
               1
     1  C    0.115794
     2  C    0.000726
     3  O   -0.305624
     7  N   -0.015558
     8  C    0.098837
     9  C    0.051504
    10  O   -0.304877
    11  C    0.065477
    12  C    0.085671
    13  O   -0.345401
    14  O   -0.368889
    19  N    0.075144
    20  C    0.063468
    21  C    0.029384
    22  O   -0.264375
    23  C    0.143823
    24  C    0.029473
    25  C    0.038231
    26  C    0.099623
    27  N    0.515440
    41  N    0.013916
    42  C    0.174164
    43  C    0.067525
    44  O   -0.269689
    45  C    0.122849
    46  C    0.090966
    47  O   -0.462745
    48  O   -0.389124
    53  N    0.002391
    54  C    0.216086
    55  C    0.043062
    56  O   -0.278453
    60  N   -0.018493
    61  C    0.150651
    62  C    0.093145
    63  O   -0.296948
    64  C    0.118627
    65  C    0.121156
    66  N    0.235094
    67  O   -0.395436
    74  N   -0.008987
    75  C    0.275085
    76  C    0.045533
    77  O   -0.268259
    81  N    0.031564
    82  C    0.101962
    83  C    0.107137
    84  O   -0.301533
    85  C    0.135380
    86  C   -0.057077
    87  C    0.002332
    88  C   -0.055656
    89  C   -0.014173
    90  C   -0.050496
    91  C    0.132494
    92  O   -0.031025
   102  N    0.029206
   103  C    0.185436
   104  C    0.022711
   105  O   -0.292991
   106  C   -0.108947
   107  C   -0.035657
   108  C    0.089314
   109  C    0.058252
   121  N    0.022416
   122  C    0.126798
   123  C    0.052776
   124  O   -0.264111
   125  C    0.234553
   126  O   -0.159390
   132  N    0.013468
   133  C    0.066401
   134  C    0.048402
   135  O   -0.282884
   136  C    0.117690
   142  N    0.032730
   143  C    0.123336
   144  C    0.051649
   145  O   -0.301128
   146  C    0.127384
   152  N   -0.003701
   153  C    0.084609
   154  C    0.039623
   155  O   -0.295867
   156  C    0.037569
   157  C    0.095817
   158  C    0.112873
   159  O   -0.487530
   160  O   -0.380405
   167  N   -0.007265
   168  C    0.222844
   173  Ca   1.360920
   174  O    0.072200
 DipInt: DoE/N= T F RetVal/Mat= T F Init=T NMatP=  1 IDeriv=0 Min/MaxMlt=  0  4
 Entering OneElI...
 OneElI was handed  1333951383 working-precision words.
 Multipole integrals L=0 to 4 MinM= 0 MaxM= 0.
 Requested accuracy = 0.1000D-12
 ShPair: Thresh= 1.00D-13 NBox=     0 BxSize= 0.00D+00 RnKept= 3.02D+01
         NSMCal=               327645 NSMKep=              124392
 PrmmSu-InSpLW:  IPartL=    0 NPrtUS=    1 NPrtUL=    1 DoSpLW=F IThBeg=    0 IThEnd=    0 NThAct=    1.
 PrsmSu:  NPrtUS=   1 ThrOK=F IAlg=1 NPAlg=1 LenDen=           0 ISkipM=0 DoSpLW=F IThBeg=    0 IThEnd=    0.
 Prism:   IPart=     0 DynPar=F LinDyn=F Incr=         512.
 PRISM was handed  1325253173 working-precision words and124392 shell-pairs
 IPart=  0 NShTot=      124392 NBatch=         295 AvBLen=       421.7
 PrsmSu-ThDecC:  IPartSL=    0    0 NPrtUSL=    1    1 IThBeg=    0 IThEnd=    0 CPU=   -1 GPU=   -1 NThAct=    1.
 PrSmSu:  NxtVal=            513.
 Electronic moments (au):
       -716.00000000         -7.91676048         -6.31004347         -7.22548601
    -108540.24610244     -37396.91578232     -10988.34646700       -244.42218087
        -95.93841047         54.37848161    -425959.85062733     -80551.31201767
     -20975.50377944     222087.66292090    -121295.92566386    -128960.13151986
     -79758.93196527      14419.05124281       8864.62725736     -66189.45930687
  -31154611.63572145   -5179080.80752875    -606828.36089689   -1725816.27255924
   -2671475.69850371    1850096.93547241     425540.58645251    -353454.48560627
     -90070.43324678   -4916431.03156978   -2209617.34081999    -406278.03501536
    -476798.19720864      58163.87967723     -80676.04330626
 Electronic spatial extent (au):  <R**2>=         156925.5084
 DipInt: DoE/N= F T RetVal/Mat= T F Init=T NMatP=  1 IDeriv=0 Min/MaxMlt=  0  4
 Nuclear    moments (au):
        716.00000000          0.00000000          0.00000000          0.00000000
     107934.44776589      37024.20425506      10619.38721469          0.00000000
          0.00000000         -0.00000000     419066.64452718      80341.09526738
      20508.67970352    -221525.78508432     118200.87294291     127072.83306946
      80109.84179281     -14958.49540049      -9654.41192122      67316.63098319
   30644421.91337887    5054795.19775548     573546.51377566    1634993.88930896
    2634190.86987705   -1871815.55080102    -420920.89482343     347239.32127282
      93829.81172612    4836996.94034200    2143840.22812549     381645.41862774
     484165.19715950     -62873.82046512      74527.47343710
 Total      moments (au):
         -0.00000000         -7.91676048         -6.31004347         -7.22548601
       -605.79833655       -372.71152726       -368.95925230       -244.42218087
        -95.93841047         54.37848161      -6893.20610015       -210.21675029
       -466.82407592        561.87783658      -3095.05272095      -1887.29845040
        350.90982754       -539.44415768       -789.78466386       1127.17167632
    -510189.72234258    -124285.60977327     -33281.84712123     -90822.38325027
     -37284.82862665     -21718.61532861       4619.69162909      -6215.16433344
       3759.37847934     -79434.09122778     -65777.11269450     -24632.61638762
       7366.99995086      -4709.94078789      -6148.56986916
 Traceless Quadrup. (au):
       -156.64196451         76.44484478         80.19711973       -244.42218087
        -95.93841047         54.37848161
 Charge=             -0.0000 electrons
 Dipole moment (field-independent basis, Debye):
    X=            -20.1224    Y=            -16.0385    Z=            -18.3654  Tot=             31.6138
 Quadrupole moment (field-independent basis, Debye-Ang):
   XX=           -814.8195   YY=           -501.3098   ZZ=           -496.2628
   XY=           -328.7562   XZ=           -129.0404   YZ=             73.1409
 Traceless Quadrupole moment (field-independent basis, Debye-Ang):
   XX=           -210.6888   YY=            102.8209   ZZ=            107.8679
   XY=           -328.7562   XZ=           -129.0404   YZ=             73.1409
 Octapole moment (field-independent basis, Debye-Ang**2):
  XXX=          -4906.3185  YYY=           -149.6242  ZZZ=           -332.2674  XYY=            399.9230
  XXY=          -2202.9393  XXZ=          -1343.3063  XZZ=            249.7641  YZZ=           -383.9556
  YYZ=           -562.1383  XYZ=            802.2774
 Hexadecapole moment (field-independent basis, Debye-Ang**3):
 XXXX=        -192161.9138 YYYY=         -46811.9203 ZZZZ=         -12535.5395 XXXY=         -34208.0646
 XXXZ=         -14043.2543 YYYX=          -8180.2720 YYYZ=           1739.9974 ZZZX=          -2340.9289
 ZZZY=           1415.9622 XXYY=         -29918.6877 XXZZ=         -24774.8148 YYZZ=          -9277.8245
 XXYZ=           2774.7654 YYXZ=          -1773.9895 ZZXY=          -2315.8462
 N-N= 1.895885226827D+04 E-N=-5.039372421469D+04  KE= 5.290496541980D+03
 Leave Link  601 at Tue Sep 17 18:07:18 2019, MaxMem=  1342177280 cpu:              43.9 elap:               1.1
 FitSet:  NAtFit=   176 NAtPot=   176 NAtFrz=     0 MDM=   180 TotChg=   0.00000
 Merz-Kollman atomic radii used.
 Read replacement radii for each type of atom:
 Rad(20) =   1.700000000000D+00
 Atom Element Radius
    1     6    1.50
    2     6    1.50
    3     8    1.40
    4     1    1.20
    5     1    1.20
    6     1    1.20
    7     7    1.50
    8     6    1.50
    9     6    1.50
   10     8    1.40
   11     6    1.50
   12     6    1.50
   13     8    1.40
   14     8    1.40
   15     1    1.20
   16     1    1.20
   17     1    1.20
   18     1    1.20
   19     7    1.50
   20     6    1.50
   21     6    1.50
   22     8    1.40
   23     6    1.50
   24     6    1.50
   25     6    1.50
   26     6    1.50
   27     7    1.50
   28     1    1.20
   29     1    1.20
   30     1    1.20
   31     1    1.20
   32     1    1.20
   33     1    1.20
   34     1    1.20
   35     1    1.20
   36     1    1.20
   37     1    1.20
   38     1    1.20
   39     1    1.20
   40     1    1.20
   41     7    1.50
   42     6    1.50
   43     6    1.50
   44     8    1.40
   45     6    1.50
   46     6    1.50
   47     8    1.40
   48     8    1.40
   49     1    1.20
   50     1    1.20
   51     1    1.20
   52     1    1.20
   53     7    1.50
   54     6    1.50
   55     6    1.50
   56     8    1.40
   57     1    1.20
   58     1    1.20
   59     1    1.20
   60     7    1.50
   61     6    1.50
   62     6    1.50
   63     8    1.40
   64     6    1.50
   65     6    1.50
   66     7    1.50
   67     8    1.40
   68     1    1.20
   69     1    1.20
   70     1    1.20
   71     1    1.20
   72     1    1.20
   73     1    1.20
   74     7    1.50
   75     6    1.50
   76     6    1.50
   77     8    1.40
   78     1    1.20
   79     1    1.20
   80     1    1.20
   81     7    1.50
   82     6    1.50
   83     6    1.50
   84     8    1.40
   85     6    1.50
   86     6    1.50
   87     6    1.50
   88     6    1.50
   89     6    1.50
   90     6    1.50
   91     6    1.50
   92     8    1.40
   93     1    1.20
   94     1    1.20
   95     1    1.20
   96     1    1.20
   97     1    1.20
   98     1    1.20
   99     1    1.20
  100     1    1.20
  101     1    1.20
  102     7    1.50
  103     6    1.50
  104     6    1.50
  105     8    1.40
  106     6    1.50
  107     6    1.50
  108     6    1.50
  109     6    1.50
  110     1    1.20
  111     1    1.20
  112     1    1.20
  113     1    1.20
  114     1    1.20
  115     1    1.20
  116     1    1.20
  117     1    1.20
  118     1    1.20
  119     1    1.20
  120     1    1.20
  121     7    1.50
  122     6    1.50
  123     6    1.50
  124     8    1.40
  125     6    1.50
  126     8    1.40
  127     1    1.20
  128     1    1.20
  129     1    1.20
  130     1    1.20
  131     1    1.20
  132     7    1.50
  133     6    1.50
  134     6    1.50
  135     8    1.40
  136     6    1.50
  137     1    1.20
  138     1    1.20
  139     1    1.20
  140     1    1.20
  141     1    1.20
  142     7    1.50
  143     6    1.50
  144     6    1.50
[...]
 **** Fit       0.004728
 **** Fit       0.003503
 **** Fit       0.002520
 **** Fit       0.001774
 **** Fit       0.001201
 **** Fit       0.000728
 **** Fit       0.000313
 **** Fit       0.009810
 **** Fit       0.009952
 **** Fit       0.009973
 **** Fit       0.009614
 **** Fit       0.008710
 **** Fit       0.007288
 **** Fit       0.005570
 **** Fit       0.003856
 **** Fit       0.002399
 **** Fit       0.001313
 **** Fit       0.000573
 **** Fit       0.000071
 **** Fit      -0.000315
 **** Fit      -0.000676
 **** Fit       0.009814
 **** Fit       0.010167
 **** Fit       0.010150
 **** Fit       0.009433
 **** Fit       0.007926
 **** Fit       0.005840
 **** Fit       0.003596
 **** Fit       0.001619
 **** Fit       0.000162
 **** Fit      -0.000747
 **** Fit      -0.001249
 **** Fit      -0.001540
 **** Fit      -0.001793
 **** Fit       0.009436
 **** Fit       0.010095
 **** Fit       0.009981
 **** Fit       0.008715
 **** Fit       0.006362
 **** Fit       0.003458
 **** Fit       0.000724
 **** Fit      -0.001301
 **** Fit      -0.002468
 **** Fit      -0.002965
 **** Fit      -0.003126
 **** Fit      -0.003255
 **** Fit       0.009194
 **** Fit       0.009577
 **** Fit       0.008380
 **** Fit       0.005592
 **** Fit       0.001978
 **** Fit      -0.001337
 **** Fit      -0.003547
 **** Fit      -0.004545
 **** Fit      -0.004759
 **** Fit       0.008499
 **** Fit       0.007699
 **** Fit       0.004858
 **** Fit       0.000861
 **** Fit      -0.002781
 **** Fit      -0.004999
 **** Fit       0.001355
 **** Fit       0.000000
 **** Fit       0.001047
 **** Fit       0.001512
 **** Fit       0.000339
 **** Fit      -0.001639
 **** Fit      -0.000883
 **** Fit       0.000587
 **** Fit       0.001518
 **** Fit       0.000357
 **** Fit      -0.000729
 **** Fit      -0.001515
 **** Fit      -0.003689
 **** Fit      -0.003062
 **** Fit      -0.001769
 **** Fit       0.001375
 **** Fit       0.000287
 **** Fit      -0.000815
 **** Fit      -0.001931
 **** Fit      -0.002936
 **** Fit      -0.003602
 **** Fit      -0.006310
 **** Fit      -0.005696
 **** Fit      -0.004395
 **** Fit      -0.002558
 **** Fit       0.001454
 **** Fit       0.000365
 **** Fit      -0.000715
 **** Fit      -0.001878
 **** Fit      -0.003138
 **** Fit      -0.004407
 **** Fit      -0.005508
 **** Fit      -0.006211
 **** Fit      -0.009727
 **** Fit      -0.009048
 **** Fit      -0.007593
 **** Fit      -0.005507
 **** Fit       0.000637
 **** Fit      -0.000452
 **** Fit      -0.001577
 **** Fit      -0.002849
 **** Fit      -0.004303
 **** Fit      -0.005885
 **** Fit      -0.007447
 **** Fit      -0.008769
 **** Fit      -0.009599
 **** Fit      -0.014270
 **** Fit      -0.013482
 **** Fit      -0.011798
 **** Fit      -0.009381
 **** Fit      -0.000336
 **** Fit      -0.001423
 **** Fit      -0.002605
 **** Fit      -0.004001
 **** Fit      -0.005661
 **** Fit      -0.007559
 **** Fit      -0.009581
 **** Fit      -0.011526
 **** Fit      -0.013131
 **** Fit      -0.014119
 **** Fit      -0.020460
 **** Fit      -0.019400
 **** Fit      -0.017155
 **** Fit      -0.013973
 **** Fit      -0.001885
 **** Fit      -0.003102
 **** Fit      -0.004573
 **** Fit      -0.006409
 **** Fit      -0.008648
 **** Fit      -0.011235
 **** Fit      -0.014004
 **** Fit      -0.016676
 **** Fit      -0.018886
 **** Fit      -0.020247
 **** Fit      -0.003704
 **** Fit      -0.005187
 **** Fit      -0.007118
 **** Fit      -0.009609
 **** Fit      -0.012685
 **** Fit      -0.016263
 **** Fit      -0.020115
 **** Fit      -0.005460
 **** Fit      -0.007279
 **** Fit      -0.009793
 **** Fit      -0.013155
 **** Fit      -0.017422
 **** Fit      -0.008504
 **** Fit      -0.011422
 **** Fit      -0.015664
 **** Fit       0.003818
 **** Fit       0.005078
 **** Fit       0.002176
 **** Fit       0.003751
 **** Fit       0.005085
 **** Fit       0.006063
 **** Fit       0.006715
 **** Fit       0.000498
 **** Fit       0.002452
 **** Fit       0.004191
 **** Fit       0.005579
 **** Fit       0.006586
 **** Fit       0.007243
 **** Fit       0.007641
 **** Fit      -0.003784
 **** Fit      -0.001305
 **** Fit       0.001168
 **** Fit       0.003363
 **** Fit       0.005154
 **** Fit       0.006522
 **** Fit       0.007492
 **** Fit       0.008104
 **** Fit       0.008426
 **** Fit       0.008571
 **** Fit      -0.006700
 **** Fit      -0.003457
 **** Fit      -0.000359
 **** Fit       0.002354
 **** Fit       0.004572
 **** Fit       0.006291
 **** Fit       0.007576
 **** Fit       0.008487
 **** Fit       0.009061
 **** Fit       0.009346
 **** Fit       0.009406
 **** Fit       0.009331
 **** Fit      -0.009973
 **** Fit      -0.005526
 **** Fit      -0.001513
 **** Fit       0.001872
 **** Fit       0.004548
 **** Fit       0.006545
 **** Fit       0.007990
 **** Fit       0.009025
 **** Fit       0.009725
 **** Fit      -0.013809
 **** Fit      -0.007890
 **** Fit      -0.002813
 **** Fit       0.001329
 **** Fit       0.004496
 **** Fit       0.006752
 **** Fit       0.008272
 **** Fit       0.009277
 **** Fit       0.009937
 **** Fit      -0.010161
 **** Fit      -0.003849
 **** Fit       0.001107
 **** Fit       0.004734
 **** Fit       0.007146
 **** Fit       0.008585
 **** Fit       0.009340
 **** Fit       0.009644
 **** Fit      -0.011560
 **** Fit      -0.003962
 **** Fit       0.001675
 **** Fit       0.005486
 **** Fit       0.007704
 **** Fit       0.008707
 **** Fit       0.008866
 **** Fit      -0.003559
 **** Fit       0.002252
 **** Fit       0.005753
 **** Fit       0.007362
 **** Fit       0.007615
 **** Fit      -0.003587
 **** Fit       0.001622
 **** Fit       0.004349
 **** Fit       0.005150
 **** Fit       0.000026
 **** Fit       0.000952
 **** Fit       0.016613
 **** Fit       0.030627
 **** Fit       0.029467
 **** Fit       0.027631
 **** Fit       0.024734
 **** Fit       0.020341
 **** Fit       0.040793
 **** Fit       0.040239
 **** Fit       0.039626
 **** Fit       0.038735
 **** Fit       0.037317
 **** Fit       0.035116
 **** Fit       0.031860
 **** Fit       0.027263
 **** Fit       0.045968
 **** Fit       0.046878
 **** Fit       0.047164
 **** Fit       0.047066
 **** Fit       0.046589
 **** Fit       0.045631
 **** Fit       0.044054
 **** Fit       0.041704
 **** Fit       0.038427
 **** Fit       0.034114
 **** Fit       0.025796
 **** Fit       0.034731
 **** Fit       0.041756
 **** Fit       0.046691
 **** Fit       0.049826
 **** Fit       0.051657
 **** Fit       0.052621
 **** Fit       0.052967
 **** Fit       0.052783
 **** Fit       0.052055
 **** Fit       0.050726
 **** Fit       0.048720
 **** Fit       0.045980
 **** Fit       0.042504
 **** Fit       0.038425
 **** Fit       0.034078
 **** Fit       0.019483
 **** Fit       0.028932
 **** Fit       0.037232
 **** Fit       0.044073
 **** Fit       0.049299
 **** Fit       0.053007
 **** Fit       0.055465
 **** Fit       0.056964
 **** Fit       0.057722
 **** Fit       0.057856
 **** Fit       0.057407
 **** Fit       0.056378
 **** Fit       0.054758
 **** Fit       0.052558
 **** Fit       0.049846
 **** Fit       0.046798
 **** Fit       0.043723
 **** Fit       0.041052
 **** Fit       0.039245
 **** Fit       0.038638
 **** Fit       0.039294
 **** Fit       0.017169
 **** Fit       0.027576
 **** Fit       0.036499
 **** Fit       0.044013
 **** Fit       0.050054
 **** Fit       0.054635
 **** Fit       0.057900
 **** Fit       0.060066
 **** Fit       0.061337
 **** Fit       0.061860
 **** Fit       0.061722
 **** Fit       0.060972
 **** Fit       0.059653
 **** Fit       0.057834
 **** Fit       0.055643
 **** Fit       0.053301
 **** Fit       0.051115
 **** Fit       0.049426
 **** Fit       0.048494
 **** Fit       0.048377
 **** Fit       0.024726
 **** Fit       0.034661
 **** Fit       0.042983
 **** Fit       0.049815
 **** Fit       0.055203
 **** Fit       0.059236
 **** Fit       0.062068
 **** Fit       0.063880
 **** Fit       0.064830
 **** Fit       0.065039
 **** Fit       0.064599
 **** Fit       0.063601
 **** Fit       0.062161
 **** Fit       0.060453
 **** Fit       0.058710
 **** Fit       0.057197
 **** Fit       0.056131
 **** Fit       0.055586
 **** Fit       0.055446
 **** Fit       0.031949
 **** Fit       0.041045
 **** Fit       0.048636
 **** Fit       0.054782
 **** Fit       0.059547
 **** Fit       0.063041
 **** Fit       0.065411
 **** Fit       0.066816
 **** Fit       0.067398
 **** Fit       0.067286
 **** Fit       0.066612
 **** Fit       0.065534
 **** Fit       0.064249
 **** Fit       0.062980
 **** Fit       0.061922
 **** Fit       0.061182
 **** Fit       0.060746
 **** Fit       0.032048
 **** Fit       0.041151
 **** Fit       0.049049
 **** Fit       0.055563
 **** Fit       0.060666
 **** Fit       0.064421
 **** Fit       0.066958
 **** Fit       0.068438
 **** Fit       0.069032
 **** Fit       0.068917
 **** Fit       0.068289
 **** Fit       0.067369
 **** Fit       0.066382
 **** Fit       0.065507
 **** Fit       0.064836
 **** Fit       0.064421
 **** Fit       0.045759
 **** Fit       0.033928
 **** Fit       0.041651
 **** Fit       0.049263
 **** Fit       0.055922
 **** Fit       0.061275
 **** Fit       0.065238
 **** Fit       0.067885
 **** Fit       0.069380
 **** Fit       0.069932
 **** Fit       0.069785
 **** Fit       0.069199
 **** Fit       0.068422
 **** Fit       0.067638
 **** Fit       0.066958
 **** Fit       0.066455
 **** Fit       0.055350
 **** Fit       0.050777
 **** Fit       0.043448
 **** Fit       0.039395
 **** Fit       0.040265
 **** Fit       0.045102
 **** Fit       0.051651
 **** Fit       0.058034
 **** Fit       0.063239
 **** Fit       0.066903
 **** Fit       0.069058
 **** Fit       0.069950
 **** Fit       0.069927
 **** Fit       0.069349
 **** Fit       0.068487
 **** Fit       0.067441
 **** Fit       0.065998
 **** Fit       0.063311
 **** Fit       0.058191
 **** Fit       0.055466
 **** Fit       0.050569
 **** Fit       0.050127
 **** Fit       0.054187
 **** Fit       0.059933
 **** Fit       0.064855
 **** Fit       0.067894
 **** Fit       0.069061
 **** Fit       0.068836
 **** Fit       0.067642
 **** Fit       0.065392
 **** Fit       0.061339
 **** Fit       0.059630
 **** Fit       0.057655
 **** Fit       0.061637
 **** Fit       0.065910
 **** Fit       0.066808
 **** Fit       0.064409
 **** Fit       0.063139
 **** Fit       0.030938
 **** Fit       0.036693
 **** Fit       0.043679
 **** Fit       0.036636
 **** Fit       0.036534
 **** Fit       0.039440
 **** Fit       0.044293
 **** Fit       0.050433
 **** Fit       0.057484
 **** Fit       0.065263
 **** Fit       0.073720
 **** Fit       0.082895
 **** Fit       0.043978
 **** Fit       0.042117
 **** Fit       0.043525
 **** Fit       0.047238
 **** Fit       0.052590
 **** Fit       0.059157
 **** Fit       0.066702
 **** Fit       0.075108
 **** Fit       0.051868
 **** Fit       0.047416
 **** Fit       0.046714
 **** Fit       0.048886
 **** Fit       0.053204
 **** Fit       0.059138
 **** Fit       0.066335
 **** Fit       0.058943
 **** Fit       0.052849
 **** Fit       0.050369
 **** Fit       0.051045
 **** Fit       0.054258
 **** Fit       0.059437
 **** Fit       0.066119
 **** Fit       0.045327
 **** Fit       0.060187
 **** Fit       0.055291
 **** Fit       0.053490
 **** Fit       0.054737
 **** Fit       0.058555
 **** Fit       0.054884
 **** Fit       0.062643
 **** Fit       0.058456
 **** Fit       0.056366
 **** Fit       0.057440
 **** Fit       0.061478
 **** Fit       0.059680
 **** Fit       0.061503
 **** Fit       0.060388
 **** Fit       0.058763
 **** Fit       0.059827
 **** Fit       0.060364
 **** Fit       0.060415
 **** Fit       0.029764
 **** Fit       0.033534
 **** Fit       0.034850
 **** Fit       0.042580
 **** Fit       0.035752
 **** Fit       0.044334
 **** Fit       0.052352
 **** Fit       0.032912
 **** Fit       0.041923
 **** Fit       0.050470
 **** Fit       0.058962
 **** Fit       0.038468
 **** Fit       0.047078
 **** Fit       0.055406
 **** Fit       0.063960
 **** Fit       0.027959
 **** Fit       0.038240
 **** Fit       0.047112
 **** Fit       0.055524
 **** Fit       0.064111
 **** Fit       0.073395
 **** Fit       0.037932
 **** Fit       0.046743
 **** Fit       0.054971
 **** Fit       0.063264
 **** Fit       0.072141
 **** Fit       0.082084
 **** Fit       0.035115
 **** Fit       0.043987
 **** Fit       0.052082
 **** Fit       0.060033
 **** Fit       0.068343
 **** Fit       0.077464
 **** Fit       0.087822
 **** Fit       0.036307
 **** Fit       0.044729
 **** Fit       0.052645
 **** Fit       0.060536
 **** Fit       0.068848
 **** Fit       0.078007
 **** Fit       0.088415
 **** Fit       0.035604
 **** Fit       0.043299
 **** Fit       0.050907
 **** Fit       0.058624
 **** Fit       0.066768
 **** Fit       0.075705
 **** Fit       0.085801
 **** Fit       0.097315
 **** Fit       0.049545
 **** Fit       0.056714
 **** Fit       0.064435
 **** Fit       0.072923
 **** Fit       0.082442
 **** Fit       0.093195
 **** Fit       0.103935
 **** Fit       0.088741
 **** Fit       0.097754
 **** Fit       0.108170
 **** Fit       0.040706
 **** Fit       0.081618
 **** Fit       0.089747
 **** Fit       0.098751
 **** Fit       0.055346
 **** Fit       0.041373
 **** Fit       0.075535
 **** Fit       0.082591
 **** Fit       0.090160
 **** Fit       0.098094
 **** Fit       0.105861
 **** Fit       0.095497
 **** Fit       0.086426
 **** Fit       0.075227
 **** Fit       0.063250
 **** Fit       0.051524
 **** Fit       0.041171
 **** Fit       0.067555
 **** Fit       0.073536
 **** Fit       0.080025
 **** Fit       0.086769
 **** Fit       0.093305
 **** Fit       0.098750
 **** Fit       0.101758
 **** Fit       0.100883
 **** Fit       0.085768
 **** Fit       0.078325
 **** Fit       0.069025
 **** Fit       0.059355
 **** Fit       0.050792
 **** Fit       0.045035
 **** Fit       0.043868
 **** Fit       0.047971
 **** Fit       0.066563
 **** Fit       0.071765
 **** Fit       0.077433
 **** Fit       0.083017
 **** Fit       0.087731
 **** Fit       0.090455
 **** Fit       0.089996
 **** Fit       0.078151
 **** Fit       0.071820
 **** Fit       0.064048
 **** Fit       0.056861
 **** Fit       0.052310
 **** Fit       0.051849
 **** Fit       0.055041
 **** Fit       0.061785
 **** Fit       0.064604
 **** Fit       0.068839
 **** Fit       0.073693
 **** Fit       0.078218
 **** Fit       0.081231
 **** Fit       0.081454
 **** Fit       0.072256
 **** Fit       0.066580
 **** Fit       0.060452
 **** Fit       0.057143
 **** Fit       0.057737
 **** Fit       0.059877
 **** Fit       0.061183
 **** Fit       0.062432
 **** Fit       0.065174
 **** Fit       0.069254
 **** Fit       0.073110
 **** Fit       0.074628
 **** Fit       0.067766
 **** Fit       0.062946
 **** Fit       0.060881
 **** Fit       0.062282
 **** Fit       0.065175
 **** Fit       0.068541
 **** Fit       0.064476
 -----------------------------------------------------------------
 Leave Link  602 at Tue Sep 17 18:07:21 2019, MaxMem=  1342177280 cpu:             125.3 elap:               2.7

 Test job not archived.
 1\1\GINC-C506-114\SP\RB3LYP\SVP\C54H83Ca1N15O23\PENGZHI\17-Sep-2019\0\
 \#b3lyp/svp scf=(tight,noincore) Test #IOP(5/87=12) Density=Current Po
 p=(MK,readradii) iop(6/33=2) iop(6/42=6)\\Ng-293_loop3_66.0\\0,1\C,0,5
 9.27,92.03,75.43\C,0,59.79,91.54,74.09\O,0,60.99,91.29,73.97\H,0,58.24
 7,91.681,75.572\H,0,59.901,91.641,76.229\H,0,59.287,93.12,75.451\N,0,5
 9.,91.48,73.01\C,0,59.42,91.2,71.65\C,0,58.18,90.71,70.9\O,0,57.1,91.1
 9,71.21\C,0,59.9,92.5,71.02\C,0,60.55,92.16,69.69\O,0,60.72,93.18,68.9
 8\O,0,60.87,91.03,69.27\H,0,58.03,91.74,73.1\H,0,60.21,90.45,71.58\H,0
 ,60.58,93.03,71.7\H,0,59.07,93.2,70.91\N,0,58.36,89.8,69.95\C,0,57.37,
 89.29,69.01\C,0,56.95,90.32,67.98\O,0,57.77,90.69,67.14\C,0,56.19,88.5
 3,69.62\C,0,55.57,87.68,68.51\C,0,56.38,86.64,67.75\C,0,55.61,85.57,66
 .98\N,0,56.41,84.4,66.57\H,0,59.27,89.38,69.86\H,0,57.92,88.59,68.38\H
 ,0,55.55,89.24,70.12\H,0,56.66,87.86,70.34\H,0,55.14,88.37,67.78\H,0,5
 4.66,87.2,68.87\H,0,57.02,86.11,68.46\H,0,56.93,87.14,66.96\H,0,55.25,
 86.14,66.12\H,0,54.76,85.12,67.48\H,0,56.75,84.44,65.62\H,0,57.16,84.2
 9,67.24\H,0,55.89,83.53,66.55\N,0,55.74,90.89,67.96\C,0,55.32,91.87,66
 .97\C,0,54.24,92.79,67.51\O,0,53.55,92.43,68.46\C,0,54.85,91.29,65.64\
 C,0,53.68,90.33,65.64\O,0,53.49,89.66,64.6\O,0,52.87,90.21,66.58\H,0,5
 5.09,90.65,68.68\H,0,56.11,92.6,66.79\H,0,55.76,90.9,65.19\H,0,54.46,9
 2.14,65.07\N,0,54.03,93.97,66.92\C,0,52.73,94.57,67.14\C,0,51.65,93.83
 ,66.35\O,0,51.91,93.32,65.26\H,0,54.65,94.38,66.23\H,0,52.7,95.62,66.8
 8\H,0,52.47,94.64,68.19\N,0,50.43,93.82,66.88\C,0,49.2,93.33,66.3\C,0,
 48.28,94.46,65.86\O,0,47.25,94.12,65.29\C,0,48.6,92.42,67.37\C,0,49.37
 ,91.13,67.62\N,0,49.62,90.65,68.84\O,0,49.6,90.32,66.72\H,0,50.37,94.3
 ,67.77\H,0,49.36,92.62,65.49\H,0,47.64,92.05,67.02\H,0,48.49,93.01,68.
 28\H,0,49.36,91.08,69.72\H,0,50.06,89.75,68.94\N,0,48.56,95.75,66.08\C
 ,0,47.84,96.92,65.63\C,0,46.43,97.14,66.17\O,0,46.31,97.38,67.37\H,0,4
 9.36,95.93,66.67\H,0,47.81,97.,64.54\H,0,48.54,97.66,66.02\N,0,45.41,9
 7.07,65.31\C,0,44.03,97.08,65.75\C,0,43.52,95.92,66.6\O,0,42.38,95.94,
 67.06\C,0,43.66,98.4,66.42\C,0,44.03,99.6,65.58\C,0,45.33,100.11,65.65
 \C,0,43.16,99.93,64.54\C,0,45.64,101.14,64.76\C,0,43.48,100.98,63.67\C
 ,0,44.78,101.53,63.71\O,0,45.1,102.5,62.8\H,0,45.48,96.74,64.36\H,0,43
 .37,97.01,64.89\H,0,44.12,98.44,67.41\H,0,42.59,98.5,66.61\H,0,45.95,9
 9.72,66.44\H,0,42.24,99.37,64.45\H,0,46.62,101.59,64.73\H,0,42.85,101.
 19,62.82\H,0,44.34,102.96,62.45\N,0,44.34,94.87,66.69\C,0,44.12,93.59,
 67.33\C,0,42.95,92.8,66.76\O,0,43.16,91.6,66.6\C,0,44.17,93.77,68.84\C
 ,0,45.53,94.21,69.36\C,0,43.85,92.47,69.57\C,0,45.56,94.9,70.72\H,0,45
 .24,94.89,66.22\H,0,44.93,92.87,67.18\H,0,43.46,94.53,69.19\H,0,46.06,
 94.85,68.66\H,0,46.13,93.3,69.46\H,0,42.91,92.05,69.2\H,0,44.63,91.75,
 69.33\H,0,43.76,92.57,70.65\H,0,44.86,95.74,70.71\H,0,45.36,94.18,71.5
 1\H,0,46.51,95.38,70.97\N,0,41.77,93.3,66.41\C,0,40.71,92.6,65.71\C,0,
 40.3,91.26,66.3\O,0,40.11,90.34,65.5\C,0,39.49,93.49,65.54\O,0,39.03,9
 3.9,66.81\H,0,41.68,94.28,66.65\H,0,41.05,92.42,64.69\H,0,38.64,92.91,
 65.18\H,0,39.68,94.32,64.86\H,0,38.11,94.17,66.83\N,0,40.22,91.29,67.6
 3\C,0,39.98,90.15,68.5\C,0,40.76,88.87,68.25\O,0,40.33,87.78,68.62\C,0
 ,38.49,89.96,68.74\H,0,40.45,92.16,68.08\H,0,40.3,90.48,69.49\H,0,38.1
 ,89.26,68.\H,0,38.22,89.66,69.75\H,0,38.07,90.96,68.72\N,0,41.92,88.94
 ,67.6\C,0,42.8,87.81,67.34\C,0,44.02,87.94,68.23\O,0,44.43,89.05,68.57
 \C,0,43.17,87.89,65.86\H,0,42.3,89.87,67.46\H,0,42.42,86.81,67.51\H,0,
 43.9,87.12,65.62\H,0,42.28,87.71,65.26\H,0,43.41,88.92,65.6\N,0,44.78,
 86.87,68.49\C,0,45.97,86.78,69.3\C,0,45.76,87.14,70.76\O,0,46.74,86.97
 ,71.49\C,0,47.14,87.46,68.59\C,0,48.51,86.85,68.84\C,0,49.58,87.37,67.
 89\O,0,49.54,87.14,66.66\O,0,50.49,88.08,68.36\H,0,44.43,85.98,68.15\H
 ,0,46.31,85.74,69.27\H,0,47.07,88.51,68.88\H,0,46.95,87.39,67.52\H,0,4
 8.43,85.78,68.65\H,0,48.75,86.98,69.9\N,0,44.69,87.82,71.15\C,0,44.58,
 88.5,72.43\H,0,43.528,88.649,72.673\H,0,45.049,87.894,73.205\H,0,45.07
 9,89.467,72.372\H,0,44.17,88.1,70.33\Ca,0,51.02,88.73,65.21\O,0,52.45,
 86.55,65.39\H,0,52.28,85.96,66.13\H,0,53.21,86.17,64.95\\Version=ES64L
 -G16RevA.03\State=1-A\HF=-5333.3744645\RMSD=6.198e-10\Dipole=-8.393296
 ,-5.8562389,-7.0679871\Quadrupole=-242.5254469,205.9757055,36.5497414,
 -181.4674713,-74.6841708,22.6063466\PG=C01 [X(C54H83Ca1N15O23)]\\@


 I SUPPOSE A BABY LLAMA HAS A MMAMA AND A PPOPA.
     -- RICHARD AMOUR
 Job cpu time:       0 days  9 hours 52 minutes 53.4 seconds.
 Elapsed time:       0 days  0 hours 12 minutes 31.2 seconds.
 File lengths (MBytes):  RWF=   1517 Int=      0 D2E=      0 Chk=    171 Scr=      1
 Normal termination of Gaussian 16 at Tue Sep 17 18:07:23 2019.
