 Entering Gaussian System, Link 0=g16
 Initial command:
 /home1/apps/gaussian/16rA.03/g16/l1.exe "/scratch/01990/pengzhi/4353710/Gau-302948.inp" -scrdir="/scratch/01990/pengzhi/4353710/"
 Entering Link 1 = /home1/apps/gaussian/16rA.03/g16/l1.exe PID=    302949.
  
 Copyright (c) 1988,1990,1992,1993,1995,1998,2003,2009,2016,
            Gaussian, Inc.  All Rights Reserved.
  
 This is part of the Gaussian(R) 16 program.  It is based on
 the Gaussian(R) 09 system (copyright 2009, Gaussian, Inc.),
 the Gaussian(R) 03 system (copyright 2003, Gaussian, Inc.),
 the Gaussian(R) 98 system (copyright 1998, Gaussian, Inc.),
 the Gaussian(R) 94 system (copyright 1995, Gaussian, Inc.),
 the Gaussian 92(TM) system (copyright 1992, Gaussian, Inc.),
 the Gaussian 90(TM) system (copyright 1990, Gaussian, Inc.),
 the Gaussian 88(TM) system (copyright 1988, Gaussian, Inc.),
 the Gaussian 86(TM) system (copyright 1986, Carnegie Mellon
 University), and the Gaussian 82(TM) system (copyright 1983,
 Carnegie Mellon University). Gaussian is a federally registered
 trademark of Gaussian, Inc.
  
 This software contains proprietary and confidential information,
 including trade secrets, belonging to Gaussian, Inc.
  
 This software is provided under written license and may be
 used, copied, transmitted, or stored only in accord with that
 written license.
  
 The following legend is applicable only to US Government
 contracts under FAR:
  
                    RESTRICTED RIGHTS LEGEND
  
 Use, reproduction and disclosure by the US Government is
 subject to restrictions as set forth in subparagraphs (a)
 and (c) of the Commercial Computer Software - Restricted
 Rights clause in FAR 52.227-19.
  
 Gaussian, Inc.
 340 Quinnipiac St., Bldg. 40, Wallingford CT 06492
  
  
 ---------------------------------------------------------------
 Warning -- This program may not be used in any manner that
 competes with the business of Gaussian, Inc. or will provide
 assistance to any competitor of Gaussian, Inc.  The licensee
 of this program is prohibited from giving any competitor of
 Gaussian, Inc. access to this program.  By using this program,
 the user acknowledges that Gaussian, Inc. is engaged in the
 business of creating and licensing software in the field of
 computational chemistry and represents and warrants to the
 licensee that it is not a competitor of Gaussian, Inc. and that
 it will not use this program in any manner prohibited above.
 ---------------------------------------------------------------
  

 Cite this work as:
 Gaussian 16, Revision A.03,
 M. J. Frisch, G. W. Trucks, H. B. Schlegel, G. E. Scuseria, 
 M. A. Robb, J. R. Cheeseman, G. Scalmani, V. Barone, 
 G. A. Petersson, H. Nakatsuji, X. Li, M. Caricato, A. V. Marenich, 
 J. Bloino, B. G. Janesko, R. Gomperts, B. Mennucci, H. P. Hratchian, 
 J. V. Ortiz, A. F. Izmaylov, J. L. Sonnenberg, D. Williams-Young, 
 F. Ding, F. Lipparini, F. Egidi, J. Goings, B. Peng, A. Petrone, 
 T. Henderson, D. Ranasinghe, V. G. Zakrzewski, J. Gao, N. Rega, 
 G. Zheng, W. Liang, M. Hada, M. Ehara, K. Toyota, R. Fukuda, 
 J. Hasegawa, M. Ishida, T. Nakajima, Y. Honda, O. Kitao, H. Nakai, 
 T. Vreven, K. Throssell, J. A. Montgomery, Jr., J. E. Peralta, 
 F. Ogliaro, M. J. Bearpark, J. J. Heyd, E. N. Brothers, K. N. Kudin, 
 V. N. Staroverov, T. A. Keith, R. Kobayashi, J. Normand, 
 K. Raghavachari, A. P. Rendell, J. C. Burant, S. S. Iyengar, 
 J. Tomasi, M. Cossi, J. M. Millam, M. Klene, C. Adamo, R. Cammi, 
 J. W. Ochterski, R. L. Martin, K. Morokuma, O. Farkas, 
 J. B. Foresman, and D. J. Fox, Gaussian, Inc., Wallingford CT, 2016.
 
 ******************************************
 Gaussian 16:  ES64L-G16RevA.03 25-Dec-2016
                18-Sep-2019 
 ******************************************
 %chk=Ng-295_loop3_7.0.chk
 %nprocshared=48
 Will use up to   48 processors via shared memory.
 %mem=10GB
 %nosave
 ----------------------------------------------------------------------
 #b3lyp/svp scf=(tight,noincore) Test #IOP(5/87=12) Density=Current Pop
 =(MK,readradii) iop(6/33=2) iop(6/42=6)
 ----------------------------------------------------------------------
 1/30=1,38=1,172=1/1;
 2/12=2,17=6,18=5,40=1/2;
 3/5=18,7=101,11=2,25=1,30=1,74=-5/1,2,3;
 4//1;
 5/5=4,32=2,38=5,87=12/2;
 6/7=2,8=2,9=2,10=2,15=8,20=101,22=-1,28=1,33=2,42=6/1,2;
 99/5=1,9=1/99;
 ----------------
 Ng-295_loop3_7.0
 ----------------
 Symbolic Z-matrix:
 Charge =  0 Multiplicity = 1
 C                     16.339    75.03     32.05 
 C                     17.349    73.94     31.73 
 O                     18.219    73.67     32.56 
 H                     15.421    74.576    32.423 
 H                     16.75     75.695    32.81 
 H                     16.12     75.6      31.147 
 N                     17.209    73.43     30.5 
 C                     18.119    72.5      29.86 
 C                     18.999    73.23     28.87 
 O                     18.519    73.99     28.03 
 C                     17.189    71.43     29.27 
 C                     17.939    70.34     28.52 
 O                     19.019    70.52     27.92 
 O                     17.339    69.27     28.32 
 H                     16.339    73.7      30.06 
 H                     18.829    72.09     30.57 
 H                     16.559    71.9      28.52 
 H                     16.549    70.99     30.03 
 N                     20.299    72.99     29.03 
 C                     21.399    73.61     28.31 
 C                     21.229    73.41     26.81 
 O                     21.819    74.21     26.09 
 C                     22.709    73.01     28.82 
 C                     22.779    71.49     28.66 
 C                     24.209    71.       28.88 
 C                     24.339    69.49     28.68 
 N                     24.169    69.1      27.27 
 H                     20.589    72.45     29.84 
 H                     21.279    74.68     28.48 
 H                     22.809    73.2      29.89 
 H                     23.479    73.48     28.21 
 H                     22.469    71.31     27.63 
 H                     22.069    71.01     29.32 
 H                     24.519    71.35     29.86 
 H                     24.849    71.39     28.09 
 H                     23.679    68.93     29.34 
 H                     25.369    69.24     28.94 
 H                     24.739    68.28     27.12 
 H                     23.249    68.88     26.92 
 H                     24.459    69.82     26.62 
 N                     20.449    72.45     26.29 
 C                     20.399    71.95     24.93 
 C                     18.979    71.72     24.43 
 O                     18.799    71.51     23.23 
 C                     21.339    70.77     24.79 
 C                     20.889    69.59     25.64 
 O                     19.959    68.92     25.14 
 O                     21.489    69.23     26.68 
 H                     19.959    71.94     27.01 
 H                     20.719    72.74     24.25 
 H                     22.349    71.02     25.11 
 H                     21.429    70.52     23.73 
 N                     17.939    71.71     25.26 
 C                     16.529    71.57     24.94 
 C                     16.049    70.13     24.82 
 O                     14.869    69.83     25.02 
 H                     18.149    71.81     26.24 
 H                     16.339    71.99     23.96 
 H                     15.939    72.12     25.68 
 N                     16.849    69.13     24.47 
 C                     16.399    67.76     24.28 
 C                     16.159    67.08     25.61 
 O                     17.079    66.89     26.41 
 C                     17.329    67.01     23.33 
 C                     16.969    65.59     22.93 
 N                     17.269    65.2      21.69 
 O                     16.439    64.85     23.75 
 H                     17.809    69.28     24.18 
 H                     15.419    67.79     23.8 
 H                     18.349    66.93     23.71 
 H                     17.459    67.52     22.37 
 H                     17.809    65.85     21.14 
 H                     17.179    64.27     21.3 
 N                     14.919    66.61     25.77 
 C                     14.309    66.06     26.96 
 C                     14.799    64.67     27.35 
 O                     14.329    64.08     28.32 
 H                     14.399    66.63     24.9 
 H                     13.229    66.       26.82 
 H                     14.439    66.77     27.78 
 N                     15.799    64.09     26.68 
 C                     16.239    62.73     26.9 
 C                     17.109    62.65     28.15 
 O                     17.889    63.57     28.38 
 C                     16.969    62.35     25.61 
 C                     17.629    61.       25.77 
 C                     18.969    61.05     26.16 
 C                     16.799    59.89     25.93 
 C                     19.559    59.88     26.66 
 C                     17.389    58.72     26.41 
 C                     18.739    58.75     26.82 
 O                     19.229    57.56     27.29 
 H                     16.229    64.59     25.92 
 H                     15.329    62.12     26.97 
 H                     17.709    63.11     25.34 
 H                     16.229    62.31     24.82 
 H                     19.699    61.83     25.98 
 H                     15.739    60.01     25.73 
 H                     20.619    59.83     26.82 
 H                     16.789    57.83     26.46 
 H                     18.569    56.88     27.42 
 N                     16.819    61.63     28.96 
 C                     17.509    61.39     30.21 
 C                     19.009    61.11     30.1 
 O                     19.799    61.77     29.42 
 C                     17.099    62.47     31.2 
 C                     18.069    62.77     32.33 
 C                     15.759    62.18     31.87 
 C                     17.779    63.92     33.29 
 H                     16.119    60.96     28.67 
 H                     17.089    60.45     30.58 
 H                     16.899    63.44     30.74 
 H                     18.979    63.01     31.78 
 H                     18.239    61.9      32.96 
 H                     15.339    63.09     32.3 
 H                     15.029    61.8      31.16 
 H                     15.909    61.44     32.66 
 H                     17.259    63.64     34.2 
 H                     18.759    64.37     33.45 
 H                     17.139    64.71     32.88 
 N                     19.389    60.15     30.94 
 C                     20.759    59.71     31.11 
 C                     21.039    58.26     31.47 
 O                     22.179    57.8      31.49 
 C                     21.489    60.63     32.09 
 O                     20.649    60.94     33.18 
 H                     18.749    59.91     31.67 
 H                     21.359    59.8      30.2 
 H                     21.529    61.62     31.63 
 H                     22.359    60.1      32.47 
 H                     21.159    61.29     33.92 
 N                     19.999    57.49     31.82 
 C                     20.019    56.07     32.1 
 C                     20.839    55.52     33.26 
 O                     21.389    54.42     33.15 
 C                     20.109    55.21     30.84 
 H                     19.149    58.       31.96 
 H                     18.979    55.85     32.36 
 H                     19.289    55.41     30.15 
 H                     21.089    55.16     30.35 
 H                     19.899    54.2      31.17 
 N                     20.969    56.13     34.44 
 C                     20.389    57.28     35.1 
 C                     19.699    56.95     36.41 
 O                     19.789    55.84     36.93 
 C                     21.479    58.33     35.3 
 H                     21.449    55.55     35.11 
 H                     19.609    57.66     34.43 
 H                     21.939    58.48     34.33 
 H                     21.099    59.28     35.7 
 H                     22.209    57.9      35.99 
 N                     19.009    57.89     37.07 
 C                     18.359    59.06     36.53 
 C                     16.839    59.02     36.58 
 O                     16.249    59.62     35.68 
 C                     18.839    60.25     37.36 
 C                     18.619    61.57     36.64 
 C                     19.399    62.62     37.42 
 O                     20.639    62.68     37.29 
 O                     18.759    63.44     38.11 
 H                     18.649    57.51     37.94 
 H                     18.629    59.13     35.48 
 H                     19.909    60.15     37.53 
 H                     18.409    60.26     38.37 
 H                     17.569    61.84     36.64 
 H                     18.869    61.41     35.59 
 N                     16.289    58.33     37.58 
 C                     14.849    58.32     37.75 
 H                     14.369    58.247    36.774 
 H                     14.561    57.465    38.361 
 H                     14.534    59.241    38.241 
 H                     16.939    58.04     38.31 
 Ca                    19.42     67.79     27.64 
 O                     20.02     68.49     30.08 
 H                     19.37     68.74     30.74 
 H                     20.86     68.58     30.53 
 
 Stoichiometry    C54H83CaN15O23
 Framework group  C1[X(C54H83CaN15O23)]
 Deg. of freedom   522
 Full point group                 C1      NOp   1
 Largest Abelian subgroup         C1      NOp   1
 Largest concise Abelian subgroup C1      NOp   1
                         Standard orientation:                         
 ---------------------------------------------------------------------
 Center     Atomic      Atomic             Coordinates (Angstroms)
 Number     Number       Type             X           Y           Z
 ---------------------------------------------------------------------
      1          6           0       -7.615053   -6.319876   -3.823299
      2          6           0       -6.805644   -5.751108   -2.669193
      3          8           0       -6.167243   -6.522330   -1.950611
      4          1           0       -7.042617   -6.231055   -4.746552
      5          1           0       -7.833620   -7.370639   -3.631280
      6          1           0       -8.548543   -5.765581   -3.921401
      7          7           0       -6.946568   -4.427790   -2.522322
      8          6           0       -6.431197   -3.638154   -1.420747
      9          6           0       -7.541246   -3.318981   -0.444366
     10          8           0       -8.612803   -2.851870   -0.827997
     11          6           0       -5.778274   -2.432696   -2.112457
     12          6           0       -5.175788   -1.439659   -1.130628
     13          8           0       -5.615301   -1.240200    0.020825
     14          8           0       -4.334716   -0.639128   -1.574077
     15          1           0       -7.398490   -3.990981   -3.315017
     16          1           0       -5.728028   -4.206762   -0.821968
     17          1           0       -6.552861   -1.874967   -2.631354
     18          1           0       -5.031682   -2.741671   -2.839048
     19          7           0       -7.247379   -3.621622    0.818666
     20          6           0       -8.130605   -3.529488    1.969416
     21          6           0       -8.673043   -2.113343    2.107961
     22          8           0       -9.716937   -1.996486    2.742886
     23          6           0       -7.353159   -3.965876    3.210925
     24          6           0       -6.094352   -3.132179    3.458415
     25          6           0       -5.551572   -3.397029    4.861499
     26          6           0       -4.320369   -2.546534    5.174226
     27          7           0       -4.652904   -1.118629    5.314256
     28          1           0       -6.384346   -4.125384    1.000866
     29          1           0       -8.989666   -4.150447    1.715204
     30          1           0       -7.007899   -4.993671    3.086690
     31          1           0       -8.053719   -3.827342    4.033071
     32          1           0       -6.430331   -2.098492    3.368923
     33          1           0       -5.360798   -3.321727    2.686359
     34          1           0       -5.388804   -4.467413    4.943862
     35          1           0       -6.268596   -3.038926    5.598682
     36          1           0       -3.516302   -2.709321    4.458841
     37          1           0       -3.971271   -2.872547    6.155473
     38          1           0       -4.001567   -0.727990    5.979810
     39          1           0       -4.631696   -0.518956    4.503550
     40          1           0       -5.594584   -0.960246    5.650638
     41          7           0       -8.082499   -1.051447    1.538721
     42          6           0       -8.293910    0.359430    1.797237
     43          6           0       -8.338173    1.199243    0.527570
     44          8           0       -8.728433    2.364964    0.600314
     45          6           0       -7.319745    0.830937    2.857560
     46          6           0       -5.879243    0.750559    2.371871
     47          8           0       -5.534591    1.691618    1.623925
     48          8           0       -5.062753   -0.100914    2.795589
     49          1           0       -7.292795   -1.325411    0.973114
     50          1           0       -9.311261    0.504362    2.161779
     51          1           0       -7.381189    0.223715    3.758952
     52          1           0       -7.606566    1.837641    3.171373
     53          7           0       -7.937787    0.714447   -0.645147
     54          6           0       -7.974976    1.355652   -1.948056
     55          6           0       -6.770086    2.235128   -2.253284
     56          8           0       -6.416949    2.456193   -3.414673
     57          1           0       -7.555960   -0.217554   -0.636016
     58          1           0       -8.813397    2.039984   -1.988521
     59          1           0       -8.107172    0.589757   -2.718854
     60          7           0       -6.055129    2.832366   -1.307428
     61          6           0       -4.945037    3.732691   -1.576895
     62          6           0       -3.713090    2.961821   -1.997569
     63          8           0       -3.159041    2.168194   -1.232268
     64          6           0       -4.735880    4.699617   -0.414481
     65          6           0       -3.681831    5.784183   -0.551229
     66          7           0       -3.930701    6.965889    0.015634
     67          8           0       -2.642514    5.540674   -1.152414
     68          1           0       -6.320674    2.805693   -0.329178
     69          1           0       -5.205859    4.339639   -2.445967
     70          1           0       -4.478758    4.193273    0.517562
     71          1           0       -5.642163    5.256298   -0.154947
     72          1           0       -4.761823    7.017870    0.584084
     73          1           0       -3.300853    7.754835    0.092810
     74          7           0       -3.230078    3.309577   -3.193339
     75          6           0       -2.181119    2.676965   -3.961575
     76          6           0       -0.771376    2.888461   -3.421027
     77          8           0        0.208229    2.433301   -4.006779
     78          1           0       -3.666269    4.157327   -3.537949
     79          1           0       -2.200831    3.055867   -4.984143
     80          1           0       -2.411941    1.613734   -4.059867
     81          7           0       -0.577285    3.520767   -2.260072
     82          6           0        0.724571    3.874675   -1.738997
     83          6           0        1.396927    2.654382   -1.118817
     84          8           0        0.702849    1.859875   -0.490554
     85          6           0        0.445188    5.002693   -0.743548
     86          6           0        1.710686    5.356359    0.002867
     87          6           0        1.860035    4.712214    1.232896
     88          6           0        2.757860    5.916069   -0.729766
     89          6           0        3.129664    4.705046    1.828707
     90          6           0        4.017926    5.926050   -0.130155
     91          6           0        4.194454    5.271980    1.107800
     92          8           0        5.466798    5.321265    1.613579
     93          1           0       -1.377636    3.846531   -1.744498
     94          1           0        1.289176    4.294618   -2.581594
     95          1           0       -0.347647    4.720359   -0.043690
     96          1           0        0.098832    5.856939   -1.312407
     97          1           0        1.092618    4.345483    1.903925
     98          1           0        2.551473    6.257893   -1.739004
     99          1           0        3.255446    4.364756    2.838698
    100          1           0        4.820450    6.427961   -0.638722
    101          1           0        6.122835    5.669105    1.010651
    102          7           0        2.678591    2.499224   -1.456256
    103          6           0        3.490558    1.392283   -0.996264
    104          6           0        3.691466    1.297147    0.517370
    105          8           0        2.790667    1.402499    1.353768
    106          6           0        3.013332    0.125484   -1.690579
    107          6           0        3.295076   -1.191145   -0.987082
    108          6           0        3.581608   -0.026955   -3.098565
    109          6           0        2.742634   -2.490626   -1.565318
    110          1           0        3.124819    3.211068   -2.019423
    111          1           0        4.490915    1.604745   -1.384909
    112          1           0        1.940455    0.108632   -1.893438
    113          1           0        2.825914   -1.026318   -0.017072
    114          1           0        4.361260   -1.360460   -0.855619
    115          1           0        2.985870   -0.731863   -3.679600
    116          1           0        3.572164    0.915699   -3.639596
    117          1           0        4.610022   -0.390040   -3.029763
    118          1           0        3.421035   -3.028754   -2.218840
    119          1           0        2.428881   -3.047855   -0.682394
    120          1           0        1.849525   -2.372082   -2.189901
    121          7           0        4.938169    0.945017    0.822877
    122          6           0        5.412824    0.712458    2.171958
    123          6           0        6.859856    1.022634    2.518930
    124          8           0        7.279189    0.977203    3.673787
    125          6           0        5.077108   -0.714468    2.608851
    126          8           0        5.321783   -1.614723    1.550799
    127          1           0        5.494765    0.568153    0.082422
    128          1           0        4.901698    1.322424    2.922219
    129          1           0        3.987881   -0.791964    2.638490
    130          1           0        5.728689   -0.978132    3.438384
    131          1           0        5.370806   -2.522050    1.874148
    132          7           0        7.698208    1.305154    1.511781
    133          6           0        9.079324    1.725442    1.617029
    134          6           0       10.121176    0.812996    2.251448
    135          8           0       11.037450    1.304667    2.917255
    136          6           0        9.232611    3.189161    2.028526
    137          1           0        7.312934    1.128020    0.604925
    138          1           0        9.391597    1.827698    0.573176
    139          1           0        8.722883    3.862418    1.339032
    140          1           0        9.047189    3.423321    3.083887
    141          1           0       10.276383    3.423814    1.859477
    142          7           0       10.150315   -0.512118    2.094527
    143          6           0        9.452960   -1.492391    1.290003
    144          6           0       10.365675   -2.313779    0.399288
    145          8           0       11.589641   -2.259342    0.496983
    146          6           0        8.631932   -2.388263    2.214085
    147          1           0       10.982499   -0.917711    2.492854
    148          1           0        8.794910   -0.929082    0.618175
    149          1           0        8.038712   -1.725017    2.833113
    150          1           0        7.986922   -3.094716    1.673914
    151          1           0        9.343205   -2.934634    2.838160
    152          7           0        9.852198   -3.172255   -0.492150
    153          6           0        8.563139   -3.117967   -1.138973
    154          6           0        8.614484   -2.817328   -2.629436
    155          8           0        7.654203   -2.200374   -3.093470
    156          6           0        7.917304   -4.489231   -0.944212
    157          6           0        6.412614   -4.442689   -1.151440
    158          6           0        5.867347   -5.769654   -0.640413
    159          8           0        5.758767   -5.951226    0.589766
    160          8           0        5.473859   -6.608369   -1.476968
    161          1           0       10.600108   -3.663466   -0.971984
    162          1           0        8.000966   -2.308080   -0.682525
    163          1           0        8.091832   -4.816829    0.078539
    164          1           0        8.389280   -5.268076   -1.557187
    165          1           0        6.170169   -4.344706   -2.203590
    166          1           0        6.052341   -3.520873   -0.692029
    167          7           0        9.695854   -3.234311   -3.289257
    168          6           0        9.778635   -3.067705   -4.727307
    169          1           0        9.373641   -2.094080   -5.003601
    170          1           0       10.820243   -3.129885   -5.041117
    171          1           0        9.202935   -3.852504   -5.218437
    172          1           0       10.302892   -3.863416   -2.764631
    173         20           0       -3.349500    0.192027    0.732845
    174          8           0       -2.794552   -2.356055    0.786817
    175          1           0       -2.701826   -2.900112    0.001957
    176          1           0       -2.654175   -2.963532    1.513085
 ---------------------------------------------------------------------
 Rotational constants (GHZ):           0.0239249           0.0083128           0.0073471
 Standard basis: SVP (5D, 7F)
 There are  1809 symmetry adapted cartesian basis functions of A   symmetry.
 There are  1717 symmetry adapted basis functions of A   symmetry.
  1717 basis functions,  2922 primitive gaussians,  1809 cartesian basis functions
   358 alpha electrons      358 beta electrons
       nuclear repulsion energy     19462.2676741381 Hartrees.
 NAtoms=  176 NActive=  176 NUniq=  176 SFac= 1.00D+00 NAtFMM=   60 NAOKFM=T Big=T
 Integral buffers will be    131072 words long.
 Raffenetti 2 integral format.
 Two-electron integral symmetry is turned on.
 One-electron integrals computed using PRISM.
 NBasis=  1717 RedAO= T EigKep=  2.78D-04  NBF=  1717
 NBsUse=  1717 1.00D-06 EigRej= -1.00D+00 NBFU=  1717
 ExpMin= 1.98D-02 ExpMax= 3.51D+04 ExpMxC= 5.28D+03 IAcc=3 IRadAn=         5 AccDes= 0.00D+00
 Harris functional with IExCor=  402 and IRadAn=       5 diagonalized for initial guess.
 HarFok:  IExCor=  402 AccDes= 0.00D+00 IRadAn=         5 IDoV= 1 UseB2=F ITyADJ=14
 ICtDFT=  3500011 ScaDFX=  1.000000  1.000000  1.000000  1.000000
 FoFCou: FMM=F IPFlag=           0 FMFlag=      100000 FMFlg1=        2001
         NFxFlg=           0 DoJE=T BraDBF=F KetDBF=T FulRan=T
         wScrn=  0.000000 ICntrl=       500 IOpCl=  0 I1Cent=   200000004 NGrid=           0
         NMat0=    1 NMatS0=      1 NMatT0=    0 NMatD0=    1 NMtDS0=    0 NMtDT0=    0
 Petite list used in FoFCou.
 Requested convergence on RMS density matrix=1.00D-08 within 128 cycles.
 Requested convergence on MAX density matrix=1.00D-06.
 Requested convergence on             energy=1.00D-06.
 No special actions if energy rises.
 EnCoef did     2 forward-backward iterations
 EnCoef did     2 forward-backward iterations
 EnCoef did     2 forward-backward iterations
 EnCoef did    15 forward-backward iterations
 EnCoef did   100 forward-backward iterations
 EnCoef did   100 forward-backward iterations
 EnCoef did   100 forward-backward iterations
 Rare condition: small coef for last iteration: -0.130D-14
 EnCoef did   100 forward-backward iterations
 EnCoef did   100 forward-backward iterations
 EnCoef did   100 forward-backward iterations
 Rare condition: small coef for last iteration:  0.000D+00
 Restarting incremental Fock formation.
 Rare condition: small coef for last iteration:  0.000D+00
 Rare condition: small coef for last iteration:  0.000D+00
 EnCoef did    97 forward-backward iterations
 Rare condition: small coef for last iteration:  0.000D+00
 EnCoef did    95 forward-backward iterations
 Rare condition: small coef for last iteration: -0.178D-14
 EnCoef did   100 forward-backward iterations
 Rare condition: small coef for last iteration:  0.000D+00
 EnCoef did   100 forward-backward iterations
 Restarting incremental Fock formation.
 SCF Done:  E(RB3LYP) =  -5333.40864265     A.U. after   45 cycles
            NFock= 45  Conv=0.52D-08     -V/T= 2.0081
 SCF density gives NOpUse=  1 NOpAll=  1.
 Hyperfine terms turned off by default for NAtoms > 100.

 **********************************************************************

            Population analysis using the SCF density.

 **********************************************************************

 Orbital symmetries:
 BldTbl:  Degeneracy threshold= 1.00D-02
       Occupied  (A) (A) (A) (A) (A) (A) (A) (A) (A) (A) (A) (A)
                 (A) (A) (A) (A) (A) (A) (A) (A) (A) (A) (A) (A)
                 (A) (A) (A) (A) (A) (A) (A) (A) (A) (A) (A) (A)
                 (A) (A) (A) (A) (A) (A) (A) (A) (A) (A) (A) (A)
                 (A) (A) (A) (A) (A) (A) (A) (A) (A) (A) (A) (A)
                 (A) (A) (A) (A) (A) (A) (A) (A) (A) (A) (A) (A)
                 (A) (A) (A) (A) (A) (A) (A) (A) (A) (A) (A) (A)
                 (A) (A) (A) (A) (A) (A) (A) (A) (A) (A) (A) (A)
                 (A) (A) (A) (A) (A) (A) (A) (A) (A) (A) (A) (A)
                 (A) (A) (A) (A) (A) (A) (A) (A) (A) (A) (A) (A)
                 (A) (A) (A) (A) (A) (A) (A) (A) (A) (A) (A) (A)
                 (A) (A) (A) (A) (A) (A) (A) (A) (A) (A) (A) (A)
                 (A) (A) (A) (A) (A) (A) (A) (A) (A) (A) (A) (A)
                 (A) (A) (A) (A) (A) (A) (A) (A) (A) (A) (A) (A)
                 (A) (A) (A) (A) (A) (A) (A) (A) (A) (A) (A) (A)
                 (A) (A) (A) (A) (A) (A) (A) (A) (A) (A) (A) (A)
                 (A) (A) (A) (A) (A) (A) (A) (A) (A) (A) (A) (A)
                 (A) (A) (A) (A) (A) (A) (A) (A) (A) (A) (A) (A)
                 (A) (A) (A) (A) (A) (A) (A) (A) (A) (A) (A) (A)
                 (A) (A) (A) (A) (A) (A) (A) (A) (A) (A) (A) (A)
                 (A) (A) (A) (A) (A) (A) (A) (A) (A) (A) (A) (A)
                 (A) (A) (A) (A) (A) (A) (A) (A) (A) (A) (A) (A)
                 (A) (A) (A) (A) (A) (A) (A) (A) (A) (A) (A) (A)
                 (A) (A) (A) (A) (A) (A) (A) (A) (A) (A) (A) (A)
                 (A) (A) (A) (A) (A) (A) (A) (A) (A) (A) (A) (A)
                 (A) (A) (A) (A) (A) (A) (A) (A) (A) (A) (A) (A)
                 (A) (A) (A) (A) (A) (A) (A) (A) (A) (A) (A) (A)
                 (A) (A) (A) (A) (A) (A) (A) (A) (A) (A) (A) (A)
                 (A) (A) (A) (A) (A) (A) (A) (A) (A) (A) (A) (A)
                 (A) (A) (A) (A) (A) (A) (A) (A) (A) (A)
       Virtual   (A) (A) (A) (A) (A) (A) (A) (A) (A) (A) (A) (A)
                 (A) (A) (A) (A) (A) (A) (A) (A) (A) (A) (A) (A)
                 (A) (A) (A) (A) (A) (A) (A) (A) (A) (A) (A) (A)
                 (A) (A) (A) (A) (A) (A) (A) (A) (A) (A) (A) (A)
                 (A) (A) (A) (A) (A) (A) (A) (A) (A) (A) (A) (A)
                 (A) (A) (A) (A) (A) (A) (A) (A) (A) (A) (A) (A)
                 (A) (A) (A) (A) (A) (A) (A) (A) (A) (A) (A) (A)
                 (A) (A) (A) (A) (A) (A) (A) (A) (A) (A) (A) (A)
                 (A) (A) (A) (A) (A) (A) (A) (A) (A) (A) (A) (A)
                 (A) (A) (A) (A) (A) (A) (A) (A) (A) (A) (A) (A)
                 (A) (A) (A) (A) (A) (A) (A) (A) (A) (A) (A) (A)
                 (A) (A) (A) (A) (A) (A) (A) (A) (A) (A) (A) (A)
                 (A) (A) (A) (A) (A) (A) (A) (A) (A) (A) (A) (A)
                 (A) (A) (A) (A) (A) (A) (A) (A) (A) (A) (A) (A)
                 (A) (A) (A) (A) (A) (A) (A) (A) (A) (A) (A) (A)
                 (A) (A) (A) (A) (A) (A) (A) (A) (A) (A) (A) (A)
                 (A) (A) (A) (A) (A) (A) (A) (A) (A) (A) (A) (A)
                 (A) (A) (A) (A) (A) (A) (A) (A) (A) (A) (A) (A)
                 (A) (A) (A) (A) (A) (A) (A) (A) (A) (A) (A) (A)
                 (A) (A) (A) (A) (A) (A) (A) (A) (A) (A) (A) (A)
                 (A) (A) (A) (A) (A) (A) (A) (A) (A) (A) (A) (A)
                 (A) (A) (A) (A) (A) (A) (A) (A) (A) (A) (A) (A)
                 (A) (A) (A) (A) (A) (A) (A) (A) (A) (A) (A) (A)
                 (A) (A) (A) (A) (A) (A) (A) (A) (A) (A) (A) (A)
                 (A) (A) (A) (A) (A) (A) (A) (A) (A) (A) (A) (A)
                 (A) (A) (A) (A) (A) (A) (A) (A) (A) (A) (A) (A)
                 (A) (A) (A) (A) (A) (A) (A) (A) (A) (A) (A) (A)
                 (A) (A) (A) (A) (A) (A) (A) (A) (A) (A) (A) (A)
                 (A) (A) (A) (A) (A) (A) (A) (A) (A) (A) (A) (A)
                 (A) (A) (A) (A) (A) (A) (A) (A) (A) (A) (A) (A)
                 (A) (A) (A) (A) (A) (A) (A) (A) (A) (A) (A) (A)
                 (A) (A) (A) (A) (A) (A) (A) (A) (A) (A) (A) (A)
                 (A) (A) (A) (A) (A) (A) (A) (A) (A) (A) (A) (A)
                 (A) (A) (A) (A) (A) (A) (A) (A) (A) (A) (A) (A)
                 (A) (A) (A) (A) (A) (A) (A) (A) (A) (A) (A) (A)
                 (A) (A) (A) (A) (A) (A) (A) (A) (A) (A) (A) (A)
                 (A) (A) (A) (A) (A) (A) (A) (A) (A) (A) (A) (A)
                 (A) (A) (A) (A) (A) (A) (A) (A) (A) (A) (A) (A)
                 (A) (A) (A) (A) (A) (A) (A) (A) (A) (A) (A) (A)
                 (A) (A) (A) (A) (A) (A) (A) (A) (A) (A) (A) (A)
                 (A) (A) (A) (A) (A) (A) (A) (A) (A) (A) (A) (A)
                 (A) (A) (A) (A) (A) (A) (A) (A) (A) (A) (A) (A)
                 (A) (A) (A) (A) (A) (A) (A) (A) (A) (A) (A) (A)
                 (A) (A) (A) (A) (A) (A) (A) (A) (A) (A) (A) (A)
                 (A) (A) (A) (A) (A) (A) (A) (A) (A) (A) (A) (A)
                 (A) (A) (A) (A) (A) (A) (A) (A) (A) (A) (A) (A)
                 (A) (A) (A) (A) (A) (A) (A) (A) (A) (A) (A) (A)
                 (A) (A) (A) (A) (A) (A) (A) (A) (A) (A) (A) (A)
                 (A) (A) (A) (A) (A) (A) (A) (A) (A) (A) (A) (A)
                 (A) (A) (A) (A) (A) (A) (A) (A) (A) (A) (A) (A)
                 (A) (A) (A) (A) (A) (A) (A) (A) (A) (A) (A) (A)
                 (A) (A) (A) (A) (A) (A) (A) (A) (A) (A) (A) (A)
                 (A) (A) (A) (A) (A) (A) (A) (A) (A) (A) (A) (A)
                 (A) (A) (A) (A) (A) (A) (A) (A) (A) (A) (A) (A)
                 (A) (A) (A) (A) (A) (A) (A) (A) (A) (A) (A) (A)
                 (A) (A) (A) (A) (A) (A) (A) (A) (A) (A) (A) (A)
                 (A) (A) (A) (A) (A) (A) (A) (A) (A) (A) (A) (A)
                 (A) (A) (A) (A) (A) (A) (A) (A) (A) (A) (A) (A)
                 (A) (A) (A) (A) (A) (A) (A) (A) (A) (A) (A) (A)
                 (A) (A) (A) (A) (A) (A) (A) (A) (A) (A) (A) (A)
                 (A) (A) (A) (A) (A) (A) (A) (A) (A) (A) (A) (A)
                 (A) (A) (A) (A) (A) (A) (A) (A) (A) (A) (A) (A)
                 (A) (A) (A) (A) (A) (A) (A) (A) (A) (A) (A) (A)
                 (A) (A) (A) (A) (A) (A) (A) (A) (A) (A) (A) (A)
                 (A) (A) (A) (A) (A) (A) (A) (A) (A) (A) (A) (A)
                 (A) (A) (A) (A) (A) (A) (A) (A) (A) (A) (A) (A)
                 (A) (A) (A) (A) (A) (A) (A) (A) (A) (A) (A) (A)
                 (A) (A) (A) (A) (A) (A) (A) (A) (A) (A) (A) (A)
                 (A) (A) (A) (A) (A) (A) (A) (A) (A) (A) (A) (A)
                 (A) (A) (A) (A) (A) (A) (A) (A) (A) (A) (A) (A)
                 (A) (A) (A) (A) (A) (A) (A) (A) (A) (A) (A) (A)
                 (A) (A) (A) (A) (A) (A) (A) (A) (A) (A) (A) (A)
                 (A) (A) (A) (A) (A) (A) (A) (A) (A) (A) (A) (A)
                 (A) (A) (A) (A) (A) (A) (A) (A) (A) (A) (A) (A)
                 (A) (A) (A) (A) (A) (A) (A) (A) (A) (A) (A) (A)
                 (A) (A) (A) (A) (A) (A) (A) (A) (A) (A) (A) (A)
                 (A) (A) (A) (A) (A) (A) (A) (A) (A) (A) (A) (A)
                 (A) (A) (A) (A) (A) (A) (A) (A) (A) (A) (A) (A)
                 (A) (A) (A) (A) (A) (A) (A) (A) (A) (A) (A) (A)
                 (A) (A) (A) (A) (A) (A) (A) (A) (A) (A) (A) (A)
                 (A) (A) (A) (A) (A) (A) (A) (A) (A) (A) (A) (A)
                 (A) (A) (A) (A) (A) (A) (A) (A) (A) (A) (A) (A)
                 (A) (A) (A) (A) (A) (A) (A) (A) (A) (A) (A) (A)
                 (A) (A) (A) (A) (A) (A) (A) (A) (A) (A) (A) (A)
                 (A) (A) (A) (A) (A) (A) (A) (A) (A) (A) (A) (A)
                 (A) (A) (A) (A) (A) (A) (A) (A) (A) (A) (A) (A)
                 (A) (A) (A) (A) (A) (A) (A) (A) (A) (A) (A) (A)
                 (A) (A) (A) (A) (A) (A) (A) (A) (A) (A) (A) (A)
                 (A) (A) (A) (A) (A) (A) (A) (A) (A) (A) (A) (A)
                 (A) (A) (A) (A) (A) (A) (A) (A) (A) (A) (A) (A)
                 (A) (A) (A) (A) (A) (A) (A) (A) (A) (A) (A) (A)
                 (A) (A) (A) (A) (A) (A) (A) (A) (A) (A) (A) (A)
                 (A) (A) (A) (A) (A) (A) (A) (A) (A) (A) (A) (A)
                 (A) (A) (A) (A) (A) (A) (A) (A) (A) (A) (A) (A)
                 (A) (A) (A) (A) (A) (A) (A) (A) (A) (A) (A) (A)
                 (A) (A) (A) (A) (A) (A) (A) (A) (A) (A) (A) (A)
                 (A) (A) (A) (A) (A) (A) (A) (A) (A) (A) (A) (A)
                 (A) (A) (A) (A) (A) (A) (A) (A) (A) (A) (A) (A)
                 (A) (A) (A) (A) (A) (A) (A) (A) (A) (A) (A) (A)
                 (A) (A) (A) (A) (A) (A) (A) (A) (A) (A) (A) (A)
                 (A) (A) (A) (A) (A) (A) (A) (A) (A) (A) (A) (A)
                 (A) (A) (A) (A) (A) (A) (A) (A) (A) (A) (A) (A)
                 (A) (A) (A) (A) (A) (A) (A) (A) (A) (A) (A) (A)
                 (A) (A) (A) (A) (A) (A) (A) (A) (A) (A) (A) (A)
                 (A) (A) (A) (A) (A) (A) (A) (A) (A) (A) (A) (A)
                 (A) (A) (A) (A) (A) (A) (A) (A) (A) (A) (A) (A)
                 (A) (A) (A) (A) (A) (A) (A) (A) (A) (A) (A) (A)
                 (A) (A) (A) (A) (A) (A) (A) (A) (A) (A) (A) (A)
                 (A) (A) (A) (A) (A) (A) (A) (A) (A) (A) (A) (A)
                 (A) (A) (A) (A) (A) (A) (A) (A) (A) (A) (A) (A)
                 (A) (A) (A) (A) (A) (A) (A) (A) (A) (A) (A) (A)
                 (A) (A) (A) (A) (A) (A) (A) (A) (A) (A) (A) (A)
                 (A) (A) (A) (A) (A) (A) (A) (A) (A) (A) (A) (A)
                 (A) (A) (A)
 The electronic state is 1-A.
 Alpha  occ. eigenvalues -- -145.47188 -19.24004 -19.16351 -19.16030 -19.14181
 Alpha  occ. eigenvalues --  -19.13811 -19.13671 -19.12325 -19.11891 -19.11503
 Alpha  occ. eigenvalues --  -19.10781 -19.10603 -19.10249 -19.10192 -19.10161
 Alpha  occ. eigenvalues --  -19.09546 -19.09369 -19.08865 -19.08516 -19.07816
 Alpha  occ. eigenvalues --  -19.07783 -19.06784 -18.96978 -18.96881 -15.53019
 Alpha  occ. eigenvalues --  -14.55148 -14.39837 -14.38705 -14.38457 -14.37082
 Alpha  occ. eigenvalues --  -14.37033 -14.37030 -14.36346 -14.36293 -14.35863
 Alpha  occ. eigenvalues --  -14.35505 -14.34859 -14.34004 -14.33441 -14.32828
 Alpha  occ. eigenvalues --  -12.66606 -12.66589 -12.66580 -10.34831 -10.33408
 Alpha  occ. eigenvalues --  -10.33072 -10.31956 -10.30696 -10.30075 -10.29969
 Alpha  occ. eigenvalues --  -10.29929 -10.29686 -10.29170 -10.28420 -10.28388
 Alpha  occ. eigenvalues --  -10.28346 -10.27789 -10.27469 -10.26900 -10.26836
 Alpha  occ. eigenvalues --  -10.26718 -10.26699 -10.26392 -10.26152 -10.25873
 Alpha  occ. eigenvalues --  -10.25761 -10.25230 -10.25072 -10.24766 -10.24544
 Alpha  occ. eigenvalues --  -10.24183 -10.23545 -10.23298 -10.23138 -10.23039
 Alpha  occ. eigenvalues --  -10.22784 -10.22645 -10.22621 -10.21882 -10.21247
 Alpha  occ. eigenvalues --  -10.20534 -10.19997 -10.19799 -10.19582 -10.19563
 Alpha  occ. eigenvalues --  -10.19180 -10.19163 -10.19013 -10.16965 -10.16956
 Alpha  occ. eigenvalues --  -10.16842 -10.16153 -10.15288 -10.15177 -10.14971
 Alpha  occ. eigenvalues --  -10.14324 -10.10571  -1.89645  -1.16987  -1.16979
 Alpha  occ. eigenvalues --   -1.16785  -1.11383  -1.09772  -1.09475  -1.06829
 Alpha  occ. eigenvalues --   -1.06680  -1.06117  -1.05525  -1.04726  -1.04474
 Alpha  occ. eigenvalues --   -1.03912  -1.03514  -1.03081  -1.02596  -1.02511
 Alpha  occ. eigenvalues --   -1.02038  -1.01562  -1.01000  -1.00441  -1.00181
 Alpha  occ. eigenvalues --   -1.00013  -0.99416  -0.96175  -0.95410  -0.95244
 Alpha  occ. eigenvalues --   -0.94799  -0.94293  -0.94101  -0.93405  -0.93266
 Alpha  occ. eigenvalues --   -0.92649  -0.92341  -0.91799  -0.91612  -0.91312
 Alpha  occ. eigenvalues --   -0.91018  -0.89902  -0.89665  -0.89329  -0.85727
 Alpha  occ. eigenvalues --   -0.84065  -0.81912  -0.81335  -0.81318  -0.80780
 Alpha  occ. eigenvalues --   -0.80568  -0.78744  -0.78023  -0.77711  -0.76481
 Alpha  occ. eigenvalues --   -0.76234  -0.75916  -0.75589  -0.75414  -0.74887
 Alpha  occ. eigenvalues --   -0.73703  -0.73133  -0.72838  -0.71532  -0.70797
 Alpha  occ. eigenvalues --   -0.70494  -0.69821  -0.69441  -0.69317  -0.68716
 Alpha  occ. eigenvalues --   -0.67941  -0.66051  -0.65772  -0.65397  -0.65159
 Alpha  occ. eigenvalues --   -0.64439  -0.64004  -0.63780  -0.63411  -0.62968
 Alpha  occ. eigenvalues --   -0.62787  -0.62446  -0.62009  -0.61417  -0.61248
 Alpha  occ. eigenvalues --   -0.60822  -0.60737  -0.60448  -0.60302  -0.59818
 Alpha  occ. eigenvalues --   -0.59684  -0.58636  -0.58558  -0.57979  -0.57801
 Alpha  occ. eigenvalues --   -0.57609  -0.57296  -0.57144  -0.56789  -0.56576
 Alpha  occ. eigenvalues --   -0.56425  -0.56178  -0.55518  -0.55393  -0.55140
 Alpha  occ. eigenvalues --   -0.54462  -0.53952  -0.53567  -0.53397  -0.52952
 Alpha  occ. eigenvalues --   -0.52788  -0.52407  -0.52224  -0.52032  -0.51783
 Alpha  occ. eigenvalues --   -0.51688  -0.51545  -0.51189  -0.51063  -0.50907
 Alpha  occ. eigenvalues --   -0.50745  -0.50174  -0.50155  -0.49969  -0.49482
 Alpha  occ. eigenvalues --   -0.49470  -0.48631  -0.48537  -0.48458  -0.48320
 Alpha  occ. eigenvalues --   -0.47989  -0.47595  -0.47474  -0.47404  -0.47271
 Alpha  occ. eigenvalues --   -0.46804  -0.46671  -0.46421  -0.46383  -0.46354
 Alpha  occ. eigenvalues --   -0.46296  -0.45840  -0.45813  -0.45444  -0.45206
 Alpha  occ. eigenvalues --   -0.45191  -0.45114  -0.44941  -0.44893  -0.44784
 Alpha  occ. eigenvalues --   -0.44487  -0.44231  -0.44190  -0.44110  -0.43840
 Alpha  occ. eigenvalues --   -0.43730  -0.43362  -0.43306  -0.43145  -0.43075
 Alpha  occ. eigenvalues --   -0.42947  -0.42795  -0.42765  -0.42180  -0.41951
 Alpha  occ. eigenvalues --   -0.41863  -0.41670  -0.41601  -0.41437  -0.41314
 Alpha  occ. eigenvalues --   -0.41229  -0.41116  -0.40989  -0.40757  -0.40694
 Alpha  occ. eigenvalues --   -0.40463  -0.40321  -0.40238  -0.40199  -0.40024
 Alpha  occ. eigenvalues --   -0.39902  -0.39865  -0.39778  -0.39715  -0.39486
 Alpha  occ. eigenvalues --   -0.39420  -0.39151  -0.38836  -0.38721  -0.38664
 Alpha  occ. eigenvalues --   -0.38632  -0.38324  -0.38025  -0.37648  -0.37574
 Alpha  occ. eigenvalues --   -0.37434  -0.37390  -0.37135  -0.37072  -0.36873
 Alpha  occ. eigenvalues --   -0.36650  -0.36414  -0.36119  -0.35930  -0.35675
 Alpha  occ. eigenvalues --   -0.35515  -0.35261  -0.35091  -0.34710  -0.34125
 Alpha  occ. eigenvalues --   -0.33775  -0.33635  -0.33441  -0.33330  -0.33043
 Alpha  occ. eigenvalues --   -0.32820  -0.32745  -0.32587  -0.32541  -0.31930
 Alpha  occ. eigenvalues --   -0.31908  -0.30859  -0.30724  -0.30423  -0.30402
 Alpha  occ. eigenvalues --   -0.30086  -0.29839  -0.29833  -0.29310  -0.29281
 Alpha  occ. eigenvalues --   -0.29091  -0.28989  -0.28538  -0.28131  -0.27794
 Alpha  occ. eigenvalues --   -0.27741  -0.27225  -0.27090  -0.26908  -0.26872
 Alpha  occ. eigenvalues --   -0.26807  -0.26467  -0.26389  -0.26073  -0.26015
 Alpha  occ. eigenvalues --   -0.25874  -0.25785  -0.25736  -0.25554  -0.25443
 Alpha  occ. eigenvalues --   -0.24781  -0.24771  -0.24400  -0.24019  -0.23801
 Alpha  occ. eigenvalues --   -0.23130  -0.22990  -0.22592  -0.22431  -0.21607
 Alpha  occ. eigenvalues --   -0.14166  -0.13999  -0.11461
 Alpha virt. eigenvalues --   -0.10471  -0.08336  -0.05593  -0.04138  -0.02626
 Alpha virt. eigenvalues --   -0.02541  -0.02454  -0.01430  -0.01349  -0.01236
 Alpha virt. eigenvalues --   -0.00785  -0.00627  -0.00246   0.00099   0.00496
 Alpha virt. eigenvalues --    0.00767   0.00846   0.01128   0.01195   0.01503
 Alpha virt. eigenvalues --    0.01904   0.01977   0.02012   0.02513   0.03098
 Alpha virt. eigenvalues --    0.03214   0.03247   0.03392   0.03502   0.03618
 Alpha virt. eigenvalues --    0.03740   0.04167   0.04334   0.04566   0.04699
 Alpha virt. eigenvalues --    0.04733   0.04972   0.05033   0.05598   0.06023
 Alpha virt. eigenvalues --    0.06388   0.06495   0.06754   0.06956   0.07340
 Alpha virt. eigenvalues --    0.07657   0.07763   0.08200   0.08608   0.08878
 Alpha virt. eigenvalues --    0.09149   0.09284   0.09395   0.09704   0.09832
 Alpha virt. eigenvalues --    0.09893   0.10107   0.10324   0.10460   0.10538
 Alpha virt. eigenvalues --    0.10660   0.11054   0.11240   0.11341   0.11471
 Alpha virt. eigenvalues --    0.11541   0.11665   0.11978   0.12009   0.12225
 Alpha virt. eigenvalues --    0.12271   0.12330   0.12556   0.12684   0.12981
 Alpha virt. eigenvalues --    0.13145   0.13398   0.13467   0.13908   0.14042
 Alpha virt. eigenvalues --    0.14077   0.14306   0.14429   0.14450   0.14496
 Alpha virt. eigenvalues --    0.14631   0.14751   0.15024   0.15152   0.15316
 Alpha virt. eigenvalues --    0.15368   0.15603   0.15717   0.15774   0.15846
 Alpha virt. eigenvalues --    0.15968   0.16183   0.16358   0.16631   0.16733
 Alpha virt. eigenvalues --    0.16785   0.16986   0.17078   0.17244   0.17574
 Alpha virt. eigenvalues --    0.17701   0.18020   0.18066   0.18389   0.18655
 Alpha virt. eigenvalues --    0.18938   0.19116   0.19245   0.19438   0.19632
 Alpha virt. eigenvalues --    0.19720   0.19865   0.20128   0.20460   0.20684
 Alpha virt. eigenvalues --    0.20767   0.21219   0.21370   0.21454   0.21525
 Alpha virt. eigenvalues --    0.21702   0.22118   0.22240   0.22441   0.22672
 Alpha virt. eigenvalues --    0.22807   0.23050   0.23065   0.23324   0.23714
 Alpha virt. eigenvalues --    0.24214   0.24278   0.24420   0.24570   0.24929
 Alpha virt. eigenvalues --    0.25101   0.25151   0.25588   0.25676   0.26086
 Alpha virt. eigenvalues --    0.26262   0.26295   0.26453   0.27049   0.27241
 Alpha virt. eigenvalues --    0.27512   0.27709   0.27828   0.28017   0.28202
 Alpha virt. eigenvalues --    0.28636   0.28737   0.28939   0.29238   0.29401
 Alpha virt. eigenvalues --    0.29524   0.29819   0.30413   0.30827   0.31185
 Alpha virt. eigenvalues --    0.31270   0.31490   0.31703   0.31920   0.32090
 Alpha virt. eigenvalues --    0.32181   0.32359   0.32975   0.33124   0.33282
 Alpha virt. eigenvalues --    0.33667   0.33692   0.33857   0.34265   0.34479
 Alpha virt. eigenvalues --    0.34701   0.35216   0.35257   0.35673   0.35871
 Alpha virt. eigenvalues --    0.36218   0.36914   0.37410   0.37548   0.37754
 Alpha virt. eigenvalues --    0.37884   0.38422   0.38563   0.39097   0.39259
 Alpha virt. eigenvalues --    0.39411   0.39559   0.39971   0.40414   0.40579
 Alpha virt. eigenvalues --    0.40986   0.41573   0.41590   0.42119   0.42155
 Alpha virt. eigenvalues --    0.42324   0.42598   0.42790   0.42848   0.42909
 Alpha virt. eigenvalues --    0.42982   0.43247   0.43445   0.43920   0.44051
 Alpha virt. eigenvalues --    0.44104   0.44161   0.44499   0.44683   0.44802
 Alpha virt. eigenvalues --    0.44874   0.45145   0.45361   0.45553   0.45737
 Alpha virt. eigenvalues --    0.45860   0.46042   0.46092   0.46212   0.46628
 Alpha virt. eigenvalues --    0.46719   0.46892   0.47022   0.47412   0.47583
 Alpha virt. eigenvalues --    0.47737   0.47851   0.48118   0.48285   0.48529
 Alpha virt. eigenvalues --    0.48616   0.48791   0.49036   0.49164   0.49360
 Alpha virt. eigenvalues --    0.49526   0.49590   0.50093   0.50185   0.50373
 Alpha virt. eigenvalues --    0.50550   0.50822   0.51095   0.51369   0.51433
 Alpha virt. eigenvalues --    0.51621   0.51788   0.52006   0.52214   0.52407
 Alpha virt. eigenvalues --    0.52477   0.52659   0.53045   0.53099   0.53302
 Alpha virt. eigenvalues --    0.53525   0.53615   0.53801   0.54047   0.54115
 Alpha virt. eigenvalues --    0.54529   0.54565   0.54695   0.54933   0.55280
 Alpha virt. eigenvalues --    0.55325   0.55498   0.55653   0.55956   0.56198
 Alpha virt. eigenvalues --    0.56415   0.56476   0.56561   0.56807   0.56897
 Alpha virt. eigenvalues --    0.56999   0.57189   0.57493   0.57581   0.57712
 Alpha virt. eigenvalues --    0.57888   0.58104   0.58373   0.58517   0.58665
 Alpha virt. eigenvalues --    0.59346   0.59631   0.59686   0.59769   0.59926
 Alpha virt. eigenvalues --    0.60049   0.60232   0.60363   0.60514   0.60591
 Alpha virt. eigenvalues --    0.60643   0.60820   0.61063   0.61088   0.61208
 Alpha virt. eigenvalues --    0.61300   0.61344   0.61820   0.61844   0.62055
 Alpha virt. eigenvalues --    0.62204   0.62254   0.62301   0.62556   0.62595
 Alpha virt. eigenvalues --    0.62687   0.62905   0.63019   0.63072   0.63166
 Alpha virt. eigenvalues --    0.63200   0.63321   0.63498   0.63573   0.63722
 Alpha virt. eigenvalues --    0.63844   0.63885   0.64007   0.64197   0.64270
 Alpha virt. eigenvalues --    0.64416   0.64520   0.64646   0.64746   0.64824
 Alpha virt. eigenvalues --    0.64910   0.64963   0.65092   0.65206   0.65312
 Alpha virt. eigenvalues --    0.65352   0.65585   0.65730   0.65806   0.65896
 Alpha virt. eigenvalues --    0.65981   0.66215   0.66248   0.66311   0.66456
 Alpha virt. eigenvalues --    0.66574   0.66746   0.66796   0.66903   0.67053
 Alpha virt. eigenvalues --    0.67320   0.67419   0.67458   0.67532   0.67539
 Alpha virt. eigenvalues --    0.67780   0.67968   0.68072   0.68162   0.68214
 Alpha virt. eigenvalues --    0.68255   0.68499   0.68506   0.68671   0.68940
 Alpha virt. eigenvalues --    0.69001   0.69080   0.69138   0.69195   0.69341
 Alpha virt. eigenvalues --    0.69472   0.69557   0.69912   0.70022   0.70163
 Alpha virt. eigenvalues --    0.70229   0.70598   0.70722   0.70918   0.71228
 Alpha virt. eigenvalues --    0.71306   0.71500   0.71625   0.71644   0.72089
 Alpha virt. eigenvalues --    0.72179   0.72380   0.72564   0.72664   0.72835
 Alpha virt. eigenvalues --    0.72909   0.73069   0.73335   0.73392   0.73631
 Alpha virt. eigenvalues --    0.73785   0.73851   0.73950   0.74082   0.74179
 Alpha virt. eigenvalues --    0.74537   0.74762   0.74903   0.75131   0.75143
 Alpha virt. eigenvalues --    0.75441   0.75616   0.76111   0.76189   0.76248
 Alpha virt. eigenvalues --    0.76515   0.76899   0.77132   0.77276   0.77448
 Alpha virt. eigenvalues --    0.77752   0.77933   0.78195   0.78363   0.78490
 Alpha virt. eigenvalues --    0.78724   0.78955   0.78996   0.79357   0.79372
 Alpha virt. eigenvalues --    0.79821   0.79955   0.80494   0.80780   0.80875
 Alpha virt. eigenvalues --    0.80979   0.81128   0.81317   0.81552   0.81847
 Alpha virt. eigenvalues --    0.81994   0.82381   0.82505   0.83066   0.83244
 Alpha virt. eigenvalues --    0.83264   0.83442   0.83910   0.84245   0.84787
 Alpha virt. eigenvalues --    0.84996   0.85221   0.85294   0.85556   0.85827
 Alpha virt. eigenvalues --    0.86211   0.86564   0.86915   0.87145   0.87419
 Alpha virt. eigenvalues --    0.87637   0.87845   0.88101   0.88628   0.88750
 Alpha virt. eigenvalues --    0.89222   0.89393   0.89657   0.89928   0.90013
 Alpha virt. eigenvalues --    0.90221   0.90646   0.90983   0.90997   0.91118
 Alpha virt. eigenvalues --    0.91321   0.91549   0.91843   0.92092   0.92496
 Alpha virt. eigenvalues --    0.92645   0.92859   0.93182   0.93367   0.94004
 Alpha virt. eigenvalues --    0.94125   0.94582   0.95142   0.95529   0.95659
 Alpha virt. eigenvalues --    0.95949   0.96131   0.96345   0.96651   0.96934
 Alpha virt. eigenvalues --    0.97512   0.97843   0.98060   0.98444   0.98615
 Alpha virt. eigenvalues --    0.99199   0.99438   0.99646   0.99848   1.00047
 Alpha virt. eigenvalues --    1.00147   1.00657   1.01034   1.01341   1.01377
 Alpha virt. eigenvalues --    1.01486   1.01707   1.01873   1.02352   1.02533
 Alpha virt. eigenvalues --    1.02783   1.03414   1.03721   1.04155   1.04225
 Alpha virt. eigenvalues --    1.04418   1.04627   1.04833   1.04998   1.05213
 Alpha virt. eigenvalues --    1.05458   1.05539   1.06073   1.06484   1.06739
 Alpha virt. eigenvalues --    1.07014   1.07200   1.07633   1.07921   1.08242
 Alpha virt. eigenvalues --    1.08304   1.08525   1.09396   1.09940   1.10044
 Alpha virt. eigenvalues --    1.10331   1.10603   1.10800   1.10996   1.11215
 Alpha virt. eigenvalues --    1.11453   1.11653   1.11883   1.11932   1.12168
 Alpha virt. eigenvalues --    1.12391   1.12685   1.13286   1.13452   1.13740
 Alpha virt. eigenvalues --    1.13966   1.14114   1.14498   1.14595   1.14838
 Alpha virt. eigenvalues --    1.15099   1.15315   1.15581   1.15607   1.15947
 Alpha virt. eigenvalues --    1.16042   1.16474   1.17171   1.17345   1.17673
 Alpha virt. eigenvalues --    1.18210   1.18347   1.18395   1.18708   1.18964
 Alpha virt. eigenvalues --    1.19513   1.19681   1.20164   1.20240   1.20457
 Alpha virt. eigenvalues --    1.20746   1.21036   1.21234   1.21588   1.21653
 Alpha virt. eigenvalues --    1.22128   1.22302   1.22537   1.22744   1.23032
 Alpha virt. eigenvalues --    1.23255   1.23309   1.23748   1.23959   1.24260
 Alpha virt. eigenvalues --    1.24537   1.24958   1.25046   1.25211   1.25445
 Alpha virt. eigenvalues --    1.25533   1.25952   1.26193   1.26566   1.26805
 Alpha virt. eigenvalues --    1.27049   1.27313   1.27331   1.27639   1.27914
 Alpha virt. eigenvalues --    1.28011   1.28535   1.28982   1.29104   1.29209
 Alpha virt. eigenvalues --    1.29580   1.30142   1.30320   1.30876   1.31158
 Alpha virt. eigenvalues --    1.31682   1.32188   1.32274   1.32419   1.32708
 Alpha virt. eigenvalues --    1.33060   1.33104   1.33492   1.33567   1.33907
 Alpha virt. eigenvalues --    1.34232   1.35076   1.35361   1.35517   1.35647
 Alpha virt. eigenvalues --    1.35882   1.36010   1.36324   1.36465   1.36664
 Alpha virt. eigenvalues --    1.37078   1.37422   1.37571   1.37911   1.38127
 Alpha virt. eigenvalues --    1.38780   1.38957   1.39362   1.39372   1.39567
 Alpha virt. eigenvalues --    1.39668   1.40393   1.40520   1.41011   1.41535
 Alpha virt. eigenvalues --    1.41689   1.41974   1.42018   1.42467   1.42523
 Alpha virt. eigenvalues --    1.42667   1.43194   1.44075   1.44214   1.44557
 Alpha virt. eigenvalues --    1.45083   1.45415   1.45676   1.45707   1.46261
 Alpha virt. eigenvalues --    1.46390   1.46594   1.46855   1.46893   1.47297
 Alpha virt. eigenvalues --    1.47625   1.48028   1.48279   1.48787   1.49252
 Alpha virt. eigenvalues --    1.49389   1.49657   1.49823   1.50347   1.50615
 Alpha virt. eigenvalues --    1.51388   1.51605   1.51719   1.52098   1.52434
 Alpha virt. eigenvalues --    1.52961   1.53209   1.53391   1.53588   1.53827
 Alpha virt. eigenvalues --    1.54118   1.54540   1.54734   1.55051   1.55389
 Alpha virt. eigenvalues --    1.55561   1.55812   1.56165   1.56642   1.56847
 Alpha virt. eigenvalues --    1.57034   1.57383   1.57496   1.57804   1.58185
 Alpha virt. eigenvalues --    1.58271   1.58448   1.58643   1.59065   1.59353
 Alpha virt. eigenvalues --    1.59494   1.59903   1.60315   1.60690   1.61065
 Alpha virt. eigenvalues --    1.61300   1.61480   1.61643   1.62025   1.62191
 Alpha virt. eigenvalues --    1.62525   1.62718   1.63509   1.63720   1.64136
 Alpha virt. eigenvalues --    1.64242   1.65027   1.65064   1.66099   1.66380
 Alpha virt. eigenvalues --    1.66518   1.66598   1.67170   1.68070   1.68107
 Alpha virt. eigenvalues --    1.68473   1.68688   1.69220   1.69341   1.69506
 Alpha virt. eigenvalues --    1.69607   1.69825   1.70105   1.70249   1.70642
 Alpha virt. eigenvalues --    1.70795   1.71259   1.71403   1.71518   1.71592
 Alpha virt. eigenvalues --    1.72379   1.72820   1.72880   1.73064   1.73210
 Alpha virt. eigenvalues --    1.73337   1.73546   1.73615   1.73793   1.73970
 Alpha virt. eigenvalues --    1.74234   1.74572   1.74590   1.74859   1.75022
 Alpha virt. eigenvalues --    1.75334   1.75609   1.75904   1.76011   1.76078
 Alpha virt. eigenvalues --    1.76251   1.76593   1.76797   1.76873   1.77121
 Alpha virt. eigenvalues --    1.77215   1.77354   1.77470   1.77620   1.78069
 Alpha virt. eigenvalues --    1.78178   1.78204   1.78255   1.78525   1.78668
 Alpha virt. eigenvalues --    1.78754   1.78816   1.79233   1.79494   1.79794
 Alpha virt. eigenvalues --    1.79801   1.79952   1.80016   1.80232   1.80398
 Alpha virt. eigenvalues --    1.80429   1.80571   1.80732   1.80875   1.81247
 Alpha virt. eigenvalues --    1.81332   1.81726   1.81833   1.82115   1.82272
 Alpha virt. eigenvalues --    1.82297   1.82530   1.82540   1.82776   1.82845
 Alpha virt. eigenvalues --    1.83051   1.83376   1.83637   1.83650   1.83957
 Alpha virt. eigenvalues --    1.84000   1.84213   1.84309   1.84550   1.84830
 Alpha virt. eigenvalues --    1.84861   1.85030   1.85105   1.85196   1.85379
 Alpha virt. eigenvalues --    1.85503   1.85660   1.85913   1.86148   1.86313
 Alpha virt. eigenvalues --    1.86629   1.86668   1.86771   1.86945   1.87158
 Alpha virt. eigenvalues --    1.87354   1.87577   1.87664   1.87975   1.88331
 Alpha virt. eigenvalues --    1.88461   1.88509   1.89082   1.89343   1.89410
 Alpha virt. eigenvalues --    1.89663   1.89847   1.89969   1.90125   1.90544
 Alpha virt. eigenvalues --    1.90631   1.90748   1.90830   1.91134   1.91207
 Alpha virt. eigenvalues --    1.91699   1.91931   1.92060   1.92208   1.92348
 Alpha virt. eigenvalues --    1.92722   1.92896   1.93322   1.93485   1.93895
 Alpha virt. eigenvalues --    1.94092   1.94393   1.94609   1.94666   1.95041
 Alpha virt. eigenvalues --    1.95350   1.95588   1.95619   1.95828   1.96211
 Alpha virt. eigenvalues --    1.96388   1.96656   1.96746   1.97034   1.97254
 Alpha virt. eigenvalues --    1.97587   1.97697   1.97732   1.97896   1.98052
 Alpha virt. eigenvalues --    1.98634   1.98792   1.98957   1.99419   1.99513
 Alpha virt. eigenvalues --    1.99734   2.00006   2.00172   2.00479   2.00768
 Alpha virt. eigenvalues --    2.00960   2.01147   2.01885   2.01958   2.02235
 Alpha virt. eigenvalues --    2.02331   2.02760   2.02860   2.02970   2.03100
 Alpha virt. eigenvalues --    2.03300   2.03445   2.03774   2.03986   2.04247
 Alpha virt. eigenvalues --    2.04405   2.04658   2.04972   2.05191   2.05594
 Alpha virt. eigenvalues --    2.05716   2.06066   2.06524   2.06693   2.06881
 Alpha virt. eigenvalues --    2.06998   2.07391   2.07487   2.07777   2.07849
 Alpha virt. eigenvalues --    2.07910   2.09078   2.09383   2.09492   2.09623
 Alpha virt. eigenvalues --    2.09791   2.10385   2.10493   2.10760   2.10988
 Alpha virt. eigenvalues --    2.11156   2.11213   2.11766   2.11919   2.11969
 Alpha virt. eigenvalues --    2.12116   2.12412   2.12829   2.13170   2.13407
 Alpha virt. eigenvalues --    2.13612   2.13675   2.13984   2.14227   2.14388
 Alpha virt. eigenvalues --    2.14661   2.15070   2.15173   2.15543   2.15871
 Alpha virt. eigenvalues --    2.16050   2.16241   2.16560   2.16863   2.16977
 Alpha virt. eigenvalues --    2.17048   2.17226   2.17424   2.17741   2.17879
 Alpha virt. eigenvalues --    2.18024   2.18329   2.18797   2.19319   2.19890
 Alpha virt. eigenvalues --    2.19981   2.20169   2.20848   2.21774   2.22278
 Alpha virt. eigenvalues --    2.22543   2.22787   2.23527   2.24488   2.24605
 Alpha virt. eigenvalues --    2.25533   2.25617   2.25893   2.26690   2.27063
 Alpha virt. eigenvalues --    2.27217   2.27569   2.27629   2.28408   2.28687
 Alpha virt. eigenvalues --    2.28734   2.29001   2.29097   2.29412   2.29879
 Alpha virt. eigenvalues --    2.30039   2.30773   2.31027   2.31076   2.31297
 Alpha virt. eigenvalues --    2.31447   2.31668   2.31998   2.32251   2.32466
 Alpha virt. eigenvalues --    2.32792   2.33122   2.33217   2.33294   2.33572
 Alpha virt. eigenvalues --    2.33960   2.34398   2.34764   2.34865   2.35033
 Alpha virt. eigenvalues --    2.35441   2.35929   2.35987   2.36745   2.36825
 Alpha virt. eigenvalues --    2.36995   2.37392   2.37617   2.37818   2.38273
 Alpha virt. eigenvalues --    2.38313   2.39121   2.39988   2.40113   2.40421
 Alpha virt. eigenvalues --    2.40721   2.40809   2.41238   2.41778   2.41970
 Alpha virt. eigenvalues --    2.42217   2.42392   2.42490   2.42826   2.43555
 Alpha virt. eigenvalues --    2.43896   2.44412   2.44425   2.44728   2.45061
 Alpha virt. eigenvalues --    2.45438   2.45570   2.45733   2.46133   2.46469
 Alpha virt. eigenvalues --    2.46818   2.47500   2.47552   2.47943   2.48192
 Alpha virt. eigenvalues --    2.48795   2.49049   2.49614   2.49732   2.50603
 Alpha virt. eigenvalues --    2.50830   2.50981   2.51267   2.51592   2.52188
 Alpha virt. eigenvalues --    2.52268   2.52575   2.52977   2.53121   2.53754
 Alpha virt. eigenvalues --    2.54561   2.54679   2.54924   2.55422   2.55537
 Alpha virt. eigenvalues --    2.55632   2.56105   2.56444   2.57109   2.57151
 Alpha virt. eigenvalues --    2.57233   2.57406   2.58153   2.58641   2.58811
 Alpha virt. eigenvalues --    2.58962   2.59051   2.59072   2.59487   2.60030
 Alpha virt. eigenvalues --    2.60312   2.60734   2.60761   2.61102   2.61318
 Alpha virt. eigenvalues --    2.61582   2.62294   2.62557   2.62960   2.63187
 Alpha virt. eigenvalues --    2.63245   2.63485   2.63793   2.63965   2.64260
 Alpha virt. eigenvalues --    2.64275   2.64453   2.64599   2.64889   2.65250
 Alpha virt. eigenvalues --    2.65522   2.65774   2.65944   2.67180   2.67236
 Alpha virt. eigenvalues --    2.67537   2.67967   2.68074   2.68332   2.68924
 Alpha virt. eigenvalues --    2.68938   2.69228   2.69413   2.69591   2.69919
 Alpha virt. eigenvalues --    2.70543   2.70685   2.70750   2.71447   2.71762
 Alpha virt. eigenvalues --    2.72070   2.72729   2.72814   2.73071   2.73698
 Alpha virt. eigenvalues --    2.73913   2.74362   2.74646   2.75002   2.75087
 Alpha virt. eigenvalues --    2.75203   2.75272   2.75400   2.75576   2.75661
 Alpha virt. eigenvalues --    2.76449   2.76664   2.77107   2.77407   2.77593
 Alpha virt. eigenvalues --    2.77773   2.78032   2.78266   2.78364   2.78526
 Alpha virt. eigenvalues --    2.78643   2.79061   2.79567   2.79653   2.79953
 Alpha virt. eigenvalues --    2.80104   2.80793   2.80954   2.81243   2.81578
 Alpha virt. eigenvalues --    2.81749   2.81844   2.81978   2.83196   2.83332
 Alpha virt. eigenvalues --    2.83436   2.83623   2.84101   2.84187   2.85079
 Alpha virt. eigenvalues --    2.85256   2.85707   2.85795   2.86322   2.86761
 Alpha virt. eigenvalues --    2.87000   2.87648   2.87819   2.87980   2.88031
 Alpha virt. eigenvalues --    2.88232   2.88706   2.89059   2.89324   2.89450
 Alpha virt. eigenvalues --    2.90005   2.90192   2.90208   2.91109   2.91256
 Alpha virt. eigenvalues --    2.91519   2.91863   2.92421   2.92504   2.92697
 Alpha virt. eigenvalues --    2.92717   2.93007   2.93514   2.93636   2.93909
 Alpha virt. eigenvalues --    2.94082   2.94599   2.94962   2.95029   2.95274
 Alpha virt. eigenvalues --    2.95586   2.96178   2.96635   2.96658   2.96881
 Alpha virt. eigenvalues --    2.97333   2.97558   2.97691   2.98390   2.98401
 Alpha virt. eigenvalues --    2.98552   2.99227   2.99415   2.99765   2.99860
 Alpha virt. eigenvalues --    3.00436   3.00510   3.00944   3.01197   3.01398
 Alpha virt. eigenvalues --    3.01694   3.01895   3.02167   3.02434   3.02493
 Alpha virt. eigenvalues --    3.03277   3.04052   3.04284   3.04808   3.05183
 Alpha virt. eigenvalues --    3.05304   3.06897   3.06908   3.07049   3.07215
 Alpha virt. eigenvalues --    3.07550   3.07894   3.08177   3.08750   3.09694
 Alpha virt. eigenvalues --    3.10056   3.10390   3.11703   3.11840   3.11920
 Alpha virt. eigenvalues --    3.12073   3.12405   3.13274   3.13892   3.14101
 Alpha virt. eigenvalues --    3.14345   3.14753   3.14926   3.15827   3.15894
 Alpha virt. eigenvalues --    3.16056   3.16763   3.17003   3.17069   3.17585
 Alpha virt. eigenvalues --    3.17606   3.18045   3.18181   3.18259   3.18508
 Alpha virt. eigenvalues --    3.18691   3.18877   3.19361   3.19953   3.20050
 Alpha virt. eigenvalues --    3.20322   3.20964   3.21494   3.21674   3.21756
 Alpha virt. eigenvalues --    3.22996   3.23453   3.23563   3.24915   3.26405
 Alpha virt. eigenvalues --    3.26911   3.27518   3.28459   3.28853   3.29104
 Alpha virt. eigenvalues --    3.29794   3.31092   3.31240   3.31419   3.33071
 Alpha virt. eigenvalues --    3.33682   3.35586   3.36621   3.38330   3.39578
 Alpha virt. eigenvalues --    3.41291   3.41585   3.42587   3.43376   3.46690
 Alpha virt. eigenvalues --    3.52012   3.52278   3.52879   3.53065   3.53375
 Alpha virt. eigenvalues --    3.53490   3.53532   3.54284   3.56306   3.57322
 Alpha virt. eigenvalues --    3.57414   3.58138   3.58874   3.59646   3.61407
 Alpha virt. eigenvalues --    3.61604   3.63203   3.64276   3.64688   3.65327
 Alpha virt. eigenvalues --    3.65594   3.66179   3.67031   3.67311   3.67373
 Alpha virt. eigenvalues --    3.67755   3.68035   3.68422   3.68643   3.69157
 Alpha virt. eigenvalues --    3.69500   3.70045   3.70627   3.73238   3.74211
 Alpha virt. eigenvalues --    3.74835   3.79608   3.80028   3.80282
          Condensed to atoms (all electrons):
 Mulliken charges:
               1
     1  C    0.026709
     2  C    0.017429
     3  O   -0.287627
     4  H    0.040032
     5  H    0.041008
     6  H    0.019122
     7  N   -0.126321
     8  C    0.141338
     9  C    0.069604
    10  O   -0.271232
    11  C    0.086468
    12  C    0.047493
    13  O   -0.423599
    14  O   -0.391762
    15  H    0.126750
    16  H   -0.037515
    17  H    0.028079
    18  H    0.030308
    19  N   -0.148880
    20  C    0.156167
    21  C    0.009640
    22  O   -0.273600
    23  C    0.057290
    24  C   -0.040061
    25  C   -0.018381
    26  C    0.102276
    27  N    0.089281
    28  H    0.123256
    29  H    0.035929
    30  H    0.019088
    31  H    0.024304
    32  H    0.009973
    33  H   -0.018587
    34  H    0.046139
    35  H    0.009606
    36  H    0.040712
    37  H    0.053027
    38  H    0.165240
    39  H    0.141225
    40  H    0.167621
    41  N   -0.174746
    42  C    0.124384
    43  C    0.049902
    44  O   -0.304071
    45  C    0.162352
    46  C    0.123686
    47  O   -0.377043
    48  O   -0.464105
    49  H    0.184651
    50  H    0.037858
    51  H   -0.052240
    52  H    0.032906
    53  N   -0.143641
    54  C    0.243434
    55  C    0.030678
    56  O   -0.302190
    57  H    0.120647
    58  H    0.042119
    59  H    0.040014
    60  N   -0.117765
    61  C    0.104093
    62  C    0.161859
    63  O   -0.367849
    64  C    0.059772
    65  C    0.007400
    66  N   -0.035956
    67  O   -0.265715
    68  H    0.147862
    69  H   -0.012314
    70  H    0.042135
    71  H    0.013271
    72  H    0.121153
    73  H    0.139499
    74  N   -0.133360
    75  C    0.216070
    76  C    0.021678
    77  O   -0.298507
    78  H    0.135753
    79  H    0.036406
    80  H    0.060191
    81  N   -0.111839
    82  C    0.092970
    83  C    0.143720
    84  O   -0.290443
    85  C    0.120027
    86  C   -0.031118
    87  C    0.030028
    88  C   -0.031453
    89  C   -0.012995
    90  C   -0.039402
    91  C    0.170671
    92  O   -0.207819
    93  H    0.142791
    94  H   -0.015118
    95  H   -0.013157
    96  H   -0.002635
    97  H   -0.028090
    98  H   -0.023607
    99  H   -0.026159
   100  H   -0.042963
   101  H    0.174162
   102  N   -0.116679
   103  C    0.165124
   104  C    0.084470
   105  O   -0.267356
   106  C   -0.107327
   107  C   -0.002331
   108  C    0.057765
   109  C    0.042734
   110  H    0.127782
   111  H   -0.041331
   112  H    0.008733
   113  H   -0.000255
   114  H    0.018748
   115  H    0.013139
   116  H   -0.014491
   117  H    0.009376
   118  H    0.042982
   119  H    0.005174
   120  H   -0.021860
   121  N   -0.129766
   122  C    0.084435
   123  C    0.064834
   124  O   -0.270592
   125  C    0.239156
   126  O   -0.346038
   127  H    0.139115
   128  H    0.036763
   129  H   -0.002072
   130  H    0.025101
   131  H    0.195157
   132  N   -0.114892
   133  C    0.015790
   134  C    0.086389
   135  O   -0.270786
   136  C    0.086535
   137  H    0.097897
   138  H    0.013986
   139  H   -0.029172
   140  H    0.042322
   141  H    0.012230
   142  N   -0.084162
   143  C    0.025844
   144  C    0.052098
   145  O   -0.266632
   146  C    0.060407
   147  H    0.125389
   148  H   -0.014076
   149  H    0.021883
   150  H    0.043488
   151  H    0.009709
   152  N   -0.093076
   153  C    0.051156
   154  C    0.069435
   155  O   -0.277651
   156  C    0.019331
   157  C    0.087808
   158  C    0.038510
   159  O   -0.375136
   160  O   -0.345229
   161  H    0.103860
   162  H    0.005014
   163  H    0.006948
   164  H   -0.018170
   165  H   -0.020184
   166  H   -0.037193
   167  N   -0.153806
   168  C    0.140322
   169  H    0.038507
   170  H    0.014719
   171  H    0.034380
   172  H    0.115715
   173  Ca   1.262159
   174  O   -0.301968
   175  H    0.208058
   176  H    0.176365
 Sum of Mulliken charges =  -0.00000
 Mulliken charges with hydrogens summed into heavy atoms:
               1
     1  C    0.126869
     2  C    0.017429
     3  O   -0.287627
     7  N    0.000429
     8  C    0.103824
     9  C    0.069604
    10  O   -0.271232
    11  C    0.144855
    12  C    0.047493
    13  O   -0.423599
    14  O   -0.391762
    19  N   -0.025625
    20  C    0.192096
    21  C    0.009640
    22  O   -0.273600
    23  C    0.100682
    24  C   -0.048676
    25  C    0.037364
    26  C    0.196015
    27  N    0.563367
    41  N    0.009905
    42  C    0.162242
    43  C    0.049902
    44  O   -0.304071
    45  C    0.143018
    46  C    0.123686
    47  O   -0.377043
    48  O   -0.464105
    53  N   -0.022995
    54  C    0.325567
    55  C    0.030678
    56  O   -0.302190
    60  N    0.030097
    61  C    0.091779
    62  C    0.161859
    63  O   -0.367849
    64  C    0.115178
    65  C    0.007400
    66  N    0.224695
    67  O   -0.265715
    74  N    0.002393
    75  C    0.312667
    76  C    0.021678
    77  O   -0.298507
    81  N    0.030952
    82  C    0.077852
    83  C    0.143720
    84  O   -0.290443
    85  C    0.104234
    86  C   -0.031118
    87  C    0.001938
    88  C   -0.055060
    89  C   -0.039154
    90  C   -0.082365
    91  C    0.170671
    92  O   -0.033657
   102  N    0.011103
   103  C    0.123793
   104  C    0.084470
   105  O   -0.267356
   106  C   -0.098595
   107  C    0.016162
   108  C    0.065788
   109  C    0.069029
   121  N    0.009350
   122  C    0.121198
   123  C    0.064834
   124  O   -0.270592
   125  C    0.262185
   126  O   -0.150880
   132  N   -0.016994
   133  C    0.029775
   134  C    0.086389
   135  O   -0.270786
   136  C    0.111916
   142  N    0.041227
   143  C    0.011768
   144  C    0.052098
   145  O   -0.266632
   146  C    0.135487
   152  N    0.010785
   153  C    0.056170
   154  C    0.069435
   155  O   -0.277651
   156  C    0.008109
   157  C    0.030431
   158  C    0.038510
   159  O   -0.375136
   160  O   -0.345229
   167  N   -0.038091
   168  C    0.227928
   173  Ca   1.262159
   174  O    0.082455
 DipInt: DoE/N= T F RetVal/Mat= T F Init=T NMatP=  1 IDeriv=0 Min/MaxMlt=  0  4
 Entering OneElI...
 OneElI was handed  1333951383 working-precision words.
 Multipole integrals L=0 to 4 MinM= 0 MaxM= 0.
 Requested accuracy = 0.1000D-12
 ShPair: Thresh= 1.00D-13 NBox=     0 BxSize= 0.00D+00 RnKept= 2.96D+01
         NSMCal=               327645 NSMKep=              128749
 PrmmSu-InSpLW:  IPartL=    0 NPrtUS=    1 NPrtUL=    1 DoSpLW=F IThBeg=    0 IThEnd=    0 NThAct=    1.
 PrsmSu:  NPrtUS=   1 ThrOK=F IAlg=1 NPAlg=1 LenDen=           0 ISkipM=0 DoSpLW=F IThBeg=    0 IThEnd=    0.
 Prism:   IPart=     0 DynPar=F LinDyn=F Incr=         512.
 PRISM was handed  1325061225 working-precision words and128749 shell-pairs
 IPart=  0 NShTot=      128749 NBatch=         303 AvBLen=       424.9
 PrsmSu-ThDecC:  IPartSL=    0    0 NPrtUSL=    1    1 IThBeg=    0 IThEnd=    0 CPU=   -1 GPU=   -1 NThAct=    1.
 PrSmSu:  NxtVal=            513.
 Electronic moments (au):
       -716.00000000        -10.48136570          6.53745003          4.94535478
    -103403.27094949     -28303.17039380     -13288.48685939         56.05015570
        -96.69358140        -31.05812882    -265554.08387462      -2694.96640743
      -7308.36119244       8953.39227335     203753.29585900     -58197.23844055
      14787.56582406      19243.80938091      30732.57457264     -47383.68099756
  -24727550.24858788   -2563312.08546705    -642208.48383861     527370.93305421
    -121401.91533969    -117853.39031244    -202656.29609185     253905.59441730
      60383.21576138   -3411771.41378959   -1995655.28587373    -434900.11848403
    -535176.48791689    -126732.73685516    -145544.15117819
 Electronic spatial extent (au):  <R**2>=         144994.9282
 DipInt: DoE/N= F T RetVal/Mat= T F Init=T NMatP=  1 IDeriv=0 Min/MaxMlt=  0  4
 Nuclear    moments (au):
        716.00000000          0.00000000          0.00000000          0.00000000
     102847.24498752      27850.41813461      12934.80351114         -0.00000000
          0.00000000         -0.00000000     264726.55389180       4675.30020706
       7980.60228479      -9980.91727822    -203357.74332615      57176.73153239
     -15730.30587235     -19594.10678547     -30630.49519239      47339.41607466
   24287432.50449906    2455953.76528539     604993.36594407    -529886.16978533
     101259.70486054     124092.86666218     200104.75927116    -262741.55738302
     -61782.07746153    3333129.87346201    1931409.65752165     412569.95950663
     535583.96102819     124738.87494110     146240.40122793
 Total      moments (au):
         -0.00000000        -10.48136570          6.53745003          4.94535478
       -556.02596196       -452.75225919       -353.68334825         56.05015570
        -96.69358140        -31.05812882       -827.52998282       1980.33379963
        672.24109235      -1027.52500487        395.55253285      -1020.50690816
       -942.74004830       -350.29740456        102.07938025        -44.26492290
    -440117.74408882    -107358.32018166     -37215.11789454      -2515.23673112
     -20142.21047915       6239.47634974      -2551.53682069      -8835.96296573
      -1398.86170015     -78641.54032758     -64245.62835208     -22330.15897739
        407.47311130      -1993.86191406        696.25004974
 Traceless Quadrup. (au):
       -101.87210549          1.40159728        100.47050821         56.05015570
        -96.69358140        -31.05812882
 Charge=             -0.0000 electrons
 Dipole moment (field-independent basis, Debye):
    X=            -26.6410    Y=             16.6165    Z=             12.5698  Tot=             33.8209
 Quadrupole moment (field-independent basis, Debye-Ang):
   XX=           -747.8740   YY=           -608.9673   ZZ=           -475.7162
   XY=             75.3894   XZ=           -130.0562   YZ=            -41.7742
 Traceless Quadrupole moment (field-independent basis, Debye-Ang):
   XX=           -137.0215   YY=              1.8852   ZZ=            135.1363
   XY=             75.3894   XZ=           -130.0562   YZ=            -41.7742
 Octapole moment (field-independent basis, Debye-Ang**2):
  XXX=           -589.0040  YYY=           1409.5253  ZZZ=            478.4753  XYY=           -731.3527
  XXY=            281.5391  XXZ=           -726.3575  XZZ=           -671.0060  YZZ=           -249.3282
  YYZ=             72.6562  XYZ=            -31.5061
 Hexadecapole moment (field-independent basis, Debye-Ang**3):
 XXXX=        -165769.4468 YYYY=         -40436.2914 ZZZZ=         -14016.9979 XXXY=           -947.3588
 XXXZ=          -7586.5223 YYYX=           2350.0860 YYYZ=           -961.0311 ZZZX=          -3328.0474
 ZZZY=           -526.8784 XXYY=         -29620.1751 XXZZ=         -24197.9843 YYZZ=          -8410.6086
 XXYZ=            153.4739 YYXZ=           -750.9840 ZZXY=            262.2412
 N-N= 1.946226767414D+04 E-N=-5.139490139830D+04  KE= 5.290493304266D+03
 Leave Link  601 at Wed Sep 18 11:24:22 2019, MaxMem=  1342177280 cpu:              51.7 elap:               1.3
 FitSet:  NAtFit=   176 NAtPot=   176 NAtFrz=     0 MDM=   180 TotChg=   0.00000
 Merz-Kollman atomic radii used.
 Read replacement radii for each type of atom:
 Rad(20) =   1.700000000000D+00
 Atom Element Radius
    1     6    1.50
    2     6    1.50
    3     8    1.40
    4     1    1.20
    5     1    1.20
    6     1    1.20
    7     7    1.50
    8     6    1.50
    9     6    1.50
   10     8    1.40
   11     6    1.50
   12     6    1.50
   13     8    1.40
   14     8    1.40
   15     1    1.20
   16     1    1.20
   17     1    1.20
   18     1    1.20
   19     7    1.50
   20     6    1.50
   21     6    1.50
   22     8    1.40
   23     6    1.50
   24     6    1.50
   25     6    1.50
   26     6    1.50
   27     7    1.50
   28     1    1.20
   29     1    1.20
   30     1    1.20
   31     1    1.20
   32     1    1.20
   33     1    1.20
   34     1    1.20
   35     1    1.20
   36     1    1.20
   37     1    1.20
   38     1    1.20
   39     1    1.20
   40     1    1.20
   41     7    1.50
   42     6    1.50
   43     6    1.50
   44     8    1.40
   45     6    1.50
   46     6    1.50
   47     8    1.40
   48     8    1.40
   49     1    1.20
   50     1    1.20
   51     1    1.20
   52     1    1.20
   53     7    1.50
   54     6    1.50
   55     6    1.50
   56     8    1.40
   57     1    1.20
   58     1    1.20
   59     1    1.20
   60     7    1.50
   61     6    1.50
   62     6    1.50
   63     8    1.40
   64     6    1.50
   65     6    1.50
   66     7    1.50
   67     8    1.40
   68     1    1.20
   69     1    1.20
   70     1    1.20
   71     1    1.20
   72     1    1.20
   73     1    1.20
   74     7    1.50
   75     6    1.50
   76     6    1.50
   77     8    1.40
   78     1    1.20
   79     1    1.20
   80     1    1.20
   81     7    1.50
   82     6    1.50
   83     6    1.50
   84     8    1.40
   85     6    1.50
   86     6    1.50
   87     6    1.50
   88     6    1.50
   89     6    1.50
   90     6    1.50
   91     6    1.50
   92     8    1.40
   93     1    1.20
   94     1    1.20
   95     1    1.20
   96     1    1.20
   97     1    1.20
   98     1    1.20
   99     1    1.20
  100     1    1.20
  101     1    1.20
  102     7    1.50
  103     6    1.50
  104     6    1.50
  105     8    1.40
  106     6    1.50
  107     6    1.50
  108     6    1.50
  109     6    1.50
  110     1    1.20
  111     1    1.20
  112     1    1.20
  113     1    1.20
  114     1    1.20
  115     1    1.20
  116     1    1.20
  117     1    1.20
  118     1    1.20
  119     1    1.20
[...]
 **** Fit      -0.001442
 **** Fit      -0.002340
 **** Fit      -0.003159
 **** Fit      -0.003869
 **** Fit      -0.004450
 **** Fit       0.003570
 **** Fit       0.003320
 **** Fit       0.002827
 **** Fit       0.002149
 **** Fit       0.001337
 **** Fit       0.000439
 **** Fit      -0.000427
 **** Fit      -0.001083
 **** Fit      -0.001745
 **** Fit      -0.002380
 **** Fit      -0.002959
 **** Fit      -0.003458
 **** Fit      -0.003857
 **** Fit       0.001384
 **** Fit       0.001512
 **** Fit       0.001423
 **** Fit       0.001149
 **** Fit       0.000725
 **** Fit       0.000187
 **** Fit      -0.000331
 **** Fit      -0.000805
 **** Fit      -0.001318
 **** Fit      -0.001837
 **** Fit      -0.002331
 **** Fit      -0.002774
 **** Fit      -0.003134
 **** Fit      -0.000698
 **** Fit      -0.000083
 **** Fit       0.000325
 **** Fit       0.000524
 **** Fit       0.000531
 **** Fit       0.000370
 **** Fit       0.000072
 **** Fit      -0.000283
 **** Fit      -0.000628
 **** Fit      -0.001036
 **** Fit      -0.001475
 **** Fit      -0.001911
 **** Fit      -0.002311
 **** Fit      -0.002633
 **** Fit      -0.001204
 **** Fit      -0.000598
 **** Fit      -0.000182
 **** Fit       0.000040
 **** Fit       0.000081
 **** Fit      -0.000036
 **** Fit      -0.000324
 **** Fit      -0.000563
 **** Fit      -0.000886
 **** Fit      -0.001257
 **** Fit      -0.001642
 **** Fit      -0.002001
 **** Fit      -0.002021
 **** Fit      -0.001324
 **** Fit      -0.000777
 **** Fit      -0.000409
 **** Fit      -0.000221
 **** Fit      -0.000200
 **** Fit      -0.000468
 **** Fit      -0.000637
 **** Fit      -0.000914
 **** Fit      -0.001254
 **** Fit      -0.001610
 **** Fit      -0.001927
 **** Fit      -0.002130
 **** Fit      -0.001452
 **** Fit      -0.000927
 **** Fit      -0.000589
 **** Fit      -0.000442
 **** Fit      -0.000715
 **** Fit      -0.000826
 **** Fit      -0.001063
 **** Fit      -0.001374
 **** Fit      -0.001696
 **** Fit      -0.002104
 **** Fit      -0.001485
 **** Fit      -0.001030
 **** Fit      -0.000774
 **** Fit      -0.001054
 **** Fit      -0.001123
 **** Fit      -0.001346
 **** Fit      -0.001644
 **** Fit      -0.002131
 **** Fit      -0.001567
 **** Fit      -0.001195
 **** Fit      -0.001460
 **** Fit      -0.001514
 **** Fit      -0.001769
 **** Fit      -0.002226
 **** Fit      -0.001707
 **** Fit      -0.001905
 **** Fit      -0.040777
 **** Fit      -0.038112
 **** Fit      -0.034748
 **** Fit      -0.030477
 **** Fit      -0.025555
 **** Fit      -0.020343
 **** Fit      -0.015083
 **** Fit      -0.040589
 **** Fit      -0.038292
 **** Fit      -0.036106
 **** Fit      -0.033420
 **** Fit      -0.030033
 **** Fit      -0.026075
 **** Fit      -0.021810
 **** Fit      -0.017474
 **** Fit      -0.013211
 **** Fit      -0.009079
 **** Fit      -0.039653
 **** Fit      -0.037145
 **** Fit      -0.035235
 **** Fit      -0.033508
 **** Fit      -0.031542
 **** Fit      -0.029087
 **** Fit      -0.026119
 **** Fit      -0.022778
 **** Fit      -0.019256
 **** Fit      -0.015720
 **** Fit      -0.012273
 **** Fit      -0.008966
 **** Fit      -0.034452
 **** Fit      -0.032787
 **** Fit      -0.031316
 **** Fit      -0.029910
 **** Fit      -0.028334
 **** Fit      -0.026395
 **** Fit      -0.024033
 **** Fit      -0.021320
 **** Fit      -0.018400
 **** Fit      -0.015419
 **** Fit      -0.012489
 **** Fit      -0.009675
 **** Fit      -0.007001
 **** Fit      -0.029331
 **** Fit      -0.028700
 **** Fit      -0.027776
 **** Fit      -0.026741
 **** Fit      -0.025569
 **** Fit      -0.024145
 **** Fit      -0.022381
 **** Fit      -0.020273
 **** Fit      -0.017904
 **** Fit      -0.015398
 **** Fit      -0.012873
 **** Fit      -0.010414
 **** Fit      -0.008066
 **** Fit      -0.005836
 **** Fit      -0.023870
 **** Fit      -0.023861
 **** Fit      -0.023406
 **** Fit      -0.022671
 **** Fit      -0.021686
 **** Fit      -0.020419
 **** Fit      -0.018848
 **** Fit      -0.017007
 **** Fit      -0.014978
 **** Fit      -0.012862
 **** Fit      -0.010753
 **** Fit      -0.008711
 **** Fit      -0.006761
 **** Fit      -0.019422
 **** Fit      -0.019823
 **** Fit      -0.019649
 **** Fit      -0.019067
 **** Fit      -0.018142
 **** Fit      -0.016892
 **** Fit      -0.015352
 **** Fit      -0.013596
 **** Fit      -0.011726
 **** Fit      -0.009838
 **** Fit      -0.008000
 **** Fit      -0.006239
 **** Fit      -0.015775
 **** Fit      -0.016448
 **** Fit      -0.016468
 **** Fit      -0.015986
 **** Fit      -0.015094
 **** Fit      -0.013862
 **** Fit      -0.012370
 **** Fit      -0.010726
 **** Fit      -0.009037
 **** Fit      -0.007380
 **** Fit      -0.005792
 **** Fit      -0.013255
 **** Fit      -0.013783
 **** Fit      -0.013609
 **** Fit      -0.012875
 **** Fit      -0.011716
 **** Fit      -0.010275
 **** Fit      -0.008706
 **** Fit      -0.007137
 **** Fit      -0.005654
 **** Fit      -0.010668
 **** Fit      -0.011464
 **** Fit      -0.011258
 **** Fit      -0.010273
 **** Fit      -0.008822
 **** Fit      -0.007234
 **** Fit      -0.009485
 **** Fit      -0.008984
 **** Fit      -0.007433
 **** Fit      -0.007763
 **** Fit       0.000354
 **** Fit       0.003473
 **** Fit       0.005733
 **** Fit       0.006991
 **** Fit       0.001469
 **** Fit      -0.001911
 **** Fit      -0.001990
 **** Fit       0.001313
 **** Fit       0.003941
 **** Fit       0.005778
 **** Fit       0.006756
 **** Fit       0.006828
 **** Fit       0.005960
 **** Fit       0.004151
 **** Fit       0.003198
 **** Fit       0.000682
 **** Fit      -0.004806
 **** Fit      -0.001230
 **** Fit       0.001811
 **** Fit       0.004199
 **** Fit       0.005879
 **** Fit       0.006822
 **** Fit       0.007013
 **** Fit       0.006451
 **** Fit       0.005159
 **** Fit       0.004956
 **** Fit      -0.005361
 **** Fit      -0.001693
 **** Fit       0.001437
 **** Fit       0.003942
 **** Fit       0.005780
 **** Fit       0.006938
 **** Fit       0.007415
 **** Fit       0.007222
 **** Fit       0.006387
 **** Fit       0.000676
 **** Fit       0.003415
 **** Fit       0.005529
 **** Fit       0.007004
 **** Fit       0.007848
 **** Fit       0.008081
 **** Fit       0.007731
 **** Fit       0.005322
 **** Fit       0.007079
 **** Fit       0.008297
 **** Fit       0.098164
 **** Fit       0.093535
 **** Fit       0.089996
 **** Fit       0.086850
 **** Fit       0.090561
 **** Fit       0.087005
 **** Fit       0.084417
 **** Fit       0.082324
 **** Fit       0.080108
 **** Fit       0.077215
 **** Fit       0.101260
 **** Fit       0.095305
 **** Fit       0.082738
 **** Fit       0.079797
 **** Fit       0.077894
 **** Fit       0.076685
 **** Fit       0.075609
 **** Fit       0.074060
 **** Fit       0.071518
 **** Fit       0.067636
 **** Fit       0.098153
 **** Fit       0.091947
 **** Fit       0.086802
 **** Fit       0.074472
 **** Fit       0.071876
 **** Fit       0.070451
 **** Fit       0.069975
 **** Fit       0.069947
 **** Fit       0.069758
 **** Fit       0.068851
 **** Fit       0.066756
 **** Fit       0.063069
 **** Fit       0.095114
 **** Fit       0.088416
 **** Fit       0.082830
 **** Fit       0.078174
 **** Fit       0.065524
 **** Fit       0.062930
 **** Fit       0.061758
 **** Fit       0.061902
 **** Fit       0.062858
 **** Fit       0.063931
 **** Fit       0.064483
 **** Fit       0.064031
 **** Fit       0.062164
 **** Fit       0.058416
 **** Fit       0.085597
 **** Fit       0.079224
 **** Fit       0.073887
 **** Fit       0.069286
 **** Fit       0.055688
 **** Fit       0.052750
 **** Fit       0.051537
 **** Fit       0.052119
 **** Fit       0.054009
 **** Fit       0.056388
 **** Fit       0.058461
 **** Fit       0.059682
 **** Fit       0.059717
 **** Fit       0.058254
 **** Fit       0.054793
 **** Fit       0.069858
 **** Fit       0.064652
 **** Fit       0.059844
 **** Fit       0.044852
 **** Fit       0.041121
 **** Fit       0.039441
 **** Fit       0.040150
 **** Fit       0.042844
 **** Fit       0.046571
 **** Fit       0.050288
 **** Fit       0.053246
 **** Fit       0.055092
 **** Fit       0.055701
 **** Fit       0.054912
 **** Fit       0.052274
 **** Fit       0.060418
 **** Fit       0.055136
 **** Fit       0.049801
 **** Fit       0.033070
 **** Fit       0.027819
 **** Fit       0.034925
 **** Fit       0.040642
 **** Fit       0.045473
 **** Fit       0.048928
 **** Fit       0.051021
 **** Fit       0.051924
 **** Fit       0.051764
 **** Fit       0.045962
 **** Fit       0.039521
 **** Fit       0.035579
 **** Fit       0.040975
 **** Fit       0.044567
 **** Fit       0.046921
 **** Fit       0.043507
 **** Fit       0.036976
 **** Fit       0.029107
 **** Fit       0.036859
 **** Fit       0.040118
 **** Fit       0.036352
 **** Fit       0.028860
 **** Fit       0.030225
 **** Fit       0.021709
 **** Fit       0.026150
 **** Fit       0.023333
 **** Fit       0.022016
 **** Fit       0.021132
 **** Fit       0.028056
 **** Fit       0.020903
 **** Fit       0.012729
 **** Fit       0.025434
 **** Fit       0.019320
 **** Fit       0.012444
 **** Fit       0.015421
 **** Fit       0.010387
 **** Fit       0.003992
 **** Fit       0.002036
 **** Fit       0.087413
 **** Fit       0.076041
 **** Fit       0.060903
 **** Fit       0.065340
 **** Fit       0.050477
 **** Fit       0.051383
 **** Fit       0.055106
 **** Fit       0.042383
 **** Fit       0.042955
 **** Fit       0.045997
 **** Fit       0.043539
 **** Fit       0.035630
 **** Fit       0.035894
 **** Fit       0.038461
 **** Fit       0.039350
 **** Fit       0.036909
 **** Fit       0.030375
 **** Fit       0.030328
 **** Fit       0.032323
 **** Fit       0.041458
 **** Fit       0.037455
 **** Fit       0.034178
 **** Fit       0.031767
 **** Fit       0.026662
 **** Fit       0.026379
 **** Fit       0.027975
 **** Fit       0.063771
 **** Fit       0.042490
 **** Fit       0.038010
 **** Fit       0.033998
 **** Fit       0.030683
 **** Fit       0.028193
 **** Fit       0.024458
 **** Fit       0.024031
 **** Fit       0.025447
 **** Fit       0.032397
 **** Fit       0.028854
 **** Fit       0.026156
 **** Fit       0.023749
 **** Fit       0.023221
 **** Fit       0.024518
 **** Fit       0.028551
 **** Fit       0.025612
 **** Fit       0.024503
 **** Fit       0.023825
 **** Fit       0.025155
 **** Fit       0.025434
 **** Fit       0.026654
 **** Fit       0.027944
 **** Fit       0.058877
 **** Fit       0.056410
 **** Fit       0.054624
 **** Fit       0.052896
 **** Fit       0.050903
 **** Fit       0.048561
 **** Fit       0.045943
 **** Fit       0.043217
 **** Fit       0.050254
 **** Fit       0.048621
 **** Fit       0.047424
 **** Fit       0.046085
 **** Fit       0.044366
 **** Fit       0.042255
 **** Fit       0.039871
 **** Fit       0.037406
 **** Fit       0.035065
 **** Fit       0.033011
 **** Fit       0.043068
 **** Fit       0.042327
 **** Fit       0.041445
 **** Fit       0.040109
 **** Fit       0.038294
 **** Fit       0.036130
 **** Fit       0.033829
 **** Fit       0.031618
 **** Fit       0.029685
 **** Fit       0.028174
 **** Fit       0.025567
 **** Fit       0.025620
 **** Fit       0.039327
 **** Fit       0.038666
 **** Fit       0.038184
 **** Fit       0.037294
 **** Fit       0.035856
 **** Fit       0.033970
 **** Fit       0.031849
 **** Fit       0.029739
 **** Fit       0.027862
 **** Fit       0.026405
 **** Fit       0.024986
 **** Fit       0.024961
 **** Fit       0.026018
 **** Fit       0.036588
 **** Fit       0.036060
 **** Fit       0.035418
 **** Fit       0.034314
 **** Fit       0.032742
 **** Fit       0.030872
 **** Fit       0.028938
 **** Fit       0.027177
 **** Fit       0.025795
 **** Fit       0.025080
 **** Fit       0.024796
 **** Fit       0.025314
 **** Fit       0.026735
 **** Fit       0.035884
 **** Fit       0.034905
 **** Fit       0.033987
 **** Fit       0.032715
 **** Fit       0.031068
 **** Fit       0.029234
 **** Fit       0.027471
 **** Fit       0.026021
 **** Fit       0.025415
 **** Fit       0.024639
 **** Fit       0.024150
 **** Fit       0.023333
 **** Fit       0.036049
 **** Fit       0.034488
 **** Fit       0.033163
 **** Fit       0.031658
 **** Fit       0.029933
 **** Fit       0.028171
 **** Fit       0.026608
 **** Fit       0.025728
 **** Fit       0.024172
 **** Fit       0.022082
 **** Fit       0.034660
 **** Fit       0.032862
 **** Fit       0.031073
 **** Fit       0.029191
 **** Fit       0.027365
 **** Fit       0.025934
 **** Fit       0.023107
 **** Fit       0.032809
 **** Fit       0.030608
 **** Fit       0.028304
 **** Fit       0.026131
 **** Fit       0.029442
 **** Fit       0.074471
 **** Fit       0.077890
 **** Fit       0.083653
 **** Fit       0.077959
 **** Fit       0.075022
 **** Fit       0.073322
 **** Fit       0.073055
 **** Fit       0.066001
 **** Fit       0.068805
 **** Fit       0.073760
 **** Fit       0.081378
 **** Fit       0.084718
 **** Fit       0.079804
 **** Fit       0.075444
 **** Fit       0.071703
 **** Fit       0.068644
 **** Fit       0.066380
 **** Fit       0.065061
 **** Fit       0.064863
 **** Fit       0.058482
 **** Fit       0.060650
 **** Fit       0.064725
 **** Fit       0.078060
 **** Fit       0.073802
 **** Fit       0.069964
 **** Fit       0.066528
 **** Fit       0.063511
 **** Fit       0.060991
 **** Fit       0.059089
 **** Fit       0.057940
 **** Fit       0.057680
 **** Fit       0.051899
 **** Fit       0.053565
 **** Fit       0.074868
 **** Fit       0.070701
 **** Fit       0.066971
 **** Fit       0.063566
 **** Fit       0.060428
 **** Fit       0.057583
 **** Fit       0.055132
 **** Fit       0.053209
 **** Fit       0.051949
 **** Fit       0.051464
 **** Fit       0.046371
 **** Fit       0.072258
 **** Fit       0.068168
 **** Fit       0.064637
 **** Fit       0.061432
 **** Fit       0.058405
 **** Fit       0.055513
 **** Fit       0.052809
 **** Fit       0.050411
 **** Fit       0.048461
 **** Fit       0.047077
 **** Fit       0.046343
 **** Fit       0.071735
 **** Fit       0.067306
 **** Fit       0.063769
 **** Fit       0.060730
 **** Fit       0.057899
 **** Fit       0.055121
 **** Fit       0.052364
 **** Fit       0.049699
 **** Fit       0.047258
 **** Fit       0.045185
 **** Fit       0.043591
 **** Fit       0.042538
 **** Fit       0.070302
 **** Fit       0.065734
 **** Fit       0.062321
 **** Fit       0.059530
 **** Fit       0.056943
 **** Fit       0.054326
 **** Fit       0.051614
 **** Fit       0.048869
 **** Fit       0.046233
 **** Fit       0.043869
 **** Fit       0.063101
 **** Fit       0.060449
 **** Fit       0.058125
 **** Fit       0.055746
 **** Fit       0.053155
 **** Fit       0.050375
 -----------------------------------------------------------------
 Leave Link  602 at Wed Sep 18 11:24:25 2019, MaxMem=  1342177280 cpu:             116.0 elap:               2.5

 Test job not archived.
 1\1\GINC-C503-134\SP\RB3LYP\SVP\C54H83Ca1N15O23\PENGZHI\18-Sep-2019\0\
 \#b3lyp/svp scf=(tight,noincore) Test #IOP(5/87=12) Density=Current Po
 p=(MK,readradii) iop(6/33=2) iop(6/42=6)\\Ng-295_loop3_7.0\\0,1\C,0,16
 .339,75.03,32.05\C,0,17.349,73.94,31.73\O,0,18.219,73.67,32.56\H,0,15.
 421,74.576,32.423\H,0,16.75,75.695,32.81\H,0,16.12,75.6,31.147\N,0,17.
 209,73.43,30.5\C,0,18.119,72.5,29.86\C,0,18.999,73.23,28.87\O,0,18.519
 ,73.99,28.03\C,0,17.189,71.43,29.27\C,0,17.939,70.34,28.52\O,0,19.019,
 70.52,27.92\O,0,17.339,69.27,28.32\H,0,16.339,73.7,30.06\H,0,18.829,72
 .09,30.57\H,0,16.559,71.9,28.52\H,0,16.549,70.99,30.03\N,0,20.299,72.9
 9,29.03\C,0,21.399,73.61,28.31\C,0,21.229,73.41,26.81\O,0,21.819,74.21
 ,26.09\C,0,22.709,73.01,28.82\C,0,22.779,71.49,28.66\C,0,24.209,71.,28
 .88\C,0,24.339,69.49,28.68\N,0,24.169,69.1,27.27\H,0,20.589,72.45,29.8
 4\H,0,21.279,74.68,28.48\H,0,22.809,73.2,29.89\H,0,23.479,73.48,28.21\
 H,0,22.469,71.31,27.63\H,0,22.069,71.01,29.32\H,0,24.519,71.35,29.86\H
 ,0,24.849,71.39,28.09\H,0,23.679,68.93,29.34\H,0,25.369,69.24,28.94\H,
 0,24.739,68.28,27.12\H,0,23.249,68.88,26.92\H,0,24.459,69.82,26.62\N,0
 ,20.449,72.45,26.29\C,0,20.399,71.95,24.93\C,0,18.979,71.72,24.43\O,0,
 18.799,71.51,23.23\C,0,21.339,70.77,24.79\C,0,20.889,69.59,25.64\O,0,1
 9.959,68.92,25.14\O,0,21.489,69.23,26.68\H,0,19.959,71.94,27.01\H,0,20
 .719,72.74,24.25\H,0,22.349,71.02,25.11\H,0,21.429,70.52,23.73\N,0,17.
 939,71.71,25.26\C,0,16.529,71.57,24.94\C,0,16.049,70.13,24.82\O,0,14.8
 69,69.83,25.02\H,0,18.149,71.81,26.24\H,0,16.339,71.99,23.96\H,0,15.93
 9,72.12,25.68\N,0,16.849,69.13,24.47\C,0,16.399,67.76,24.28\C,0,16.159
 ,67.08,25.61\O,0,17.079,66.89,26.41\C,0,17.329,67.01,23.33\C,0,16.969,
 65.59,22.93\N,0,17.269,65.2,21.69\O,0,16.439,64.85,23.75\H,0,17.809,69
 .28,24.18\H,0,15.419,67.79,23.8\H,0,18.349,66.93,23.71\H,0,17.459,67.5
 2,22.37\H,0,17.809,65.85,21.14\H,0,17.179,64.27,21.3\N,0,14.919,66.61,
 25.77\C,0,14.309,66.06,26.96\C,0,14.799,64.67,27.35\O,0,14.329,64.08,2
 8.32\H,0,14.399,66.63,24.9\H,0,13.229,66.,26.82\H,0,14.439,66.77,27.78
 \N,0,15.799,64.09,26.68\C,0,16.239,62.73,26.9\C,0,17.109,62.65,28.15\O
 ,0,17.889,63.57,28.38\C,0,16.969,62.35,25.61\C,0,17.629,61.,25.77\C,0,
 18.969,61.05,26.16\C,0,16.799,59.89,25.93\C,0,19.559,59.88,26.66\C,0,1
 7.389,58.72,26.41\C,0,18.739,58.75,26.82\O,0,19.229,57.56,27.29\H,0,16
 .229,64.59,25.92\H,0,15.329,62.12,26.97\H,0,17.709,63.11,25.34\H,0,16.
 229,62.31,24.82\H,0,19.699,61.83,25.98\H,0,15.739,60.01,25.73\H,0,20.6
 19,59.83,26.82\H,0,16.789,57.83,26.46\H,0,18.569,56.88,27.42\N,0,16.81
 9,61.63,28.96\C,0,17.509,61.39,30.21\C,0,19.009,61.11,30.1\O,0,19.799,
 61.77,29.42\C,0,17.099,62.47,31.2\C,0,18.069,62.77,32.33\C,0,15.759,62
 .18,31.87\C,0,17.779,63.92,33.29\H,0,16.119,60.96,28.67\H,0,17.089,60.
 45,30.58\H,0,16.899,63.44,30.74\H,0,18.979,63.01,31.78\H,0,18.239,61.9
 ,32.96\H,0,15.339,63.09,32.3\H,0,15.029,61.8,31.16\H,0,15.909,61.44,32
 .66\H,0,17.259,63.64,34.2\H,0,18.759,64.37,33.45\H,0,17.139,64.71,32.8
 8\N,0,19.389,60.15,30.94\C,0,20.759,59.71,31.11\C,0,21.039,58.26,31.47
 \O,0,22.179,57.8,31.49\C,0,21.489,60.63,32.09\O,0,20.649,60.94,33.18\H
 ,0,18.749,59.91,31.67\H,0,21.359,59.8,30.2\H,0,21.529,61.62,31.63\H,0,
 22.359,60.1,32.47\H,0,21.159,61.29,33.92\N,0,19.999,57.49,31.82\C,0,20
 .019,56.07,32.1\C,0,20.839,55.52,33.26\O,0,21.389,54.42,33.15\C,0,20.1
 09,55.21,30.84\H,0,19.149,58.,31.96\H,0,18.979,55.85,32.36\H,0,19.289,
 55.41,30.15\H,0,21.089,55.16,30.35\H,0,19.899,54.2,31.17\N,0,20.969,56
 .13,34.44\C,0,20.389,57.28,35.1\C,0,19.699,56.95,36.41\O,0,19.789,55.8
 4,36.93\C,0,21.479,58.33,35.3\H,0,21.449,55.55,35.11\H,0,19.609,57.66,
 34.43\H,0,21.939,58.48,34.33\H,0,21.099,59.28,35.7\H,0,22.209,57.9,35.
 99\N,0,19.009,57.89,37.07\C,0,18.359,59.06,36.53\C,0,16.839,59.02,36.5
 8\O,0,16.249,59.62,35.68\C,0,18.839,60.25,37.36\C,0,18.619,61.57,36.64
 \C,0,19.399,62.62,37.42\O,0,20.639,62.68,37.29\O,0,18.759,63.44,38.11\
 H,0,18.649,57.51,37.94\H,0,18.629,59.13,35.48\H,0,19.909,60.15,37.53\H
 ,0,18.409,60.26,38.37\H,0,17.569,61.84,36.64\H,0,18.869,61.41,35.59\N,
 0,16.289,58.33,37.58\C,0,14.849,58.32,37.75\H,0,14.369,58.247,36.774\H
 ,0,14.561,57.465,38.361\H,0,14.534,59.241,38.241\H,0,16.939,58.04,38.3
 1\Ca,0,19.42,67.79,27.64\O,0,20.02,68.49,30.08\H,0,19.37,68.74,30.74\H
 ,0,20.86,68.58,30.53\\Version=ES64L-G16RevA.03\State=1-A\HF=-5333.4086
 427\RMSD=5.178e-09\Dipole=3.38112,5.6616199,-11.557158\Quadrupole=107.
 8307666,-50.6874863,-57.1432803,97.936656,-44.929275,57.8941219\PG=C01
  [X(C54H83Ca1N15O23)]\\@


 SLITHERY-DITHERY
 FRIEDRICH A. KEKULE
 DREAMT ON A BUS OF THINGS
 FREUD WOULD THINK KEEN.
 MOST OF THE TIME THEY WERE
 HERPETOLOGICAL
 BITING THEIR TAILS IN THE
 SHAPE OF BENZENE.
 Job cpu time:       0 days 15 hours  3 minutes 22.1 seconds.
 Elapsed time:       0 days  0 hours 19 minutes  3.6 seconds.
 File lengths (MBytes):  RWF=   1517 Int=      0 D2E=      0 Chk=    171 Scr=      1
 Normal termination of Gaussian 16 at Wed Sep 18 11:24:26 2019.
