 Entering Gaussian System, Link 0=g16
 Initial command:
 /home1/apps/gaussian/16rA.03/g16/l1.exe "/scratch/01990/pengzhi/4353703/Gau-263438.inp" -scrdir="/scratch/01990/pengzhi/4353703/"
 Entering Link 1 = /home1/apps/gaussian/16rA.03/g16/l1.exe PID=    263439.
  
 Copyright (c) 1988,1990,1992,1993,1995,1998,2003,2009,2016,
            Gaussian, Inc.  All Rights Reserved.
  
 This is part of the Gaussian(R) 16 program.  It is based on
 the Gaussian(R) 09 system (copyright 2009, Gaussian, Inc.),
 the Gaussian(R) 03 system (copyright 2003, Gaussian, Inc.),
 the Gaussian(R) 98 system (copyright 1998, Gaussian, Inc.),
 the Gaussian(R) 94 system (copyright 1995, Gaussian, Inc.),
 the Gaussian 92(TM) system (copyright 1992, Gaussian, Inc.),
 the Gaussian 90(TM) system (copyright 1990, Gaussian, Inc.),
 the Gaussian 88(TM) system (copyright 1988, Gaussian, Inc.),
 the Gaussian 86(TM) system (copyright 1986, Carnegie Mellon
 University), and the Gaussian 82(TM) system (copyright 1983,
 Carnegie Mellon University). Gaussian is a federally registered
 trademark of Gaussian, Inc.
  
 This software contains proprietary and confidential information,
 including trade secrets, belonging to Gaussian, Inc.
  
 This software is provided under written license and may be
 used, copied, transmitted, or stored only in accord with that
 written license.
  
 The following legend is applicable only to US Government
 contracts under FAR:
  
                    RESTRICTED RIGHTS LEGEND
  
 Use, reproduction and disclosure by the US Government is
 subject to restrictions as set forth in subparagraphs (a)
 and (c) of the Commercial Computer Software - Restricted
 Rights clause in FAR 52.227-19.
  
 Gaussian, Inc.
 340 Quinnipiac St., Bldg. 40, Wallingford CT 06492
  
  
 ---------------------------------------------------------------
 Warning -- This program may not be used in any manner that
 competes with the business of Gaussian, Inc. or will provide
 assistance to any competitor of Gaussian, Inc.  The licensee
 of this program is prohibited from giving any competitor of
 Gaussian, Inc. access to this program.  By using this program,
 the user acknowledges that Gaussian, Inc. is engaged in the
 business of creating and licensing software in the field of
 computational chemistry and represents and warrants to the
 licensee that it is not a competitor of Gaussian, Inc. and that
 it will not use this program in any manner prohibited above.
 ---------------------------------------------------------------
  

 Cite this work as:
 Gaussian 16, Revision A.03,
 M. J. Frisch, G. W. Trucks, H. B. Schlegel, G. E. Scuseria, 
 M. A. Robb, J. R. Cheeseman, G. Scalmani, V. Barone, 
 G. A. Petersson, H. Nakatsuji, X. Li, M. Caricato, A. V. Marenich, 
 J. Bloino, B. G. Janesko, R. Gomperts, B. Mennucci, H. P. Hratchian, 
 J. V. Ortiz, A. F. Izmaylov, J. L. Sonnenberg, D. Williams-Young, 
 F. Ding, F. Lipparini, F. Egidi, J. Goings, B. Peng, A. Petrone, 
 T. Henderson, D. Ranasinghe, V. G. Zakrzewski, J. Gao, N. Rega, 
 G. Zheng, W. Liang, M. Hada, M. Ehara, K. Toyota, R. Fukuda, 
 J. Hasegawa, M. Ishida, T. Nakajima, Y. Honda, O. Kitao, H. Nakai, 
 T. Vreven, K. Throssell, J. A. Montgomery, Jr., J. E. Peralta, 
 F. Ogliaro, M. J. Bearpark, J. J. Heyd, E. N. Brothers, K. N. Kudin, 
 V. N. Staroverov, T. A. Keith, R. Kobayashi, J. Normand, 
 K. Raghavachari, A. P. Rendell, J. C. Burant, S. S. Iyengar, 
 J. Tomasi, M. Cossi, J. M. Millam, M. Klene, C. Adamo, R. Cammi, 
 J. W. Ochterski, R. L. Martin, K. Morokuma, O. Farkas, 
 J. B. Foresman, and D. J. Fox, Gaussian, Inc., Wallingford CT, 2016.
 
 ******************************************
 Gaussian 16:  ES64L-G16RevA.03 25-Dec-2016
                18-Sep-2019 
 ******************************************
 %chk=Ng-295_loop3_41.0.chk
 %nprocshared=48
 Will use up to   48 processors via shared memory.
 %mem=10GB
 %nosave
 ----------------------------------------------------------------------
 #b3lyp/svp scf=(tight,noincore) Test #IOP(5/87=12) Density=Current Pop
 =(MK,readradii) iop(6/33=2) iop(6/42=6)
 ----------------------------------------------------------------------
 1/30=1,38=1,172=1/1;
 2/12=2,17=6,18=5,40=1/2;
 3/5=18,7=101,11=2,25=1,30=1,74=-5/1,2,3;
 4//1;
 5/5=4,32=2,38=5,87=12/2;
 6/7=2,8=2,9=2,10=2,15=8,20=101,22=-1,28=1,33=2,42=6/1,2;
 99/5=1,9=1/99;
 -----------------
 Ng-295_loop3_41.0
 -----------------
 Symbolic Z-matrix:
 Charge =  0 Multiplicity = 1
 C                     9.375     76.165    68.26 
 C                     8.605     75.055    67.57 
 O                     7.375     75.085    67.55 
 H                     10.297    76.362    67.713 
 H                     8.767     77.069    68.283 
 H                     9.616     75.862    69.279 
 N                     9.235     74.005    67.05 
 C                     8.495     72.975    66.35 
 C                     7.965     71.855    67.24 
 O                     8.635     70.885    67.57 
 C                     9.405     72.565    65.19 
 C                     8.635     71.985    64.01 
 O                     7.995     72.785    63.28 
 O                     8.465     70.755    63.98 
 H                     10.215    73.995    66.81 
 H                     7.645     73.375    65.8 
 H                     10.185    71.845    65.42 
 H                     9.995     73.435    64.9 
 N                     6.655     71.975    67.5 
 C                     5.915     71.295    68.54 
 C                     5.535     69.855    68.22 
 O                     5.365     69.115    69.19 
 C                     4.675     72.075    68.97 
 C                     5.075     73.345    69.72 
 C                     3.895     74.235    70.12 
 C                     4.425     75.505    70.78 
 N                     5.155     75.245    72.03 
 H                     6.105     72.585    66.92 
 H                     6.545     71.255    69.43 
 H                     4.025     71.505    69.63 
 H                     4.095     72.375    68.1 
 H                     5.715     73.895    69.03 
 H                     5.595     73.065    70.64 
 H                     3.185     73.645    70.7 
 H                     3.385     74.555    69.21 
 H                     3.575     76.095    71.14 
 H                     4.995     76.145    70.11 
 H                     4.495     74.795    72.64 
 H                     5.965     74.635    72.04 
 H                     5.295     76.155    72.45 
 N                     5.525     69.435    66.95 
 C                     5.345     68.045    66.61 
 C                     6.655     67.385    66.2 
 O                     6.665     66.205    65.88 
 C                     4.165     67.965    65.65 
 C                     4.435     68.305    64.19 
 O                     3.615     68.145    63.26 
 O                     5.525     68.875    63.97 
 H                     5.415     70.155    66.25 
 H                     5.045     67.465    67.48 
 H                     3.425     68.655    66.06 
 H                     3.745     66.955    65.68 
 N                     7.825     68.035    66.27 
 C                     9.095     67.485    65.86 
 C                     9.205     67.055    64.4 
 O                     10.295    66.825    63.89 
 H                     7.915     69.005    66.53 
 H                     9.355     66.645    66.51 
 H                     9.835     68.285    65.96 
 N                     8.125     67.155    63.63 
 C                     7.915     66.775    62.24 
 C                     8.305     67.905    61.3 
 O                     7.975     69.075    61.49 
 C                     6.495     66.265    62.04 
 C                     6.475     65.285    60.88 
 N                     6.575     63.955    61.01 
 O                     6.295     65.665    59.73 
 H                     7.245     67.395    64.06 
 H                     8.575     65.915    62.08 
 H                     5.815     67.085    61.8 
 H                     6.125     65.735    62.92 
 H                     6.615     63.485    61.9 
 H                     6.665     63.355    60.21 
 N                     9.085     67.525    60.28 
 C                     9.795     68.545    59.54 
 C                     10.285    68.105    58.17 
 O                     10.825    68.895    57.4 
 H                     9.235     66.535    60.16 
 H                     10.675    68.865    60.11 
 H                     9.185     69.445    59.54 
 N                     10.095    66.835    57.81 
 C                     10.405    66.335    56.48 
 C                     9.435     66.815    55.42 
 O                     8.215     66.645    55.47 
 C                     10.385    64.815    56.58 
 C                     11.065    64.135    55.41 
 C                     10.275    63.915    54.28 
 C                     12.445    63.925    55.39 
 C                     10.835    63.325    53.14 
 C                     12.995    63.335    54.24 
 C                     12.215    63.045    53.11 
 O                     12.815    62.505    52. 
 H                     9.675     66.165    58.44 
 H                     11.435    66.595    56.21 
 H                     9.375     64.445    56.76 
 H                     10.995    64.525    57.43 
 H                     9.215     64.075    54.42 
 H                     13.005    64.255    56.25 
 H                     10.195    63.115    52.29 
 H                     14.025    63.035    54.21 
 H                     13.775    62.445    52.06 
 N                     10.065    67.385    54.39 
 C                     9.465     67.985    53.21 
 C                     8.795     67.035    52.23 
 O                     8.315     65.965    52.61 
 C                     8.565     69.185    53.48 
 C                     9.205     70.265    54.34 
 C                     7.135     68.925    53.96 
 C                     10.455    70.875    53.73 
 H                     11.075    67.405    54.43 
 H                     10.325    68.205    52.58 
 H                     8.435     69.685    52.52 
 H                     9.435     69.795    55.3 
 H                     8.475     71.065    54.48 
 H                     7.175     68.765    55.04 
 H                     6.535     69.805    53.72 
 H                     6.685     68.095    53.42 
 H                     10.865    71.605    54.43 
 H                     11.235    70.115    53.72 
 H                     10.355    71.335    52.75 
 N                     8.695     67.405    50.95 
 C                     7.865     66.685    50.01 
 C                     8.205     66.775    48.53 
 O                     7.465     66.265    47.69 
 C                     6.385     66.985    50.23 
 O                     6.065     68.345    50.07 
 H                     8.945     68.345    50.67 
 H                     8.055     65.635    50.24 
 H                     6.065     66.745    51.25 
 H                     5.755     66.315    49.65 
 H                     5.855     68.765    49.23 
 N                     9.215     67.595    48.22 
 C                     9.845     67.685    46.92 
 C                     8.805     67.915    45.82 
 O                     8.595     67.145    44.89 
 C                     10.725    66.475    46.65 
 H                     9.595     68.145    48.97 
 H                     10.495    68.555    47.01 
 H                     10.155    65.545    46.63 
 H                     11.045    66.565    45.61 
 H                     11.555    66.445    47.36 
 N                     8.145     69.075    45.79 
 C                     8.135     70.185    46.71 
 C                     8.345     71.515    46. 
 O                     8.095     71.655    44.81 
 C                     6.805     70.155    47.46 
 H                     7.795     69.285    44.87 
 H                     9.005     70.065    47.36 
 H                     6.875     70.495    48.49 
 H                     6.105     70.845    46.98 
 H                     6.295     69.195    47.58 
 N                     8.615     72.635    46.69 
 C                     8.995     72.735    48.08 
 C                     10.485    73.005    48.24 
 O                     11.105    72.715    49.26 
 C                     8.095     73.715    48.83 
 C                     7.815     73.315    50.28 
 C                     6.955     74.395    50.92 
 O                     7.525     75.315    51.55 
 O                     5.725     74.415    50.72 
 H                     8.665     73.505    46.19 
 H                     8.805     71.765    48.55 
 H                     7.145     73.745    48.29 
 H                     8.645     74.655    48.89 
 H                     8.805     73.205    50.7 
 H                     7.225     72.395    50.31 
 N                     11.115    73.695    47.29 
 C                     12.525    74.015    47.38 
 H                     13.073    73.457    46.621 
 H                     12.667    75.084    47.218 
 H                     12.897    73.744    48.368 
 H                     10.575    73.965    46.48 
 Ca                    6.28      70.74     62.52 
 O                     5.44      70.37     59.96 
 H                     5.91      70.29     59.12 
 H                     4.55      70.07     59.76 
 
 Stoichiometry    C54H83CaN15O23
 Framework group  C1[X(C54H83CaN15O23)]
 Deg. of freedom   522
 Full point group                 C1      NOp   1
 Largest Abelian subgroup         C1      NOp   1
 Largest concise Abelian subgroup C1      NOp   1
                         Standard orientation:                         
 ---------------------------------------------------------------------
 Center     Atomic      Atomic             Coordinates (Angstroms)
 Number     Number       Type             X           Y           Z
 ---------------------------------------------------------------------
      1          6           0      -10.762503    5.120514    3.603089
      2          6           0      -10.068714    4.246129    2.575855
      3          8           0      -10.219215    4.475174    1.376236
      4          1           0      -10.119627    5.235771    4.475745
      5          1           0      -10.964382    6.099738    3.169759
      6          1           0      -11.701044    4.654552    3.903538
      7          7           0       -9.358713    3.184284    2.947585
      8          6           0       -8.659558    2.384670    1.962547
      9          6           0       -9.488340    1.259231    1.351067
     10          8           0       -9.618673    0.160167    1.874300
     11          6           0       -7.349619    1.986465    2.646136
     12          6           0       -6.229886    1.693683    1.655087
     13          8           0       -5.683318    2.672904    1.085096
     14          8           0       -6.091873    0.520984    1.269822
     15          1           0       -8.988205    3.048250    3.876196
     16          1           0       -8.276014    2.982963    1.137963
     17          1           0       -7.393259    1.127282    3.309159
     18          1           0       -7.076925    2.780601    3.341899
     19          7           0       -9.935114    1.553239    0.121412
     20          6           0      -10.987206    0.872826   -0.600904
     21          6           0      -10.569609   -0.434521   -1.261855
     22          8           0      -11.468952   -1.256017   -1.445503
     23          6           0      -11.662503    1.779733   -1.626766
     24          6           0      -12.482734    2.862304   -0.926292
     25          6           0      -13.132100    3.871102   -1.877685
     26          6           0      -13.846035    4.944391   -1.060527
     27          7           0      -14.950310    4.412496   -0.247714
     28          1           0       -9.503750    2.312831   -0.376529
     29          1           0      -11.774003    0.618478    0.111035
     30          1           0      -12.339859    1.241329   -2.285788
     31          1           0      -10.916423    2.277962   -2.241935
     32          1           0      -11.775048    3.386587   -0.284025
     33          1           0      -13.288346    2.386847   -0.360493
     34          1           0      -13.736667    3.333009   -2.608133
     35          1           0      -12.339257    4.382821   -2.425539
     36          1           0      -14.379117    5.611831   -1.746492
     37          1           0      -13.177177    5.565408   -0.468608
     38          1           0      -15.592610    3.999556   -0.901267
     39          1           0      -14.784952    3.684401    0.438459
     40          1           0      -15.442304    5.226762    0.097269
     41          7           0       -9.275160   -0.680956   -1.492228
     42          6           0       -8.816058   -1.968853   -1.951191
     43          6           0       -8.163790   -2.772102   -0.833543
     44          8           0       -7.721051   -3.887489   -1.067622
     45          6           0       -8.022152   -1.734821   -3.229996
     46          6           0       -6.583828   -1.257933   -3.075398
     47          8           0       -5.762038   -1.163741   -4.012782
     48          8           0       -6.280114   -0.846520   -1.935267
     49          1           0       -8.677630    0.131182   -1.554592
     50          1           0       -9.651667   -2.600089   -2.245469
     51          1           0       -8.600242   -0.993558   -3.785101
     52          1           0       -8.000706   -2.659845   -3.814181
     53          7           0       -8.143407   -2.332437    0.432387
     54          6           0       -7.508334   -3.021620    1.530208
     55          6           0       -6.009383   -3.272685    1.393416
     56          8           0       -5.334475   -3.607003    2.359765
     57          1           0       -8.491014   -1.430900    0.720485
     58          1           0       -8.023418   -3.968822    1.712406
     59          1           0       -7.591920   -2.370091    2.405493
     60          7           0       -5.408291   -2.902902    0.265918
     61          6           0       -4.027079   -3.062735   -0.166871
     62          6           0       -3.169126   -1.898656    0.303698
     63          8           0       -3.526197   -0.725086    0.208117
     64          6           0       -3.968333   -3.308632   -1.667732
     65          6           0       -2.723696   -4.115652   -1.993304
     66          7           0       -2.695924   -5.450027   -2.113602
     67          8           0       -1.656079   -3.567291   -2.235779
     68          1           0       -5.976961   -2.582182   -0.502621
     69          1           0       -3.687907   -3.989645    0.309155
     70          1           0       -3.911961   -2.366322   -2.216616
     71          1           0       -4.828642   -3.880999   -2.020527
     72          1           0       -3.516835   -6.030662   -2.053869
     73          1           0       -1.831575   -5.948981   -2.223360
     74          7           0       -2.017938   -2.264636    0.881647
     75          6           0       -1.301766   -1.285166    1.668945
     76          6           0        0.161200   -1.618469    1.912340
     77          8           0        0.908438   -0.833004    2.489645
     78          1           0       -1.773502   -3.242179    0.840893
     79          1           0       -1.777938   -1.186175    2.651371
     80          1           0       -1.480835   -0.306585    1.230297
     81          7           0        0.625810   -2.784752    1.462318
     82          6           0        2.031356   -3.153064    1.523840
     83          6           0        2.892378   -2.391782    0.536930
     84          8           0        2.695678   -2.369064   -0.679866
     85          6           0        2.092705   -4.650309    1.249446
     86          6           0        3.410143   -5.274619    1.659684
     87          6           0        4.439412   -5.218284    0.717966
     88          6           0        3.639657   -5.698733    2.969779
     89          6           0        5.701385   -5.739130    1.030128
     90          6           0        4.910121   -6.216693    3.271006
     91          6           0        5.948235   -6.230470    2.326797
     92          8           0        7.180742   -6.712642    2.690301
     93          1           0        0.019923   -3.454034    1.007166
     94          1           0        2.409325   -3.029013    2.545188
     95          1           0        1.817861   -4.873670    0.217956
     96          1           0        1.369327   -5.140992    1.893384
     97          1           0        4.140496   -4.909790   -0.274143
     98          1           0        2.833335   -5.575895    3.674659
     99          1           0        6.474163   -5.732988    0.269223
    100          1           0        5.111592   -6.671516    4.221977
    101          1           0        7.258396   -6.932913    3.625315
    102          7           0        3.931451   -1.802681    1.133577
    103          6           0        4.948067   -0.967849    0.515558
    104          6           0        5.923956   -1.664445   -0.419424
    105          8           0        5.598940   -2.683500   -1.032280
    106          6           0        4.431605    0.316160   -0.122791
    107          6           0        3.555933    1.160197    0.791759
    108          6           0        3.792489    0.229256   -1.510912
    109          6           0        4.261223    1.635176    2.050195
    110          1           0        4.027037   -1.950102    2.129183
    111          1           0        5.661816   -0.809492    1.322023
    112          1           0        5.306035    0.949563   -0.273359
    113          1           0        2.691871    0.540129    1.045354
    114          1           0        3.233374    2.042170    0.234463
    115          1           0        2.751283   -0.072371   -1.374855
    116          1           0        3.853305    1.217467   -1.971064
    117          1           0        4.352035   -0.441631   -2.158846
    118          1           0        3.549349    2.194067    2.660012
    119          1           0        4.458249    0.767651    2.678431
    120          1           0        5.163704    2.227191    1.919631
    121          7           0        7.131548   -1.122005   -0.600482
    122          6           0        8.021719   -1.572995   -1.646954
    123          6           0        9.515983   -1.349432   -1.470050
    124          8           0       10.297419   -1.622155   -2.380148
    125          6           0        7.572013   -1.070444   -3.015898
    126          8           0        7.540712    0.332399   -3.108907
    127          1           0        7.340746   -0.206157   -0.223708
    128          1           0        7.933270   -2.660595   -1.618610
    129          1           0        6.549584   -1.384973   -3.252777
    130          1           0        8.129407   -1.550760   -3.816403
    131          1           0        8.294643    0.884925   -3.337824
    132          7           0        9.870744   -0.668972   -0.374733
    133          6           0       11.227089   -0.514987    0.106535
    134          6           0       12.144742    0.017973   -0.997261
    135          8           0       13.114585   -0.582595   -1.445169
    136          6           0       11.741905   -1.805577    0.723578
    137          1           0        9.124801   -0.287856    0.179991
    138          1           0       11.133647    0.220757    0.904939
    139          1           0       11.783678   -2.621849    0.000974
    140          1           0       12.800075   -1.635286    0.931851
    141          1           0       11.158483   -2.059086    1.611976
    142          7           0       11.960627    1.262879   -1.442695
    143          6           0       10.934402    2.232743   -1.151444
    144          6           0       11.519990    3.591886   -0.795187
    145          8           0       12.643168    3.921712   -1.152796
    146          6           0       10.018329    2.320257   -2.370235
    147          1           0       12.796806    1.642583   -1.854556
    148          1           0       10.425133    1.892443   -0.246656
    149          1           0        8.976970    2.509587   -2.122998
    150          1           0       10.322277    3.169348   -2.989235
    151          1           0        9.933563    1.447039   -3.023232
    152          7           0       10.757249    4.556187   -0.255048
    153          6           0        9.429062    4.414742    0.294873
    154          6           0        9.444885    4.419668    1.817477
    155          8           0        8.555423    3.905563    2.490867
    156          6           0        8.463351    5.421826   -0.326484
    157          6           0        7.039936    4.889102   -0.502534
    158          6           0        6.177306    6.001765   -1.079987
    159          8           0        5.535781    6.729951   -0.288538
    160          8           0        6.205166    6.244127   -2.302191
    161          1           0       11.163469    5.463816   -0.111543
    162          1           0        9.044078    3.435530   -0.006509
    163          1           0        8.863040    5.672744   -1.312532
    164          1           0        8.378395    6.245955    0.382947
    165          1           0        6.772428    4.568881    0.494711
    166          1           0        7.028677    4.079405   -1.237152
    167          7           0       10.392328    5.115944    2.444415
    168          6           0       10.460888    5.191611    3.889467
    169          1           0       11.342543    4.655101    4.239599
    170          1           0       10.525403    6.235872    4.196917
    171          1           0        9.567243    4.739952    4.320015
    172          1           0       11.087950    5.570700    1.870040
    173         20           0       -4.948886    1.043868   -1.038039
    174          8           0       -2.501882    1.144962   -2.220431
    175          1           0       -1.602157    1.099165   -1.872153
    176          1           0       -2.393639    1.019655   -3.166307
 ---------------------------------------------------------------------
 Rotational constants (GHZ):           0.0266627           0.0056179           0.0050475
 Standard basis: SVP (5D, 7F)
 There are  1809 symmetry adapted cartesian basis functions of A   symmetry.
 There are  1717 symmetry adapted basis functions of A   symmetry.
  1717 basis functions,  2922 primitive gaussians,  1809 cartesian basis functions
   358 alpha electrons      358 beta electrons
       nuclear repulsion energy     18177.8215688597 Hartrees.
 NAtoms=  176 NActive=  176 NUniq=  176 SFac= 1.00D+00 NAtFMM=   60 NAOKFM=T Big=T
 Integral buffers will be    131072 words long.
 Raffenetti 2 integral format.
 Two-electron integral symmetry is turned on.
 One-electron integrals computed using PRISM.
 NBasis=  1717 RedAO= T EigKep=  2.82D-04  NBF=  1717
 NBsUse=  1717 1.00D-06 EigRej= -1.00D+00 NBFU=  1717
 ExpMin= 1.98D-02 ExpMax= 3.51D+04 ExpMxC= 5.28D+03 IAcc=3 IRadAn=         5 AccDes= 0.00D+00
 Harris functional with IExCor=  402 and IRadAn=       5 diagonalized for initial guess.
 HarFok:  IExCor=  402 AccDes= 0.00D+00 IRadAn=         5 IDoV= 1 UseB2=F ITyADJ=14
 ICtDFT=  3500011 ScaDFX=  1.000000  1.000000  1.000000  1.000000
 FoFCou: FMM=F IPFlag=           0 FMFlag=      100000 FMFlg1=        2001
         NFxFlg=           0 DoJE=T BraDBF=F KetDBF=T FulRan=T
         wScrn=  0.000000 ICntrl=       500 IOpCl=  0 I1Cent=   200000004 NGrid=           0
         NMat0=    1 NMatS0=      1 NMatT0=    0 NMatD0=    1 NMtDS0=    0 NMtDT0=    0
 Petite list used in FoFCou.
 Requested convergence on RMS density matrix=1.00D-08 within 128 cycles.
 Requested convergence on MAX density matrix=1.00D-06.
 Requested convergence on             energy=1.00D-06.
 No special actions if energy rises.
 EnCoef did     2 forward-backward iterations
 EnCoef did     3 forward-backward iterations
 EnCoef did     4 forward-backward iterations
 EnCoef did     1 forward-backward iterations
 EnCoef did     4 forward-backward iterations
 EnCoef did    10 forward-backward iterations
 EnCoef did   100 forward-backward iterations
 EnCoef did   100 forward-backward iterations
 Rare condition: small coef for last iteration:  0.000D+00
 EnCoef did   100 forward-backward iterations
 EnCoef did   100 forward-backward iterations
 Rare condition: small coef for last iteration:  0.805D-15
 EnCoef did   100 forward-backward iterations
 EnCoef did   100 forward-backward iterations
 EnCoef did   100 forward-backward iterations
 EnCoef did   100 forward-backward iterations
 Restarting incremental Fock formation.
 EnCoef did   100 forward-backward iterations
 EnCoef did   100 forward-backward iterations
 EnCoef did   100 forward-backward iterations
 Rare condition: small coef for last iteration:  0.135D-14
 EnCoef did   100 forward-backward iterations
 EnCoef did   100 forward-backward iterations
 Rare condition: small coef for last iteration:  0.000D+00
 Rare condition: small coef for last iteration:  0.000D+00
 Rare condition: small coef for last iteration:  0.000D+00
 Rare condition: small coef for last iteration:  0.000D+00
 EnCoef did   100 forward-backward iterations
 EnCoef did    15 forward-backward iterations
 Rare condition: small coef for last iteration:  0.000D+00
 EnCoef did   100 forward-backward iterations
 EnCoef did   100 forward-backward iterations
 EnCoef did    11 forward-backward iterations
 Rare condition: small coef for last iteration:  0.999D-15
 Restarting incremental Fock formation.
 EnCoef did    74 forward-backward iterations
 SCF Done:  E(RB3LYP) =  -5333.35871094     A.U. after   58 cycles
            NFock= 58  Conv=0.12D-08     -V/T= 2.0081
 SCF density gives NOpUse=  1 NOpAll=  1.
 Hyperfine terms turned off by default for NAtoms > 100.

 **********************************************************************

            Population analysis using the SCF density.

 **********************************************************************

 Orbital symmetries:
 BldTbl:  Degeneracy threshold= 1.00D-02
       Occupied  (A) (A) (A) (A) (A) (A) (A) (A) (A) (A) (A) (A)
                 (A) (A) (A) (A) (A) (A) (A) (A) (A) (A) (A) (A)
                 (A) (A) (A) (A) (A) (A) (A) (A) (A) (A) (A) (A)
                 (A) (A) (A) (A) (A) (A) (A) (A) (A) (A) (A) (A)
                 (A) (A) (A) (A) (A) (A) (A) (A) (A) (A) (A) (A)
                 (A) (A) (A) (A) (A) (A) (A) (A) (A) (A) (A) (A)
                 (A) (A) (A) (A) (A) (A) (A) (A) (A) (A) (A) (A)
                 (A) (A) (A) (A) (A) (A) (A) (A) (A) (A) (A) (A)
                 (A) (A) (A) (A) (A) (A) (A) (A) (A) (A) (A) (A)
                 (A) (A) (A) (A) (A) (A) (A) (A) (A) (A) (A) (A)
                 (A) (A) (A) (A) (A) (A) (A) (A) (A) (A) (A) (A)
                 (A) (A) (A) (A) (A) (A) (A) (A) (A) (A) (A) (A)
                 (A) (A) (A) (A) (A) (A) (A) (A) (A) (A) (A) (A)
                 (A) (A) (A) (A) (A) (A) (A) (A) (A) (A) (A) (A)
                 (A) (A) (A) (A) (A) (A) (A) (A) (A) (A) (A) (A)
                 (A) (A) (A) (A) (A) (A) (A) (A) (A) (A) (A) (A)
                 (A) (A) (A) (A) (A) (A) (A) (A) (A) (A) (A) (A)
                 (A) (A) (A) (A) (A) (A) (A) (A) (A) (A) (A) (A)
                 (A) (A) (A) (A) (A) (A) (A) (A) (A) (A) (A) (A)
                 (A) (A) (A) (A) (A) (A) (A) (A) (A) (A) (A) (A)
                 (A) (A) (A) (A) (A) (A) (A) (A) (A) (A) (A) (A)
                 (A) (A) (A) (A) (A) (A) (A) (A) (A) (A) (A) (A)
                 (A) (A) (A) (A) (A) (A) (A) (A) (A) (A) (A) (A)
                 (A) (A) (A) (A) (A) (A) (A) (A) (A) (A) (A) (A)
                 (A) (A) (A) (A) (A) (A) (A) (A) (A) (A) (A) (A)
                 (A) (A) (A) (A) (A) (A) (A) (A) (A) (A) (A) (A)
                 (A) (A) (A) (A) (A) (A) (A) (A) (A) (A) (A) (A)
                 (A) (A) (A) (A) (A) (A) (A) (A) (A) (A) (A) (A)
                 (A) (A) (A) (A) (A) (A) (A) (A) (A) (A) (A) (A)
                 (A) (A) (A) (A) (A) (A) (A) (A) (A) (A)
       Virtual   (A) (A) (A) (A) (A) (A) (A) (A) (A) (A) (A) (A)
                 (A) (A) (A) (A) (A) (A) (A) (A) (A) (A) (A) (A)
                 (A) (A) (A) (A) (A) (A) (A) (A) (A) (A) (A) (A)
                 (A) (A) (A) (A) (A) (A) (A) (A) (A) (A) (A) (A)
                 (A) (A) (A) (A) (A) (A) (A) (A) (A) (A) (A) (A)
                 (A) (A) (A) (A) (A) (A) (A) (A) (A) (A) (A) (A)
                 (A) (A) (A) (A) (A) (A) (A) (A) (A) (A) (A) (A)
                 (A) (A) (A) (A) (A) (A) (A) (A) (A) (A) (A) (A)
                 (A) (A) (A) (A) (A) (A) (A) (A) (A) (A) (A) (A)
                 (A) (A) (A) (A) (A) (A) (A) (A) (A) (A) (A) (A)
                 (A) (A) (A) (A) (A) (A) (A) (A) (A) (A) (A) (A)
                 (A) (A) (A) (A) (A) (A) (A) (A) (A) (A) (A) (A)
                 (A) (A) (A) (A) (A) (A) (A) (A) (A) (A) (A) (A)
                 (A) (A) (A) (A) (A) (A) (A) (A) (A) (A) (A) (A)
                 (A) (A) (A) (A) (A) (A) (A) (A) (A) (A) (A) (A)
                 (A) (A) (A) (A) (A) (A) (A) (A) (A) (A) (A) (A)
                 (A) (A) (A) (A) (A) (A) (A) (A) (A) (A) (A) (A)
                 (A) (A) (A) (A) (A) (A) (A) (A) (A) (A) (A) (A)
                 (A) (A) (A) (A) (A) (A) (A) (A) (A) (A) (A) (A)
                 (A) (A) (A) (A) (A) (A) (A) (A) (A) (A) (A) (A)
                 (A) (A) (A) (A) (A) (A) (A) (A) (A) (A) (A) (A)
                 (A) (A) (A) (A) (A) (A) (A) (A) (A) (A) (A) (A)
                 (A) (A) (A) (A) (A) (A) (A) (A) (A) (A) (A) (A)
                 (A) (A) (A) (A) (A) (A) (A) (A) (A) (A) (A) (A)
                 (A) (A) (A) (A) (A) (A) (A) (A) (A) (A) (A) (A)
                 (A) (A) (A) (A) (A) (A) (A) (A) (A) (A) (A) (A)
                 (A) (A) (A) (A) (A) (A) (A) (A) (A) (A) (A) (A)
                 (A) (A) (A) (A) (A) (A) (A) (A) (A) (A) (A) (A)
                 (A) (A) (A) (A) (A) (A) (A) (A) (A) (A) (A) (A)
                 (A) (A) (A) (A) (A) (A) (A) (A) (A) (A) (A) (A)
                 (A) (A) (A) (A) (A) (A) (A) (A) (A) (A) (A) (A)
                 (A) (A) (A) (A) (A) (A) (A) (A) (A) (A) (A) (A)
                 (A) (A) (A) (A) (A) (A) (A) (A) (A) (A) (A) (A)
                 (A) (A) (A) (A) (A) (A) (A) (A) (A) (A) (A) (A)
                 (A) (A) (A) (A) (A) (A) (A) (A) (A) (A) (A) (A)
                 (A) (A) (A) (A) (A) (A) (A) (A) (A) (A) (A) (A)
                 (A) (A) (A) (A) (A) (A) (A) (A) (A) (A) (A) (A)
                 (A) (A) (A) (A) (A) (A) (A) (A) (A) (A) (A) (A)
                 (A) (A) (A) (A) (A) (A) (A) (A) (A) (A) (A) (A)
                 (A) (A) (A) (A) (A) (A) (A) (A) (A) (A) (A) (A)
                 (A) (A) (A) (A) (A) (A) (A) (A) (A) (A) (A) (A)
                 (A) (A) (A) (A) (A) (A) (A) (A) (A) (A) (A) (A)
                 (A) (A) (A) (A) (A) (A) (A) (A) (A) (A) (A) (A)
                 (A) (A) (A) (A) (A) (A) (A) (A) (A) (A) (A) (A)
                 (A) (A) (A) (A) (A) (A) (A) (A) (A) (A) (A) (A)
                 (A) (A) (A) (A) (A) (A) (A) (A) (A) (A) (A) (A)
                 (A) (A) (A) (A) (A) (A) (A) (A) (A) (A) (A) (A)
                 (A) (A) (A) (A) (A) (A) (A) (A) (A) (A) (A) (A)
                 (A) (A) (A) (A) (A) (A) (A) (A) (A) (A) (A) (A)
                 (A) (A) (A) (A) (A) (A) (A) (A) (A) (A) (A) (A)
                 (A) (A) (A) (A) (A) (A) (A) (A) (A) (A) (A) (A)
                 (A) (A) (A) (A) (A) (A) (A) (A) (A) (A) (A) (A)
                 (A) (A) (A) (A) (A) (A) (A) (A) (A) (A) (A) (A)
                 (A) (A) (A) (A) (A) (A) (A) (A) (A) (A) (A) (A)
                 (A) (A) (A) (A) (A) (A) (A) (A) (A) (A) (A) (A)
                 (A) (A) (A) (A) (A) (A) (A) (A) (A) (A) (A) (A)
                 (A) (A) (A) (A) (A) (A) (A) (A) (A) (A) (A) (A)
                 (A) (A) (A) (A) (A) (A) (A) (A) (A) (A) (A) (A)
                 (A) (A) (A) (A) (A) (A) (A) (A) (A) (A) (A) (A)
                 (A) (A) (A) (A) (A) (A) (A) (A) (A) (A) (A) (A)
                 (A) (A) (A) (A) (A) (A) (A) (A) (A) (A) (A) (A)
                 (A) (A) (A) (A) (A) (A) (A) (A) (A) (A) (A) (A)
                 (A) (A) (A) (A) (A) (A) (A) (A) (A) (A) (A) (A)
                 (A) (A) (A) (A) (A) (A) (A) (A) (A) (A) (A) (A)
                 (A) (A) (A) (A) (A) (A) (A) (A) (A) (A) (A) (A)
                 (A) (A) (A) (A) (A) (A) (A) (A) (A) (A) (A) (A)
                 (A) (A) (A) (A) (A) (A) (A) (A) (A) (A) (A) (A)
                 (A) (A) (A) (A) (A) (A) (A) (A) (A) (A) (A) (A)
                 (A) (A) (A) (A) (A) (A) (A) (A) (A) (A) (A) (A)
                 (A) (A) (A) (A) (A) (A) (A) (A) (A) (A) (A) (A)
                 (A) (A) (A) (A) (A) (A) (A) (A) (A) (A) (A) (A)
                 (A) (A) (A) (A) (A) (A) (A) (A) (A) (A) (A) (A)
                 (A) (A) (A) (A) (A) (A) (A) (A) (A) (A) (A) (A)
                 (A) (A) (A) (A) (A) (A) (A) (A) (A) (A) (A) (A)
                 (A) (A) (A) (A) (A) (A) (A) (A) (A) (A) (A) (A)
                 (A) (A) (A) (A) (A) (A) (A) (A) (A) (A) (A) (A)
                 (A) (A) (A) (A) (A) (A) (A) (A) (A) (A) (A) (A)
                 (A) (A) (A) (A) (A) (A) (A) (A) (A) (A) (A) (A)
                 (A) (A) (A) (A) (A) (A) (A) (A) (A) (A) (A) (A)
                 (A) (A) (A) (A) (A) (A) (A) (A) (A) (A) (A) (A)
                 (A) (A) (A) (A) (A) (A) (A) (A) (A) (A) (A) (A)
                 (A) (A) (A) (A) (A) (A) (A) (A) (A) (A) (A) (A)
                 (A) (A) (A) (A) (A) (A) (A) (A) (A) (A) (A) (A)
                 (A) (A) (A) (A) (A) (A) (A) (A) (A) (A) (A) (A)
                 (A) (A) (A) (A) (A) (A) (A) (A) (A) (A) (A) (A)
                 (A) (A) (A) (A) (A) (A) (A) (A) (A) (A) (A) (A)
                 (A) (A) (A) (A) (A) (A) (A) (A) (A) (A) (A) (A)
                 (A) (A) (A) (A) (A) (A) (A) (A) (A) (A) (A) (A)
                 (A) (A) (A) (A) (A) (A) (A) (A) (A) (A) (A) (A)
                 (A) (A) (A) (A) (A) (A) (A) (A) (A) (A) (A) (A)
                 (A) (A) (A) (A) (A) (A) (A) (A) (A) (A) (A) (A)
                 (A) (A) (A) (A) (A) (A) (A) (A) (A) (A) (A) (A)
                 (A) (A) (A) (A) (A) (A) (A) (A) (A) (A) (A) (A)
                 (A) (A) (A) (A) (A) (A) (A) (A) (A) (A) (A) (A)
                 (A) (A) (A) (A) (A) (A) (A) (A) (A) (A) (A) (A)
                 (A) (A) (A) (A) (A) (A) (A) (A) (A) (A) (A) (A)
                 (A) (A) (A) (A) (A) (A) (A) (A) (A) (A) (A) (A)
                 (A) (A) (A) (A) (A) (A) (A) (A) (A) (A) (A) (A)
                 (A) (A) (A) (A) (A) (A) (A) (A) (A) (A) (A) (A)
                 (A) (A) (A) (A) (A) (A) (A) (A) (A) (A) (A) (A)
                 (A) (A) (A) (A) (A) (A) (A) (A) (A) (A) (A) (A)
                 (A) (A) (A) (A) (A) (A) (A) (A) (A) (A) (A) (A)
                 (A) (A) (A) (A) (A) (A) (A) (A) (A) (A) (A) (A)
                 (A) (A) (A) (A) (A) (A) (A) (A) (A) (A) (A) (A)
                 (A) (A) (A) (A) (A) (A) (A) (A) (A) (A) (A) (A)
                 (A) (A) (A) (A) (A) (A) (A) (A) (A) (A) (A) (A)
                 (A) (A) (A) (A) (A) (A) (A) (A) (A) (A) (A) (A)
                 (A) (A) (A) (A) (A) (A) (A) (A) (A) (A) (A) (A)
                 (A) (A) (A) (A) (A) (A) (A) (A) (A) (A) (A) (A)
                 (A) (A) (A) (A) (A) (A) (A) (A) (A) (A) (A) (A)
                 (A) (A) (A) (A) (A) (A) (A) (A) (A) (A) (A) (A)
                 (A) (A) (A) (A) (A) (A) (A) (A) (A) (A) (A) (A)
                 (A) (A) (A) (A) (A) (A) (A) (A) (A) (A) (A) (A)
                 (A) (A) (A)
 The electronic state is 1-A.
 Alpha  occ. eigenvalues -- -145.46388 -19.21472 -19.15224 -19.14518 -19.14424
 Alpha  occ. eigenvalues --  -19.14019 -19.11945 -19.10419 -19.10401 -19.10313
 Alpha  occ. eigenvalues --  -19.10027 -19.09855 -19.09390 -19.09137 -19.08316
 Alpha  occ. eigenvalues --  -19.08096 -19.08051 -19.07878 -19.07782 -19.07337
 Alpha  occ. eigenvalues --  -19.06779 -19.06053 -18.97111 -18.97095 -15.52250
 Alpha  occ. eigenvalues --  -14.56500 -14.40390 -14.40148 -14.38765 -14.38223
 Alpha  occ. eigenvalues --  -14.36487 -14.35656 -14.35013 -14.34989 -14.34926
 Alpha  occ. eigenvalues --  -14.34441 -14.34017 -14.33993 -14.33711 -14.31770
 Alpha  occ. eigenvalues --  -12.65857 -12.65814 -12.65788 -10.35207 -10.33072
 Alpha  occ. eigenvalues --  -10.32881 -10.31809 -10.30800 -10.29353 -10.29115
 Alpha  occ. eigenvalues --  -10.28968 -10.28674 -10.28480 -10.27985 -10.27880
 Alpha  occ. eigenvalues --  -10.27412 -10.27269 -10.27263 -10.26946 -10.26785
 Alpha  occ. eigenvalues --  -10.26725 -10.26161 -10.25607 -10.25604 -10.25515
 Alpha  occ. eigenvalues --  -10.25329 -10.24479 -10.24454 -10.24346 -10.24049
 Alpha  occ. eigenvalues --  -10.23207 -10.22927 -10.22584 -10.22535 -10.22085
 Alpha  occ. eigenvalues --  -10.21230 -10.20985 -10.20866 -10.20849 -10.20705
 Alpha  occ. eigenvalues --  -10.20270 -10.20114 -10.19073 -10.18755 -10.18282
 Alpha  occ. eigenvalues --  -10.17861 -10.17687 -10.17497 -10.17391 -10.16515
 Alpha  occ. eigenvalues --  -10.16317 -10.16219 -10.14748 -10.14553 -10.14373
 Alpha  occ. eigenvalues --  -10.13763 -10.10999  -1.88942  -1.16451  -1.16128
 Alpha  occ. eigenvalues --   -1.15974  -1.12641  -1.07781  -1.06927  -1.06907
 Alpha  occ. eigenvalues --   -1.06620  -1.05083  -1.04944  -1.03936  -1.03427
 Alpha  occ. eigenvalues --   -1.03326  -1.03269  -1.02979  -1.02017  -1.01840
 Alpha  occ. eigenvalues --   -1.01383  -1.01172  -1.00362  -1.00147  -0.99440
 Alpha  occ. eigenvalues --   -0.98002  -0.97618  -0.96662  -0.95591  -0.95050
 Alpha  occ. eigenvalues --   -0.94794  -0.92837  -0.92588  -0.92350  -0.91865
 Alpha  occ. eigenvalues --   -0.91475  -0.91271  -0.90942  -0.90903  -0.90587
 Alpha  occ. eigenvalues --   -0.89749  -0.89657  -0.89308  -0.89027  -0.84873
 Alpha  occ. eigenvalues --   -0.84303  -0.81901  -0.81228  -0.80455  -0.79969
 Alpha  occ. eigenvalues --   -0.79714  -0.78389  -0.78186  -0.76939  -0.76806
 Alpha  occ. eigenvalues --   -0.75955  -0.75352  -0.74975  -0.74022  -0.73497
 Alpha  occ. eigenvalues --   -0.73257  -0.73165  -0.72347  -0.71078  -0.70694
 Alpha  occ. eigenvalues --   -0.70196  -0.70074  -0.69216  -0.68595  -0.68391
 Alpha  occ. eigenvalues --   -0.67199  -0.66319  -0.65858  -0.65576  -0.65444
 Alpha  occ. eigenvalues --   -0.65393  -0.64995  -0.63756  -0.63122  -0.62686
 Alpha  occ. eigenvalues --   -0.61991  -0.61548  -0.61445  -0.61425  -0.60446
 Alpha  occ. eigenvalues --   -0.60273  -0.60136  -0.60039  -0.59475  -0.59205
 Alpha  occ. eigenvalues --   -0.58647  -0.58387  -0.58308  -0.58121  -0.57600
 Alpha  occ. eigenvalues --   -0.56904  -0.56716  -0.56203  -0.56193  -0.56029
 Alpha  occ. eigenvalues --   -0.55564  -0.54885  -0.54591  -0.54293  -0.54104
 Alpha  occ. eigenvalues --   -0.54030  -0.53897  -0.53698  -0.53157  -0.52532
 Alpha  occ. eigenvalues --   -0.52500  -0.52220  -0.52012  -0.51557  -0.51318
 Alpha  occ. eigenvalues --   -0.50891  -0.50725  -0.50681  -0.50338  -0.49781
 Alpha  occ. eigenvalues --   -0.49729  -0.49452  -0.49392  -0.48813  -0.48649
 Alpha  occ. eigenvalues --   -0.48228  -0.47933  -0.47877  -0.47535  -0.47300
 Alpha  occ. eigenvalues --   -0.47265  -0.47154  -0.47041  -0.46660  -0.46464
 Alpha  occ. eigenvalues --   -0.46455  -0.46160  -0.45877  -0.45581  -0.45469
 Alpha  occ. eigenvalues --   -0.45330  -0.45100  -0.44790  -0.44657  -0.44534
 Alpha  occ. eigenvalues --   -0.44502  -0.44467  -0.44349  -0.44294  -0.44071
 Alpha  occ. eigenvalues --   -0.43904  -0.43669  -0.43544  -0.43530  -0.43422
 Alpha  occ. eigenvalues --   -0.43147  -0.42840  -0.42728  -0.42661  -0.42098
 Alpha  occ. eigenvalues --   -0.41880  -0.41854  -0.41766  -0.41594  -0.41316
 Alpha  occ. eigenvalues --   -0.41271  -0.41102  -0.40958  -0.40734  -0.40512
 Alpha  occ. eigenvalues --   -0.40338  -0.40268  -0.40218  -0.40210  -0.40074
 Alpha  occ. eigenvalues --   -0.39945  -0.39830  -0.39659  -0.39501  -0.39164
 Alpha  occ. eigenvalues --   -0.38974  -0.38925  -0.38905  -0.38729  -0.38504
 Alpha  occ. eigenvalues --   -0.38353  -0.38208  -0.38176  -0.38161  -0.37812
 Alpha  occ. eigenvalues --   -0.37784  -0.37557  -0.37482  -0.37410  -0.37362
 Alpha  occ. eigenvalues --   -0.36817  -0.36690  -0.36491  -0.36352  -0.36322
 Alpha  occ. eigenvalues --   -0.35728  -0.35621  -0.35562  -0.35477  -0.35257
 Alpha  occ. eigenvalues --   -0.34907  -0.34622  -0.34587  -0.34215  -0.33896
 Alpha  occ. eigenvalues --   -0.33740  -0.33370  -0.33158  -0.33028  -0.32222
 Alpha  occ. eigenvalues --   -0.32009  -0.31693  -0.31554  -0.30839  -0.30538
 Alpha  occ. eigenvalues --   -0.30220  -0.30081  -0.29772  -0.29720  -0.29537
 Alpha  occ. eigenvalues --   -0.29422  -0.29073  -0.28605  -0.28268  -0.27875
 Alpha  occ. eigenvalues --   -0.27846  -0.27575  -0.27368  -0.27311  -0.27272
 Alpha  occ. eigenvalues --   -0.27184  -0.27076  -0.26829  -0.26526  -0.26110
 Alpha  occ. eigenvalues --   -0.25854  -0.25810  -0.25692  -0.25556  -0.25492
 Alpha  occ. eigenvalues --   -0.25121  -0.24877  -0.24590  -0.24166  -0.24022
 Alpha  occ. eigenvalues --   -0.23689  -0.23582  -0.23554  -0.23253  -0.23193
 Alpha  occ. eigenvalues --   -0.22437  -0.22068  -0.21955  -0.21722  -0.21447
 Alpha  occ. eigenvalues --   -0.14233  -0.14111  -0.11095
 Alpha virt. eigenvalues --   -0.10598  -0.09102  -0.04850  -0.04417  -0.04122
 Alpha virt. eigenvalues --   -0.02517  -0.02197  -0.01532  -0.01443  -0.01169
 Alpha virt. eigenvalues --   -0.00834  -0.00025   0.00578   0.00602   0.01119
 Alpha virt. eigenvalues --    0.01211   0.01277   0.01551   0.01642   0.01909
 Alpha virt. eigenvalues --    0.02217   0.02514   0.02651   0.02886   0.02898
 Alpha virt. eigenvalues --    0.02974   0.03044   0.03718   0.03881   0.04199
 Alpha virt. eigenvalues --    0.04238   0.04613   0.04836   0.05029   0.05085
 Alpha virt. eigenvalues --    0.05367   0.05373   0.05394   0.05417   0.05877
 Alpha virt. eigenvalues --    0.06593   0.06748   0.07159   0.07378   0.07707
 Alpha virt. eigenvalues --    0.07829   0.08327   0.08362   0.08509   0.08811
 Alpha virt. eigenvalues --    0.08830   0.09201   0.09299   0.09421   0.09449
 Alpha virt. eigenvalues --    0.09705   0.09894   0.10062   0.10396   0.10556
 Alpha virt. eigenvalues --    0.10707   0.10978   0.11094   0.11345   0.11609
 Alpha virt. eigenvalues --    0.11770   0.12106   0.12186   0.12349   0.12481
 Alpha virt. eigenvalues --    0.12658   0.12943   0.13023   0.13197   0.13316
 Alpha virt. eigenvalues --    0.13639   0.13847   0.14084   0.14193   0.14238
 Alpha virt. eigenvalues --    0.14518   0.14563   0.14857   0.14916   0.15144
 Alpha virt. eigenvalues --    0.15219   0.15288   0.15512   0.15624   0.15841
 Alpha virt. eigenvalues --    0.15855   0.16053   0.16115   0.16146   0.16249
 Alpha virt. eigenvalues --    0.16415   0.16576   0.16707   0.16815   0.16898
 Alpha virt. eigenvalues --    0.17046   0.17436   0.17536   0.17646   0.17740
 Alpha virt. eigenvalues --    0.17885   0.18096   0.18443   0.18600   0.18803
 Alpha virt. eigenvalues --    0.19024   0.19366   0.19516   0.19834   0.20312
 Alpha virt. eigenvalues --    0.20681   0.20838   0.21065   0.21256   0.21387
 Alpha virt. eigenvalues --    0.21610   0.21754   0.21787   0.22315   0.22493
 Alpha virt. eigenvalues --    0.22759   0.22923   0.23136   0.23241   0.23266
 Alpha virt. eigenvalues --    0.23763   0.23913   0.23992   0.24160   0.24407
 Alpha virt. eigenvalues --    0.24739   0.24798   0.25119   0.25414   0.25693
 Alpha virt. eigenvalues --    0.25931   0.26409   0.26595   0.26673   0.26862
 Alpha virt. eigenvalues --    0.27182   0.27256   0.27470   0.28076   0.28152
 Alpha virt. eigenvalues --    0.28246   0.28322   0.28493   0.28723   0.28980
 Alpha virt. eigenvalues --    0.29301   0.29513   0.29847   0.29919   0.30091
 Alpha virt. eigenvalues --    0.30287   0.30468   0.30884   0.31127   0.31168
 Alpha virt. eigenvalues --    0.31520   0.31786   0.32083   0.32412   0.32622
 Alpha virt. eigenvalues --    0.32751   0.33011   0.33322   0.33351   0.33442
 Alpha virt. eigenvalues --    0.33721   0.34131   0.34165   0.34443   0.34745
 Alpha virt. eigenvalues --    0.35389   0.35593   0.35744   0.36001   0.36100
 Alpha virt. eigenvalues --    0.36458   0.36976   0.37123   0.37260   0.37525
 Alpha virt. eigenvalues --    0.37948   0.37954   0.38049   0.38127   0.39510
 Alpha virt. eigenvalues --    0.39611   0.39786   0.40368   0.40527   0.41277
 Alpha virt. eigenvalues --    0.41293   0.41470   0.41849   0.42297   0.42358
 Alpha virt. eigenvalues --    0.42383   0.42574   0.42744   0.43031   0.43215
 Alpha virt. eigenvalues --    0.43427   0.43458   0.44009   0.44024   0.44346
 Alpha virt. eigenvalues --    0.44585   0.44806   0.44994   0.45072   0.45305
 Alpha virt. eigenvalues --    0.45416   0.45488   0.45574   0.45810   0.45997
 Alpha virt. eigenvalues --    0.46260   0.46330   0.46389   0.46529   0.46869
 Alpha virt. eigenvalues --    0.47047   0.47247   0.47558   0.47879   0.48127
 Alpha virt. eigenvalues --    0.48428   0.48658   0.48708   0.48847   0.48956
 Alpha virt. eigenvalues --    0.49142   0.49437   0.49533   0.49897   0.50137
 Alpha virt. eigenvalues --    0.50179   0.50338   0.50510   0.51010   0.51099
 Alpha virt. eigenvalues --    0.51162   0.51468   0.51516   0.51671   0.51815
 Alpha virt. eigenvalues --    0.52225   0.52663   0.52742   0.52851   0.53033
 Alpha virt. eigenvalues --    0.53142   0.53370   0.53494   0.53647   0.53828
 Alpha virt. eigenvalues --    0.53947   0.54039   0.54143   0.54241   0.54318
 Alpha virt. eigenvalues --    0.54535   0.54834   0.55112   0.55216   0.55356
 Alpha virt. eigenvalues --    0.55760   0.55993   0.56216   0.56453   0.56869
 Alpha virt. eigenvalues --    0.56893   0.57091   0.57128   0.57447   0.57495
 Alpha virt. eigenvalues --    0.57624   0.57700   0.57905   0.58341   0.58508
 Alpha virt. eigenvalues --    0.58559   0.58629   0.58766   0.58806   0.59127
 Alpha virt. eigenvalues --    0.59278   0.59435   0.59619   0.59915   0.60100
 Alpha virt. eigenvalues --    0.60172   0.60319   0.60468   0.60501   0.60597
 Alpha virt. eigenvalues --    0.60862   0.60948   0.61045   0.61223   0.61423
 Alpha virt. eigenvalues --    0.61454   0.61457   0.61568   0.61839   0.61937
 Alpha virt. eigenvalues --    0.62058   0.62149   0.62329   0.62446   0.62562
 Alpha virt. eigenvalues --    0.62667   0.62739   0.62778   0.63075   0.63231
 Alpha virt. eigenvalues --    0.63366   0.63573   0.63797   0.63851   0.64026
 Alpha virt. eigenvalues --    0.64081   0.64135   0.64370   0.64530   0.64608
 Alpha virt. eigenvalues --    0.64651   0.64798   0.64880   0.64977   0.65077
 Alpha virt. eigenvalues --    0.65097   0.65177   0.65343   0.65518   0.65700
 Alpha virt. eigenvalues --    0.65891   0.65945   0.66015   0.66115   0.66199
 Alpha virt. eigenvalues --    0.66398   0.66500   0.66640   0.66788   0.66804
 Alpha virt. eigenvalues --    0.66938   0.67136   0.67251   0.67359   0.67485
 Alpha virt. eigenvalues --    0.67512   0.67720   0.67791   0.67999   0.68082
 Alpha virt. eigenvalues --    0.68213   0.68313   0.68519   0.68565   0.68601
 Alpha virt. eigenvalues --    0.68784   0.68874   0.68942   0.69054   0.69244
 Alpha virt. eigenvalues --    0.69440   0.69612   0.69666   0.69836   0.69978
 Alpha virt. eigenvalues --    0.70130   0.70231   0.70450   0.70472   0.70620
 Alpha virt. eigenvalues --    0.70894   0.71073   0.71182   0.71206   0.71345
 Alpha virt. eigenvalues --    0.71407   0.71473   0.71688   0.71731   0.71838
 Alpha virt. eigenvalues --    0.71875   0.72136   0.72256   0.72701   0.72955
 Alpha virt. eigenvalues --    0.73219   0.73316   0.73549   0.73618   0.73724
 Alpha virt. eigenvalues --    0.73775   0.73932   0.74074   0.74149   0.74550
 Alpha virt. eigenvalues --    0.74684   0.74732   0.74904   0.75044   0.75161
 Alpha virt. eigenvalues --    0.75356   0.75503   0.75827   0.75963   0.76220
 Alpha virt. eigenvalues --    0.76367   0.76657   0.76786   0.77152   0.77238
 Alpha virt. eigenvalues --    0.77302   0.77975   0.78092   0.78151   0.78457
 Alpha virt. eigenvalues --    0.78553   0.78781   0.79141   0.79521   0.79745
 Alpha virt. eigenvalues --    0.79894   0.80064   0.80280   0.80499   0.80801
 Alpha virt. eigenvalues --    0.81171   0.81382   0.81659   0.82008   0.82151
 Alpha virt. eigenvalues --    0.82434   0.82836   0.83063   0.83109   0.83599
 Alpha virt. eigenvalues --    0.83678   0.83773   0.84224   0.84308   0.84706
 Alpha virt. eigenvalues --    0.85063   0.85198   0.85246   0.85441   0.85827
 Alpha virt. eigenvalues --    0.85918   0.86311   0.86702   0.86943   0.87078
 Alpha virt. eigenvalues --    0.87211   0.87740   0.88310   0.88392   0.88679
 Alpha virt. eigenvalues --    0.88865   0.89262   0.89532   0.89756   0.89905
 Alpha virt. eigenvalues --    0.90178   0.90426   0.90981   0.91509   0.91592
 Alpha virt. eigenvalues --    0.92162   0.92274   0.92353   0.92750   0.92835
 Alpha virt. eigenvalues --    0.92911   0.93543   0.93634   0.93784   0.93837
 Alpha virt. eigenvalues --    0.94198   0.94401   0.94703   0.95238   0.95278
 Alpha virt. eigenvalues --    0.95666   0.95953   0.96388   0.96627   0.96760
 Alpha virt. eigenvalues --    0.97138   0.97444   0.97483   0.97559   0.98021
 Alpha virt. eigenvalues --    0.98263   0.98506   0.98746   0.99000   0.99287
 Alpha virt. eigenvalues --    0.99641   0.99780   0.99990   1.00144   1.00189
 Alpha virt. eigenvalues --    1.00317   1.00728   1.01582   1.01870   1.01934
 Alpha virt. eigenvalues --    1.02055   1.02515   1.02883   1.02905   1.03272
 Alpha virt. eigenvalues --    1.03965   1.04047   1.04171   1.04379   1.04811
 Alpha virt. eigenvalues --    1.05456   1.05626   1.05794   1.06096   1.06261
 Alpha virt. eigenvalues --    1.06827   1.06843   1.07263   1.07462   1.07701
 Alpha virt. eigenvalues --    1.07986   1.08166   1.08543   1.08727   1.09213
 Alpha virt. eigenvalues --    1.09451   1.09781   1.10233   1.10522   1.10635
 Alpha virt. eigenvalues --    1.11120   1.11302   1.11447   1.11541   1.12069
 Alpha virt. eigenvalues --    1.12523   1.12622   1.12945   1.13455   1.13730
 Alpha virt. eigenvalues --    1.13762   1.14023   1.14407   1.14600   1.14791
 Alpha virt. eigenvalues --    1.14858   1.15139   1.15538   1.15676   1.16113
 Alpha virt. eigenvalues --    1.16211   1.16587   1.16698   1.17176   1.17409
 Alpha virt. eigenvalues --    1.17619   1.18020   1.18224   1.18515   1.18827
 Alpha virt. eigenvalues --    1.18919   1.19100   1.19711   1.20001   1.20268
 Alpha virt. eigenvalues --    1.20383   1.20882   1.21150   1.21286   1.21473
 Alpha virt. eigenvalues --    1.21749   1.22084   1.22373   1.22590   1.22739
 Alpha virt. eigenvalues --    1.23141   1.23469   1.23569   1.23921   1.24420
 Alpha virt. eigenvalues --    1.24554   1.24744   1.25192   1.25555   1.25869
 Alpha virt. eigenvalues --    1.26215   1.26705   1.26718   1.26881   1.27196
 Alpha virt. eigenvalues --    1.27335   1.27668   1.27691   1.27989   1.28057
 Alpha virt. eigenvalues --    1.28380   1.28520   1.28741   1.29231   1.29295
 Alpha virt. eigenvalues --    1.29873   1.30044   1.30219   1.30592   1.30906
 Alpha virt. eigenvalues --    1.31152   1.31343   1.31658   1.31879   1.32224
 Alpha virt. eigenvalues --    1.32568   1.32950   1.33267   1.33418   1.33481
 Alpha virt. eigenvalues --    1.33930   1.34512   1.34547   1.34826   1.35132
 Alpha virt. eigenvalues --    1.35449   1.35520   1.36145   1.36213   1.36557
 Alpha virt. eigenvalues --    1.36732   1.36804   1.36985   1.37666   1.38134
 Alpha virt. eigenvalues --    1.38526   1.38779   1.38901   1.39735   1.39823
 Alpha virt. eigenvalues --    1.40058   1.40373   1.40925   1.41211   1.41477
 Alpha virt. eigenvalues --    1.41861   1.42271   1.42357   1.42881   1.43133
 Alpha virt. eigenvalues --    1.43307   1.44221   1.44319   1.44620   1.44924
 Alpha virt. eigenvalues --    1.45088   1.45368   1.45613   1.45712   1.45862
 Alpha virt. eigenvalues --    1.45975   1.46306   1.46712   1.46937   1.47086
 Alpha virt. eigenvalues --    1.47582   1.47766   1.47836   1.48317   1.49107
 Alpha virt. eigenvalues --    1.49414   1.49589   1.49659   1.50162   1.50873
 Alpha virt. eigenvalues --    1.51206   1.51417   1.51902   1.52234   1.52432
 Alpha virt. eigenvalues --    1.52811   1.53261   1.53516   1.53733   1.54000
 Alpha virt. eigenvalues --    1.54280   1.54634   1.54981   1.55133   1.55331
 Alpha virt. eigenvalues --    1.55709   1.55900   1.56288   1.57136   1.57697
 Alpha virt. eigenvalues --    1.57780   1.58065   1.58174   1.58493   1.58881
 Alpha virt. eigenvalues --    1.59020   1.59464   1.59585   1.59767   1.60504
 Alpha virt. eigenvalues --    1.60648   1.60869   1.61031   1.61444   1.62047
 Alpha virt. eigenvalues --    1.62142   1.62682   1.62924   1.63257   1.63471
 Alpha virt. eigenvalues --    1.63714   1.63951   1.64143   1.64167   1.64637
 Alpha virt. eigenvalues --    1.64997   1.65738   1.66307   1.66507   1.66794
 Alpha virt. eigenvalues --    1.66925   1.67034   1.67319   1.67459   1.67512
 Alpha virt. eigenvalues --    1.67835   1.68346   1.69150   1.69212   1.69422
 Alpha virt. eigenvalues --    1.69602   1.69628   1.70123   1.70316   1.70565
 Alpha virt. eigenvalues --    1.70634   1.71373   1.71560   1.71898   1.71935
 Alpha virt. eigenvalues --    1.71984   1.72228   1.72458   1.72486   1.72660
 Alpha virt. eigenvalues --    1.72707   1.72736   1.72966   1.73116   1.73234
 Alpha virt. eigenvalues --    1.73928   1.74017   1.74308   1.74726   1.74779
 Alpha virt. eigenvalues --    1.75030   1.75115   1.75350   1.75461   1.75821
 Alpha virt. eigenvalues --    1.76145   1.76334   1.76504   1.76791   1.76905
 Alpha virt. eigenvalues --    1.76920   1.77175   1.77212   1.77420   1.77702
 Alpha virt. eigenvalues --    1.77815   1.78091   1.78326   1.78438   1.78774
 Alpha virt. eigenvalues --    1.78912   1.79100   1.79265   1.79396   1.79533
 Alpha virt. eigenvalues --    1.79586   1.79751   1.79881   1.80166   1.80215
 Alpha virt. eigenvalues --    1.80674   1.80728   1.80820   1.80976   1.81139
 Alpha virt. eigenvalues --    1.81342   1.81631   1.81752   1.82171   1.82260
 Alpha virt. eigenvalues --    1.82334   1.82540   1.82732   1.83044   1.83255
 Alpha virt. eigenvalues --    1.83432   1.83487   1.83645   1.83753   1.83850
 Alpha virt. eigenvalues --    1.84111   1.84196   1.84336   1.84435   1.85004
 Alpha virt. eigenvalues --    1.85089   1.85291   1.85498   1.85549   1.85784
 Alpha virt. eigenvalues --    1.85929   1.86108   1.86357   1.86756   1.86775
 Alpha virt. eigenvalues --    1.86977   1.87324   1.87395   1.87575   1.87648
 Alpha virt. eigenvalues --    1.87792   1.87934   1.88402   1.88571   1.89198
 Alpha virt. eigenvalues --    1.89307   1.89758   1.89770   1.89982   1.90095
 Alpha virt. eigenvalues --    1.90228   1.90388   1.90493   1.90871   1.90953
 Alpha virt. eigenvalues --    1.91281   1.91285   1.91419   1.91633   1.91812
 Alpha virt. eigenvalues --    1.91966   1.92117   1.92450   1.92505   1.92592
 Alpha virt. eigenvalues --    1.92715   1.92798   1.93040   1.93534   1.93646
 Alpha virt. eigenvalues --    1.93742   1.93965   1.94077   1.94256   1.94267
 Alpha virt. eigenvalues --    1.94582   1.94800   1.95105   1.95269   1.95491
 Alpha virt. eigenvalues --    1.95701   1.96295   1.96397   1.96491   1.96583
 Alpha virt. eigenvalues --    1.96620   1.96952   1.97183   1.97550   1.97951
 Alpha virt. eigenvalues --    1.98206   1.98554   1.98747   1.98929   1.99047
 Alpha virt. eigenvalues --    1.99278   1.99776   2.00516   2.00725   2.00786
 Alpha virt. eigenvalues --    2.01001   2.01212   2.01289   2.01498   2.01598
 Alpha virt. eigenvalues --    2.02094   2.02300   2.02437   2.02572   2.02978
 Alpha virt. eigenvalues --    2.03130   2.03571   2.03934   2.04101   2.04513
 Alpha virt. eigenvalues --    2.04758   2.05160   2.05407   2.05738   2.05891
 Alpha virt. eigenvalues --    2.05999   2.06340   2.06419   2.06482   2.06845
 Alpha virt. eigenvalues --    2.07245   2.07423   2.07987   2.08080   2.08325
 Alpha virt. eigenvalues --    2.08384   2.08800   2.09034   2.09591   2.09631
 Alpha virt. eigenvalues --    2.09817   2.09939   2.10238   2.10446   2.10654
 Alpha virt. eigenvalues --    2.10702   2.11000   2.11579   2.11861   2.12015
 Alpha virt. eigenvalues --    2.12312   2.12681   2.13189   2.13364   2.13457
 Alpha virt. eigenvalues --    2.13572   2.13811   2.14181   2.14501   2.14720
 Alpha virt. eigenvalues --    2.14914   2.15214   2.15352   2.15739   2.16039
 Alpha virt. eigenvalues --    2.16248   2.16468   2.16792   2.17222   2.17652
 Alpha virt. eigenvalues --    2.18049   2.18457   2.18570   2.18733   2.18916
 Alpha virt. eigenvalues --    2.19034   2.19065   2.19586   2.19886   2.19974
 Alpha virt. eigenvalues --    2.20266   2.20497   2.21555   2.21695   2.22283
 Alpha virt. eigenvalues --    2.22618   2.22753   2.22932   2.23480   2.24139
 Alpha virt. eigenvalues --    2.24443   2.24568   2.24721   2.25163   2.25420
 Alpha virt. eigenvalues --    2.25867   2.25919   2.26392   2.26755   2.27599
 Alpha virt. eigenvalues --    2.28235   2.28571   2.28786   2.28846   2.29174
 Alpha virt. eigenvalues --    2.29626   2.29681   2.29826   2.30167   2.30458
 Alpha virt. eigenvalues --    2.30903   2.31338   2.31448   2.31678   2.32561
 Alpha virt. eigenvalues --    2.32737   2.33019   2.33211   2.33356   2.33489
 Alpha virt. eigenvalues --    2.34037   2.34146   2.34349   2.34355   2.35468
 Alpha virt. eigenvalues --    2.35688   2.36132   2.36690   2.36759   2.37048
 Alpha virt. eigenvalues --    2.37428   2.37601   2.37896   2.38514   2.38867
 Alpha virt. eigenvalues --    2.39130   2.39729   2.39943   2.39998   2.40217
 Alpha virt. eigenvalues --    2.40685   2.40989   2.41259   2.41921   2.42104
 Alpha virt. eigenvalues --    2.42393   2.42540   2.43714   2.43951   2.44306
 Alpha virt. eigenvalues --    2.44923   2.45221   2.45842   2.45939   2.46229
 Alpha virt. eigenvalues --    2.46617   2.46810   2.47140   2.47253   2.47834
 Alpha virt. eigenvalues --    2.47995   2.48369   2.48613   2.48804   2.49093
 Alpha virt. eigenvalues --    2.49210   2.49758   2.50027   2.50397   2.50444
 Alpha virt. eigenvalues --    2.51110   2.52170   2.52283   2.52877   2.53113
 Alpha virt. eigenvalues --    2.53479   2.53562   2.53801   2.54006   2.54579
 Alpha virt. eigenvalues --    2.55191   2.55646   2.55893   2.56110   2.56542
 Alpha virt. eigenvalues --    2.56614   2.57327   2.57536   2.57780   2.58136
 Alpha virt. eigenvalues --    2.58406   2.58602   2.58622   2.59174   2.59683
 Alpha virt. eigenvalues --    2.60283   2.60340   2.60459   2.60946   2.61194
 Alpha virt. eigenvalues --    2.61463   2.61568   2.61650   2.62003   2.62204
 Alpha virt. eigenvalues --    2.62537   2.62776   2.63012   2.63066   2.63284
 Alpha virt. eigenvalues --    2.63343   2.63384   2.64177   2.64452   2.64675
 Alpha virt. eigenvalues --    2.64825   2.64884   2.66058   2.66632   2.67678
 Alpha virt. eigenvalues --    2.67714   2.67979   2.68171   2.68175   2.68411
 Alpha virt. eigenvalues --    2.68518   2.68557   2.68956   2.68974   2.69160
 Alpha virt. eigenvalues --    2.69433   2.69689   2.69853   2.70080   2.70466
 Alpha virt. eigenvalues --    2.70808   2.71019   2.71105   2.71135   2.71362
 Alpha virt. eigenvalues --    2.71607   2.71989   2.72697   2.72978   2.73095
 Alpha virt. eigenvalues --    2.73451   2.73644   2.74463   2.74590   2.74949
 Alpha virt. eigenvalues --    2.75010   2.75268   2.75965   2.76080   2.76721
 Alpha virt. eigenvalues --    2.76912   2.77154   2.77613   2.77693   2.78042
 Alpha virt. eigenvalues --    2.78149   2.78189   2.78295   2.78606   2.79033
 Alpha virt. eigenvalues --    2.79394   2.79939   2.80265   2.80321   2.80429
 Alpha virt. eigenvalues --    2.80812   2.81016   2.81434   2.81494   2.81906
 Alpha virt. eigenvalues --    2.82091   2.82626   2.82666   2.82733   2.83123
 Alpha virt. eigenvalues --    2.83283   2.83360   2.84327   2.84592   2.85066
 Alpha virt. eigenvalues --    2.85519   2.85662   2.85842   2.86065   2.86281
 Alpha virt. eigenvalues --    2.86822   2.87143   2.87394   2.87460   2.87648
 Alpha virt. eigenvalues --    2.88098   2.88487   2.88988   2.89350   2.89740
 Alpha virt. eigenvalues --    2.89849   2.90125   2.90246   2.90559   2.91011
 Alpha virt. eigenvalues --    2.91175   2.91261   2.91281   2.91450   2.91563
 Alpha virt. eigenvalues --    2.91625   2.92672   2.93837   2.93940   2.94015
 Alpha virt. eigenvalues --    2.94243   2.94251   2.94589   2.94651   2.95172
 Alpha virt. eigenvalues --    2.95254   2.96140   2.96210   2.96337   2.96935
 Alpha virt. eigenvalues --    2.97382   2.97568   2.97721   2.97888   2.98497
 Alpha virt. eigenvalues --    2.98539   2.98901   2.99056   2.99689   3.00161
 Alpha virt. eigenvalues --    3.00355   3.00729   3.00750   3.01282   3.01689
 Alpha virt. eigenvalues --    3.02471   3.02912   3.02950   3.03096   3.03507
 Alpha virt. eigenvalues --    3.03618   3.03859   3.04005   3.04334   3.04800
 Alpha virt. eigenvalues --    3.05217   3.06394   3.06398   3.07084   3.07147
 Alpha virt. eigenvalues --    3.07201   3.07512   3.08535   3.08653   3.09590
 Alpha virt. eigenvalues --    3.09642   3.10323   3.10389   3.11220   3.11677
 Alpha virt. eigenvalues --    3.11837   3.12157   3.12560   3.12646   3.12902
 Alpha virt. eigenvalues --    3.13109   3.13173   3.15671   3.15951   3.16441
 Alpha virt. eigenvalues --    3.16477   3.16751   3.17676   3.17737   3.17880
 Alpha virt. eigenvalues --    3.18136   3.18438   3.18657   3.18873   3.19181
 Alpha virt. eigenvalues --    3.19597   3.20324   3.20355   3.20477   3.20929
 Alpha virt. eigenvalues --    3.21035   3.21577   3.21842   3.22294   3.22521
 Alpha virt. eigenvalues --    3.22687   3.23923   3.24425   3.25110   3.25683
 Alpha virt. eigenvalues --    3.26229   3.27460   3.27598   3.27642   3.27776
 Alpha virt. eigenvalues --    3.28300   3.29499   3.31560   3.32074   3.34307
 Alpha virt. eigenvalues --    3.36824   3.36876   3.37412   3.38135   3.39547
 Alpha virt. eigenvalues --    3.40868   3.42252   3.43139   3.46129   3.49093
 Alpha virt. eigenvalues --    3.49631   3.51720   3.52417   3.52674   3.53522
 Alpha virt. eigenvalues --    3.55070   3.56358   3.57107   3.57606   3.57867
 Alpha virt. eigenvalues --    3.58294   3.59169   3.59675   3.59711   3.61381
 Alpha virt. eigenvalues --    3.62182   3.63044   3.63419   3.64518   3.65710
 Alpha virt. eigenvalues --    3.65776   3.65915   3.68288   3.68614   3.69030
 Alpha virt. eigenvalues --    3.69349   3.69452   3.69786   3.70009   3.70369
 Alpha virt. eigenvalues --    3.70753   3.70820   3.71269   3.73133   3.74129
 Alpha virt. eigenvalues --    3.74637   3.79504   3.80557   3.82602
          Condensed to atoms (all electrons):
 Mulliken charges:
               1
     1  C    0.069883
     2  C    0.032516
     3  O   -0.314716
     4  H    0.027063
     5  H    0.031504
     6  H    0.036237
     7  N   -0.106287
     8  C    0.051383
     9  C    0.123276
    10  O   -0.250983
    11  C    0.122885
    12  C    0.067213
    13  O   -0.429937
    14  O   -0.386583
    15  H    0.130075
    16  H    0.002676
    17  H    0.017496
    18  H   -0.011328
    19  N   -0.135599
    20  C    0.106760
    21  C    0.082228
    22  O   -0.280847
    23  C    0.054919
    24  C   -0.055711
    25  C    0.013291
    26  C    0.064358
    27  N    0.145599
    28  H    0.121471
    29  H    0.015575
    30  H    0.022600
    31  H   -0.011767
    32  H    0.033795
    33  H   -0.032764
    34  H    0.025136
    35  H    0.037089
    36  H    0.034401
    37  H    0.078792
    38  H    0.093321
    39  H    0.130592
    40  H    0.094440
    41  N   -0.142702
    42  C    0.185561
    43  C    0.040212
    44  O   -0.294204
    45  C    0.054394
    46  C    0.088157
    47  O   -0.332405
    48  O   -0.511952
    49  H    0.089663
    50  H    0.033158
    51  H    0.007682
    52  H    0.034167
    53  N   -0.154434
    54  C    0.216178
    55  C    0.028656
    56  O   -0.300884
    57  H    0.132703
    58  H    0.034293
    59  H    0.040003
    60  N   -0.111498
    61  C    0.022009
    62  C    0.209087
    63  O   -0.381387
    64  C    0.156978
    65  C   -0.061361
    66  N   -0.042769
    67  O   -0.266024
    68  H    0.162986
    69  H   -0.003176
    70  H    0.032817
    71  H    0.023123
    72  H    0.111149
    73  H    0.128161
    74  N   -0.160858
    75  C    0.225092
    76  C    0.049723
    77  O   -0.277801
    78  H    0.138729
    79  H    0.049952
    80  H    0.036818
    81  N   -0.121560
    82  C    0.140870
    83  C    0.105478
    84  O   -0.255889
    85  C    0.088846
    86  C   -0.109468
    87  C    0.035459
    88  C    0.007305
    89  C   -0.027401
    90  C   -0.033984
    91  C    0.187742
    92  O   -0.209554
    93  H    0.109542
    94  H   -0.014449
    95  H    0.021066
    96  H   -0.019881
    97  H    0.010737
    98  H   -0.036514
    99  H   -0.013445
   100  H   -0.053294
   101  H    0.175434
   102  N   -0.121874
   103  C    0.169920
   104  C    0.067924
   105  O   -0.259378
   106  C   -0.122812
   107  C    0.023974
   108  C    0.108232
   109  C    0.027062
   110  H    0.126412
   111  H   -0.022627
   112  H   -0.015982
   113  H    0.002217
   114  H    0.003487
   115  H    0.004448
   116  H    0.005063
   117  H    0.015406
   118  H    0.003055
   119  H   -0.026929
   120  H    0.034628
   121  N   -0.157021
   122  C    0.092834
   123  C    0.060773
   124  O   -0.256179
   125  C    0.271321
   126  O   -0.351379
   127  H    0.122606
   128  H    0.031528
   129  H    0.012542
   130  H    0.005501
   131  H    0.166980
   132  N   -0.141709
   133  C   -0.008059
   134  C    0.088306
   135  O   -0.249324
   136  C    0.103891
   137  H    0.100862
   138  H    0.014040
   139  H    0.035763
   140  H    0.016418
   141  H   -0.001107
   142  N   -0.105688
   143  C    0.024143
   144  C    0.064512
   145  O   -0.265176
   146  C    0.040070
   147  H    0.126621
   148  H    0.001202
   149  H    0.022991
   150  H    0.032266
   151  H    0.031006
   152  N   -0.107714
   153  C    0.062213
   154  C    0.064027
   155  O   -0.278874
   156  C    0.048442
   157  C    0.055763
   158  C    0.043048
   159  O   -0.342971
   160  O   -0.345211
   161  H    0.119254
   162  H    0.001518
   163  H    0.008247
   164  H    0.001339
   165  H   -0.013050
   166  H   -0.024012
   167  N   -0.156401
   168  C    0.124282
   169  H    0.016203
   170  H    0.020330
   171  H    0.054314
   172  H    0.097123
   173  Ca   1.382156
   174  O   -0.326693
   175  H    0.213466
   176  H    0.203349
 Sum of Mulliken charges =  -0.00000
 Mulliken charges with hydrogens summed into heavy atoms:
               1
     1  C    0.164688
     2  C    0.032516
     3  O   -0.314716
     7  N    0.023787
     8  C    0.054059
     9  C    0.123276
    10  O   -0.250983
    11  C    0.129053
    12  C    0.067213
    13  O   -0.429937
    14  O   -0.386583
    19  N   -0.014128
    20  C    0.122334
    21  C    0.082228
    22  O   -0.280847
    23  C    0.065753
    24  C   -0.054679
    25  C    0.075516
    26  C    0.177550
    27  N    0.463952
    41  N   -0.053039
    42  C    0.218718
    43  C    0.040212
    44  O   -0.294204
    45  C    0.096243
    46  C    0.088157
    47  O   -0.332405
    48  O   -0.511952
    53  N   -0.021730
    54  C    0.290474
    55  C    0.028656
    56  O   -0.300884
    60  N    0.051488
    61  C    0.018833
    62  C    0.209087
    63  O   -0.381387
    64  C    0.212918
    65  C   -0.061361
    66  N    0.196541
    67  O   -0.266024
    74  N   -0.022129
    75  C    0.311862
    76  C    0.049723
    77  O   -0.277801
    81  N   -0.012018
    82  C    0.126421
    83  C    0.105478
    84  O   -0.255889
    85  C    0.090030
    86  C   -0.109468
    87  C    0.046196
    88  C   -0.029208
    89  C   -0.040846
    90  C   -0.087278
    91  C    0.187742
    92  O   -0.034120
   102  N    0.004537
   103  C    0.147293
   104  C    0.067924
   105  O   -0.259378
   106  C   -0.138794
   107  C    0.029678
   108  C    0.133150
   109  C    0.037816
   121  N   -0.034415
   122  C    0.124362
   123  C    0.060773
   124  O   -0.256179
   125  C    0.289364
   126  O   -0.184399
   132  N   -0.040847
   133  C    0.005981
   134  C    0.088306
   135  O   -0.249324
   136  C    0.154964
   142  N    0.020934
   143  C    0.025345
   144  C    0.064512
   145  O   -0.265176
   146  C    0.126333
   152  N    0.011541
   153  C    0.063732
   154  C    0.064027
   155  O   -0.278874
   156  C    0.058027
   157  C    0.018701
   158  C    0.043048
   159  O   -0.342971
   160  O   -0.345211
   167  N   -0.059277
   168  C    0.215129
   173  Ca   1.382156
   174  O    0.090122
 DipInt: DoE/N= T F RetVal/Mat= T F Init=T NMatP=  1 IDeriv=0 Min/MaxMlt=  0  4
 Entering OneElI...
 OneElI was handed  1333951383 working-precision words.
 Multipole integrals L=0 to 4 MinM= 0 MaxM= 0.
 Requested accuracy = 0.1000D-12
 PrtBox:  NBox=     1 Levels=  1 BoxLen=   98.75 SMaxX=       54.25
          Shift=           29.465762           13.101306            7.583060
 Box      1 Number                   0 centers from      1 to    809:
 ShPair: Thresh= 1.00D-13 NBox=     1 BxSize= 9.87D+01 RnKept= 3.43D+01
         NSMCal=               327645 NSMKep=              115552
 PrmmSu-InSpLW:  IPartL=    0 NPrtUS=    1 NPrtUL=    1 DoSpLW=F IThBeg=    0 IThEnd=    0 NThAct=    1.
 PrsmSu:  NPrtUS=   1 ThrOK=F IAlg=1 NPAlg=1 LenDen=           0 ISkipM=0 DoSpLW=F IThBeg=    0 IThEnd=    0.
 Prism:   IPart=     0 DynPar=F LinDyn=F Incr=         512.
 PRISM was handed  1325544515 working-precision words and115552 shell-pairs
 IPart=  0 NShTot=      115552 NBatch=         276 AvBLen=       418.7
 PrsmSu-ThDecC:  IPartSL=    0    0 NPrtUSL=    1    1 IThBeg=    0 IThEnd=    0 CPU=   -1 GPU=   -1 NThAct=    1.
 PrSmSu:  NxtVal=            513.
 Electronic moments (au):
       -716.00000000        -24.83360343          2.18785072          3.26600544
    -163892.75530103     -28304.88390354      -9010.10856123       -243.99294487
         84.29660969          0.49299290     122107.26994515     -16691.52350576
      -3780.40388777     -79797.57926201    -412645.58913734      58326.84844275
       2630.73767513        232.38079649     -32521.97935265      36053.71482842
  -63032494.31439155   -2531042.85246254    -264062.06364304    2183179.53363406
     336331.31842717     -52685.40360429     181645.65920033     -48024.61901322
     -51090.94691853   -6467847.91584929   -1990914.52905804    -428384.65374433
    -387722.35790023    -265878.14667324      40392.94615240
 Electronic spatial extent (au):  <R**2>=         201207.7478
 DipInt: DoE/N= F T RetVal/Mat= T F Init=T NMatP=  1 IDeriv=0 Min/MaxMlt=  0  4
 Nuclear    moments (au):
        716.00000000          0.00000000          0.00000000          0.00000000
     163793.08188017      27861.93674460       8593.35451597         -0.00000000
          0.00000000          0.00000000    -138767.72741316      15806.84653133
       4023.98816203      77660.98494709     417823.10289750     -57115.90773595
      -2874.14847566       -169.47075217      32901.18009473     -35858.32912830
   62754049.35884660    2425266.03707581     233828.44266617   -2314264.64288015
    -300722.93944231      31956.09673247    -177652.45540945      47147.61603581
      51276.88990157    6386911.49758108    1894666.93053289     408512.50382215
     388012.43217366     273330.43779272     -45361.27156519
 Total      moments (au):
         -0.00000000        -24.83360343          2.18785072          3.26600544
        -99.67342086       -442.94715894       -416.75404526       -243.99294487
         84.29660969          0.49299290     -16660.45746800       -884.67697443
        243.58427426      -2136.59431492       5177.51376016       1210.94070679
       -243.41080053         62.91004431        379.20074208        195.38570012
    -278444.95554494    -105776.81538673     -30233.62097687    -131085.10924609
      35608.37898486     -20729.30687183       3993.20379087       -877.00297741
        185.94298304     -80936.41826821     -96247.59852516     -19872.14992217
        290.07427343       7452.29111947      -4968.32541279
 Traceless Quadrup. (au):
        220.11812083       -123.15561726        -96.96250357       -243.99294487
         84.29660969          0.49299290
 Charge=             -0.0000 electrons
 Dipole moment (field-independent basis, Debye):
    X=            -63.1207    Y=              5.5610    Z=              8.3014  Tot=             63.9067
 Quadrupole moment (field-independent basis, Debye-Ang):
   XX=           -134.0642   YY=           -595.7791   ZZ=           -560.5485
   XY=           -328.1789   XZ=            113.3818   YZ=              0.6631
 Traceless Quadrupole moment (field-independent basis, Debye-Ang):
   XX=            296.0664   YY=           -165.6485   ZZ=           -130.4179
   XY=           -328.1789   XZ=            113.3818   YZ=              0.6631
 Octapole moment (field-independent basis, Debye-Ang**2):
  XXX=         -11858.2718  YYY=           -629.6790  ZZZ=            173.3739  XYY=          -1520.7455
  XXY=           3685.1548  XXZ=            861.9009  XZZ=           -173.2504  YZZ=             44.7769
  YYZ=            269.9005  XYZ=            139.0680
 Hexadecapole moment (field-independent basis, Debye-Ang**3):
 XXXX=        -104875.7221 YYYY=         -39840.6208 ZZZZ=         -11387.4314 XXXY=         -49372.9379
 XXXZ=          13411.8230 YYYX=          -7807.6510 YYYZ=           1504.0320 ZZZX=           -330.3214
 ZZZY=             70.0350 XXYY=         -30484.5362 XXZZ=         -36251.4608 YYZZ=          -7484.8046
 XXYZ=            109.2559 YYXZ=           2806.8902 ZZXY=          -1871.3096
 N-N= 1.817782156886D+04 E-N=-4.883060539398D+04  KE= 5.290597542663D+03
 Leave Link  601 at Wed Sep 18 11:25:56 2019, MaxMem=  1342177280 cpu:              38.8 elap:               1.0
 FitSet:  NAtFit=   176 NAtPot=   176 NAtFrz=     0 MDM=   180 TotChg=   0.00000
 Merz-Kollman atomic radii used.
 Read replacement radii for each type of atom:
 Rad(20) =   1.700000000000D+00
 Atom Element Radius
    1     6    1.50
    2     6    1.50
    3     8    1.40
    4     1    1.20
    5     1    1.20
    6     1    1.20
    7     7    1.50
    8     6    1.50
    9     6    1.50
   10     8    1.40
   11     6    1.50
   12     6    1.50
   13     8    1.40
   14     8    1.40
   15     1    1.20
   16     1    1.20
   17     1    1.20
   18     1    1.20
   19     7    1.50
   20     6    1.50
   21     6    1.50
   22     8    1.40
   23     6    1.50
   24     6    1.50
   25     6    1.50
   26     6    1.50
   27     7    1.50
   28     1    1.20
   29     1    1.20
   30     1    1.20
   31     1    1.20
   32     1    1.20
   33     1    1.20
   34     1    1.20
   35     1    1.20
   36     1    1.20
   37     1    1.20
   38     1    1.20
   39     1    1.20
   40     1    1.20
   41     7    1.50
   42     6    1.50
   43     6    1.50
   44     8    1.40
   45     6    1.50
   46     6    1.50
   47     8    1.40
   48     8    1.40
   49     1    1.20
   50     1    1.20
   51     1    1.20
   52     1    1.20
   53     7    1.50
   54     6    1.50
   55     6    1.50
   56     8    1.40
   57     1    1.20
   58     1    1.20
   59     1    1.20
   60     7    1.50
   61     6    1.50
   62     6    1.50
   63     8    1.40
   64     6    1.50
   65     6    1.50
   66     7    1.50
   67     8    1.40
   68     1    1.20
   69     1    1.20
   70     1    1.20
   71     1    1.20
   72     1    1.20
   73     1    1.20
   74     7    1.50
   75     6    1.50
   76     6    1.50
   77     8    1.40
[...]
 **** Fit      -0.014354
 **** Fit      -0.016668
 **** Fit      -0.019085
 **** Fit      -0.021516
 **** Fit      -0.023860
 **** Fit      -0.002836
 **** Fit      -0.003560
 **** Fit      -0.004457
 **** Fit      -0.005557
 **** Fit      -0.006885
 **** Fit      -0.008459
 **** Fit      -0.010291
 **** Fit      -0.012380
 **** Fit      -0.014711
 **** Fit      -0.017249
 **** Fit      -0.019936
 **** Fit      -0.022692
 **** Fit      -0.025427
 **** Fit      -0.001560
 **** Fit      -0.002621
 **** Fit      -0.003864
 **** Fit      -0.005318
 **** Fit      -0.007013
 **** Fit      -0.008971
 **** Fit      -0.011207
 **** Fit      -0.013722
 **** Fit      -0.016496
 **** Fit      -0.019484
 **** Fit      -0.022612
 **** Fit      -0.025781
 **** Fit       0.000267
 **** Fit      -0.001370
 **** Fit      -0.003179
 **** Fit      -0.005197
 **** Fit      -0.007462
 **** Fit      -0.010003
 **** Fit      -0.012838
 **** Fit      -0.015959
 **** Fit      -0.019325
 **** Fit      -0.022855
 **** Fit      -0.026430
 **** Fit       0.000471
 **** Fit      -0.002137
 **** Fit      -0.004896
 **** Fit      -0.007862
 **** Fit      -0.011078
 **** Fit      -0.014554
 **** Fit      -0.018263
 **** Fit      -0.022117
 **** Fit      -0.011355
 **** Fit      -0.011984
 **** Fit      -0.013088
 **** Fit      -0.012547
 **** Fit      -0.014387
 **** Fit      -0.015158
 **** Fit      -0.015004
 **** Fit      -0.013997
 **** Fit      -0.012462
 **** Fit      -0.015745
 **** Fit      -0.017008
 **** Fit      -0.017693
 **** Fit      -0.017714
 **** Fit      -0.017059
 **** Fit      -0.015831
 **** Fit      -0.014241
 **** Fit      -0.012518
 **** Fit      -0.018027
 **** Fit      -0.019510
 **** Fit      -0.020530
 **** Fit      -0.021004
 **** Fit      -0.020860
 **** Fit      -0.020082
 **** Fit      -0.018743
 **** Fit      -0.017011
 **** Fit      -0.015094
 **** Fit      -0.013165
 **** Fit      -0.019513
 **** Fit      -0.021521
 **** Fit      -0.023156
 **** Fit      -0.024357
 **** Fit      -0.025033
 **** Fit      -0.025088
 **** Fit      -0.024456
 **** Fit      -0.023152
 **** Fit      -0.021295
 **** Fit      -0.019092
 **** Fit      -0.016769
 **** Fit      -0.014500
 **** Fit      -0.023540
 **** Fit      -0.025751
 **** Fit      -0.027629
 **** Fit      -0.029110
 **** Fit      -0.030092
 **** Fit      -0.030452
 **** Fit      -0.030072
 **** Fit      -0.028899
 **** Fit      -0.026990
 **** Fit      -0.024521
 **** Fit      -0.021742
 **** Fit      -0.018910
 **** Fit      -0.016209
 **** Fit      -0.027772
 **** Fit      -0.030497
 **** Fit      -0.032917
 **** Fit      -0.034958
 **** Fit      -0.036487
 **** Fit      -0.037318
 **** Fit      -0.037244
 **** Fit      -0.036121
 **** Fit      -0.033944
 **** Fit      -0.030897
 **** Fit      -0.027305
 **** Fit      -0.023542
 **** Fit      -0.019924
 **** Fit      -0.032778
 **** Fit      -0.036169
 **** Fit      -0.039335
 **** Fit      -0.042192
 **** Fit      -0.025306
 **** Fit      -0.040347
 **** Fit       0.001438
 **** Fit       0.002620
 **** Fit       0.003426
 **** Fit       0.003757
 **** Fit       0.003538
 **** Fit       0.002713
 **** Fit      -0.001795
 **** Fit       0.000040
 **** Fit       0.001608
 **** Fit       0.002760
 **** Fit       0.003389
 **** Fit       0.003421
 **** Fit       0.002803
 **** Fit       0.001490
 **** Fit      -0.003701
 **** Fit      -0.004042
 **** Fit      -0.001638
 **** Fit       0.000450
 **** Fit       0.002046
 **** Fit       0.003036
 **** Fit       0.003352
 **** Fit       0.002951
 **** Fit       0.001805
 **** Fit      -0.000107
 **** Fit      -0.008660
 **** Fit      -0.006497
 **** Fit      -0.006837
 **** Fit      -0.003481
 **** Fit      -0.000594
 **** Fit       0.001599
 **** Fit       0.002986
 **** Fit       0.003515
 **** Fit       0.003168
 **** Fit       0.001941
 **** Fit      -0.000160
 **** Fit      -0.003107
 **** Fit      -0.013182
 **** Fit      -0.010268
 **** Fit      -0.010158
 **** Fit      -0.005283
 **** Fit      -0.001229
 **** Fit       0.001749
 **** Fit       0.003578
 **** Fit       0.004261
 **** Fit       0.003832
 **** Fit       0.002334
 **** Fit      -0.000177
 **** Fit      -0.003604
 **** Fit       0.009944
 **** Fit       0.016971
 **** Fit       0.014931
 **** Fit       0.022141
 **** Fit       0.019449
 **** Fit       0.015223
 **** Fit       0.028697
 **** Fit       0.026592
 **** Fit       0.023828
 **** Fit       0.020146
 **** Fit       0.032333
 **** Fit       0.029944
 **** Fit       0.027465
 **** Fit       0.024479
 **** Fit       0.032880
 **** Fit       0.031363
 **** Fit       0.029551
 **** Fit       0.027118
 **** Fit       0.035987
 **** Fit       0.035773
 **** Fit       0.035208
 **** Fit       0.034145
 **** Fit       0.040175
 **** Fit       0.041198
 **** Fit       0.041778
 **** Fit       0.041963
 **** Fit       0.041931
 **** Fit       0.041963
 **** Fit       0.043863
 **** Fit       0.046211
 **** Fit       0.047994
 **** Fit       0.049345
 **** Fit       0.050475
 **** Fit       0.051648
 **** Fit       0.053164
 **** Fit       0.055326
 **** Fit       0.058417
 **** Fit       0.062657
 **** Fit       0.068190
 **** Fit       0.075056
 **** Fit       0.050682
 **** Fit       0.053372
 **** Fit       0.055562
 **** Fit       0.057491
 **** Fit       0.059405
 **** Fit       0.061548
 **** Fit       0.064146
 **** Fit       0.067388
 **** Fit       0.071408
 **** Fit       0.076256
 **** Fit       0.081865
 **** Fit       0.087941
 **** Fit       0.055425
 **** Fit       0.058595
 **** Fit       0.061258
 **** Fit       0.063664
 **** Fit       0.066036
 **** Fit       0.068572
 **** Fit       0.071428
 **** Fit       0.074707
 **** Fit       0.078434
 **** Fit       0.082522
 **** Fit       0.086718
 **** Fit       0.090567
 **** Fit       0.055920
 **** Fit       0.059918
 **** Fit       0.063192
 **** Fit       0.066008
 **** Fit       0.068580
 **** Fit       0.071080
 **** Fit       0.073638
 **** Fit       0.076331
 **** Fit       0.079161
 **** Fit       0.082033
 **** Fit       0.084724
 **** Fit       0.086880
 **** Fit       0.088112
 **** Fit       0.061705
 **** Fit       0.065213
 **** Fit       0.068215
 **** Fit       0.070882
 **** Fit       0.073349
 **** Fit       0.075697
 **** Fit       0.077941
 **** Fit       0.080001
 **** Fit       0.081685
 **** Fit       0.082676
 **** Fit       0.082581
 **** Fit       0.081034
 **** Fit       0.063089
 **** Fit       0.066384
 **** Fit       0.069277
 **** Fit       0.071805
 **** Fit       0.074013
 **** Fit       0.075904
 **** Fit       0.077407
 **** Fit       0.078345
 **** Fit       0.078421
 **** Fit       0.077243
 **** Fit       0.074384
 **** Fit       0.066784
 **** Fit       0.069233
 **** Fit       0.071364
 **** Fit       0.073064
 **** Fit       0.074216
 **** Fit       0.074632
 **** Fit       0.074018
 **** Fit       0.071972
 **** Fit       0.068030
 **** Fit       0.066646
 **** Fit       0.068387
 **** Fit       0.069793
 **** Fit       0.070520
 **** Fit       0.070244
 **** Fit       0.068559
 **** Fit       0.064937
 **** Fit       0.058764
 **** Fit       0.064822
 **** Fit       0.065674
 **** Fit       0.065951
 **** Fit       0.065006
 **** Fit       0.062201
 **** Fit       0.056770
 **** Fit       0.060626
 **** Fit       0.060685
 **** Fit       0.060228
 **** Fit       0.057959
 **** Fit       0.052615
 **** Fit       0.053375
 **** Fit       0.052936
 **** Fit       0.049154
 **** Fit       0.031081
 **** Fit       0.029105
 **** Fit       0.031786
 **** Fit       0.027297
 **** Fit       0.029656
 **** Fit       0.025737
 **** Fit       0.028349
 **** Fit       0.033441
 **** Fit       0.024379
 **** Fit       0.027239
 **** Fit       0.032382
 **** Fit       0.022155
 **** Fit       0.023849
 **** Fit       0.027374
 **** Fit       0.033130
 **** Fit       0.020976
 **** Fit       0.022400
 **** Fit       0.025533
 **** Fit       0.030695
 **** Fit       0.038419
 **** Fit       0.020411
 **** Fit       0.021610
 **** Fit       0.024338
 **** Fit       0.028845
 **** Fit       0.035521
 **** Fit       0.044986
 **** Fit       0.020617
 **** Fit       0.020651
 **** Fit       0.021923
 **** Fit       0.024610
 **** Fit       0.028931
 **** Fit       0.035205
 **** Fit       0.043907
 **** Fit       0.022039
 **** Fit       0.021445
 **** Fit       0.021833
 **** Fit       0.023399
 **** Fit       0.026319
 **** Fit       0.030801
 **** Fit       0.037119
 **** Fit       0.045651
 **** Fit       0.056889
 **** Fit       0.024265
 **** Fit       0.023416
 **** Fit       0.023210
 **** Fit       0.023898
 **** Fit       0.025668
 **** Fit       0.028683
 **** Fit       0.033118
 **** Fit       0.039174
 **** Fit       0.047081
 **** Fit       0.057072
 **** Fit      -0.001067
 **** Fit       0.005468
 **** Fit       0.026829
 **** Fit       0.026088
 **** Fit       0.025730
 **** Fit       0.026072
 **** Fit       0.027356
 **** Fit       0.029762
 **** Fit       0.033442
 **** Fit       0.038528
 **** Fit       0.045125
 **** Fit       0.053257
 **** Fit       0.062765
 **** Fit       0.030202
 **** Fit       0.032265
 **** Fit       0.035523
 **** Fit       0.040050
 **** Fit       0.045815
 **** Fit       0.052600
 **** Fit       0.059860
 **** Fit       0.019975
 **** Fit       0.022499
 **** Fit       0.026094
 **** Fit       0.014938
 **** Fit       0.016335
 **** Fit       0.018419
 **** Fit       0.021130
 **** Fit       0.024634
 **** Fit       0.011661
 **** Fit       0.012405
 **** Fit       0.013796
 **** Fit       0.015636
 **** Fit       0.017895
 **** Fit       0.020672
 **** Fit       0.024183
 **** Fit       0.011822
 **** Fit       0.009798
 **** Fit       0.010748
 **** Fit       0.012064
 **** Fit       0.013653
 **** Fit       0.015518
 **** Fit       0.017746
 **** Fit       0.020443
 **** Fit       0.023794
 **** Fit       0.009070
 **** Fit       0.009252
 **** Fit       0.008675
 **** Fit       0.009830
 **** Fit       0.011176
 **** Fit       0.012670
 **** Fit       0.014363
 **** Fit       0.016365
 **** Fit       0.018765
 **** Fit       0.021658
 **** Fit       0.004138
 **** Fit       0.005045
 **** Fit       0.009460
 **** Fit       0.010852
 **** Fit       0.012282
 **** Fit       0.013831
 **** Fit       0.015623
 **** Fit       0.017741
 **** Fit       0.020231
 **** Fit      -0.003524
 **** Fit      -0.001580
 **** Fit       0.000257
 **** Fit       0.009755
 **** Fit       0.011239
 **** Fit       0.012678
 **** Fit       0.014180
 **** Fit       0.015876
 **** Fit       0.017847
 **** Fit       0.020113
 **** Fit      -0.006727
 **** Fit      -0.003807
 **** Fit      -0.001152
 **** Fit       0.009257
 **** Fit       0.010984
 **** Fit       0.012573
 **** Fit       0.014087
 **** Fit       0.015660
 **** Fit       0.017424
 **** Fit       0.019440
 **** Fit      -0.007135
 **** Fit      -0.003621
 **** Fit      -0.000583
 **** Fit       0.002303
 **** Fit       0.011467
 **** Fit       0.013256
 **** Fit       0.014906
 **** Fit       0.016514
 **** Fit       0.018223
 **** Fit       0.020142
 **** Fit      -0.004231
 **** Fit      -0.000968
 **** Fit       0.002003
 **** Fit       0.004712
 **** Fit       0.007227
 **** Fit       0.009480
 **** Fit       0.014836
 **** Fit       0.016555
 **** Fit       0.018216
 **** Fit       0.019922
 **** Fit       0.021794
 **** Fit       0.004564
 **** Fit       0.006766
 **** Fit       0.008941
 **** Fit       0.011031
 **** Fit       0.013002
 **** Fit       0.019345
 **** Fit       0.021048
 **** Fit       0.022854
 **** Fit       0.024876
 **** Fit       0.014584
 **** Fit       0.016075
 **** Fit       0.017686
 **** Fit      -0.001436
 **** Fit       0.003684
 **** Fit       0.009210
 **** Fit       0.014467
 **** Fit       0.019117
 **** Fit       0.023174
 **** Fit       0.024881
 **** Fit       0.025937
 **** Fit       0.026596
 **** Fit       0.027191
 **** Fit       0.028067
 **** Fit       0.029536
 **** Fit      -0.002514
 **** Fit      -0.001665
 **** Fit      -0.000788
 **** Fit       0.001508
 **** Fit       0.005146
 **** Fit       0.009395
 **** Fit       0.013626
 **** Fit       0.017468
 **** Fit       0.020695
 **** Fit       0.022269
 **** Fit       0.023949
 **** Fit       0.025216
 **** Fit       0.026279
 **** Fit       0.027404
 **** Fit       0.028854
 **** Fit       0.030853
 **** Fit       0.033566
 **** Fit       0.037076
 **** Fit       0.041345
 **** Fit       0.046127
 **** Fit       0.050854
 **** Fit       0.054503
 **** Fit       0.055528
 **** Fit       0.052006
 **** Fit      -0.001841
 **** Fit       0.001212
 **** Fit       0.003077
 **** Fit       0.005062
 **** Fit       0.007723
 **** Fit       0.010907
 **** Fit       0.014224
 **** Fit       0.017347
 **** Fit       0.020066
 **** Fit       0.022357
 **** Fit       0.024101
 **** Fit       0.025587
 **** Fit       0.027026
 **** Fit       0.028658
 **** Fit       0.030696
 **** Fit       0.033274
 **** Fit       0.036403
 **** Fit       0.039910
 **** Fit       0.043341
 **** Fit       0.045858
 **** Fit       0.046199
 **** Fit       0.042849
 **** Fit       0.034627
 **** Fit       0.001907
 **** Fit       0.005112
 **** Fit       0.007480
 **** Fit       0.009731
 **** Fit       0.012266
 **** Fit       0.015023
 **** Fit       0.017754
 **** Fit       0.020240
 **** Fit       0.022990
 **** Fit       0.024810
 **** Fit       0.026505
 **** Fit       0.028265
 **** Fit       0.030277
 **** Fit       0.032640
 **** Fit       0.035285
 **** Fit       0.037895
 **** Fit       0.039812
 **** Fit       0.040020
 **** Fit       0.037329
 **** Fit       0.030972
 **** Fit       0.021628
 **** Fit       0.005285
 **** Fit       0.007079
 **** Fit       0.009484
 **** Fit       0.011722
 **** Fit       0.013923
 **** Fit       0.016254
 **** Fit       0.018647
 **** Fit       0.020933
 **** Fit       0.023855
 **** Fit       0.025839
 **** Fit       0.027796
 **** Fit       0.029870
 **** Fit       0.032091
 **** Fit       0.034213
 **** Fit       0.035595
 **** Fit       0.035218
 **** Fit       0.032069
 **** Fit       0.026084
 **** Fit       0.019118
 **** Fit       0.014204
 **** Fit       0.012745
 **** Fit       0.013615
 **** Fit       0.015339
 **** Fit       0.017349
 **** Fit       0.019527
 **** Fit       0.021741
 **** Fit       0.024729
 **** Fit       0.027038
 **** Fit       0.029303
 **** Fit       0.031294
 **** Fit       0.032162
 **** Fit       0.030577
 **** Fit       0.026134
 **** Fit       0.021062
 **** Fit       0.018459
 **** Fit       0.018633
 **** Fit       0.020230
 **** Fit       0.022399
 **** Fit       0.025460
 **** Fit       0.028052
 **** Fit       0.028963
 **** Fit       0.026159
 **** Fit       0.022813
 **** Fit       0.023064
 **** Fit       0.025950
 -----------------------------------------------------------------
 Leave Link  602 at Wed Sep 18 11:25:59 2019, MaxMem=  1342177280 cpu:             128.9 elap:               2.7

 Test job not archived.
 1\1\GINC-C501-062\SP\RB3LYP\SVP\C54H83Ca1N15O23\PENGZHI\18-Sep-2019\0\
 \#b3lyp/svp scf=(tight,noincore) Test #IOP(5/87=12) Density=Current Po
 p=(MK,readradii) iop(6/33=2) iop(6/42=6)\\Ng-295_loop3_41.0\\0,1\C,0,9
 .375,76.165,68.26\C,0,8.605,75.055,67.57\O,0,7.375,75.085,67.55\H,0,10
 .297,76.362,67.713\H,0,8.767,77.069,68.283\H,0,9.616,75.862,69.279\N,0
 ,9.235,74.005,67.05\C,0,8.495,72.975,66.35\C,0,7.965,71.855,67.24\O,0,
 8.635,70.885,67.57\C,0,9.405,72.565,65.19\C,0,8.635,71.985,64.01\O,0,7
 .995,72.785,63.28\O,0,8.465,70.755,63.98\H,0,10.215,73.995,66.81\H,0,7
 .645,73.375,65.8\H,0,10.185,71.845,65.42\H,0,9.995,73.435,64.9\N,0,6.6
 55,71.975,67.5\C,0,5.915,71.295,68.54\C,0,5.535,69.855,68.22\O,0,5.365
 ,69.115,69.19\C,0,4.675,72.075,68.97\C,0,5.075,73.345,69.72\C,0,3.895,
 74.235,70.12\C,0,4.425,75.505,70.78\N,0,5.155,75.245,72.03\H,0,6.105,7
 2.585,66.92\H,0,6.545,71.255,69.43\H,0,4.025,71.505,69.63\H,0,4.095,72
 .375,68.1\H,0,5.715,73.895,69.03\H,0,5.595,73.065,70.64\H,0,3.185,73.6
 45,70.7\H,0,3.385,74.555,69.21\H,0,3.575,76.095,71.14\H,0,4.995,76.145
 ,70.11\H,0,4.495,74.795,72.64\H,0,5.965,74.635,72.04\H,0,5.295,76.155,
 72.45\N,0,5.525,69.435,66.95\C,0,5.345,68.045,66.61\C,0,6.655,67.385,6
 6.2\O,0,6.665,66.205,65.88\C,0,4.165,67.965,65.65\C,0,4.435,68.305,64.
 19\O,0,3.615,68.145,63.26\O,0,5.525,68.875,63.97\H,0,5.415,70.155,66.2
 5\H,0,5.045,67.465,67.48\H,0,3.425,68.655,66.06\H,0,3.745,66.955,65.68
 \N,0,7.825,68.035,66.27\C,0,9.095,67.485,65.86\C,0,9.205,67.055,64.4\O
 ,0,10.295,66.825,63.89\H,0,7.915,69.005,66.53\H,0,9.355,66.645,66.51\H
 ,0,9.835,68.285,65.96\N,0,8.125,67.155,63.63\C,0,7.915,66.775,62.24\C,
 0,8.305,67.905,61.3\O,0,7.975,69.075,61.49\C,0,6.495,66.265,62.04\C,0,
 6.475,65.285,60.88\N,0,6.575,63.955,61.01\O,0,6.295,65.665,59.73\H,0,7
 .245,67.395,64.06\H,0,8.575,65.915,62.08\H,0,5.815,67.085,61.8\H,0,6.1
 25,65.735,62.92\H,0,6.615,63.485,61.9\H,0,6.665,63.355,60.21\N,0,9.085
 ,67.525,60.28\C,0,9.795,68.545,59.54\C,0,10.285,68.105,58.17\O,0,10.82
 5,68.895,57.4\H,0,9.235,66.535,60.16\H,0,10.675,68.865,60.11\H,0,9.185
 ,69.445,59.54\N,0,10.095,66.835,57.81\C,0,10.405,66.335,56.48\C,0,9.43
 5,66.815,55.42\O,0,8.215,66.645,55.47\C,0,10.385,64.815,56.58\C,0,11.0
 65,64.135,55.41\C,0,10.275,63.915,54.28\C,0,12.445,63.925,55.39\C,0,10
 .835,63.325,53.14\C,0,12.995,63.335,54.24\C,0,12.215,63.045,53.11\O,0,
 12.815,62.505,52.\H,0,9.675,66.165,58.44\H,0,11.435,66.595,56.21\H,0,9
 .375,64.445,56.76\H,0,10.995,64.525,57.43\H,0,9.215,64.075,54.42\H,0,1
 3.005,64.255,56.25\H,0,10.195,63.115,52.29\H,0,14.025,63.035,54.21\H,0
 ,13.775,62.445,52.06\N,0,10.065,67.385,54.39\C,0,9.465,67.985,53.21\C,
 0,8.795,67.035,52.23\O,0,8.315,65.965,52.61\C,0,8.565,69.185,53.48\C,0
 ,9.205,70.265,54.34\C,0,7.135,68.925,53.96\C,0,10.455,70.875,53.73\H,0
 ,11.075,67.405,54.43\H,0,10.325,68.205,52.58\H,0,8.435,69.685,52.52\H,
 0,9.435,69.795,55.3\H,0,8.475,71.065,54.48\H,0,7.175,68.765,55.04\H,0,
 6.535,69.805,53.72\H,0,6.685,68.095,53.42\H,0,10.865,71.605,54.43\H,0,
 11.235,70.115,53.72\H,0,10.355,71.335,52.75\N,0,8.695,67.405,50.95\C,0
 ,7.865,66.685,50.01\C,0,8.205,66.775,48.53\O,0,7.465,66.265,47.69\C,0,
 6.385,66.985,50.23\O,0,6.065,68.345,50.07\H,0,8.945,68.345,50.67\H,0,8
 .055,65.635,50.24\H,0,6.065,66.745,51.25\H,0,5.755,66.315,49.65\H,0,5.
 855,68.765,49.23\N,0,9.215,67.595,48.22\C,0,9.845,67.685,46.92\C,0,8.8
 05,67.915,45.82\O,0,8.595,67.145,44.89\C,0,10.725,66.475,46.65\H,0,9.5
 95,68.145,48.97\H,0,10.495,68.555,47.01\H,0,10.155,65.545,46.63\H,0,11
 .045,66.565,45.61\H,0,11.555,66.445,47.36\N,0,8.145,69.075,45.79\C,0,8
 .135,70.185,46.71\C,0,8.345,71.515,46.\O,0,8.095,71.655,44.81\C,0,6.80
 5,70.155,47.46\H,0,7.795,69.285,44.87\H,0,9.005,70.065,47.36\H,0,6.875
 ,70.495,48.49\H,0,6.105,70.845,46.98\H,0,6.295,69.195,47.58\N,0,8.615,
 72.635,46.69\C,0,8.995,72.735,48.08\C,0,10.485,73.005,48.24\O,0,11.105
 ,72.715,49.26\C,0,8.095,73.715,48.83\C,0,7.815,73.315,50.28\C,0,6.955,
 74.395,50.92\O,0,7.525,75.315,51.55\O,0,5.725,74.415,50.72\H,0,8.665,7
 3.505,46.19\H,0,8.805,71.765,48.55\H,0,7.145,73.745,48.29\H,0,8.645,74
 .655,48.89\H,0,8.805,73.205,50.7\H,0,7.225,72.395,50.31\N,0,11.115,73.
 695,47.29\C,0,12.525,74.015,47.38\H,0,13.073,73.457,46.621\H,0,12.667,
 75.084,47.218\H,0,12.897,73.744,48.368\H,0,10.575,73.965,46.48\Ca,0,6.
 28,70.74,62.52\O,0,5.44,70.37,59.96\H,0,5.91,70.29,59.12\H,0,4.55,70.0
 7,59.76\\Version=ES64L-G16RevA.03\State=1-A\HF=-5333.3587109\RMSD=1.20
 9e-09\Dipole=-0.5290117,5.369554,24.5570637\Quadrupole=-58.9492905,-70
 .3391909,129.2884814,-43.4479101,-157.1235213,252.991385\PG=C01 [X(C54
 H83Ca1N15O23)]\\@


 PATIENCE IS THE ABILITY TO IDLE YOUR MOTOR WHEN
 YOU FEEL LIKE STRIPPING YOUR GEARS.
 Job cpu time:       0 days 16 hours 16 minutes 37.1 seconds.
 Elapsed time:       0 days  0 hours 20 minutes 37.3 seconds.
 File lengths (MBytes):  RWF=   1517 Int=      0 D2E=      0 Chk=    171 Scr=      1
 Normal termination of Gaussian 16 at Wed Sep 18 11:26:00 2019.
