 Entering Gaussian System, Link 0=g16
 Initial command:
 /home1/apps/gaussian/16rA.03/g16/l1.exe "/scratch/01990/pengzhi/4353688/Gau-124389.inp" -scrdir="/scratch/01990/pengzhi/4353688/"
 Entering Link 1 = /home1/apps/gaussian/16rA.03/g16/l1.exe PID=    124390.
  
 Copyright (c) 1988,1990,1992,1993,1995,1998,2003,2009,2016,
            Gaussian, Inc.  All Rights Reserved.
  
 This is part of the Gaussian(R) 16 program.  It is based on
 the Gaussian(R) 09 system (copyright 2009, Gaussian, Inc.),
 the Gaussian(R) 03 system (copyright 2003, Gaussian, Inc.),
 the Gaussian(R) 98 system (copyright 1998, Gaussian, Inc.),
 the Gaussian(R) 94 system (copyright 1995, Gaussian, Inc.),
 the Gaussian 92(TM) system (copyright 1992, Gaussian, Inc.),
 the Gaussian 90(TM) system (copyright 1990, Gaussian, Inc.),
 the Gaussian 88(TM) system (copyright 1988, Gaussian, Inc.),
 the Gaussian 86(TM) system (copyright 1986, Carnegie Mellon
 University), and the Gaussian 82(TM) system (copyright 1983,
 Carnegie Mellon University). Gaussian is a federally registered
 trademark of Gaussian, Inc.
  
 This software contains proprietary and confidential information,
 including trade secrets, belonging to Gaussian, Inc.
  
 This software is provided under written license and may be
 used, copied, transmitted, or stored only in accord with that
 written license.
  
 The following legend is applicable only to US Government
 contracts under FAR:
  
                    RESTRICTED RIGHTS LEGEND
  
 Use, reproduction and disclosure by the US Government is
 subject to restrictions as set forth in subparagraphs (a)
 and (c) of the Commercial Computer Software - Restricted
 Rights clause in FAR 52.227-19.
  
 Gaussian, Inc.
 340 Quinnipiac St., Bldg. 40, Wallingford CT 06492
  
  
 ---------------------------------------------------------------
 Warning -- This program may not be used in any manner that
 competes with the business of Gaussian, Inc. or will provide
 assistance to any competitor of Gaussian, Inc.  The licensee
 of this program is prohibited from giving any competitor of
 Gaussian, Inc. access to this program.  By using this program,
 the user acknowledges that Gaussian, Inc. is engaged in the
 business of creating and licensing software in the field of
 computational chemistry and represents and warrants to the
 licensee that it is not a competitor of Gaussian, Inc. and that
 it will not use this program in any manner prohibited above.
 ---------------------------------------------------------------
  

 Cite this work as:
 Gaussian 16, Revision A.03,
 M. J. Frisch, G. W. Trucks, H. B. Schlegel, G. E. Scuseria, 
 M. A. Robb, J. R. Cheeseman, G. Scalmani, V. Barone, 
 G. A. Petersson, H. Nakatsuji, X. Li, M. Caricato, A. V. Marenich, 
 J. Bloino, B. G. Janesko, R. Gomperts, B. Mennucci, H. P. Hratchian, 
 J. V. Ortiz, A. F. Izmaylov, J. L. Sonnenberg, D. Williams-Young, 
 F. Ding, F. Lipparini, F. Egidi, J. Goings, B. Peng, A. Petrone, 
 T. Henderson, D. Ranasinghe, V. G. Zakrzewski, J. Gao, N. Rega, 
 G. Zheng, W. Liang, M. Hada, M. Ehara, K. Toyota, R. Fukuda, 
 J. Hasegawa, M. Ishida, T. Nakajima, Y. Honda, O. Kitao, H. Nakai, 
 T. Vreven, K. Throssell, J. A. Montgomery, Jr., J. E. Peralta, 
 F. Ogliaro, M. J. Bearpark, J. J. Heyd, E. N. Brothers, K. N. Kudin, 
 V. N. Staroverov, T. A. Keith, R. Kobayashi, J. Normand, 
 K. Raghavachari, A. P. Rendell, J. C. Burant, S. S. Iyengar, 
 J. Tomasi, M. Cossi, J. M. Millam, M. Klene, C. Adamo, R. Cammi, 
 J. W. Ochterski, R. L. Martin, K. Morokuma, O. Farkas, 
 J. B. Foresman, and D. J. Fox, Gaussian, Inc., Wallingford CT, 2016.
 
 ******************************************
 Gaussian 16:  ES64L-G16RevA.03 25-Dec-2016
                18-Sep-2019 
 ******************************************
 %chk=Ng-295_loop3_34.0.chk
 %nprocshared=48
 Will use up to   48 processors via shared memory.
 %mem=10GB
 %nosave
 ----------------------------------------------------------------------
 #b3lyp/svp scf=(tight,noincore) Test #IOP(5/87=12) Density=Current Pop
 =(MK,readradii) iop(6/33=2) iop(6/42=6)
 ----------------------------------------------------------------------
 1/30=1,38=1,172=1/1;
 2/12=2,17=6,18=5,40=1/2;
 3/5=18,7=101,11=2,25=1,30=1,74=-5/1,2,3;
 4//1;
 5/5=4,32=2,38=5,87=12/2;
 6/7=2,8=2,9=2,10=2,15=8,20=101,22=-1,28=1,33=2,42=6/1,2;
 99/5=1,9=1/99;
 -----------------
 Ng-295_loop3_34.0
 -----------------
 Symbolic Z-matrix:
 Charge =  0 Multiplicity = 1
 C                     6.79      73.82     85.03 
 C                     5.44      73.31     84.56 
 O                     4.5       74.06     84.28 
 H                     7.497     73.793    84.201 
 H                     6.688     74.845    85.386 
 H                     7.156     73.188    85.839 
 N                     5.19      72.       84.49 
 C                     4.07      71.31     83.88 
 C                     2.95      71.28     84.9 
 O                     3.17      71.07     86.09 
 C                     4.4       69.9      83.39 
 C                     3.31      69.32     82.5 
 O                     3.53      69.28     81.27 
 O                     2.24      68.96     83.04 
 H                     5.87      71.41     84.95 
 H                     3.73      71.87     83.01 
 H                     4.47      69.34     84.32 
 H                     5.3       70.13     82.81 
 N                     1.71      71.52     84.46 
 C                     0.53      71.54     85.3 
 C                     0.1       70.28     86.05 
 O                    -0.67      70.32     87.01 
 C                    -0.61      71.85     84.33 
 C                    -0.59      73.28     83.81 
 C                    -0.88      74.41     84.8 
 C                    -0.89      75.79     84.14 
 N                    -1.05      76.79     85.21 
 H                     1.39      71.71     83.52 
 H                     0.63      72.34     86.03 
 H                    -1.56      71.57     84.8 
 H                    -0.61      71.2      83.46 
 H                    -1.41      73.27     83.09 
 H                     0.41      73.51     83.46 
 H                    -0.21      74.32     85.65 
 H                    -1.92      74.22     85.09 
 H                    -1.65      75.9      83.37 
 H                     0.08      75.99     83.67 
 H                    -0.43      76.58     85.97 
 H                    -0.79      77.7      84.88 
 H                    -1.98      76.78     85.62 
 N                     0.52      69.12     85.54 
 C                     0.15      67.78     85.93 
 C                     1.3       66.78     85.97 
 O                     1.12      65.79     86.68 
 C                    -0.92      67.26     84.98 
 C                    -0.53      67.42     83.51 
 O                    -0.88      68.35     82.76 
 O                     0.3       66.59     83.08 
 H                     1.11      69.23     84.72 
 H                    -0.4       67.81     86.87 
 H                    -1.9       67.68     85.24 
 H                    -1.19      66.23     85.18 
 N                     2.4       67.       85.25 
 C                     3.55      66.12     85.21 
 C                     3.31      64.87     84.38 
 O                     4.29      64.12     84.4 
 H                     2.45      67.87     84.73 
 H                     3.7       65.77     86.24 
 H                     4.45      66.67     84.9 
 N                     2.18      64.57     83.75 
 C                     1.76      63.25     83.33 
 C                     2.46      62.81     82.05 
 O                     2.61      63.51     81.05 
 C                     0.24      63.3      83.24 
 C                    -0.32      61.91     83.01 
 N                    -1.03      61.65     81.91 
 O                    -0.24      61.       83.83 
 H                     1.53      65.34     83.64 
 H                     1.97      62.55     84.15 
 H                    -0.04      63.92     82.38 
 H                    -0.19      63.75     84.14 
 H                    -1.11      62.37     81.21 
 H                    -1.47      60.74     81.87 
 N                     2.88      61.55     82. 
 C                     3.77      60.95     81.02 
 C                     3.11      60.39     79.77 
 O                     3.85      60.28     78.8 
 H                     2.85      61.01     82.85 
 H                     4.38      60.19     81.49 
 H                     4.51      61.61     80.57 
 N                     1.8       60.1      79.74 
 C                     1.18      59.42     78.62 
 C                     0.19      60.21     77.78 
 O                    -0.47      61.14     78.24 
 C                     0.36      58.25     79.16 
 C                    -0.39      57.37     78.18 
 C                    -1.71      57.61     77.79 
 C                     0.23      56.21     77.7 
 C                    -2.46      56.67     77.07 
 C                    -0.51      55.27     76.96 
 C                    -1.88      55.44     76.69 
 O                    -2.59      54.45     76.06 
 H                     1.26      60.44     80.52 
 H                     1.99      59.07     77.98 
 H                    -0.37      58.66     79.85 
 H                     1.04      57.66     79.76 
 H                    -2.25      58.46     78.17 
 H                     1.24      56.01     78.02 
 H                    -3.5       56.88     76.89 
 H                    -0.14      54.27     76.79 
 H                    -1.99      53.85     75.6 
 N                     0.3       60.01     76.46 
 C                    -0.33      60.75     75.38 
 C                    -1.83      60.57     75.27 
 O                    -2.53      60.47     76.28 
 C                     0.06      62.22     75.26 
 C                    -0.96      63.3      75.62 
 C                     0.45      62.55     73.82 
 C                    -0.35      64.69     75.77 
 H                     0.65      59.1      76.19 
 H                     0.16      60.23     74.56 
 H                     0.94      62.43     75.86 
 H                    -1.36      63.17     76.63 
 H                    -1.74      63.3      74.86 
 H                     0.96      63.5      73.73 
 H                     1.15      61.76     73.53 
 H                    -0.46      62.63     73.22 
 H                     0.05      65.       74.8 
 H                    -1.07      65.38     76.21 
 H                     0.47      64.56     76.48 
 N                    -2.41      60.58     74.07 
 C                    -3.83      60.68     73.81 
 C                    -4.3       60.18     72.46 
 O                    -5.5       60.19     72.17 
 C                    -4.2       62.16     73.84 
 O                    -3.43      62.94     72.95 
 H                    -1.84      60.81     73.27 
 H                    -4.38      60.13     74.58 
 H                    -4.23      62.55     74.86 
 H                    -5.21      62.23     73.46 
 H                    -3.63      63.87     73.03 
 N                    -3.39      59.76     71.58 
 C                    -3.57      59.35     70.2 
 C                    -4.79      59.91     69.5 
 O                    -5.71      59.14     69.21 
 C                    -3.48      57.83     70.31 
 H                    -2.51      59.46     71.98 
 H                    -2.8       59.71     69.52 
 H                    -2.48      57.5      70.6 
 H                    -4.19      57.56     71.09 
 H                    -3.75      57.31     69.39 
 N                    -4.86      61.2      69.15 
 C                    -3.98      62.3      69.46 
 C                    -3.14      62.73     68.26 
 O                    -3.57      62.56     67.12 
 C                    -4.8       63.46     70.01 
 H                    -5.64      61.47     68.56 
 H                    -3.24      62.01     70.2 
 H                    -5.33      64.02     69.24 
 H                    -5.44      63.       70.77 
 H                    -4.04      64.11     70.44 
 N                    -2.        63.4      68.43 
 C                    -1.22      63.56     69.63 
 C                     0.04      62.71     69.5 
 O                     0.8       62.5      70.43 
 C                    -0.84      65.04     69.69 
 C                    -0.5       65.53     71.1 
 C                    -0.41      67.04     71.27 
 O                     0.68      67.63     71.09 
 O                    -1.41      67.71     71.63 
 H                    -1.55      63.78     67.61 
 H                    -1.82      63.29     70.5 
 H                    -1.75      65.6      69.47 
 H                    -0.09      65.32     68.95 
 H                     0.46      65.2      71.48 
 H                    -1.16      65.11     71.86 
 N                     0.34      62.14     68.33 
 C                     1.64      61.59     68. 
 H                     2.372     61.923    68.736 
 H                     1.587     60.501    68.007 
 H                     1.94      61.933    67.01 
 H                    -0.24      62.48     67.58 
 Ca                    1.04      68.1      80.92 
 O                     0.58      70.7      80.73 
 H                    -0.25      71.03     80.39 
 H                     1.11      71.49     80.88 
 
 Stoichiometry    C54H83CaN15O23
 Framework group  C1[X(C54H83CaN15O23)]
 Deg. of freedom   522
 Full point group                 C1      NOp   1
 Largest Abelian subgroup         C1      NOp   1
 Largest concise Abelian subgroup C1      NOp   1
                         Standard orientation:                         
 ---------------------------------------------------------------------
 Center     Atomic      Atomic             Coordinates (Angstroms)
 Number     Number       Type             X           Y           Z
 ---------------------------------------------------------------------
      1          6           0       12.134057   -2.755917    4.287707
      2          6           0       11.135780   -2.795816    3.145187
      3          8           0       11.123326   -3.692305    2.296275
      4          1           0       11.655105   -3.108947    5.200830
      5          1           0       12.982658   -3.397902    4.052127
      6          1           0       12.480363   -1.732709    4.432541
      7          7           0       10.253318   -1.808373    2.972800
      8          6           0        9.099212   -1.750504    2.096848
      9          6           0        9.589053   -1.299281    0.735910
     10          8           0       10.439681   -0.421175    0.617752
     11          6           0        7.979048   -0.841472    2.602804
     12          6           0        6.680651   -1.028079    1.830830
     13          8           0        5.762917   -1.665874    2.391082
     14          8           0        6.619566   -0.575887    0.665544
     15          1           0       10.433283   -0.974787    3.515798
     16          1           0        8.670223   -2.746526    1.996796
     17          1           0        8.386879    0.151605    2.427095
     18          1           0        7.890770   -1.234454    3.621171
     19          7           0        9.079947   -1.914801   -0.336819
     20          6           0        9.445107   -1.614852   -1.706158
     21          6           0        9.179781   -0.225705   -2.284841
     22          8           0        9.751698    0.182729   -3.295876
     23          6           0        8.592863   -2.575178   -2.535648
     24          6           0        9.032655   -4.027478   -2.421156
     25          6           0       10.384998   -4.419353   -3.020075
     26          6           0       10.680007   -5.914981   -2.892924
     27          7           0       12.050565   -6.138073   -3.385164
     28          1           0        8.385588   -2.648075   -0.384504
     29          1           0       10.501277   -1.833739   -1.845776
     30          1           0        8.554513   -2.211188   -3.569012
     31          1           0        7.541334   -2.543837   -2.266011
     32          1           0        8.266215   -4.542110   -3.003069
     33          1           0        9.146880   -4.275736   -1.372004
     34          1           0       11.155821   -3.770265   -2.615086
     35          1           0       10.237859   -4.243179   -4.092042
     36          1           0        9.960133   -6.547091   -3.407529
     37          1           0       10.676577   -6.211387   -1.837494
     38          1           0       12.669267   -5.449858   -2.998296
     39          1           0       12.392921   -7.027756   -3.075559
     40          1           0       12.128775   -6.024320   -4.392162
     41          7           0        8.212846    0.481700   -1.696016
     42          6           0        7.637887    1.738919   -2.112458
     43          6           0        7.371405    2.730209   -0.985324
     44          8           0        7.295546    3.912124   -1.322849
     45          6           0        6.333263    1.472266   -2.850462
     46          6           0        5.389716    0.559078   -2.066620
     47          8           0        5.267187   -0.669842   -2.223598
     48          8           0        4.779927    1.100956   -1.119400
     49          1           0        7.791711    0.006684   -0.902540
     50          1           0        8.243494    2.174309   -2.906609
     51          1           0        6.534634    1.145237   -3.878520
     52          1           0        5.817908    2.383795   -3.128534
     53          7           0        7.219202    2.293096    0.264702
     54          6           0        6.961140    3.141576    1.410121
     55          6           0        5.529688    3.648968    1.460134
     56          8           0        5.351468    4.402892    2.420933
     57          1           0        7.339054    1.298764    0.428224
     58          1           0        7.588930    4.032405    1.275200
     59          1           0        7.268356    2.643012    2.340525
     60          7           0        4.585684    3.378003    0.566135
     61          6           0        3.384765    4.150866    0.330177
     62          6           0        2.314497    3.874752    1.379122
     63          8           0        1.989470    2.758592    1.780427
     64          6           0        2.964732    3.850156   -1.103052
     65          6           0        1.834544    4.768706   -1.524409
     66          7           0        0.656128    4.255403   -1.884345
     67          8           0        1.955328    5.984167   -1.646745
     68          1           0        4.788594    2.601978   -0.053634
     69          1           0        3.660821    5.214005    0.324840
     70          1           0        2.593537    2.819451   -1.150597
     71          1           0        3.815029    3.938880   -1.786078
     72          1           0        0.516866    3.262262   -1.789076
     73          1           0       -0.016773    4.909639   -2.261811
     74          7           0        1.644120    4.925159    1.841443
     75          6           0        0.759315    4.975673    2.993427
     76          6           0       -0.697791    4.626953    2.734708
     77          8           0       -1.325852    4.265430    3.722352
     78          1           0        1.976914    5.842723    1.591793
     79          1           0        0.830106    5.943106    3.472659
     80          1           0        0.982817    4.286242    3.806096
     81          7           0       -1.217844    4.664825    1.498095
     82          6           0       -2.634786    4.492887    1.245286
     83          6           0       -3.068554    3.238203    0.505414
     84          8           0       -2.334662    2.655734   -0.290973
     85          6           0       -3.107016    5.635897    0.348945
     86          6           0       -4.565331    5.687903   -0.060828
     87          6           0       -5.055836    5.089859   -1.224378
     88          6           0       -5.459137    6.439884    0.711205
     89          6           0       -6.348564    5.338554   -1.705527
     90          6           0       -6.764803    6.678564    0.245298
     91          6           0       -7.216115    6.198715   -0.997587
     92          8           0       -8.458621    6.544683   -1.464045
     93          1           0       -0.551968    4.759240    0.747566
     94          1           0       -3.130991    4.523417    2.215362
     95          1           0       -2.517149    5.596211   -0.560770
     96          1           0       -2.818999    6.549209    0.852340
     97          1           0       -4.400480    4.543162   -1.880222
     98          1           0       -5.076731    6.923035    1.595982
     99          1           0       -6.624567    4.922902   -2.659023
    100          1           0       -7.388265    7.443048    0.684228
    101          1           0       -9.014552    6.851461   -0.737115
    102          7           0       -4.176790    2.663705    0.991486
    103          6           0       -4.735073    1.362353    0.666364
    104          6           0       -5.300027    1.239403   -0.733710
    105          8           0       -4.753888    1.799394   -1.686727
    106          6           0       -3.870718    0.156285    1.020892
    107          6           0       -3.216253   -0.654181   -0.097688
    108          6           0       -4.691710   -0.877592    1.790093
    109          6           0       -2.135316   -1.611416    0.394223
    110          1           0       -4.829806    3.295553    1.436275
    111          1           0       -5.549562    1.384165    1.386803
    112          1           0       -3.064959    0.448740    1.687017
    113          1           0       -2.612693   -0.028640   -0.762077
    114          1           0       -3.997724   -1.194198   -0.630309
    115          1           0       -4.078264   -1.628655    2.269977
    116          1           0       -5.202542   -0.306275    2.571660
    117          1           0       -5.335399   -1.409197    1.084713
    118          1           0       -2.602756   -2.360057    1.040780
    119          1           0       -1.572182   -2.019018   -0.445325
    120          1           0       -1.458453   -0.989018    0.984033
    121          7           0       -6.365270    0.468205   -0.950533
    122          6           0       -6.862287    0.043908   -2.241635
    123          6           0       -8.314015   -0.384268   -2.292129
    124          8           0       -8.831838   -0.722469   -3.360623
    125          6           0       -6.066217   -1.189311   -2.658341
    126          8           0       -6.104647   -2.222440   -1.696796
    127          1           0       -6.705802   -0.095423   -0.186228
    128          1           0       -6.727018    0.852541   -2.966698
    129          1           0       -5.058438   -0.928641   -2.989751
    130          1           0       -6.570944   -1.601274   -3.521438
    131          1           0       -5.549099   -2.958078   -1.944792
    132          7           0       -9.011395   -0.419936   -1.155780
    133          6           0      -10.361191   -0.898273   -0.923089
    134          6           0      -10.878861   -1.918447   -1.914686
    135          8           0      -11.782792   -1.586020   -2.686567
    136          6           0      -11.142561    0.408602   -0.812911
    137          1           0       -8.658199    0.171947   -0.414614
    138          1           0      -10.483120   -1.471430   -0.005743
    139          1           0      -10.861819    0.978650    0.075474
    140          1           0      -10.875835    0.974013   -1.704296
    141          1           0      -12.224133    0.268999   -0.792624
    142          7           0      -10.412209   -3.172846   -1.929477
    143          6           0       -9.309883   -3.766825   -1.213539
    144          6           0       -9.774729   -4.683216   -0.084537
    145          8           0      -10.861430   -5.253749   -0.168044
    146          6           0       -8.412025   -4.506435   -2.197068
    147          1           0      -10.904602   -3.834870   -2.519963
    148          1           0       -8.723409   -3.008670   -0.703100
    149          1           0       -8.811309   -5.471626   -2.507517
    150          1           0       -8.254339   -3.788808   -3.008823
    151          1           0       -7.510186   -4.683877   -1.613800
    152          7           0       -8.966914   -4.972696    0.935774
    153          6           0       -7.752296   -4.311780    1.338136
    154          6           0       -8.034793   -3.523745    2.613360
    155          8           0       -7.249902   -2.719475    3.086325
    156          6           0       -6.745668   -5.424822    1.631798
    157          6           0       -5.285962   -4.972242    1.541080
    158          6           0       -4.249357   -6.086817    1.524583
    159          8           0       -3.770943   -6.517651    2.598875
    160          8           0       -3.829626   -6.562256    0.440017
    161          1           0       -9.265160   -5.685773    1.585289
    162          1           0       -7.388622   -3.679995    0.526724
    163          1           0       -6.815412   -6.129036    0.801547
    164          1           0       -6.965679   -5.970061    2.549845
    165          1           0       -4.945753   -4.356439    2.365668
    166          1           0       -5.109885   -4.289781    0.708707
    167          7           0       -9.196125   -3.686844    3.252506
    168          6           0       -9.447575   -3.250336    4.611783
    169          1           0       -8.501914   -3.000459    5.093130
    170          1           0      -10.092163   -2.371071    4.598431
    171          1           0       -9.936143   -4.050856    5.166955
    172          1           0       -9.721102   -4.469222    2.896441
    173         20           0        4.180648   -1.251146    0.146216
    174          8           0        5.439305   -3.529708   -0.335069
    175          1           0        5.162452   -4.104862   -1.046370
    176          1           0        6.149428   -4.011678    0.101887
 ---------------------------------------------------------------------
 Rotational constants (GHZ):           0.0221568           0.0067377           0.0057892
 Standard basis: SVP (5D, 7F)
 There are  1809 symmetry adapted cartesian basis functions of A   symmetry.
 There are  1717 symmetry adapted basis functions of A   symmetry.
  1717 basis functions,  2922 primitive gaussians,  1809 cartesian basis functions
   358 alpha electrons      358 beta electrons
       nuclear repulsion energy     18483.9650406237 Hartrees.
 NAtoms=  176 NActive=  176 NUniq=  176 SFac= 1.00D+00 NAtFMM=   60 NAOKFM=T Big=T
 Integral buffers will be    131072 words long.
 Raffenetti 2 integral format.
 Two-electron integral symmetry is turned on.
 One-electron integrals computed using PRISM.
 NBasis=  1717 RedAO= T EigKep=  2.82D-04  NBF=  1717
 NBsUse=  1717 1.00D-06 EigRej= -1.00D+00 NBFU=  1717
 ExpMin= 1.98D-02 ExpMax= 3.51D+04 ExpMxC= 5.28D+03 IAcc=3 IRadAn=         5 AccDes= 0.00D+00
 Harris functional with IExCor=  402 and IRadAn=       5 diagonalized for initial guess.
 HarFok:  IExCor=  402 AccDes= 0.00D+00 IRadAn=         5 IDoV= 1 UseB2=F ITyADJ=14
 ICtDFT=  3500011 ScaDFX=  1.000000  1.000000  1.000000  1.000000
 FoFCou: FMM=F IPFlag=           0 FMFlag=      100000 FMFlg1=        2001
         NFxFlg=           0 DoJE=T BraDBF=F KetDBF=T FulRan=T
         wScrn=  0.000000 ICntrl=       500 IOpCl=  0 I1Cent=   200000004 NGrid=           0
         NMat0=    1 NMatS0=      1 NMatT0=    0 NMatD0=    1 NMtDS0=    0 NMtDT0=    0
 Petite list used in FoFCou.
 Requested convergence on RMS density matrix=1.00D-08 within 128 cycles.
 Requested convergence on MAX density matrix=1.00D-06.
 Requested convergence on             energy=1.00D-06.
 No special actions if energy rises.
 EnCoef did     4 forward-backward iterations
 EnCoef did     5 forward-backward iterations
 EnCoef did     2 forward-backward iterations
 EnCoef did     2 forward-backward iterations
 EnCoef did     3 forward-backward iterations
 EnCoef did    26 forward-backward iterations
 EnCoef did    30 forward-backward iterations
 EnCoef did    38 forward-backward iterations
 EnCoef did    79 forward-backward iterations
 EnCoef did    16 forward-backward iterations
 EnCoef did   100 forward-backward iterations
 EnCoef did   100 forward-backward iterations
 EnCoef did   100 forward-backward iterations
 EnCoef did   100 forward-backward iterations
 EnCoef did   100 forward-backward iterations
 EnCoef did   100 forward-backward iterations
 Restarting incremental Fock formation.
 EnCoef did   100 forward-backward iterations
 EnCoef did   100 forward-backward iterations
 Rare condition: small coef for last iteration:  0.938D-15
 EnCoef did    12 forward-backward iterations
 EnCoef did   100 forward-backward iterations
 EnCoef did   100 forward-backward iterations
 Rare condition: small coef for last iteration:  0.215D-15
 EnCoef did   100 forward-backward iterations
 EnCoef did     9 forward-backward iterations
 Rare condition: small coef for last iteration: -0.222D-15
 EnCoef did   100 forward-backward iterations
 EnCoef did   100 forward-backward iterations
 EnCoef did   100 forward-backward iterations
 EnCoef did   100 forward-backward iterations
 Rare condition: small coef for last iteration: -0.526D-15
 EnCoef did   100 forward-backward iterations
 Rare condition: small coef for last iteration:  0.000D+00
 EnCoef did   100 forward-backward iterations
 EnCoef did   100 forward-backward iterations
 Rare condition: small coef for last iteration:  0.511D-15
 EnCoef did    28 forward-backward iterations
 Rare condition: small coef for last iteration:  0.999D-15
 EnCoef did   100 forward-backward iterations
 Rare condition: small coef for last iteration:  0.000D+00
 EnCoef did    37 forward-backward iterations
 EnCoef did   100 forward-backward iterations
 Restarting incremental Fock formation.
 SCF Done:  E(RB3LYP) =  -5333.33414121     A.U. after   51 cycles
            NFock= 51  Conv=0.61D-09     -V/T= 2.0081
 SCF density gives NOpUse=  1 NOpAll=  1.
 Hyperfine terms turned off by default for NAtoms > 100.

 **********************************************************************

            Population analysis using the SCF density.

 **********************************************************************

 Orbital symmetries:
 BldTbl:  Degeneracy threshold= 1.00D-02
       Occupied  (A) (A) (A) (A) (A) (A) (A) (A) (A) (A) (A) (A)
                 (A) (A) (A) (A) (A) (A) (A) (A) (A) (A) (A) (A)
                 (A) (A) (A) (A) (A) (A) (A) (A) (A) (A) (A) (A)
                 (A) (A) (A) (A) (A) (A) (A) (A) (A) (A) (A) (A)
                 (A) (A) (A) (A) (A) (A) (A) (A) (A) (A) (A) (A)
                 (A) (A) (A) (A) (A) (A) (A) (A) (A) (A) (A) (A)
                 (A) (A) (A) (A) (A) (A) (A) (A) (A) (A) (A) (A)
                 (A) (A) (A) (A) (A) (A) (A) (A) (A) (A) (A) (A)
                 (A) (A) (A) (A) (A) (A) (A) (A) (A) (A) (A) (A)
                 (A) (A) (A) (A) (A) (A) (A) (A) (A) (A) (A) (A)
                 (A) (A) (A) (A) (A) (A) (A) (A) (A) (A) (A) (A)
                 (A) (A) (A) (A) (A) (A) (A) (A) (A) (A) (A) (A)
                 (A) (A) (A) (A) (A) (A) (A) (A) (A) (A) (A) (A)
                 (A) (A) (A) (A) (A) (A) (A) (A) (A) (A) (A) (A)
                 (A) (A) (A) (A) (A) (A) (A) (A) (A) (A) (A) (A)
                 (A) (A) (A) (A) (A) (A) (A) (A) (A) (A) (A) (A)
                 (A) (A) (A) (A) (A) (A) (A) (A) (A) (A) (A) (A)
                 (A) (A) (A) (A) (A) (A) (A) (A) (A) (A) (A) (A)
                 (A) (A) (A) (A) (A) (A) (A) (A) (A) (A) (A) (A)
                 (A) (A) (A) (A) (A) (A) (A) (A) (A) (A) (A) (A)
                 (A) (A) (A) (A) (A) (A) (A) (A) (A) (A) (A) (A)
                 (A) (A) (A) (A) (A) (A) (A) (A) (A) (A) (A) (A)
                 (A) (A) (A) (A) (A) (A) (A) (A) (A) (A) (A) (A)
                 (A) (A) (A) (A) (A) (A) (A) (A) (A) (A) (A) (A)
                 (A) (A) (A) (A) (A) (A) (A) (A) (A) (A) (A) (A)
                 (A) (A) (A) (A) (A) (A) (A) (A) (A) (A) (A) (A)
                 (A) (A) (A) (A) (A) (A) (A) (A) (A) (A) (A) (A)
                 (A) (A) (A) (A) (A) (A) (A) (A) (A) (A) (A) (A)
                 (A) (A) (A) (A) (A) (A) (A) (A) (A) (A) (A) (A)
                 (A) (A) (A) (A) (A) (A) (A) (A) (A) (A)
       Virtual   (A) (A) (A) (A) (A) (A) (A) (A) (A) (A) (A) (A)
                 (A) (A) (A) (A) (A) (A) (A) (A) (A) (A) (A) (A)
                 (A) (A) (A) (A) (A) (A) (A) (A) (A) (A) (A) (A)
                 (A) (A) (A) (A) (A) (A) (A) (A) (A) (A) (A) (A)
                 (A) (A) (A) (A) (A) (A) (A) (A) (A) (A) (A) (A)
                 (A) (A) (A) (A) (A) (A) (A) (A) (A) (A) (A) (A)
                 (A) (A) (A) (A) (A) (A) (A) (A) (A) (A) (A) (A)
                 (A) (A) (A) (A) (A) (A) (A) (A) (A) (A) (A) (A)
                 (A) (A) (A) (A) (A) (A) (A) (A) (A) (A) (A) (A)
                 (A) (A) (A) (A) (A) (A) (A) (A) (A) (A) (A) (A)
                 (A) (A) (A) (A) (A) (A) (A) (A) (A) (A) (A) (A)
                 (A) (A) (A) (A) (A) (A) (A) (A) (A) (A) (A) (A)
                 (A) (A) (A) (A) (A) (A) (A) (A) (A) (A) (A) (A)
                 (A) (A) (A) (A) (A) (A) (A) (A) (A) (A) (A) (A)
                 (A) (A) (A) (A) (A) (A) (A) (A) (A) (A) (A) (A)
                 (A) (A) (A) (A) (A) (A) (A) (A) (A) (A) (A) (A)
                 (A) (A) (A) (A) (A) (A) (A) (A) (A) (A) (A) (A)
                 (A) (A) (A) (A) (A) (A) (A) (A) (A) (A) (A) (A)
                 (A) (A) (A) (A) (A) (A) (A) (A) (A) (A) (A) (A)
                 (A) (A) (A) (A) (A) (A) (A) (A) (A) (A) (A) (A)
                 (A) (A) (A) (A) (A) (A) (A) (A) (A) (A) (A) (A)
                 (A) (A) (A) (A) (A) (A) (A) (A) (A) (A) (A) (A)
                 (A) (A) (A) (A) (A) (A) (A) (A) (A) (A) (A) (A)
                 (A) (A) (A) (A) (A) (A) (A) (A) (A) (A) (A) (A)
                 (A) (A) (A) (A) (A) (A) (A) (A) (A) (A) (A) (A)
                 (A) (A) (A) (A) (A) (A) (A) (A) (A) (A) (A) (A)
                 (A) (A) (A) (A) (A) (A) (A) (A) (A) (A) (A) (A)
                 (A) (A) (A) (A) (A) (A) (A) (A) (A) (A) (A) (A)
                 (A) (A) (A) (A) (A) (A) (A) (A) (A) (A) (A) (A)
                 (A) (A) (A) (A) (A) (A) (A) (A) (A) (A) (A) (A)
                 (A) (A) (A) (A) (A) (A) (A) (A) (A) (A) (A) (A)
                 (A) (A) (A) (A) (A) (A) (A) (A) (A) (A) (A) (A)
                 (A) (A) (A) (A) (A) (A) (A) (A) (A) (A) (A) (A)
                 (A) (A) (A) (A) (A) (A) (A) (A) (A) (A) (A) (A)
                 (A) (A) (A) (A) (A) (A) (A) (A) (A) (A) (A) (A)
                 (A) (A) (A) (A) (A) (A) (A) (A) (A) (A) (A) (A)
                 (A) (A) (A) (A) (A) (A) (A) (A) (A) (A) (A) (A)
                 (A) (A) (A) (A) (A) (A) (A) (A) (A) (A) (A) (A)
                 (A) (A) (A) (A) (A) (A) (A) (A) (A) (A) (A) (A)
                 (A) (A) (A) (A) (A) (A) (A) (A) (A) (A) (A) (A)
                 (A) (A) (A) (A) (A) (A) (A) (A) (A) (A) (A) (A)
                 (A) (A) (A) (A) (A) (A) (A) (A) (A) (A) (A) (A)
                 (A) (A) (A) (A) (A) (A) (A) (A) (A) (A) (A) (A)
                 (A) (A) (A) (A) (A) (A) (A) (A) (A) (A) (A) (A)
                 (A) (A) (A) (A) (A) (A) (A) (A) (A) (A) (A) (A)
                 (A) (A) (A) (A) (A) (A) (A) (A) (A) (A) (A) (A)
                 (A) (A) (A) (A) (A) (A) (A) (A) (A) (A) (A) (A)
                 (A) (A) (A) (A) (A) (A) (A) (A) (A) (A) (A) (A)
                 (A) (A) (A) (A) (A) (A) (A) (A) (A) (A) (A) (A)
                 (A) (A) (A) (A) (A) (A) (A) (A) (A) (A) (A) (A)
                 (A) (A) (A) (A) (A) (A) (A) (A) (A) (A) (A) (A)
                 (A) (A) (A) (A) (A) (A) (A) (A) (A) (A) (A) (A)
                 (A) (A) (A) (A) (A) (A) (A) (A) (A) (A) (A) (A)
                 (A) (A) (A) (A) (A) (A) (A) (A) (A) (A) (A) (A)
                 (A) (A) (A) (A) (A) (A) (A) (A) (A) (A) (A) (A)
                 (A) (A) (A) (A) (A) (A) (A) (A) (A) (A) (A) (A)
                 (A) (A) (A) (A) (A) (A) (A) (A) (A) (A) (A) (A)
                 (A) (A) (A) (A) (A) (A) (A) (A) (A) (A) (A) (A)
                 (A) (A) (A) (A) (A) (A) (A) (A) (A) (A) (A) (A)
                 (A) (A) (A) (A) (A) (A) (A) (A) (A) (A) (A) (A)
                 (A) (A) (A) (A) (A) (A) (A) (A) (A) (A) (A) (A)
                 (A) (A) (A) (A) (A) (A) (A) (A) (A) (A) (A) (A)
                 (A) (A) (A) (A) (A) (A) (A) (A) (A) (A) (A) (A)
                 (A) (A) (A) (A) (A) (A) (A) (A) (A) (A) (A) (A)
                 (A) (A) (A) (A) (A) (A) (A) (A) (A) (A) (A) (A)
                 (A) (A) (A) (A) (A) (A) (A) (A) (A) (A) (A) (A)
                 (A) (A) (A) (A) (A) (A) (A) (A) (A) (A) (A) (A)
                 (A) (A) (A) (A) (A) (A) (A) (A) (A) (A) (A) (A)
                 (A) (A) (A) (A) (A) (A) (A) (A) (A) (A) (A) (A)
                 (A) (A) (A) (A) (A) (A) (A) (A) (A) (A) (A) (A)
                 (A) (A) (A) (A) (A) (A) (A) (A) (A) (A) (A) (A)
                 (A) (A) (A) (A) (A) (A) (A) (A) (A) (A) (A) (A)
                 (A) (A) (A) (A) (A) (A) (A) (A) (A) (A) (A) (A)
                 (A) (A) (A) (A) (A) (A) (A) (A) (A) (A) (A) (A)
                 (A) (A) (A) (A) (A) (A) (A) (A) (A) (A) (A) (A)
                 (A) (A) (A) (A) (A) (A) (A) (A) (A) (A) (A) (A)
                 (A) (A) (A) (A) (A) (A) (A) (A) (A) (A) (A) (A)
                 (A) (A) (A) (A) (A) (A) (A) (A) (A) (A) (A) (A)
                 (A) (A) (A) (A) (A) (A) (A) (A) (A) (A) (A) (A)
                 (A) (A) (A) (A) (A) (A) (A) (A) (A) (A) (A) (A)
                 (A) (A) (A) (A) (A) (A) (A) (A) (A) (A) (A) (A)
                 (A) (A) (A) (A) (A) (A) (A) (A) (A) (A) (A) (A)
                 (A) (A) (A) (A) (A) (A) (A) (A) (A) (A) (A) (A)
                 (A) (A) (A) (A) (A) (A) (A) (A) (A) (A) (A) (A)
                 (A) (A) (A) (A) (A) (A) (A) (A) (A) (A) (A) (A)
                 (A) (A) (A) (A) (A) (A) (A) (A) (A) (A) (A) (A)
                 (A) (A) (A) (A) (A) (A) (A) (A) (A) (A) (A) (A)
                 (A) (A) (A) (A) (A) (A) (A) (A) (A) (A) (A) (A)
                 (A) (A) (A) (A) (A) (A) (A) (A) (A) (A) (A) (A)
                 (A) (A) (A) (A) (A) (A) (A) (A) (A) (A) (A) (A)
                 (A) (A) (A) (A) (A) (A) (A) (A) (A) (A) (A) (A)
                 (A) (A) (A) (A) (A) (A) (A) (A) (A) (A) (A) (A)
                 (A) (A) (A) (A) (A) (A) (A) (A) (A) (A) (A) (A)
                 (A) (A) (A) (A) (A) (A) (A) (A) (A) (A) (A) (A)
                 (A) (A) (A) (A) (A) (A) (A) (A) (A) (A) (A) (A)
                 (A) (A) (A) (A) (A) (A) (A) (A) (A) (A) (A) (A)
                 (A) (A) (A) (A) (A) (A) (A) (A) (A) (A) (A) (A)
                 (A) (A) (A) (A) (A) (A) (A) (A) (A) (A) (A) (A)
                 (A) (A) (A) (A) (A) (A) (A) (A) (A) (A) (A) (A)
                 (A) (A) (A) (A) (A) (A) (A) (A) (A) (A) (A) (A)
                 (A) (A) (A) (A) (A) (A) (A) (A) (A) (A) (A) (A)
                 (A) (A) (A) (A) (A) (A) (A) (A) (A) (A) (A) (A)
                 (A) (A) (A) (A) (A) (A) (A) (A) (A) (A) (A) (A)
                 (A) (A) (A) (A) (A) (A) (A) (A) (A) (A) (A) (A)
                 (A) (A) (A) (A) (A) (A) (A) (A) (A) (A) (A) (A)
                 (A) (A) (A) (A) (A) (A) (A) (A) (A) (A) (A) (A)
                 (A) (A) (A) (A) (A) (A) (A) (A) (A) (A) (A) (A)
                 (A) (A) (A) (A) (A) (A) (A) (A) (A) (A) (A) (A)
                 (A) (A) (A) (A) (A) (A) (A) (A) (A) (A) (A) (A)
                 (A) (A) (A) (A) (A) (A) (A) (A) (A) (A) (A) (A)
                 (A) (A) (A) (A) (A) (A) (A) (A) (A) (A) (A) (A)
                 (A) (A) (A) (A) (A) (A) (A) (A) (A) (A) (A) (A)
                 (A) (A) (A) (A) (A) (A) (A) (A) (A) (A) (A) (A)
                 (A) (A) (A)
 The electronic state is 1-A.
 Alpha  occ. eigenvalues -- -145.47782 -19.24322 -19.15742 -19.13943 -19.13374
 Alpha  occ. eigenvalues --  -19.12566 -19.12306 -19.11162 -19.10333 -19.10207
 Alpha  occ. eigenvalues --  -19.10072 -19.08986 -19.08691 -19.08212 -19.08162
 Alpha  occ. eigenvalues --  -19.08049 -19.08026 -19.07681 -19.07426 -19.07287
 Alpha  occ. eigenvalues --  -19.06644 -19.06052 -18.98978 -18.98910 -15.53678
 Alpha  occ. eigenvalues --  -14.59024 -14.38914 -14.37668 -14.35526 -14.35396
 Alpha  occ. eigenvalues --  -14.35345 -14.35330 -14.34506 -14.34418 -14.34313
 Alpha  occ. eigenvalues --  -14.34312 -14.34170 -14.33857 -14.32859 -14.32814
 Alpha  occ. eigenvalues --  -12.67267 -12.67243 -12.67213 -10.36991 -10.31668
 Alpha  occ. eigenvalues --  -10.30827 -10.30788 -10.29678 -10.29272 -10.28976
 Alpha  occ. eigenvalues --  -10.28033 -10.27747 -10.27501 -10.27322 -10.27201
 Alpha  occ. eigenvalues --  -10.27092 -10.26799 -10.26667 -10.26593 -10.26538
 Alpha  occ. eigenvalues --  -10.26524 -10.26116 -10.26075 -10.25991 -10.24518
 Alpha  occ. eigenvalues --  -10.24312 -10.23374 -10.23336 -10.23307 -10.22756
 Alpha  occ. eigenvalues --  -10.22744 -10.22556 -10.22309 -10.22241 -10.22158
 Alpha  occ. eigenvalues --  -10.22146 -10.22076 -10.22050 -10.22027 -10.20966
 Alpha  occ. eigenvalues --  -10.19805 -10.19031 -10.18846 -10.18585 -10.18520
 Alpha  occ. eigenvalues --  -10.18399 -10.17997 -10.17981 -10.17955 -10.17486
 Alpha  occ. eigenvalues --  -10.17078 -10.16945 -10.16458 -10.15646 -10.15143
 Alpha  occ. eigenvalues --  -10.15118 -10.12417  -1.90367  -1.17794  -1.17658
 Alpha  occ. eigenvalues --   -1.17352  -1.14833  -1.10050  -1.07594  -1.05780
 Alpha  occ. eigenvalues --   -1.05479  -1.04227  -1.03979  -1.02948  -1.02812
 Alpha  occ. eigenvalues --   -1.02379  -1.01768  -1.01701  -1.01561  -1.01421
 Alpha  occ. eigenvalues --   -1.01215  -1.01063  -1.00809  -1.00357  -0.99719
 Alpha  occ. eigenvalues --   -0.99000  -0.97795  -0.96135  -0.94522  -0.93972
 Alpha  occ. eigenvalues --   -0.93079  -0.92666  -0.92645  -0.92209  -0.91603
 Alpha  occ. eigenvalues --   -0.91168  -0.90972  -0.90947  -0.90843  -0.90617
 Alpha  occ. eigenvalues --   -0.90127  -0.89678  -0.89438  -0.88757  -0.84730
 Alpha  occ. eigenvalues --   -0.84279  -0.82501  -0.82005  -0.80583  -0.79387
 Alpha  occ. eigenvalues --   -0.78497  -0.77986  -0.77674  -0.77658  -0.76773
 Alpha  occ. eigenvalues --   -0.75823  -0.75560  -0.74985  -0.74818  -0.73770
 Alpha  occ. eigenvalues --   -0.73452  -0.73272  -0.72847  -0.72306  -0.71173
 Alpha  occ. eigenvalues --   -0.71129  -0.70862  -0.69272  -0.68476  -0.67134
 Alpha  occ. eigenvalues --   -0.66813  -0.66286  -0.65820  -0.65317  -0.64837
 Alpha  occ. eigenvalues --   -0.64692  -0.64413  -0.63889  -0.63270  -0.63193
 Alpha  occ. eigenvalues --   -0.61475  -0.61184  -0.61118  -0.60804  -0.60039
 Alpha  occ. eigenvalues --   -0.59711  -0.59663  -0.59143  -0.58914  -0.58510
 Alpha  occ. eigenvalues --   -0.58340  -0.58141  -0.57916  -0.57518  -0.57208
 Alpha  occ. eigenvalues --   -0.57139  -0.56419  -0.56391  -0.56342  -0.56122
 Alpha  occ. eigenvalues --   -0.54857  -0.54447  -0.54245  -0.54108  -0.53896
 Alpha  occ. eigenvalues --   -0.53793  -0.53454  -0.53244  -0.53153  -0.53130
 Alpha  occ. eigenvalues --   -0.52289  -0.52227  -0.52142  -0.51790  -0.50978
 Alpha  occ. eigenvalues --   -0.50891  -0.50307  -0.50293  -0.49773  -0.49500
 Alpha  occ. eigenvalues --   -0.49367  -0.48862  -0.48731  -0.48577  -0.48531
 Alpha  occ. eigenvalues --   -0.48114  -0.47891  -0.47679  -0.47488  -0.47454
 Alpha  occ. eigenvalues --   -0.47366  -0.47162  -0.46761  -0.46746  -0.45936
 Alpha  occ. eigenvalues --   -0.45917  -0.45888  -0.45592  -0.45532  -0.45311
 Alpha  occ. eigenvalues --   -0.45082  -0.44965  -0.44729  -0.44667  -0.44614
 Alpha  occ. eigenvalues --   -0.44444  -0.44312  -0.44142  -0.43617  -0.43543
 Alpha  occ. eigenvalues --   -0.43424  -0.43391  -0.43334  -0.43168  -0.42848
 Alpha  occ. eigenvalues --   -0.42719  -0.42601  -0.42400  -0.42305  -0.42012
 Alpha  occ. eigenvalues --   -0.41934  -0.41841  -0.41588  -0.41532  -0.41371
 Alpha  occ. eigenvalues --   -0.40977  -0.40894  -0.40806  -0.40566  -0.40446
 Alpha  occ. eigenvalues --   -0.40404  -0.40362  -0.40200  -0.40070  -0.39928
 Alpha  occ. eigenvalues --   -0.39803  -0.39760  -0.39618  -0.39496  -0.39133
 Alpha  occ. eigenvalues --   -0.39029  -0.38667  -0.38623  -0.38610  -0.38347
 Alpha  occ. eigenvalues --   -0.38295  -0.38218  -0.38087  -0.37976  -0.37753
 Alpha  occ. eigenvalues --   -0.37436  -0.37352  -0.37263  -0.37103  -0.36887
 Alpha  occ. eigenvalues --   -0.36439  -0.36399  -0.36313  -0.36036  -0.35940
 Alpha  occ. eigenvalues --   -0.35804  -0.35515  -0.35466  -0.35117  -0.35084
 Alpha  occ. eigenvalues --   -0.34976  -0.34927  -0.34637  -0.34338  -0.34132
 Alpha  occ. eigenvalues --   -0.33929  -0.33652  -0.33641  -0.33459  -0.33215
 Alpha  occ. eigenvalues --   -0.33151  -0.32011  -0.31995  -0.31622  -0.31437
 Alpha  occ. eigenvalues --   -0.31321  -0.31218  -0.29898  -0.29039  -0.29011
 Alpha  occ. eigenvalues --   -0.28834  -0.28727  -0.28631  -0.28408  -0.28053
 Alpha  occ. eigenvalues --   -0.27710  -0.27668  -0.27101  -0.26979  -0.26919
 Alpha  occ. eigenvalues --   -0.26861  -0.26436  -0.26190  -0.26046  -0.26008
 Alpha  occ. eigenvalues --   -0.25830  -0.25671  -0.25557  -0.25247  -0.25100
 Alpha  occ. eigenvalues --   -0.24873  -0.24429  -0.24190  -0.24061  -0.23795
 Alpha  occ. eigenvalues --   -0.23741  -0.23527  -0.23149  -0.22922  -0.22476
 Alpha  occ. eigenvalues --   -0.22396  -0.22129  -0.21999  -0.21985  -0.21619
 Alpha  occ. eigenvalues --   -0.16132  -0.15700  -0.12414
 Alpha virt. eigenvalues --   -0.11732  -0.11208  -0.05930  -0.05668  -0.05287
 Alpha virt. eigenvalues --   -0.03348  -0.01491  -0.01040  -0.00931   0.00119
 Alpha virt. eigenvalues --    0.00359   0.00524   0.00618   0.01130   0.01448
 Alpha virt. eigenvalues --    0.01742   0.01818   0.01941   0.02130   0.02294
 Alpha virt. eigenvalues --    0.02477   0.02491   0.02701   0.02815   0.03021
 Alpha virt. eigenvalues --    0.03190   0.03280   0.03477   0.03714   0.03811
 Alpha virt. eigenvalues --    0.04148   0.04297   0.04816   0.05001   0.05086
 Alpha virt. eigenvalues --    0.05150   0.05289   0.05442   0.05535   0.05832
 Alpha virt. eigenvalues --    0.06518   0.06812   0.07320   0.07531   0.08161
 Alpha virt. eigenvalues --    0.08270   0.08476   0.08505   0.08771   0.08974
 Alpha virt. eigenvalues --    0.09061   0.09145   0.09422   0.09623   0.09955
 Alpha virt. eigenvalues --    0.10174   0.10297   0.10322   0.10734   0.10901
 Alpha virt. eigenvalues --    0.10957   0.11222   0.11521   0.11650   0.11909
 Alpha virt. eigenvalues --    0.11996   0.12164   0.12302   0.12347   0.12370
 Alpha virt. eigenvalues --    0.12797   0.12840   0.13045   0.13192   0.13306
 Alpha virt. eigenvalues --    0.13449   0.13571   0.13827   0.14051   0.14140
 Alpha virt. eigenvalues --    0.14589   0.14684   0.14767   0.15012   0.15082
 Alpha virt. eigenvalues --    0.15213   0.15429   0.15444   0.15672   0.15737
 Alpha virt. eigenvalues --    0.15775   0.15828   0.16029   0.16293   0.16335
 Alpha virt. eigenvalues --    0.16486   0.16683   0.16872   0.16981   0.17259
 Alpha virt. eigenvalues --    0.17425   0.17517   0.17603   0.17764   0.17859
 Alpha virt. eigenvalues --    0.18335   0.18480   0.18927   0.19153   0.19286
 Alpha virt. eigenvalues --    0.19526   0.19635   0.20059   0.20229   0.20311
 Alpha virt. eigenvalues --    0.20659   0.20918   0.21080   0.21179   0.21347
 Alpha virt. eigenvalues --    0.21457   0.21666   0.21795   0.22036   0.22176
 Alpha virt. eigenvalues --    0.22344   0.22547   0.22721   0.22986   0.23092
 Alpha virt. eigenvalues --    0.23189   0.23523   0.23994   0.24092   0.24428
 Alpha virt. eigenvalues --    0.24491   0.24699   0.25025   0.25164   0.25312
 Alpha virt. eigenvalues --    0.25370   0.25770   0.26056   0.26334   0.26561
 Alpha virt. eigenvalues --    0.26762   0.27011   0.27210   0.27593   0.27730
 Alpha virt. eigenvalues --    0.28253   0.28445   0.28548   0.28964   0.29208
 Alpha virt. eigenvalues --    0.29326   0.29433   0.29640   0.29989   0.30146
 Alpha virt. eigenvalues --    0.30251   0.30546   0.30775   0.31011   0.31304
 Alpha virt. eigenvalues --    0.31363   0.31666   0.31741   0.31851   0.32339
 Alpha virt. eigenvalues --    0.32407   0.32696   0.32902   0.33255   0.33487
 Alpha virt. eigenvalues --    0.33673   0.33810   0.34104   0.34320   0.34895
 Alpha virt. eigenvalues --    0.35128   0.35265   0.35485   0.35893   0.36172
 Alpha virt. eigenvalues --    0.36465   0.36769   0.36854   0.37603   0.37691
 Alpha virt. eigenvalues --    0.38085   0.38944   0.39439   0.39563   0.40142
 Alpha virt. eigenvalues --    0.40631   0.40894   0.41030   0.41113   0.41291
 Alpha virt. eigenvalues --    0.41372   0.41846   0.42003   0.42110   0.42207
 Alpha virt. eigenvalues --    0.42529   0.42780   0.42969   0.43262   0.43440
 Alpha virt. eigenvalues --    0.43589   0.43947   0.44104   0.44225   0.44451
 Alpha virt. eigenvalues --    0.44908   0.45057   0.45105   0.45186   0.45428
 Alpha virt. eigenvalues --    0.45539   0.45708   0.46050   0.46219   0.46383
 Alpha virt. eigenvalues --    0.46620   0.46935   0.47324   0.47402   0.47472
 Alpha virt. eigenvalues --    0.47784   0.48073   0.48390   0.48525   0.48710
 Alpha virt. eigenvalues --    0.48791   0.49022   0.49262   0.49334   0.49405
 Alpha virt. eigenvalues --    0.49551   0.49745   0.49965   0.50098   0.50275
 Alpha virt. eigenvalues --    0.50395   0.50600   0.50771   0.50935   0.51116
 Alpha virt. eigenvalues --    0.51514   0.51615   0.51706   0.51799   0.52010
 Alpha virt. eigenvalues --    0.52177   0.52268   0.52339   0.52552   0.52785
 Alpha virt. eigenvalues --    0.52922   0.53106   0.53185   0.53276   0.53647
 Alpha virt. eigenvalues --    0.53963   0.54036   0.54154   0.54286   0.54675
 Alpha virt. eigenvalues --    0.54782   0.54841   0.55198   0.55355   0.55499
 Alpha virt. eigenvalues --    0.55727   0.55796   0.55854   0.56133   0.56200
 Alpha virt. eigenvalues --    0.56609   0.56820   0.57663   0.57773   0.57947
 Alpha virt. eigenvalues --    0.57984   0.58056   0.58130   0.58238   0.58577
 Alpha virt. eigenvalues --    0.58674   0.58721   0.58780   0.59004   0.59089
 Alpha virt. eigenvalues --    0.59272   0.59441   0.59563   0.59816   0.60015
 Alpha virt. eigenvalues --    0.60240   0.60464   0.60541   0.60704   0.60774
 Alpha virt. eigenvalues --    0.60842   0.61264   0.61445   0.61709   0.61879
 Alpha virt. eigenvalues --    0.62000   0.62098   0.62160   0.62281   0.62316
 Alpha virt. eigenvalues --    0.62531   0.62655   0.62740   0.62800   0.62868
 Alpha virt. eigenvalues --    0.63024   0.63362   0.63412   0.63548   0.63663
 Alpha virt. eigenvalues --    0.63859   0.63979   0.64124   0.64219   0.64239
 Alpha virt. eigenvalues --    0.64391   0.64419   0.64431   0.64634   0.64914
 Alpha virt. eigenvalues --    0.64950   0.64982   0.65117   0.65305   0.65397
 Alpha virt. eigenvalues --    0.65491   0.65562   0.65763   0.65890   0.66000
 Alpha virt. eigenvalues --    0.66066   0.66157   0.66262   0.66464   0.66695
 Alpha virt. eigenvalues --    0.66745   0.66763   0.66862   0.66979   0.67125
 Alpha virt. eigenvalues --    0.67144   0.67270   0.67333   0.67449   0.67554
 Alpha virt. eigenvalues --    0.67652   0.67738   0.67923   0.67980   0.68049
 Alpha virt. eigenvalues --    0.68228   0.68329   0.68433   0.68603   0.68746
 Alpha virt. eigenvalues --    0.68791   0.68818   0.68905   0.69063   0.69173
 Alpha virt. eigenvalues --    0.69284   0.69371   0.69586   0.69628   0.69759
 Alpha virt. eigenvalues --    0.69919   0.69963   0.70077   0.70229   0.70414
 Alpha virt. eigenvalues --    0.70528   0.70603   0.70705   0.70814   0.70933
 Alpha virt. eigenvalues --    0.71028   0.71337   0.71363   0.71541   0.71879
 Alpha virt. eigenvalues --    0.71996   0.72170   0.72248   0.72503   0.72651
 Alpha virt. eigenvalues --    0.72796   0.72937   0.73065   0.73171   0.73422
 Alpha virt. eigenvalues --    0.73618   0.73794   0.73927   0.74033   0.74175
 Alpha virt. eigenvalues --    0.74530   0.74935   0.75053   0.75077   0.75246
 Alpha virt. eigenvalues --    0.75582   0.75845   0.75896   0.76453   0.76739
 Alpha virt. eigenvalues --    0.77029   0.77267   0.77553   0.77670   0.77920
 Alpha virt. eigenvalues --    0.78277   0.78339   0.78378   0.78547   0.78835
 Alpha virt. eigenvalues --    0.79040   0.79336   0.79573   0.79891   0.79933
 Alpha virt. eigenvalues --    0.80491   0.80703   0.80930   0.81035   0.81344
 Alpha virt. eigenvalues --    0.81508   0.81836   0.81899   0.82167   0.82548
 Alpha virt. eigenvalues --    0.82656   0.83034   0.83298   0.83545   0.83716
 Alpha virt. eigenvalues --    0.83745   0.84061   0.84903   0.85334   0.85506
 Alpha virt. eigenvalues --    0.85757   0.86041   0.86163   0.86207   0.86660
 Alpha virt. eigenvalues --    0.87031   0.87302   0.87547   0.87679   0.87852
 Alpha virt. eigenvalues --    0.88062   0.88153   0.88607   0.88967   0.89399
 Alpha virt. eigenvalues --    0.89932   0.90142   0.90198   0.90439   0.91183
 Alpha virt. eigenvalues --    0.91260   0.91453   0.91689   0.91895   0.92377
 Alpha virt. eigenvalues --    0.92510   0.92680   0.92877   0.93310   0.93495
 Alpha virt. eigenvalues --    0.93721   0.93734   0.94513   0.94954   0.94999
 Alpha virt. eigenvalues --    0.95173   0.95359   0.95515   0.95934   0.96364
 Alpha virt. eigenvalues --    0.96632   0.96908   0.96928   0.97399   0.97688
 Alpha virt. eigenvalues --    0.97772   0.98028   0.98099   0.98352   0.98445
 Alpha virt. eigenvalues --    0.98810   0.99013   0.99248   0.99665   0.99983
 Alpha virt. eigenvalues --    1.00307   1.00518   1.00899   1.01181   1.01267
 Alpha virt. eigenvalues --    1.01417   1.01581   1.02020   1.02307   1.02627
 Alpha virt. eigenvalues --    1.02811   1.02955   1.03134   1.03433   1.04429
 Alpha virt. eigenvalues --    1.04746   1.04885   1.05160   1.05285   1.05615
 Alpha virt. eigenvalues --    1.06136   1.06498   1.06704   1.06989   1.07401
 Alpha virt. eigenvalues --    1.07617   1.07900   1.07991   1.08239   1.08432
 Alpha virt. eigenvalues --    1.08803   1.09363   1.09538   1.09854   1.10327
 Alpha virt. eigenvalues --    1.10506   1.10631   1.10949   1.11097   1.11577
 Alpha virt. eigenvalues --    1.11603   1.11855   1.12288   1.12566   1.12733
 Alpha virt. eigenvalues --    1.13454   1.13641   1.13684   1.13729   1.14197
 Alpha virt. eigenvalues --    1.14298   1.14657   1.14855   1.15096   1.15219
 Alpha virt. eigenvalues --    1.15605   1.15748   1.16268   1.16413   1.16762
 Alpha virt. eigenvalues --    1.16971   1.17497   1.17752   1.17971   1.18134
 Alpha virt. eigenvalues --    1.18351   1.18605   1.18988   1.19394   1.19508
 Alpha virt. eigenvalues --    1.19902   1.20047   1.20188   1.20582   1.20887
 Alpha virt. eigenvalues --    1.20914   1.21052   1.21745   1.21959   1.23035
 Alpha virt. eigenvalues --    1.23159   1.23377   1.23452   1.23794   1.23845
 Alpha virt. eigenvalues --    1.24004   1.24094   1.24356   1.24911   1.24992
 Alpha virt. eigenvalues --    1.25063   1.25549   1.25839   1.25909   1.26104
 Alpha virt. eigenvalues --    1.26420   1.26499   1.27239   1.27317   1.27645
 Alpha virt. eigenvalues --    1.27838   1.27917   1.28088   1.28472   1.28985
 Alpha virt. eigenvalues --    1.29349   1.29541   1.29751   1.29868   1.30140
 Alpha virt. eigenvalues --    1.30211   1.30908   1.31029   1.31200   1.31454
 Alpha virt. eigenvalues --    1.31527   1.31568   1.31640   1.31831   1.31933
 Alpha virt. eigenvalues --    1.32448   1.32937   1.33540   1.33704   1.34164
 Alpha virt. eigenvalues --    1.34315   1.34510   1.34973   1.35301   1.35473
 Alpha virt. eigenvalues --    1.36009   1.36079   1.36527   1.36574   1.37068
 Alpha virt. eigenvalues --    1.37443   1.38144   1.38415   1.38733   1.38984
 Alpha virt. eigenvalues --    1.39208   1.39476   1.39693   1.39946   1.40483
 Alpha virt. eigenvalues --    1.40558   1.41031   1.41137   1.41457   1.41940
 Alpha virt. eigenvalues --    1.42191   1.42334   1.42532   1.42726   1.43100
 Alpha virt. eigenvalues --    1.43233   1.43645   1.43999   1.44042   1.44241
 Alpha virt. eigenvalues --    1.44573   1.45108   1.45344   1.45540   1.45752
 Alpha virt. eigenvalues --    1.46098   1.46278   1.46619   1.47403   1.47426
 Alpha virt. eigenvalues --    1.47603   1.48067   1.48426   1.48658   1.48692
 Alpha virt. eigenvalues --    1.48920   1.49806   1.50202   1.50267   1.50583
 Alpha virt. eigenvalues --    1.51019   1.51155   1.51371   1.51762   1.51945
 Alpha virt. eigenvalues --    1.53036   1.53214   1.53759   1.53797   1.53972
 Alpha virt. eigenvalues --    1.54511   1.54722   1.54976   1.55092   1.55369
 Alpha virt. eigenvalues --    1.55542   1.56191   1.56347   1.57042   1.57113
 Alpha virt. eigenvalues --    1.57366   1.57613   1.57857   1.58365   1.58615
 Alpha virt. eigenvalues --    1.58733   1.58934   1.59065   1.59433   1.59696
 Alpha virt. eigenvalues --    1.59746   1.59822   1.60393   1.60453   1.60683
 Alpha virt. eigenvalues --    1.61122   1.61551   1.62298   1.62444   1.62706
 Alpha virt. eigenvalues --    1.62973   1.63018   1.63709   1.64329   1.64381
 Alpha virt. eigenvalues --    1.65006   1.65245   1.66586   1.66942   1.67573
 Alpha virt. eigenvalues --    1.67872   1.67977   1.68034   1.68600   1.68779
 Alpha virt. eigenvalues --    1.68886   1.69219   1.69371   1.69804   1.69890
 Alpha virt. eigenvalues --    1.70197   1.70242   1.70679   1.70746   1.71026
 Alpha virt. eigenvalues --    1.71478   1.71711   1.71793   1.71989   1.72135
 Alpha virt. eigenvalues --    1.72663   1.72845   1.72875   1.73224   1.73405
 Alpha virt. eigenvalues --    1.73637   1.73947   1.74120   1.74175   1.74240
 Alpha virt. eigenvalues --    1.74332   1.74363   1.74682   1.74934   1.75254
 Alpha virt. eigenvalues --    1.75534   1.75775   1.75935   1.76057   1.76086
 Alpha virt. eigenvalues --    1.76630   1.76751   1.77002   1.77041   1.77313
 Alpha virt. eigenvalues --    1.77324   1.77528   1.77590   1.77843   1.77917
 Alpha virt. eigenvalues --    1.78018   1.78337   1.78385   1.78570   1.78644
 Alpha virt. eigenvalues --    1.78765   1.79056   1.79213   1.79496   1.79631
 Alpha virt. eigenvalues --    1.79938   1.80019   1.80295   1.80636   1.80679
 Alpha virt. eigenvalues --    1.80759   1.80781   1.80910   1.81247   1.81261
 Alpha virt. eigenvalues --    1.81481   1.81518   1.81682   1.81769   1.81988
 Alpha virt. eigenvalues --    1.82121   1.82403   1.82500   1.82850   1.83248
 Alpha virt. eigenvalues --    1.83459   1.83526   1.83627   1.83779   1.84172
 Alpha virt. eigenvalues --    1.84351   1.84547   1.84575   1.85097   1.85481
 Alpha virt. eigenvalues --    1.85546   1.85618   1.86111   1.86407   1.86599
 Alpha virt. eigenvalues --    1.86760   1.86991   1.87311   1.87487   1.87553
 Alpha virt. eigenvalues --    1.87673   1.87715   1.87856   1.87974   1.88307
 Alpha virt. eigenvalues --    1.88485   1.88607   1.88768   1.88843   1.89084
 Alpha virt. eigenvalues --    1.89418   1.89455   1.89569   1.89804   1.89963
 Alpha virt. eigenvalues --    1.90202   1.90249   1.90576   1.90694   1.90929
 Alpha virt. eigenvalues --    1.91131   1.91311   1.91376   1.91562   1.91666
 Alpha virt. eigenvalues --    1.92558   1.92777   1.92949   1.93014   1.93107
 Alpha virt. eigenvalues --    1.93302   1.93477   1.93531   1.93687   1.93980
 Alpha virt. eigenvalues --    1.94135   1.94300   1.94323   1.94684   1.95034
 Alpha virt. eigenvalues --    1.95410   1.95616   1.95806   1.95939   1.96088
 Alpha virt. eigenvalues --    1.96175   1.96218   1.96464   1.96708   1.96983
 Alpha virt. eigenvalues --    1.97160   1.97459   1.98066   1.98177   1.98681
 Alpha virt. eigenvalues --    1.98803   1.98893   1.99214   1.99671   1.99751
 Alpha virt. eigenvalues --    1.99882   2.00237   2.00520   2.00667   2.00836
 Alpha virt. eigenvalues --    2.01131   2.01279   2.01667   2.01765   2.02280
 Alpha virt. eigenvalues --    2.02460   2.02637   2.02898   2.03106   2.03345
 Alpha virt. eigenvalues --    2.03405   2.03467   2.03894   2.04417   2.04845
 Alpha virt. eigenvalues --    2.05249   2.05401   2.05577   2.05802   2.05947
 Alpha virt. eigenvalues --    2.06409   2.06792   2.06922   2.07002   2.07378
 Alpha virt. eigenvalues --    2.07755   2.08066   2.08225   2.08287   2.08476
 Alpha virt. eigenvalues --    2.08500   2.08825   2.09122   2.09145   2.09336
 Alpha virt. eigenvalues --    2.09801   2.09953   2.10352   2.10448   2.11073
 Alpha virt. eigenvalues --    2.11188   2.11874   2.12254   2.12578   2.12802
 Alpha virt. eigenvalues --    2.12868   2.13193   2.13383   2.13826   2.14112
 Alpha virt. eigenvalues --    2.14208   2.14632   2.14835   2.14876   2.14957
 Alpha virt. eigenvalues --    2.15174   2.15474   2.15736   2.16206   2.16425
 Alpha virt. eigenvalues --    2.16639   2.16825   2.17684   2.18033   2.18078
 Alpha virt. eigenvalues --    2.18333   2.18992   2.19020   2.19175   2.19407
 Alpha virt. eigenvalues --    2.19864   2.19975   2.20275   2.20712   2.20909
 Alpha virt. eigenvalues --    2.21034   2.21505   2.21616   2.21865   2.22460
 Alpha virt. eigenvalues --    2.22607   2.22966   2.23301   2.23867   2.23970
 Alpha virt. eigenvalues --    2.24929   2.25067   2.25216   2.26165   2.26202
 Alpha virt. eigenvalues --    2.26555   2.26976   2.27056   2.27503   2.27744
 Alpha virt. eigenvalues --    2.27949   2.28478   2.28507   2.29326   2.29694
 Alpha virt. eigenvalues --    2.29969   2.30281   2.30408   2.30815   2.31255
 Alpha virt. eigenvalues --    2.31437   2.31550   2.31873   2.32018   2.32461
 Alpha virt. eigenvalues --    2.32705   2.32785   2.33354   2.33476   2.33746
 Alpha virt. eigenvalues --    2.33847   2.34227   2.34283   2.34773   2.34865
 Alpha virt. eigenvalues --    2.35628   2.36056   2.36093   2.36919   2.37073
 Alpha virt. eigenvalues --    2.37143   2.37591   2.38115   2.38271   2.38536
 Alpha virt. eigenvalues --    2.38963   2.39523   2.39684   2.39737   2.40297
 Alpha virt. eigenvalues --    2.40412   2.40939   2.41175   2.41755   2.41883
 Alpha virt. eigenvalues --    2.42050   2.42224   2.42433   2.42695   2.43272
 Alpha virt. eigenvalues --    2.43863   2.44070   2.44471   2.44988   2.46058
 Alpha virt. eigenvalues --    2.46776   2.46935   2.47026   2.47262   2.47656
 Alpha virt. eigenvalues --    2.48196   2.48547   2.49298   2.49709   2.49856
 Alpha virt. eigenvalues --    2.50224   2.50836   2.51048   2.51305   2.51589
 Alpha virt. eigenvalues --    2.51875   2.51937   2.52522   2.52639   2.53138
 Alpha virt. eigenvalues --    2.53641   2.54096   2.54394   2.54957   2.55297
 Alpha virt. eigenvalues --    2.55762   2.56062   2.56084   2.56346   2.56538
 Alpha virt. eigenvalues --    2.57215   2.57442   2.57730   2.57998   2.58572
 Alpha virt. eigenvalues --    2.58605   2.58729   2.58911   2.59142   2.59552
 Alpha virt. eigenvalues --    2.60089   2.60397   2.60844   2.61133   2.61431
 Alpha virt. eigenvalues --    2.61558   2.62107   2.62159   2.62422   2.62598
 Alpha virt. eigenvalues --    2.62891   2.62895   2.63194   2.63434   2.63524
 Alpha virt. eigenvalues --    2.63698   2.63847   2.64318   2.64386   2.64702
 Alpha virt. eigenvalues --    2.65159   2.65212   2.65717   2.66068   2.66136
 Alpha virt. eigenvalues --    2.66600   2.66712   2.67333   2.67551   2.67665
 Alpha virt. eigenvalues --    2.67935   2.68051   2.68439   2.68578   2.68746
 Alpha virt. eigenvalues --    2.69695   2.69954   2.70424   2.70723   2.71033
 Alpha virt. eigenvalues --    2.71100   2.71637   2.72444   2.72729   2.73172
 Alpha virt. eigenvalues --    2.73298   2.73468   2.73714   2.74029   2.74048
 Alpha virt. eigenvalues --    2.74817   2.75074   2.75302   2.75712   2.75901
 Alpha virt. eigenvalues --    2.76092   2.76142   2.76284   2.76448   2.76777
 Alpha virt. eigenvalues --    2.76852   2.76928   2.77263   2.77343   2.77702
 Alpha virt. eigenvalues --    2.77930   2.78389   2.78713   2.78768   2.78989
 Alpha virt. eigenvalues --    2.79279   2.79711   2.80018   2.80241   2.80579
 Alpha virt. eigenvalues --    2.80797   2.81089   2.81580   2.81691   2.81869
 Alpha virt. eigenvalues --    2.82282   2.82400   2.82731   2.82986   2.83807
 Alpha virt. eigenvalues --    2.83893   2.84608   2.84915   2.85271   2.85330
 Alpha virt. eigenvalues --    2.85460   2.85664   2.85840   2.85952   2.86360
 Alpha virt. eigenvalues --    2.87455   2.87735   2.88374   2.88491   2.88723
 Alpha virt. eigenvalues --    2.88868   2.89015   2.89134   2.89567   2.89718
 Alpha virt. eigenvalues --    2.89914   2.90311   2.90743   2.90894   2.91259
 Alpha virt. eigenvalues --    2.91303   2.91728   2.91841   2.92290   2.92493
 Alpha virt. eigenvalues --    2.92527   2.92819   2.93109   2.93760   2.94094
 Alpha virt. eigenvalues --    2.94227   2.94421   2.95355   2.95407   2.95644
 Alpha virt. eigenvalues --    2.95824   2.95904   2.96206   2.96603   2.96930
 Alpha virt. eigenvalues --    2.97048   2.97319   2.97541   2.97752   2.98349
 Alpha virt. eigenvalues --    2.98664   2.98750   2.99323   2.99570   2.99591
 Alpha virt. eigenvalues --    2.99830   3.00692   3.01174   3.01406   3.01629
 Alpha virt. eigenvalues --    3.01678   3.01971   3.02158   3.02785   3.02871
 Alpha virt. eigenvalues --    3.03016   3.03585   3.04052   3.04358   3.05321
 Alpha virt. eigenvalues --    3.06002   3.06770   3.06808   3.07635   3.07656
 Alpha virt. eigenvalues --    3.07891   3.08357   3.09099   3.10077   3.10304
 Alpha virt. eigenvalues --    3.11342   3.11556   3.11879   3.12514   3.12949
 Alpha virt. eigenvalues --    3.13137   3.13419   3.13619   3.14329   3.14927
 Alpha virt. eigenvalues --    3.15372   3.15588   3.16316   3.16548   3.16862
 Alpha virt. eigenvalues --    3.16990   3.17241   3.17370   3.17470   3.17777
 Alpha virt. eigenvalues --    3.18137   3.18202   3.18711   3.19085   3.19415
 Alpha virt. eigenvalues --    3.19547   3.19869   3.20561   3.20602   3.20941
 Alpha virt. eigenvalues --    3.21324   3.21534   3.22076   3.22497   3.23591
 Alpha virt. eigenvalues --    3.23668   3.24024   3.24779   3.25253   3.25896
 Alpha virt. eigenvalues --    3.26479   3.26989   3.27378   3.27546   3.27681
 Alpha virt. eigenvalues --    3.28805   3.32200   3.32392   3.32832   3.33960
 Alpha virt. eigenvalues --    3.35345   3.35400   3.38170   3.39347   3.39612
 Alpha virt. eigenvalues --    3.40293   3.41184   3.41253   3.43300   3.45689
 Alpha virt. eigenvalues --    3.51979   3.53720   3.54452   3.54530   3.55141
 Alpha virt. eigenvalues --    3.55527   3.56899   3.57155   3.57929   3.58138
 Alpha virt. eigenvalues --    3.58380   3.59278   3.59730   3.60033   3.60774
 Alpha virt. eigenvalues --    3.60865   3.61194   3.62413   3.65272   3.66682
 Alpha virt. eigenvalues --    3.67337   3.67523   3.68081   3.68270   3.68387
 Alpha virt. eigenvalues --    3.69031   3.69619   3.69834   3.70080   3.70412
 Alpha virt. eigenvalues --    3.70555   3.70803   3.71095   3.71876   3.72395
 Alpha virt. eigenvalues --    3.73341   3.75788   3.79356   3.79427
          Condensed to atoms (all electrons):
 Mulliken charges:
               1
     1  C    0.062950
     2  C    0.014126
     3  O   -0.322483
     4  H    0.047455
     5  H    0.032650
     6  H    0.027401
     7  N   -0.101930
     8  C    0.054327
     9  C    0.095493
    10  O   -0.264774
    11  C    0.167378
    12  C    0.078901
    13  O   -0.381875
    14  O   -0.444891
    15  H    0.116299
    16  H   -0.021706
    17  H    0.016080
    18  H    0.021702
    19  N   -0.108931
    20  C    0.067425
    21  C    0.082361
    22  O   -0.285031
    23  C    0.006424
    24  C    0.025799
    25  C   -0.068837
    26  C    0.050117
    27  N    0.133696
    28  H    0.099153
    29  H    0.003919
    30  H    0.029926
    31  H    0.009513
    32  H    0.013460
    33  H   -0.001076
    34  H    0.044597
    35  H    0.028451
    36  H    0.071835
    37  H    0.067414
    38  H    0.150337
    39  H    0.141166
    40  H    0.148992
    41  N   -0.153162
    42  C    0.113149
    43  C    0.067326
    44  O   -0.279658
    45  C    0.115515
    46  C    0.115930
    47  O   -0.419177
    48  O   -0.422714
    49  H    0.168801
    50  H    0.025199
    51  H   -0.005117
    52  H    0.013850
    53  N   -0.168498
    54  C    0.203797
    55  C    0.025537
    56  O   -0.319290
    57  H    0.120069
    58  H    0.044917
    59  H    0.031584
    60  N   -0.113996
    61  C    0.074827
    62  C    0.090361
    63  O   -0.281553
    64  C    0.111605
    65  C   -0.047436
    66  N   -0.035019
    67  O   -0.273560
    68  H    0.151835
    69  H    0.020640
    70  H   -0.016206
    71  H    0.057494
    72  H    0.124273
    73  H    0.138153
    74  N   -0.134495
    75  C    0.197094
    76  C    0.023910
    77  O   -0.286533
    78  H    0.126678
    79  H    0.031182
    80  H    0.040314
    81  N   -0.121364
    82  C    0.141254
    83  C    0.102399
    84  O   -0.270842
    85  C    0.138996
    86  C   -0.083410
    87  C    0.023343
    88  C   -0.006464
    89  C   -0.044309
    90  C   -0.039969
    91  C    0.173050
    92  O   -0.206393
    93  H    0.118471
    94  H    0.004526
    95  H   -0.010935
    96  H   -0.009922
    97  H   -0.003814
    98  H   -0.030018
    99  H   -0.021604
   100  H   -0.038624
   101  H    0.178810
   102  N   -0.141408
   103  C    0.203076
   104  C    0.052341
   105  O   -0.270729
   106  C   -0.115356
   107  C    0.026737
   108  C    0.034795
   109  C    0.027041
   110  H    0.123841
   111  H   -0.032307
   112  H   -0.003541
   113  H    0.004208
   114  H   -0.015431
   115  H    0.021616
   116  H    0.004010
   117  H    0.022413
   118  H    0.033389
   119  H   -0.008853
   120  H   -0.007754
   121  N   -0.130681
   122  C    0.115014
   123  C    0.066953
   124  O   -0.268292
   125  C    0.222185
   126  O   -0.321666
   127  H    0.122264
   128  H    0.045280
   129  H    0.017227
   130  H    0.007853
   131  H    0.196844
   132  N   -0.144826
   133  C    0.055724
   134  C    0.061134
   135  O   -0.260019
   136  C    0.069205
   137  H    0.114697
   138  H    0.017117
   139  H   -0.005387
   140  H    0.027191
   141  H    0.021945
   142  N   -0.088744
   143  C   -0.007955
   144  C    0.048479
   145  O   -0.273266
   146  C    0.072740
   147  H    0.128890
   148  H    0.020698
   149  H    0.021260
   150  H    0.045924
   151  H    0.009154
   152  N   -0.111849
   153  C    0.047450
   154  C    0.047509
   155  O   -0.262595
   156  C    0.059277
   157  C    0.067383
   158  C    0.031050
   159  O   -0.335035
   160  O   -0.347940
   161  H    0.117624
   162  H    0.035284
   163  H    0.011125
   164  H    0.000598
   165  H   -0.003401
   166  H   -0.046659
   167  N   -0.138817
   168  C    0.126779
   169  H    0.045968
   170  H    0.023092
   171  H    0.016145
   172  H    0.095552
   173  Ca   1.287214
   174  O   -0.287352
   175  H    0.185161
   176  H    0.192793
 Sum of Mulliken charges =  -0.00000
 Mulliken charges with hydrogens summed into heavy atoms:
               1
     1  C    0.170456
     2  C    0.014126
     3  O   -0.322483
     7  N    0.014368
     8  C    0.032621
     9  C    0.095493
    10  O   -0.264774
    11  C    0.205159
    12  C    0.078901
    13  O   -0.381875
    14  O   -0.444891
    19  N   -0.009778
    20  C    0.071344
    21  C    0.082361
    22  O   -0.285031
    23  C    0.045863
    24  C    0.038182
    25  C    0.004212
    26  C    0.189366
    27  N    0.574190
    41  N    0.015639
    42  C    0.138347
    43  C    0.067326
    44  O   -0.279658
    45  C    0.124249
    46  C    0.115930
    47  O   -0.419177
    48  O   -0.422714
    53  N   -0.048429
    54  C    0.280298
    55  C    0.025537
    56  O   -0.319290
    60  N    0.037839
    61  C    0.095466
    62  C    0.090361
    63  O   -0.281553
    64  C    0.152893
    65  C   -0.047436
    66  N    0.227408
    67  O   -0.273560
    74  N   -0.007817
    75  C    0.268589
    76  C    0.023910
    77  O   -0.286533
    81  N   -0.002893
    82  C    0.145779
    83  C    0.102399
    84  O   -0.270842
    85  C    0.118139
    86  C   -0.083410
    87  C    0.019529
    88  C   -0.036482
    89  C   -0.065913
    90  C   -0.078592
    91  C    0.173050
    92  O   -0.027582
   102  N   -0.017567
   103  C    0.170769
   104  C    0.052341
   105  O   -0.270729
   106  C   -0.118897
   107  C    0.015514
   108  C    0.082833
   109  C    0.043823
   121  N   -0.008417
   122  C    0.160293
   123  C    0.066953
   124  O   -0.268292
   125  C    0.247265
   126  O   -0.124822
   132  N   -0.030129
   133  C    0.072841
   134  C    0.061134
   135  O   -0.260019
   136  C    0.112954
   142  N    0.040146
   143  C    0.012743
   144  C    0.048479
   145  O   -0.273266
   146  C    0.149077
   152  N    0.005775
   153  C    0.082734
   154  C    0.047509
   155  O   -0.262595
   156  C    0.071000
   157  C    0.017322
   158  C    0.031050
   159  O   -0.335035
   160  O   -0.347940
   167  N   -0.043266
   168  C    0.211983
   173  Ca   1.287214
   174  O    0.090601
 DipInt: DoE/N= T F RetVal/Mat= T F Init=T NMatP=  1 IDeriv=0 Min/MaxMlt=  0  4
 Entering OneElI...
 OneElI was handed  1333951383 working-precision words.
 Multipole integrals L=0 to 4 MinM= 0 MaxM= 0.
 Requested accuracy = 0.1000D-12
 ShPair: Thresh= 1.00D-13 NBox=     0 BxSize= 0.00D+00 RnKept= 3.12D+01
         NSMCal=               327645 NSMKep=              117762
 PrmmSu-InSpLW:  IPartL=    0 NPrtUS=    1 NPrtUL=    1 DoSpLW=F IThBeg=    0 IThEnd=    0 NThAct=    1.
 PrsmSu:  NPrtUS=   1 ThrOK=F IAlg=1 NPAlg=1 LenDen=           0 ISkipM=0 DoSpLW=F IThBeg=    0 IThEnd=    0.
 Prism:   IPart=     0 DynPar=F LinDyn=F Incr=         512.
 PRISM was handed  1325449591 working-precision words and117762 shell-pairs
 IPart=  0 NShTot=      117762 NBatch=         285 AvBLen=       413.2
 PrsmSu-ThDecC:  IPartSL=    0    0 NPrtUSL=    1    1 IThBeg=    0 IThEnd=    0 CPU=   -1 GPU=   -1 NThAct=    1.
 PrSmSu:  NxtVal=            513.
 Electronic moments (au):
       -716.00000000         17.43879852         -6.77300510         -3.31466546
    -133380.86345770     -33926.25128287     -10689.13468379       -303.95294917
       -121.47826139         85.80974427    -138417.51392235     -23890.50620508
      -8739.22153703      84428.39685689     363549.42994418      65561.24996346
     -22301.89218590      18787.96892249     -10163.46541958     -40631.08424825
  -40152902.13283823   -3258940.35585464    -365668.36327306    1395729.82960889
    -685728.91202622     430248.36037103     -19497.67114044      76723.91826260
       3516.39030377   -5726650.52672743   -2602343.14274391    -486267.72605521
     -28925.65614112     388309.54894637     105441.46758618
 Electronic spatial extent (au):  <R**2>=         177996.2494
 DipInt: DoE/N= F T RetVal/Mat= T F Init=T NMatP=  1 IDeriv=0 Min/MaxMlt=  0  4
 Nuclear    moments (au):
        716.00000000          0.00000000         -0.00000000         -0.00000000
     133166.71387540      33520.79152238      10274.15468139          0.00000000
         -0.00000000         -0.00000000     147172.71527537      23567.58887297
       8591.60873579     -81933.83860786    -367696.43576079     -66007.57506864
      23319.59380667     -19295.62586309       9359.58797484      41956.37918333
   39798254.42376523    3139941.49875043     330098.65490027   -1516935.67468956
     619600.58624528    -471761.27424176      33835.80376544     -80919.08376572
      -1761.13034015    5677064.57347165    2533751.26532754     463455.31721498
      57647.10101587    -404874.91632513    -114059.14454511
 Total      moments (au):
         -0.00000000         17.43879852         -6.77300510         -3.31466546
       -214.14958230       -405.45976049       -414.98000240       -303.95294917
       -121.47826139         85.80974427       8755.20135302       -322.91733211
       -147.61280124       2494.55824903      -4147.00581661       -446.32510519
       1017.70162077       -507.65694060       -803.87744474       1325.29493508
    -354647.70907300    -118998.85710421     -35569.70837280    -121205.84508067
     -66128.32578094     -41512.91387072      14338.13262499      -4195.16550312
       1755.25996362     -49585.95325577     -68591.87741637     -22812.40884023
      28721.44487475     -16565.36737876      -8617.67695893
 Traceless Quadrup. (au):
        130.71353277        -60.59664543        -70.11688734       -303.95294917
       -121.47826139         85.80974427
 Charge=             -0.0000 electrons
 Dipole moment (field-independent basis, Debye):
    X=             44.3250    Y=            -17.2153    Z=             -8.4250  Tot=             48.2913
 Quadrupole moment (field-independent basis, Debye-Ang):
   XX=           -288.0385   YY=           -545.3573   ZZ=           -558.1623
   XY=           -408.8271   XZ=           -163.3924   YZ=            115.4170
 Traceless Quadrupole moment (field-independent basis, Debye-Ang):
   XX=            175.8142   YY=            -81.5046   ZZ=            -94.3096
   XY=           -408.8271   XZ=           -163.3924   YZ=            115.4170
 Octapole moment (field-independent basis, Debye-Ang**2):
  XXX=           6231.6150  YYY=           -229.8401  ZZZ=           -105.0651  XYY=           1775.5305
  XXY=          -2951.6790  XXZ=           -317.6770  XZZ=            724.3608  YZZ=           -361.3307
  YYZ=           -572.1690  XYZ=            943.2939
 Hexadecapole moment (field-independent basis, Debye-Ang**3):
 XXXX=        -133577.3332 YYYY=         -44820.6758 ZZZZ=         -13397.2578 XXXY=         -45651.9333
 XXXZ=         -24907.0984 YYYX=         -15635.7540 YYYZ=           5400.4283 ZZZX=          -1580.1005
 ZZZY=            661.1151 XXYY=         -18676.4477 XXZZ=         -25834.9901 YYZZ=          -8592.2471
 XXYZ=          10817.8734 YYXZ=          -6239.3117 ZZXY=          -3245.8304
 N-N= 1.848396504062D+04 E-N=-4.944341569632D+04  KE= 5.290576439316D+03
 Leave Link  601 at Wed Sep 18 11:25:00 2019, MaxMem=  1342177280 cpu:              37.4 elap:               0.9
 FitSet:  NAtFit=   176 NAtPot=   176 NAtFrz=     0 MDM=   180 TotChg=   0.00000
 Merz-Kollman atomic radii used.
 Read replacement radii for each type of atom:
 Rad(20) =   1.700000000000D+00
 Atom Element Radius
    1     6    1.50
    2     6    1.50
    3     8    1.40
    4     1    1.20
    5     1    1.20
    6     1    1.20
    7     7    1.50
    8     6    1.50
    9     6    1.50
   10     8    1.40
   11     6    1.50
   12     6    1.50
   13     8    1.40
   14     8    1.40
   15     1    1.20
   16     1    1.20
   17     1    1.20
   18     1    1.20
   19     7    1.50
   20     6    1.50
   21     6    1.50
   22     8    1.40
   23     6    1.50
   24     6    1.50
   25     6    1.50
   26     6    1.50
   27     7    1.50
   28     1    1.20
   29     1    1.20
   30     1    1.20
   31     1    1.20
   32     1    1.20
   33     1    1.20
   34     1    1.20
   35     1    1.20
   36     1    1.20
   37     1    1.20
   38     1    1.20
   39     1    1.20
   40     1    1.20
   41     7    1.50
   42     6    1.50
   43     6    1.50
   44     8    1.40
   45     6    1.50
   46     6    1.50
   47     8    1.40
   48     8    1.40
   49     1    1.20
   50     1    1.20
   51     1    1.20
   52     1    1.20
   53     7    1.50
   54     6    1.50
   55     6    1.50
   56     8    1.40
   57     1    1.20
   58     1    1.20
   59     1    1.20
   60     7    1.50
   61     6    1.50
   62     6    1.50
   63     8    1.40
   64     6    1.50
   65     6    1.50
   66     7    1.50
   67     8    1.40
   68     1    1.20
   69     1    1.20
   70     1    1.20
   71     1    1.20
[...]
 **** Fit      -0.010776
 **** Fit      -0.006418
 **** Fit      -0.004106
 **** Fit      -0.003138
 **** Fit      -0.003037
 **** Fit      -0.003480
 **** Fit      -0.004242
 **** Fit      -0.005136
 **** Fit      -0.005951
 **** Fit      -0.004222
 **** Fit      -0.003370
 **** Fit      -0.003520
 **** Fit      -0.004291
 **** Fit      -0.005405
 **** Fit      -0.004376
 **** Fit      -0.005455
 **** Fit      -0.003881
 **** Fit      -0.003474
 **** Fit      -0.003876
 **** Fit      -0.004913
 **** Fit      -0.002964
 **** Fit      -0.002752
 **** Fit      -0.002845
 **** Fit      -0.003353
 **** Fit      -0.004303
 **** Fit      -0.005490
 **** Fit      -0.006451
 **** Fit      -0.002370
 **** Fit      -0.002203
 **** Fit      -0.002169
 **** Fit      -0.002350
 **** Fit      -0.002830
 **** Fit      -0.003655
 **** Fit      -0.004791
 **** Fit      -0.006089
 **** Fit      -0.007278
 **** Fit      -0.002064
 **** Fit      -0.001891
 **** Fit      -0.001748
 **** Fit      -0.001693
 **** Fit      -0.001799
 **** Fit      -0.002139
 **** Fit      -0.002772
 **** Fit      -0.003728
 **** Fit      -0.004981
 **** Fit      -0.006425
 **** Fit      -0.007871
 **** Fit      -0.001805
 **** Fit      -0.001651
 **** Fit      -0.001477
 **** Fit      -0.001340
 **** Fit      -0.001302
 **** Fit      -0.001432
 **** Fit      -0.001797
 **** Fit      -0.002455
 **** Fit      -0.003441
 **** Fit      -0.004752
 **** Fit      -0.006322
 **** Fit      -0.008016
 **** Fit      -0.009620
 **** Fit      -0.001662
 **** Fit      -0.001524
 **** Fit      -0.001327
 **** Fit      -0.001124
 **** Fit      -0.000969
 **** Fit      -0.000921
 **** Fit      -0.001041
 **** Fit      -0.001390
 **** Fit      -0.002027
 **** Fit      -0.002994
 **** Fit      -0.004303
 **** Fit      -0.005922
 **** Fit      -0.007760
 **** Fit      -0.009660
 **** Fit      -0.001482
 **** Fit      -0.001255
 **** Fit      -0.000982
 **** Fit      -0.000720
 **** Fit      -0.000525
 **** Fit      -0.000460
 **** Fit      -0.000594
 **** Fit      -0.000999
 **** Fit      -0.001740
 **** Fit      -0.002867
 **** Fit      -0.004392
 **** Fit      -0.006275
 **** Fit      -0.008413
 **** Fit      -0.001476
 **** Fit      -0.001217
 **** Fit      -0.000874
 **** Fit      -0.000498
 **** Fit      -0.000142
 **** Fit       0.000134
 **** Fit       0.000261
 **** Fit       0.000159
 **** Fit      -0.000257
 **** Fit      -0.001064
 **** Fit      -0.002317
 **** Fit      -0.004024
 **** Fit      -0.006138
 **** Fit      -0.001310
 **** Fit      -0.000932
 **** Fit      -0.000449
 **** Fit       0.000093
 **** Fit       0.000641
 **** Fit       0.001130
 **** Fit       0.001476
 **** Fit       0.001579
 **** Fit       0.001329
 **** Fit       0.000622
 **** Fit      -0.000616
 **** Fit      -0.002402
 **** Fit      -0.004684
 **** Fit      -0.000899
 **** Fit      -0.000296
 **** Fit       0.000460
 **** Fit       0.001323
 **** Fit       0.002228
 **** Fit       0.003081
 **** Fit       0.003753
 **** Fit       0.004080
 **** Fit       0.003887
 **** Fit       0.003025
 **** Fit       0.001415
 **** Fit       0.000571
 **** Fit       0.001742
 **** Fit       0.003146
 **** Fit       0.004704
 **** Fit       0.006278
 **** Fit       0.007650
 **** Fit       0.006274
 **** Fit       0.007098
 **** Fit       0.007828
 **** Fit       0.008261
 **** Fit       0.008152
 **** Fit       0.001674
 **** Fit       0.002552
 **** Fit       0.003722
 **** Fit       0.005157
 **** Fit       0.006743
 **** Fit       0.008260
 **** Fit       0.009393
 **** Fit      -0.002632
 **** Fit      -0.002105
 **** Fit      -0.001164
 **** Fit       0.000291
 **** Fit       0.002294
 **** Fit       0.004778
 **** Fit       0.007547
 **** Fit      -0.007197
 **** Fit      -0.007171
 **** Fit      -0.006623
 **** Fit      -0.005335
 **** Fit      -0.003142
 **** Fit       0.000023
 **** Fit      -0.012310
 **** Fit      -0.013257
 **** Fit      -0.013573
 **** Fit      -0.012835
 **** Fit      -0.010640
 **** Fit       0.013454
 **** Fit       0.017499
 **** Fit       0.020246
 **** Fit       0.020855
 **** Fit       0.006358
 **** Fit       0.008944
 **** Fit       0.012868
 **** Fit       0.017538
 **** Fit       0.021893
 **** Fit       0.025124
 **** Fit       0.026847
 **** Fit       0.026895
 **** Fit       0.025063
 **** Fit       0.004593
 **** Fit       0.003585
 **** Fit       0.003792
 **** Fit       0.006267
 **** Fit       0.011012
 **** Fit       0.016839
 **** Fit       0.022382
 **** Fit       0.026827
 **** Fit       0.029911
 **** Fit       0.031663
 **** Fit       0.032160
 **** Fit       0.031384
 **** Fit       0.029143
 **** Fit       0.003587
 **** Fit      -0.000198
 **** Fit       0.014256
 **** Fit       0.021242
 **** Fit       0.026850
 **** Fit       0.030967
 **** Fit       0.033767
 **** Fit       0.035484
 **** Fit       0.036296
 **** Fit       0.036260
 **** Fit       0.035296
 **** Fit       0.033197
 **** Fit       0.029646
 **** Fit       0.014263
 **** Fit       0.022321
 **** Fit       0.028401
 **** Fit       0.032761
 **** Fit       0.035783
 **** Fit       0.037825
 **** Fit       0.039141
 **** Fit       0.039860
 **** Fit       0.039993
 **** Fit       0.039438
 **** Fit       0.038022
 **** Fit       0.035542
 **** Fit       0.015235
 **** Fit       0.023712
 **** Fit       0.029849
 **** Fit       0.034179
 **** Fit       0.037221
 **** Fit       0.039402
 **** Fit       0.041005
 **** Fit       0.042186
 **** Fit       0.042995
 **** Fit       0.043393
 **** Fit       0.043265
 **** Fit       0.042460
 **** Fit       0.040870
 **** Fit       0.038509
 **** Fit       0.017443
 **** Fit       0.025566
 **** Fit       0.031342
 **** Fit       0.035394
 **** Fit       0.038291
 **** Fit       0.040485
 **** Fit       0.042247
 **** Fit       0.043711
 **** Fit       0.044942
 **** Fit       0.045936
 **** Fit       0.046621
 **** Fit       0.046867
 **** Fit       0.046539
 **** Fit       0.045578
 **** Fit       0.019592
 **** Fit       0.027306
 **** Fit       0.032740
 **** Fit       0.036517
 **** Fit       0.039264
 **** Fit       0.041469
 **** Fit       0.043370
 **** Fit       0.045060
 **** Fit       0.046593
 **** Fit       0.047985
 **** Fit       0.049182
 **** Fit       0.050059
 **** Fit       0.050448
 **** Fit       0.022700
 **** Fit       0.029453
 **** Fit       0.040211
 **** Fit       0.042413
 **** Fit       0.044427
 **** Fit       0.046293
 **** Fit       0.048055
 **** Fit       0.049747
 **** Fit       0.051348
 **** Fit       0.052756
 **** Fit       0.053800
 **** Fit       0.022395
 **** Fit       0.028989
 **** Fit       0.042550
 **** Fit       0.044723
 **** Fit       0.046776
 **** Fit       0.048738
 **** Fit       0.050672
 **** Fit       0.052613
 **** Fit       0.054532
 **** Fit       0.056317
 **** Fit       0.057791
 **** Fit       0.023644
 **** Fit       0.029393
 **** Fit       0.034060
 **** Fit       0.037714
 **** Fit       0.045258
 **** Fit       0.047383
 **** Fit       0.049425
 **** Fit       0.051458
 **** Fit       0.053563
 **** Fit       0.055776
 **** Fit       0.058079
 **** Fit       0.060398
 **** Fit       0.025337
 **** Fit       0.030099
 **** Fit       0.034354
 **** Fit       0.038027
 **** Fit       0.041117
 **** Fit       0.043771
 **** Fit       0.046157
 **** Fit       0.048359
 **** Fit       0.050457
 **** Fit       0.052565
 **** Fit       0.054801
 **** Fit       0.057253
 **** Fit       0.059974
 **** Fit       0.063005
 **** Fit       0.027535
 **** Fit       0.031293
 **** Fit       0.034896
 **** Fit       0.038315
 **** Fit       0.041458
 **** Fit       0.044289
 **** Fit       0.046838
 **** Fit       0.049147
 **** Fit       0.051300
 **** Fit       0.053441
 **** Fit       0.055731
 **** Fit       0.058304
 **** Fit       0.061281
 **** Fit       0.064816
 **** Fit       0.033246
 **** Fit       0.036502
 **** Fit       0.039671
 **** Fit       0.042719
 **** Fit       0.045573
 **** Fit       0.048191
 **** Fit       0.050583
 **** Fit       0.052844
 **** Fit       0.055144
 **** Fit       0.057668
 **** Fit       0.060594
 **** Fit       0.064132
 **** Fit       0.068625
 **** Fit       0.033455
 **** Fit       0.036910
 **** Fit       0.040114
 **** Fit       0.043176
 **** Fit       0.046074
 **** Fit       0.048769
 **** Fit       0.051275
 **** Fit       0.053693
 **** Fit       0.056192
 **** Fit       0.058972
 **** Fit       0.062257
 **** Fit       0.066362
 **** Fit       0.071851
 **** Fit       0.030959
 **** Fit       0.035356
 **** Fit       0.039083
 **** Fit       0.042474
 **** Fit       0.045625
 **** Fit       0.048555
 **** Fit       0.051311
 **** Fit       0.054017
 **** Fit       0.056866
 **** Fit       0.060100
 **** Fit       0.064035
 **** Fit       0.069185
 **** Fit       0.026372
 **** Fit       0.032074
 **** Fit       0.036628
 **** Fit       0.040546
 **** Fit       0.044066
 **** Fit       0.047293
 **** Fit       0.050327
 **** Fit       0.053320
 **** Fit       0.056488
 **** Fit       0.060111
 **** Fit       0.064585
 **** Fit       0.027122
 **** Fit       0.032618
 **** Fit       0.037206
 **** Fit       0.041194
 **** Fit       0.044762
 **** Fit       0.048059
 **** Fit       0.051260
 **** Fit       0.054586
 **** Fit       0.058305
 **** Fit       0.062740
 **** Fit       0.023336
 **** Fit       0.029406
 **** Fit       0.034489
 **** Fit       0.038822
 **** Fit       0.042601
 **** Fit       0.046009
 **** Fit       0.049231
 **** Fit       0.052417
 **** Fit       0.055575
 **** Fit       0.030296
 **** Fit       0.034783
 **** Fit       0.038396
 **** Fit       0.041228
 **** Fit       0.033080
 **** Fit       0.034723
 **** Fit       0.038229
 **** Fit       0.037115
 **** Fit       0.038576
 **** Fit       0.041885
 **** Fit       0.041544
 **** Fit       0.039758
 **** Fit       0.040648
 **** Fit       0.043501
 **** Fit       0.045723
 **** Fit       0.042387
 **** Fit       0.042046
 **** Fit       0.043909
 **** Fit       0.047383
 **** Fit       0.049983
 **** Fit       0.045454
 **** Fit       0.044057
 **** Fit       0.044959
 **** Fit       0.047550
 **** Fit       0.051390
 **** Fit       0.050800
 **** Fit       0.047376
 **** Fit       0.046656
 **** Fit       0.047914
 **** Fit       0.050620
 **** Fit       0.054391
 **** Fit       0.058959
 **** Fit       0.056806
 **** Fit       0.051770
 **** Fit       0.049886
 **** Fit       0.050280
 **** Fit       0.052311
 **** Fit       0.055510
 **** Fit       0.059552
 **** Fit       0.064220
 **** Fit       0.063627
 **** Fit       0.057169
 **** Fit       0.054196
 **** Fit       0.065869
 **** Fit       0.053699
 **** Fit       0.054407
 **** Fit       0.056718
 **** Fit       0.060252
 **** Fit       0.064778
 **** Fit       0.070183
 **** Fit       0.060200
 **** Fit       0.056071
 **** Fit       0.054556
 **** Fit       0.054985
 **** Fit       0.056871
 **** Fit       0.059868
 **** Fit       0.063739
 **** Fit       0.068336
 **** Fit       0.073567
 **** Fit       0.079357
 **** Fit       0.071113
 **** Fit       0.062993
 **** Fit       0.058211
 **** Fit       0.055936
 **** Fit       0.055586
 **** Fit       0.056720
 **** Fit       0.058993
 **** Fit       0.062153
 **** Fit       0.066021
 **** Fit       0.070470
 **** Fit       0.075401
 **** Fit       0.080688
 **** Fit       0.086128
 **** Fit       0.064665
 **** Fit       0.059842
 **** Fit       0.057326
 **** Fit       0.056665
 **** Fit       0.057483
 **** Fit       0.059464
 **** Fit       0.062358
 **** Fit       0.065973
 **** Fit       0.070170
 **** Fit       0.074824
 **** Fit       0.079783
 **** Fit       0.084794
 **** Fit       0.089428
 **** Fit       0.067939
 **** Fit       0.062693
 **** Fit       0.059425
 **** Fit       0.057941
 **** Fit       0.057994
 **** Fit       0.059324
 **** Fit       0.061687
 **** Fit       0.064872
 **** Fit       0.068712
 **** Fit       0.073062
 **** Fit       0.077761
 **** Fit       0.082556
 **** Fit       0.087022
 **** Fit       0.067283
 **** Fit       0.063775
 **** Fit       0.060919
 **** Fit       0.059193
 **** Fit       0.058721
 **** Fit       0.059446
 **** Fit       0.061226
 **** Fit       0.063887
 **** Fit       0.067263
 **** Fit       0.071200
 **** Fit       0.075534
 **** Fit       0.080038
 **** Fit       0.084356
 **** Fit       0.060659
 **** Fit       0.060234
 **** Fit       0.059413
 **** Fit       0.059119
 **** Fit       0.059738
 **** Fit       0.061350
 **** Fit       0.063880
 **** Fit       0.067179
 **** Fit       0.071072
 **** Fit       0.075345
 **** Fit       0.079702
 **** Fit       0.050183
 **** Fit       0.055257
 **** Fit       0.057387
 **** Fit       0.058380
 **** Fit       0.059404
 **** Fit       0.061037
 **** Fit       0.063463
 **** Fit       0.066635
 **** Fit       0.070380
 **** Fit       0.074426
 **** Fit       0.078385
 **** Fit       0.048284
 **** Fit       0.053650
 **** Fit       0.056782
 **** Fit       0.059048
 **** Fit       0.061460
 **** Fit       0.064450
 **** Fit       0.067999
 **** Fit       0.071785
 **** Fit       0.075225
 **** Fit       0.043554
 **** Fit       0.046332
 **** Fit       0.051936
 **** Fit       0.056489
 **** Fit       0.060089
 **** Fit       0.063720
 **** Fit       0.067502
 **** Fit       0.070535
 **** Fit       0.071104
 **** Fit       0.062441
 **** Fit       0.054733
 **** Fit       0.052808
 **** Fit       0.057222
 **** Fit       0.062043
 **** Fit       0.065117
 **** Fit       0.059152
 **** Fit       0.038058
 **** Fit       0.041970
 **** Fit       0.044078
 **** Fit       0.044081
 **** Fit       0.038564
 **** Fit       0.042293
 **** Fit       0.045648
 **** Fit       0.048302
 **** Fit       0.049973
 **** Fit       0.050631
 **** Fit       0.044854
 **** Fit       0.047957
 **** Fit       0.050852
 **** Fit       0.053233
 **** Fit       0.054863
 **** Fit       0.055662
 **** Fit       0.049258
 **** Fit       0.052200
 **** Fit       0.055007
 **** Fit       0.057430
 **** Fit       0.059248
 **** Fit       0.060290
 **** Fit       0.060559
 **** Fit       0.053683
 **** Fit       0.056454
 **** Fit       0.059143
 **** Fit       0.061574
 **** Fit       0.063566
 **** Fit       0.064935
 **** Fit       0.065543
 **** Fit       0.065439
 **** Fit       0.059389
 **** Fit       0.062057
 **** Fit       0.064658
 **** Fit       0.067043
 **** Fit       0.069035
 **** Fit       0.070441
 **** Fit       0.071110
 **** Fit       0.071074
 **** Fit       0.070813
 **** Fit       0.065394
 **** Fit       0.067843
 **** Fit       0.070307
 **** Fit       0.072647
 **** Fit       0.074693
 **** Fit       0.076261
 **** Fit       0.077233
 **** Fit       0.070991
 **** Fit       0.073148
 **** Fit       0.075477
 **** Fit       0.077830
 **** Fit       0.080029
 **** Fit       0.081898
 **** Fit       0.077628
 **** Fit       0.079627
 **** Fit       0.081903
 **** Fit       0.084219
 **** Fit       0.086341
 **** Fit       0.083596
 **** Fit       0.085297
 **** Fit       0.087329
 **** Fit       0.090061
 -----------------------------------------------------------------
 Leave Link  602 at Wed Sep 18 11:25:02 2019, MaxMem=  1342177280 cpu:             116.0 elap:               2.5

 Test job not archived.
 1\1\GINC-C488-072\SP\RB3LYP\SVP\C54H83Ca1N15O23\PENGZHI\18-Sep-2019\0\
 \#b3lyp/svp scf=(tight,noincore) Test #IOP(5/87=12) Density=Current Po
 p=(MK,readradii) iop(6/33=2) iop(6/42=6)\\Ng-295_loop3_34.0\\0,1\C,0,6
 .79,73.82,85.03\C,0,5.44,73.31,84.56\O,0,4.5,74.06,84.28\H,0,7.497,73.
 793,84.201\H,0,6.688,74.845,85.386\H,0,7.156,73.188,85.839\N,0,5.19,72
 .,84.49\C,0,4.07,71.31,83.88\C,0,2.95,71.28,84.9\O,0,3.17,71.07,86.09\
 C,0,4.4,69.9,83.39\C,0,3.31,69.32,82.5\O,0,3.53,69.28,81.27\O,0,2.24,6
 8.96,83.04\H,0,5.87,71.41,84.95\H,0,3.73,71.87,83.01\H,0,4.47,69.34,84
 .32\H,0,5.3,70.13,82.81\N,0,1.71,71.52,84.46\C,0,0.53,71.54,85.3\C,0,0
 .1,70.28,86.05\O,0,-0.67,70.32,87.01\C,0,-0.61,71.85,84.33\C,0,-0.59,7
 3.28,83.81\C,0,-0.88,74.41,84.8\C,0,-0.89,75.79,84.14\N,0,-1.05,76.79,
 85.21\H,0,1.39,71.71,83.52\H,0,0.63,72.34,86.03\H,0,-1.56,71.57,84.8\H
 ,0,-0.61,71.2,83.46\H,0,-1.41,73.27,83.09\H,0,0.41,73.51,83.46\H,0,-0.
 21,74.32,85.65\H,0,-1.92,74.22,85.09\H,0,-1.65,75.9,83.37\H,0,0.08,75.
 99,83.67\H,0,-0.43,76.58,85.97\H,0,-0.79,77.7,84.88\H,0,-1.98,76.78,85
 .62\N,0,0.52,69.12,85.54\C,0,0.15,67.78,85.93\C,0,1.3,66.78,85.97\O,0,
 1.12,65.79,86.68\C,0,-0.92,67.26,84.98\C,0,-0.53,67.42,83.51\O,0,-0.88
 ,68.35,82.76\O,0,0.3,66.59,83.08\H,0,1.11,69.23,84.72\H,0,-0.4,67.81,8
 6.87\H,0,-1.9,67.68,85.24\H,0,-1.19,66.23,85.18\N,0,2.4,67.,85.25\C,0,
 3.55,66.12,85.21\C,0,3.31,64.87,84.38\O,0,4.29,64.12,84.4\H,0,2.45,67.
 87,84.73\H,0,3.7,65.77,86.24\H,0,4.45,66.67,84.9\N,0,2.18,64.57,83.75\
 C,0,1.76,63.25,83.33\C,0,2.46,62.81,82.05\O,0,2.61,63.51,81.05\C,0,0.2
 4,63.3,83.24\C,0,-0.32,61.91,83.01\N,0,-1.03,61.65,81.91\O,0,-0.24,61.
 ,83.83\H,0,1.53,65.34,83.64\H,0,1.97,62.55,84.15\H,0,-0.04,63.92,82.38
 \H,0,-0.19,63.75,84.14\H,0,-1.11,62.37,81.21\H,0,-1.47,60.74,81.87\N,0
 ,2.88,61.55,82.\C,0,3.77,60.95,81.02\C,0,3.11,60.39,79.77\O,0,3.85,60.
 28,78.8\H,0,2.85,61.01,82.85\H,0,4.38,60.19,81.49\H,0,4.51,61.61,80.57
 \N,0,1.8,60.1,79.74\C,0,1.18,59.42,78.62\C,0,0.19,60.21,77.78\O,0,-0.4
 7,61.14,78.24\C,0,0.36,58.25,79.16\C,0,-0.39,57.37,78.18\C,0,-1.71,57.
 61,77.79\C,0,0.23,56.21,77.7\C,0,-2.46,56.67,77.07\C,0,-0.51,55.27,76.
 96\C,0,-1.88,55.44,76.69\O,0,-2.59,54.45,76.06\H,0,1.26,60.44,80.52\H,
 0,1.99,59.07,77.98\H,0,-0.37,58.66,79.85\H,0,1.04,57.66,79.76\H,0,-2.2
 5,58.46,78.17\H,0,1.24,56.01,78.02\H,0,-3.5,56.88,76.89\H,0,-0.14,54.2
 7,76.79\H,0,-1.99,53.85,75.6\N,0,0.3,60.01,76.46\C,0,-0.33,60.75,75.38
 \C,0,-1.83,60.57,75.27\O,0,-2.53,60.47,76.28\C,0,0.06,62.22,75.26\C,0,
 -0.96,63.3,75.62\C,0,0.45,62.55,73.82\C,0,-0.35,64.69,75.77\H,0,0.65,5
 9.1,76.19\H,0,0.16,60.23,74.56\H,0,0.94,62.43,75.86\H,0,-1.36,63.17,76
 .63\H,0,-1.74,63.3,74.86\H,0,0.96,63.5,73.73\H,0,1.15,61.76,73.53\H,0,
 -0.46,62.63,73.22\H,0,0.05,65.,74.8\H,0,-1.07,65.38,76.21\H,0,0.47,64.
 56,76.48\N,0,-2.41,60.58,74.07\C,0,-3.83,60.68,73.81\C,0,-4.3,60.18,72
 .46\O,0,-5.5,60.19,72.17\C,0,-4.2,62.16,73.84\O,0,-3.43,62.94,72.95\H,
 0,-1.84,60.81,73.27\H,0,-4.38,60.13,74.58\H,0,-4.23,62.55,74.86\H,0,-5
 .21,62.23,73.46\H,0,-3.63,63.87,73.03\N,0,-3.39,59.76,71.58\C,0,-3.57,
 59.35,70.2\C,0,-4.79,59.91,69.5\O,0,-5.71,59.14,69.21\C,0,-3.48,57.83,
 70.31\H,0,-2.51,59.46,71.98\H,0,-2.8,59.71,69.52\H,0,-2.48,57.5,70.6\H
 ,0,-4.19,57.56,71.09\H,0,-3.75,57.31,69.39\N,0,-4.86,61.2,69.15\C,0,-3
 .98,62.3,69.46\C,0,-3.14,62.73,68.26\O,0,-3.57,62.56,67.12\C,0,-4.8,63
 .46,70.01\H,0,-5.64,61.47,68.56\H,0,-3.24,62.01,70.2\H,0,-5.33,64.02,6
 9.24\H,0,-5.44,63.,70.77\H,0,-4.04,64.11,70.44\N,0,-2.,63.4,68.43\C,0,
 -1.22,63.56,69.63\C,0,0.04,62.71,69.5\O,0,0.8,62.5,70.43\C,0,-0.84,65.
 04,69.69\C,0,-0.5,65.53,71.1\C,0,-0.41,67.04,71.27\O,0,0.68,67.63,71.0
 9\O,0,-1.41,67.71,71.63\H,0,-1.55,63.78,67.61\H,0,-1.82,63.29,70.5\H,0
 ,-1.75,65.6,69.47\H,0,-0.09,65.32,68.95\H,0,0.46,65.2,71.48\H,0,-1.16,
 65.11,71.86\N,0,0.34,62.14,68.33\C,0,1.64,61.59,68.\H,0,2.372,61.923,6
 8.736\H,0,1.587,60.501,68.007\H,0,1.94,61.933,67.01\H,0,-0.24,62.48,67
 .58\Ca,0,1.04,68.1,80.92\O,0,0.58,70.7,80.73\H,0,-0.25,71.03,80.39\H,0
 ,1.11,71.49,80.88\\Version=ES64L-G16RevA.03\State=1-A\HF=-5333.3341412
 \RMSD=6.127e-10\Dipole=0.2494596,15.8057027,10.5399161\Quadrupole=-113
 .8539056,303.0430672,-189.1891617,-68.6590967,-73.7986066,216.5395424\
 PG=C01 [X(C54H83Ca1N15O23)]\\@


 Ideas are like rabbits. You get a couple and learn
 how to handle them, and pretty soon you have a dozen.
                                    -- John Steinbeck
 Job cpu time:       0 days 15 hours 32 minutes 49.3 seconds.
 Elapsed time:       0 days  0 hours 19 minutes 41.1 seconds.
 File lengths (MBytes):  RWF=   1517 Int=      0 D2E=      0 Chk=    171 Scr=      1
 Normal termination of Gaussian 16 at Wed Sep 18 11:25:03 2019.
