 Entering Gaussian System, Link 0=g16
 Initial command:
 /home1/apps/gaussian/16rA.03/g16/l1.exe "/scratch/01990/pengzhi/4345529/Gau-434675.inp" -scrdir="/scratch/01990/pengzhi/4345529/"
 Entering Link 1 = /home1/apps/gaussian/16rA.03/g16/l1.exe PID=    434676.
  
 Copyright (c) 1988,1990,1992,1993,1995,1998,2003,2009,2016,
            Gaussian, Inc.  All Rights Reserved.
  
 This is part of the Gaussian(R) 16 program.  It is based on
 the Gaussian(R) 09 system (copyright 2009, Gaussian, Inc.),
 the Gaussian(R) 03 system (copyright 2003, Gaussian, Inc.),
 the Gaussian(R) 98 system (copyright 1998, Gaussian, Inc.),
 the Gaussian(R) 94 system (copyright 1995, Gaussian, Inc.),
 the Gaussian 92(TM) system (copyright 1992, Gaussian, Inc.),
 the Gaussian 90(TM) system (copyright 1990, Gaussian, Inc.),
 the Gaussian 88(TM) system (copyright 1988, Gaussian, Inc.),
 the Gaussian 86(TM) system (copyright 1986, Carnegie Mellon
 University), and the Gaussian 82(TM) system (copyright 1983,
 Carnegie Mellon University). Gaussian is a federally registered
 trademark of Gaussian, Inc.
  
 This software contains proprietary and confidential information,
 including trade secrets, belonging to Gaussian, Inc.
  
 This software is provided under written license and may be
 used, copied, transmitted, or stored only in accord with that
 written license.
  
 The following legend is applicable only to US Government
 contracts under FAR:
  
                    RESTRICTED RIGHTS LEGEND
  
 Use, reproduction and disclosure by the US Government is
 subject to restrictions as set forth in subparagraphs (a)
 and (c) of the Commercial Computer Software - Restricted
 Rights clause in FAR 52.227-19.
  
 Gaussian, Inc.
 340 Quinnipiac St., Bldg. 40, Wallingford CT 06492
  
  
 ---------------------------------------------------------------
 Warning -- This program may not be used in any manner that
 competes with the business of Gaussian, Inc. or will provide
 assistance to any competitor of Gaussian, Inc.  The licensee
 of this program is prohibited from giving any competitor of
 Gaussian, Inc. access to this program.  By using this program,
 the user acknowledges that Gaussian, Inc. is engaged in the
 business of creating and licensing software in the field of
 computational chemistry and represents and warrants to the
 licensee that it is not a competitor of Gaussian, Inc. and that
 it will not use this program in any manner prohibited above.
 ---------------------------------------------------------------
  

 Cite this work as:
 Gaussian 16, Revision A.03,
 M. J. Frisch, G. W. Trucks, H. B. Schlegel, G. E. Scuseria, 
 M. A. Robb, J. R. Cheeseman, G. Scalmani, V. Barone, 
 G. A. Petersson, H. Nakatsuji, X. Li, M. Caricato, A. V. Marenich, 
 J. Bloino, B. G. Janesko, R. Gomperts, B. Mennucci, H. P. Hratchian, 
 J. V. Ortiz, A. F. Izmaylov, J. L. Sonnenberg, D. Williams-Young, 
 F. Ding, F. Lipparini, F. Egidi, J. Goings, B. Peng, A. Petrone, 
 T. Henderson, D. Ranasinghe, V. G. Zakrzewski, J. Gao, N. Rega, 
 G. Zheng, W. Liang, M. Hada, M. Ehara, K. Toyota, R. Fukuda, 
 J. Hasegawa, M. Ishida, T. Nakajima, Y. Honda, O. Kitao, H. Nakai, 
 T. Vreven, K. Throssell, J. A. Montgomery, Jr., J. E. Peralta, 
 F. Ogliaro, M. J. Bearpark, J. J. Heyd, E. N. Brothers, K. N. Kudin, 
 V. N. Staroverov, T. A. Keith, R. Kobayashi, J. Normand, 
 K. Raghavachari, A. P. Rendell, J. C. Burant, S. S. Iyengar, 
 J. Tomasi, M. Cossi, J. M. Millam, M. Klene, C. Adamo, R. Cammi, 
 J. W. Ochterski, R. L. Martin, K. Morokuma, O. Farkas, 
 J. B. Foresman, and D. J. Fox, Gaussian, Inc., Wallingford CT, 2016.
 
 ******************************************
 Gaussian 16:  ES64L-G16RevA.03 25-Dec-2016
                17-Sep-2019 
 ******************************************
 %chk=Ng-293_loop3_56.0.chk
 %nprocshared=48
 Will use up to   48 processors via shared memory.
 %mem=10GB
 %nosave
 ----------------------------------------------------------------------
 #b3lyp/svp scf=(tight,noincore) Test #IOP(5/87=12) Density=Current Pop
 =(MK,readradii) iop(6/33=2) iop(6/42=6)
 ----------------------------------------------------------------------
 1/30=1,38=1,172=1/1;
 2/12=2,17=6,18=5,40=1/2;
 3/5=18,7=101,11=2,25=1,30=1,74=-5/1,2,3;
 4//1;
 5/5=4,32=2,38=5,87=12/2;
 6/7=2,8=2,9=2,10=2,15=8,20=101,22=-1,28=1,33=2,42=6/1,2;
 99/5=1,9=1/99;
 -----------------
 Ng-293_loop3_56.0
 -----------------
 Symbolic Z-matrix:
 Charge =  0 Multiplicity = 1
 C                     42.65     78.33     71.97 
 C                     42.87     78.1      70.49 
 O                     43.84     78.6      69.91 
 H                     41.599    78.171    72.209 
 H                     43.262    77.632    72.542 
 H                     42.93     79.352    72.225 
 N                     41.92     77.47     69.8 
 C                     42.03     77.41     68.35 
 C                     41.37     76.1      67.91 
 O                     40.7      75.43     68.7 
 C                     41.1      78.46     67.76 
 C                     41.17     78.66     66.26 
 O                     42.07     78.17     65.55 
 O                     40.19     79.2      65.7 
 H                     41.1      77.15     70.29 
 H                     43.07     77.37     68.04 
 H                     41.43     79.4      68.22 
 H                     40.04     78.32     67.97 
 N                     41.66     75.69     66.68 
 C                     41.08     74.58     65.95 
 C                     39.57     74.72     65.79 
 O                     38.89     75.72     66.05 
 C                     41.55     73.21     66.45 
 C                     43.04     73.08     66.71 
 C                     43.91     73.26     65.47 
 C                     45.41     73.34     65.76 
 N                     45.79     74.54     66.52 
 H                     42.24     76.3      66.13 
 H                     41.39     74.83     64.94 
 H                     41.25     72.45     65.72 
 H                     41.05     73.01     67.39 
 H                     43.28     72.09     67.09 
 H                     43.33     73.79     67.49 
 H                     43.65     74.24     65.06 
 H                     43.83     72.45     64.75 
 H                     46.       73.22     64.85 
 H                     45.69     72.48     66.36 
 H                     45.48     75.34     65.98 
 H                     45.22     74.65     67.34 
 H                     46.75     74.5      66.83 
 N                     38.93     73.65     65.32 
 C                     37.72     73.72     64.52 
 C                     36.5      74.26     65.24 
 O                     35.75     75.03     64.63 
 C                     37.45     72.46     63.7 
 C                     37.35     71.25     64.62 
 O                     38.44     70.83     65.06 
 O                     36.32     70.54     64.71 
 H                     39.53     72.85     65.18 
 H                     37.92     74.44     63.73 
 H                     38.19     72.37     62.91 
 H                     36.51     72.58     63.17 
 N                     36.38     74.02     66.55 
 C                     35.24     74.45     67.34 
 C                     33.85     73.97     66.97 
 O                     32.85     74.62     67.26 
 H                     37.11     73.5      66.99 
 H                     35.19     75.52     67.51 
 H                     35.44     74.14     68.37 
 N                     33.76     72.82     66.31 
 C                     32.47     72.23     66. 
 C                     32.41     70.74     66.32 
 O                     33.39     70.01     66.38 
 C                     32.03     72.56     64.58 
 C                     31.57     74.       64.37 
 N                     32.33     74.81     63.64 
 O                     30.49     74.35     64.85 
 H                     34.55     72.2      66.18 
 H                     31.74     72.71     66.65 
 H                     31.23     71.9      64.25 
 H                     32.72     72.25     63.79 
 H                     33.16     74.4      63.24 
 H                     32.03     75.74     63.39 
 N                     31.18     70.31     66.62 
 C                     30.82     68.91     66.74 
 C                     30.89     68.42     68.18 
 O                     31.31     69.18     69.05 
 H                     30.43     70.99     66.64 
 H                     31.49     68.31     66.13 
 H                     29.78     68.75     66.46 
 N                     30.33     67.21     68.26 
 C                     30.19     66.44     69.48 
 C                     31.5      66.04     70.15 
 O                     31.4      65.32     71.14 
 C                     29.31     67.25     70.42 
 C                     28.22     66.6      71.24 
 C                     28.37     66.32     72.61 
 C                     27.04     66.21     70.61 
 C                     27.41     65.68     73.4 
 C                     26.05     65.57     71.37 
 C                     26.21     65.33     72.75 
 O                     25.22     64.69     73.43 
 H                     30.11     66.67     67.44 
 H                     29.67     65.51     69.24 
 H                     28.76     68.05     69.92 
 H                     29.95     67.8      71.11 
 H                     29.32     66.52     73.08 
 H                     26.97     66.37     69.54 
 H                     27.6      65.51     74.44 
 H                     25.17     65.26     70.83 
 H                     24.56     64.29     72.85 
 N                     32.67     66.44     69.66 
 C                     34.03     65.99     69.93 
 C                     34.29     64.5      69.82 
 O                     35.27     64.14     69.16 
 C                     34.59     66.63     71.19 
 C                     34.23     68.1      71.41 
 C                     36.08     66.35     71.36 
 C                     34.9      68.97     70.36 
 H                     32.62     67.08     68.88 
 H                     34.64     66.45     69.15 
 H                     34.06     66.26     72.07 
 H                     34.65     68.42     72.36 
 H                     33.15     68.29     71.34 
 H                     36.31     65.3      71.48 
 H                     36.66     66.78     70.54 
 H                     36.5      66.88     72.22 
 H                     34.38     68.88     69.4 
 H                     34.92     70.       70.71 
 H                     35.96     68.77     70.29 
 N                     33.48     63.67     70.48 
 C                     33.58     62.23     70.33 
 C                     34.96     61.69     70.71 
 O                     35.48     60.77     70.09 
 C                     32.38     61.61     71.04 
 O                     32.54     61.93     72.4 
 H                     32.67     64.       70.98 
 H                     33.51     62.02     69.26 
 H                     32.41     60.52     71. 
 H                     31.43     61.97     70.66 
 H                     31.67     61.95     72.8 
 N                     35.41     62.24     71.84 
 C                     36.63     61.84     72.52 
 C                     37.98     62.02     71.83 
 O                     39.03     61.69     72.37 
 C                     36.36     60.42     73.02 
 H                     34.9      63.03     72.21 
 H                     36.62     62.38     73.47 
 H                     36.62     59.65     72.3 
 H                     37.04     60.18     73.83 
 H                     35.35     60.26     73.39 
 N                     37.97     62.63     70.65 
 C                     39.12     62.85     69.79 
 C                     39.63     64.28     69.62 
 O                     39.05     65.27     70.04 
 C                     38.89     62.13     68.47 
 H                     37.08     62.97     70.28 
 H                     39.94     62.27     70.19 
 H                     37.82     61.99     68.31 
 H                     39.39     62.71     67.69 
 H                     39.27     61.11     68.49 
 N                     40.76     64.4      68.92 
 C                     41.51     65.61     68.7 
 C                     41.99     66.29     69.98 
 O                     42.6      67.36     69.97 
 C                     40.83     66.5      67.67 
 C                     40.5      65.89     66.31 
 C                     39.59     66.66     65.37 
 O                     38.46     66.19     65.1 
 O                     39.95     67.75     64.89 
 H                     41.2      63.51     68.72 
 H                     42.47     65.3      68.29 
 H                     41.47     67.36     67.45 
 H                     39.9      66.9      68.07 
 H                     39.98     64.96     66.53 
 H                     41.4      65.64     65.73 
 N                     41.89     65.59     71.11 
 C                     42.26     66.11     72.41 
 H                     43.105    66.79     72.302 
 H                     41.415    66.647    72.841 
 H                     42.54     65.285    73.066 
 H                     41.48     64.67     71.1 
 Ca                    36.94     68.12     64.3 
 O                     36.19     66.05     62.93 
 H                     35.48     65.45     63.17 
 H                     36.98     65.51     62.96 
 
 Stoichiometry    C54H83CaN15O23
 Framework group  C1[X(C54H83CaN15O23)]
 Deg. of freedom   522
 Full point group                 C1      NOp   1
 Largest Abelian subgroup         C1      NOp   1
 Largest concise Abelian subgroup C1      NOp   1
                         Standard orientation:                         
 ---------------------------------------------------------------------
 Center     Atomic      Atomic             Coordinates (Angstroms)
 Number     Number       Type             X           Y           Z
 ---------------------------------------------------------------------
      1          6           0       -9.492583    0.802389    6.562407
      2          6           0       -9.854927    0.811711    5.092604
      3          8           0      -10.962403    1.211539    4.717190
      4          1           0       -8.693205    0.082249    6.733863
      5          1           0       -9.156492    1.795778    6.860991
      6          1           0      -10.366244    0.522347    7.150796
      7          7           0       -9.011675    0.245794    4.229955
      8          6           0       -9.431676    0.078720    2.846523
      9          6           0       -8.167968    0.170231    1.986309
     10          8           0       -7.046880    0.149209    2.500720
     11          6           0       -9.856847   -1.369287    2.651571
     12          6           0      -10.466222   -1.720988    1.309979
     13          8           0      -10.812056   -0.862882    0.474364
     14          8           0      -10.464046   -2.924900    0.969109
     15          1           0       -8.154052   -0.148393    4.582091
     16          1           0      -10.092178    0.884523    2.540387
     17          1           0      -10.640091   -1.522938    3.404578
     18          1           0       -9.074797   -2.112918    2.802268
     19          7           0       -8.364133    0.384757    0.689930
     20          6           0       -7.380267    0.374140   -0.374633
     21          6           0       -6.652994   -0.962341   -0.475588
     22          8           0       -6.949831   -2.010093    0.111015
     23          6           0       -6.467702    1.605003   -0.373061
     24          6           0       -7.163268    2.939707   -0.174682
     25          6           0       -8.150806    3.301429   -1.279591
     26          6           0       -9.004439    4.535463   -0.981311
     27          7           0       -9.932424    4.340218    0.142398
     28          1           0       -9.320460    0.413271    0.380695
     29          1           0       -8.031721    0.288066   -1.238866
     30          1           0       -5.914370    1.630786   -1.318396
     31          1           0       -5.763317    1.495259    0.442659
     32          1           0       -6.440667    3.751861   -0.155876
     33          1           0       -7.658694    2.943098    0.800583
     34          1           0       -8.862437    2.472490   -1.329987
     35          1           0       -7.684490    3.535457   -2.232839
     36          1           0       -9.508213    4.899303   -1.878212
     37          1           0       -8.343537    5.352987   -0.711378
     38          1           0      -10.513366    3.543065   -0.091599
     39          1           0       -9.457586    3.980151    0.951275
     40          1           0      -10.374542    5.204673    0.419074
     41          7           0       -5.592738   -0.991738   -1.282058
     42          6           0       -5.163889   -2.173681   -2.008761
     43          6           0       -4.667306   -3.317367   -1.146330
     44          8           0       -4.988677   -4.469926   -1.455894
     45          6           0       -4.270666   -1.868152   -3.209471
     46          6           0       -3.032352   -1.104502   -2.757898
     47          8           0       -3.223544    0.099330   -2.488951
     48          8           0       -1.865204   -1.536112   -2.914677
     49          1           0       -5.369009   -0.094424   -1.687488
     50          1           0       -6.049716   -2.562225   -2.505595
     51          1           0       -4.851403   -1.374777   -3.983503
     52          1           0       -3.962326   -2.803970   -3.665621
     53          7           0       -4.050912   -3.022377    0.003078
     54          6           0       -3.497376   -4.026907    0.893650
     55          6           0       -2.424090   -4.968800    0.383459
     56          8           0       -2.258803   -6.079496    0.879072
     57          1           0       -3.956164   -2.056659    0.238261
     58          1           0       -4.239270   -4.618524    1.418895
     59          1           0       -3.091269   -3.489280    1.755644
     60          7           0       -1.675368   -4.545084   -0.629498
     61          6           0       -0.559538   -5.333551   -1.120969
     62          6           0        0.703293   -4.504042   -1.328988
     63          8           0        0.707813   -3.296043   -1.522943
     64          6           0       -0.949371   -6.155114   -2.342429
     65          6           0       -1.840902   -7.358241   -2.047542
     66          7           0       -3.104773   -7.328579   -2.457846
     67          8           0       -1.347030   -8.332102   -1.475718
     68          1           0       -1.697051   -3.589645   -0.964261
     69          1           0       -0.321608   -6.059908   -0.345343
     70          1           0       -0.070691   -6.510809   -2.877127
     71          1           0       -1.332805   -5.582147   -3.191538
     72          1           0       -3.385125   -6.509273   -2.974703
     73          1           0       -3.710556   -8.130792   -2.374894
     74          7           0        1.830938   -5.209452   -1.192556
     75          6           0        3.144095   -4.713026   -1.557495
     76          6           0        3.877105   -4.100922   -0.371482
     77          8           0        3.292747   -4.001178    0.705308
     78          1           0        1.752984   -6.187107   -0.940732
     79          1           0        3.043915   -3.961889   -2.336441
     80          1           0        3.793995   -5.527233   -1.874189
     81          7           0        5.150283   -3.878986   -0.708916
     82          6           0        6.158601   -3.328515    0.174926
     83          6           0        5.887845   -1.910802    0.666641
     84          8           0        6.770913   -1.401025    1.351344
     85          6           0        6.311875   -4.299378    1.335974
     86          6           0        7.670381   -4.666916    1.885862
     87          6           0        8.176877   -4.118508    3.077713
     88          6           0        8.480598   -5.539099    1.161813
     89          6           0        9.443776   -4.391775    3.602681
     90          6           0        9.756640   -5.842750    1.658616
     91          6           0       10.229505   -5.306078    2.873516
     92          8           0       11.483375   -5.625691    3.295128
     93          1           0        5.463911   -3.926355   -1.663794
     94          1           0        7.105732   -3.290952   -0.367689
     95          1           0        5.881674   -5.283732    1.139828
     96          1           0        5.710176   -3.941844    2.171634
     97          1           0        7.601422   -3.361446    3.586741
     98          1           0        8.102446   -5.896991    0.210858
     99          1           0        9.751432   -3.936811    4.521895
    100          1           0       10.356066   -6.496723    1.046156
    101          1           0       12.012510   -6.059533    2.614102
    102          7           0        4.765393   -1.275702    0.341452
    103          6           0        4.392911    0.130189    0.440086
    104          6           0        5.350362    1.134141   -0.172423
    105          8           0        4.872438    1.996226   -0.916734
    106          6           0        3.926927    0.487203    1.842298
    107          6           0        3.073444   -0.565194    2.551471
    108          6           0        3.321105    1.885941    1.904862
    109          6           0        1.727380   -0.705375    1.860992
    110          1           0        4.088977   -1.821837   -0.173036
    111          1           0        3.470071    0.219199   -0.136579
    112          1           0        4.762119    0.434013    2.543601
    113          1           0        2.847675   -0.208977    3.553189
    114          1           0        3.537217   -1.561344    2.551721
    115          1           0        4.023341    2.670879    1.658820
    116          1           0        2.427573    1.958969    1.280389
    117          1           0        2.909830    2.109410    2.893707
    118          1           0        1.832712   -1.270634    0.928529
    119          1           0        1.025223   -1.182282    2.541680
    120          1           0        1.244089    0.252041    1.725766
    121          7           0        6.639219    1.060781    0.165313
    122          6           0        7.640458    1.899299   -0.467545
    123          6           0        7.355637    3.392599   -0.296281
    124          8           0        7.584637    4.194666   -1.193748
    125          6           0        9.009548    1.403953   -0.010682
    126          8           0        9.048703    1.630531    1.376664
    127          1           0        6.996815    0.321423    0.748816
    128          1           0        7.545202    1.743653   -1.544857
    129          1           0        9.814401    2.016177   -0.420551
    130          1           0        9.181779    0.358747   -0.243877
    131          1           0        9.650518    0.991874    1.760377
    132          7           0        6.986444    3.683409    0.953129
    133          6           0        6.770830    5.029923    1.454339
    134          6           0        5.656416    5.891759    0.865849
    135          8           0        5.447402    7.033819    1.259564
    136          6           0        8.152225    5.686301    1.439628
    137          1           0        6.781734    2.910650    1.571220
    138          1           0        6.627067    4.916181    2.531648
    139          1           0        8.390114    6.174973    0.499677
    140          1           0        8.164530    6.532133    2.118241
    141          1           0        8.964816    5.026190    1.733823
    142          7           0        4.868801    5.314737   -0.034878
    143          6           0        3.793067    5.958134   -0.769273
    144          6           0        2.355831    5.557321   -0.441243
    145          8           0        2.052794    4.628287    0.292218
    146          6           0        4.111564    5.901254   -2.255551
    147          1           0        5.024182    4.331254   -0.265569
    148          1           0        3.870233    7.021861   -0.592272
    149          1           0        4.796887    5.075660   -2.452598
    150          1           0        3.160981    5.835211   -2.791118
    151          1           0        4.675863    6.771830   -2.585497
    152          7           0        1.412537    6.271040   -1.059387
    153          6           0       -0.010003    6.175689   -0.853740
    154          6           0       -0.454476    6.449768    0.581016
    155          8           0       -1.630306    6.358989    0.936377
    156          6           0       -0.580259    4.930659   -1.517147
    157          6           0       -0.298763    4.724344   -3.003348
    158          6           0       -0.618491    3.375815   -3.622900
    159          8           0        0.323572    2.659859   -4.035967
    160          8           0       -1.794401    2.977005   -3.702185
    161          1           0        1.781553    7.075454   -1.551774
    162          1           0       -0.445231    7.044062   -1.345984
    163          1           0       -1.671186    4.937163   -1.430909
    164          1           0       -0.234072    4.035494   -1.003597
    165          1           0        0.775857    4.853694   -3.113619
    166          1           0       -0.792068    5.477203   -3.634817
    167          7           0        0.452102    6.976549    1.404132
    168          6           0        0.199513    7.252618    2.803162
    169          1           0       -0.842035    7.546580    2.932975
    170          1           0        0.400084    6.357879    3.392543
    171          1           0        0.849175    8.062184    3.137680
    172          1           0        1.391324    7.143998    1.080986
    173         20           0       -0.489317    0.209104   -4.127136
    174          8           0        1.150095    0.457276   -6.120886
    175          1           0        2.088505    0.255715   -6.099460
    176          1           0        1.111589    1.400912   -6.277948
 ---------------------------------------------------------------------
 Rotational constants (GHZ):           0.0177689           0.0090491           0.0071405
 Standard basis: SVP (5D, 7F)
 There are  1809 symmetry adapted cartesian basis functions of A   symmetry.
 There are  1717 symmetry adapted basis functions of A   symmetry.
  1717 basis functions,  2922 primitive gaussians,  1809 cartesian basis functions
   358 alpha electrons      358 beta electrons
       nuclear repulsion energy     18728.9816647816 Hartrees.
 NAtoms=  176 NActive=  176 NUniq=  176 SFac= 1.00D+00 NAtFMM=   60 NAOKFM=T Big=T
 Integral buffers will be    131072 words long.
 Raffenetti 2 integral format.
 Two-electron integral symmetry is turned on.
 One-electron integrals computed using PRISM.
 NBasis=  1717 RedAO= T EigKep=  2.80D-04  NBF=  1717
 NBsUse=  1717 1.00D-06 EigRej= -1.00D+00 NBFU=  1717
 ExpMin= 1.98D-02 ExpMax= 3.51D+04 ExpMxC= 5.28D+03 IAcc=3 IRadAn=         5 AccDes= 0.00D+00
 Harris functional with IExCor=  402 and IRadAn=       5 diagonalized for initial guess.
 HarFok:  IExCor=  402 AccDes= 0.00D+00 IRadAn=         5 IDoV= 1 UseB2=F ITyADJ=14
 ICtDFT=  3500011 ScaDFX=  1.000000  1.000000  1.000000  1.000000
 FoFCou: FMM=F IPFlag=           0 FMFlag=      100000 FMFlg1=        2001
         NFxFlg=           0 DoJE=T BraDBF=F KetDBF=T FulRan=T
         wScrn=  0.000000 ICntrl=       500 IOpCl=  0 I1Cent=   200000004 NGrid=           0
         NMat0=    1 NMatS0=      1 NMatT0=    0 NMatD0=    1 NMtDS0=    0 NMtDT0=    0
 Petite list used in FoFCou.
 Requested convergence on RMS density matrix=1.00D-08 within 128 cycles.
 Requested convergence on MAX density matrix=1.00D-06.
 Requested convergence on             energy=1.00D-06.
 No special actions if energy rises.
 EnCoef did     3 forward-backward iterations
 EnCoef did     1 forward-backward iterations
 EnCoef did     1 forward-backward iterations
 Restarting incremental Fock formation.
 SCF Done:  E(RB3LYP) =  -5333.38315244     A.U. after   27 cycles
            NFock= 27  Conv=0.10D-08     -V/T= 2.0081
 SCF density gives NOpUse=  1 NOpAll=  1.
 Hyperfine terms turned off by default for NAtoms > 100.

 **********************************************************************

            Population analysis using the SCF density.

 **********************************************************************

 Orbital symmetries:
 BldTbl:  Degeneracy threshold= 1.00D-02
       Occupied  (A) (A) (A) (A) (A) (A) (A) (A) (A) (A) (A) (A)
                 (A) (A) (A) (A) (A) (A) (A) (A) (A) (A) (A) (A)
                 (A) (A) (A) (A) (A) (A) (A) (A) (A) (A) (A) (A)
                 (A) (A) (A) (A) (A) (A) (A) (A) (A) (A) (A) (A)
                 (A) (A) (A) (A) (A) (A) (A) (A) (A) (A) (A) (A)
                 (A) (A) (A) (A) (A) (A) (A) (A) (A) (A) (A) (A)
                 (A) (A) (A) (A) (A) (A) (A) (A) (A) (A) (A) (A)
                 (A) (A) (A) (A) (A) (A) (A) (A) (A) (A) (A) (A)
                 (A) (A) (A) (A) (A) (A) (A) (A) (A) (A) (A) (A)
                 (A) (A) (A) (A) (A) (A) (A) (A) (A) (A) (A) (A)
                 (A) (A) (A) (A) (A) (A) (A) (A) (A) (A) (A) (A)
                 (A) (A) (A) (A) (A) (A) (A) (A) (A) (A) (A) (A)
                 (A) (A) (A) (A) (A) (A) (A) (A) (A) (A) (A) (A)
                 (A) (A) (A) (A) (A) (A) (A) (A) (A) (A) (A) (A)
                 (A) (A) (A) (A) (A) (A) (A) (A) (A) (A) (A) (A)
                 (A) (A) (A) (A) (A) (A) (A) (A) (A) (A) (A) (A)
                 (A) (A) (A) (A) (A) (A) (A) (A) (A) (A) (A) (A)
                 (A) (A) (A) (A) (A) (A) (A) (A) (A) (A) (A) (A)
                 (A) (A) (A) (A) (A) (A) (A) (A) (A) (A) (A) (A)
                 (A) (A) (A) (A) (A) (A) (A) (A) (A) (A) (A) (A)
                 (A) (A) (A) (A) (A) (A) (A) (A) (A) (A) (A) (A)
                 (A) (A) (A) (A) (A) (A) (A) (A) (A) (A) (A) (A)
                 (A) (A) (A) (A) (A) (A) (A) (A) (A) (A) (A) (A)
                 (A) (A) (A) (A) (A) (A) (A) (A) (A) (A) (A) (A)
                 (A) (A) (A) (A) (A) (A) (A) (A) (A) (A) (A) (A)
                 (A) (A) (A) (A) (A) (A) (A) (A) (A) (A) (A) (A)
                 (A) (A) (A) (A) (A) (A) (A) (A) (A) (A) (A) (A)
                 (A) (A) (A) (A) (A) (A) (A) (A) (A) (A) (A) (A)
                 (A) (A) (A) (A) (A) (A) (A) (A) (A) (A) (A) (A)
                 (A) (A) (A) (A) (A) (A) (A) (A) (A) (A)
       Virtual   (A) (A) (A) (A) (A) (A) (A) (A) (A) (A) (A) (A)
                 (A) (A) (A) (A) (A) (A) (A) (A) (A) (A) (A) (A)
                 (A) (A) (A) (A) (A) (A) (A) (A) (A) (A) (A) (A)
                 (A) (A) (A) (A) (A) (A) (A) (A) (A) (A) (A) (A)
                 (A) (A) (A) (A) (A) (A) (A) (A) (A) (A) (A) (A)
                 (A) (A) (A) (A) (A) (A) (A) (A) (A) (A) (A) (A)
                 (A) (A) (A) (A) (A) (A) (A) (A) (A) (A) (A) (A)
                 (A) (A) (A) (A) (A) (A) (A) (A) (A) (A) (A) (A)
                 (A) (A) (A) (A) (A) (A) (A) (A) (A) (A) (A) (A)
                 (A) (A) (A) (A) (A) (A) (A) (A) (A) (A) (A) (A)
                 (A) (A) (A) (A) (A) (A) (A) (A) (A) (A) (A) (A)
                 (A) (A) (A) (A) (A) (A) (A) (A) (A) (A) (A) (A)
                 (A) (A) (A) (A) (A) (A) (A) (A) (A) (A) (A) (A)
                 (A) (A) (A) (A) (A) (A) (A) (A) (A) (A) (A) (A)
                 (A) (A) (A) (A) (A) (A) (A) (A) (A) (A) (A) (A)
                 (A) (A) (A) (A) (A) (A) (A) (A) (A) (A) (A) (A)
                 (A) (A) (A) (A) (A) (A) (A) (A) (A) (A) (A) (A)
                 (A) (A) (A) (A) (A) (A) (A) (A) (A) (A) (A) (A)
                 (A) (A) (A) (A) (A) (A) (A) (A) (A) (A) (A) (A)
                 (A) (A) (A) (A) (A) (A) (A) (A) (A) (A) (A) (A)
                 (A) (A) (A) (A) (A) (A) (A) (A) (A) (A) (A) (A)
                 (A) (A) (A) (A) (A) (A) (A) (A) (A) (A) (A) (A)
                 (A) (A) (A) (A) (A) (A) (A) (A) (A) (A) (A) (A)
                 (A) (A) (A) (A) (A) (A) (A) (A) (A) (A) (A) (A)
                 (A) (A) (A) (A) (A) (A) (A) (A) (A) (A) (A) (A)
                 (A) (A) (A) (A) (A) (A) (A) (A) (A) (A) (A) (A)
                 (A) (A) (A) (A) (A) (A) (A) (A) (A) (A) (A) (A)
                 (A) (A) (A) (A) (A) (A) (A) (A) (A) (A) (A) (A)
                 (A) (A) (A) (A) (A) (A) (A) (A) (A) (A) (A) (A)
                 (A) (A) (A) (A) (A) (A) (A) (A) (A) (A) (A) (A)
                 (A) (A) (A) (A) (A) (A) (A) (A) (A) (A) (A) (A)
                 (A) (A) (A) (A) (A) (A) (A) (A) (A) (A) (A) (A)
                 (A) (A) (A) (A) (A) (A) (A) (A) (A) (A) (A) (A)
                 (A) (A) (A) (A) (A) (A) (A) (A) (A) (A) (A) (A)
                 (A) (A) (A) (A) (A) (A) (A) (A) (A) (A) (A) (A)
                 (A) (A) (A) (A) (A) (A) (A) (A) (A) (A) (A) (A)
                 (A) (A) (A) (A) (A) (A) (A) (A) (A) (A) (A) (A)
                 (A) (A) (A) (A) (A) (A) (A) (A) (A) (A) (A) (A)
                 (A) (A) (A) (A) (A) (A) (A) (A) (A) (A) (A) (A)
                 (A) (A) (A) (A) (A) (A) (A) (A) (A) (A) (A) (A)
                 (A) (A) (A) (A) (A) (A) (A) (A) (A) (A) (A) (A)
                 (A) (A) (A) (A) (A) (A) (A) (A) (A) (A) (A) (A)
                 (A) (A) (A) (A) (A) (A) (A) (A) (A) (A) (A) (A)
                 (A) (A) (A) (A) (A) (A) (A) (A) (A) (A) (A) (A)
                 (A) (A) (A) (A) (A) (A) (A) (A) (A) (A) (A) (A)
                 (A) (A) (A) (A) (A) (A) (A) (A) (A) (A) (A) (A)
                 (A) (A) (A) (A) (A) (A) (A) (A) (A) (A) (A) (A)
                 (A) (A) (A) (A) (A) (A) (A) (A) (A) (A) (A) (A)
                 (A) (A) (A) (A) (A) (A) (A) (A) (A) (A) (A) (A)
                 (A) (A) (A) (A) (A) (A) (A) (A) (A) (A) (A) (A)
                 (A) (A) (A) (A) (A) (A) (A) (A) (A) (A) (A) (A)
                 (A) (A) (A) (A) (A) (A) (A) (A) (A) (A) (A) (A)
                 (A) (A) (A) (A) (A) (A) (A) (A) (A) (A) (A) (A)
                 (A) (A) (A) (A) (A) (A) (A) (A) (A) (A) (A) (A)
                 (A) (A) (A) (A) (A) (A) (A) (A) (A) (A) (A) (A)
                 (A) (A) (A) (A) (A) (A) (A) (A) (A) (A) (A) (A)
                 (A) (A) (A) (A) (A) (A) (A) (A) (A) (A) (A) (A)
                 (A) (A) (A) (A) (A) (A) (A) (A) (A) (A) (A) (A)
                 (A) (A) (A) (A) (A) (A) (A) (A) (A) (A) (A) (A)
                 (A) (A) (A) (A) (A) (A) (A) (A) (A) (A) (A) (A)
                 (A) (A) (A) (A) (A) (A) (A) (A) (A) (A) (A) (A)
                 (A) (A) (A) (A) (A) (A) (A) (A) (A) (A) (A) (A)
                 (A) (A) (A) (A) (A) (A) (A) (A) (A) (A) (A) (A)
                 (A) (A) (A) (A) (A) (A) (A) (A) (A) (A) (A) (A)
                 (A) (A) (A) (A) (A) (A) (A) (A) (A) (A) (A) (A)
                 (A) (A) (A) (A) (A) (A) (A) (A) (A) (A) (A) (A)
                 (A) (A) (A) (A) (A) (A) (A) (A) (A) (A) (A) (A)
                 (A) (A) (A) (A) (A) (A) (A) (A) (A) (A) (A) (A)
                 (A) (A) (A) (A) (A) (A) (A) (A) (A) (A) (A) (A)
                 (A) (A) (A) (A) (A) (A) (A) (A) (A) (A) (A) (A)
                 (A) (A) (A) (A) (A) (A) (A) (A) (A) (A) (A) (A)
                 (A) (A) (A) (A) (A) (A) (A) (A) (A) (A) (A) (A)
                 (A) (A) (A) (A) (A) (A) (A) (A) (A) (A) (A) (A)
                 (A) (A) (A) (A) (A) (A) (A) (A) (A) (A) (A) (A)
                 (A) (A) (A) (A) (A) (A) (A) (A) (A) (A) (A) (A)
                 (A) (A) (A) (A) (A) (A) (A) (A) (A) (A) (A) (A)
                 (A) (A) (A) (A) (A) (A) (A) (A) (A) (A) (A) (A)
                 (A) (A) (A) (A) (A) (A) (A) (A) (A) (A) (A) (A)
                 (A) (A) (A) (A) (A) (A) (A) (A) (A) (A) (A) (A)
                 (A) (A) (A) (A) (A) (A) (A) (A) (A) (A) (A) (A)
                 (A) (A) (A) (A) (A) (A) (A) (A) (A) (A) (A) (A)
                 (A) (A) (A) (A) (A) (A) (A) (A) (A) (A) (A) (A)
                 (A) (A) (A) (A) (A) (A) (A) (A) (A) (A) (A) (A)
                 (A) (A) (A) (A) (A) (A) (A) (A) (A) (A) (A) (A)
                 (A) (A) (A) (A) (A) (A) (A) (A) (A) (A) (A) (A)
                 (A) (A) (A) (A) (A) (A) (A) (A) (A) (A) (A) (A)
                 (A) (A) (A) (A) (A) (A) (A) (A) (A) (A) (A) (A)
                 (A) (A) (A) (A) (A) (A) (A) (A) (A) (A) (A) (A)
                 (A) (A) (A) (A) (A) (A) (A) (A) (A) (A) (A) (A)
                 (A) (A) (A) (A) (A) (A) (A) (A) (A) (A) (A) (A)
                 (A) (A) (A) (A) (A) (A) (A) (A) (A) (A) (A) (A)
                 (A) (A) (A) (A) (A) (A) (A) (A) (A) (A) (A) (A)
                 (A) (A) (A) (A) (A) (A) (A) (A) (A) (A) (A) (A)
                 (A) (A) (A) (A) (A) (A) (A) (A) (A) (A) (A) (A)
                 (A) (A) (A) (A) (A) (A) (A) (A) (A) (A) (A) (A)
                 (A) (A) (A) (A) (A) (A) (A) (A) (A) (A) (A) (A)
                 (A) (A) (A) (A) (A) (A) (A) (A) (A) (A) (A) (A)
                 (A) (A) (A) (A) (A) (A) (A) (A) (A) (A) (A) (A)
                 (A) (A) (A) (A) (A) (A) (A) (A) (A) (A) (A) (A)
                 (A) (A) (A) (A) (A) (A) (A) (A) (A) (A) (A) (A)
                 (A) (A) (A) (A) (A) (A) (A) (A) (A) (A) (A) (A)
                 (A) (A) (A) (A) (A) (A) (A) (A) (A) (A) (A) (A)
                 (A) (A) (A) (A) (A) (A) (A) (A) (A) (A) (A) (A)
                 (A) (A) (A) (A) (A) (A) (A) (A) (A) (A) (A) (A)
                 (A) (A) (A) (A) (A) (A) (A) (A) (A) (A) (A) (A)
                 (A) (A) (A) (A) (A) (A) (A) (A) (A) (A) (A) (A)
                 (A) (A) (A) (A) (A) (A) (A) (A) (A) (A) (A) (A)
                 (A) (A) (A) (A) (A) (A) (A) (A) (A) (A) (A) (A)
                 (A) (A) (A) (A) (A) (A) (A) (A) (A) (A) (A) (A)
                 (A) (A) (A) (A) (A) (A) (A) (A) (A) (A) (A) (A)
                 (A) (A) (A) (A) (A) (A) (A) (A) (A) (A) (A) (A)
                 (A) (A) (A) (A) (A) (A) (A) (A) (A) (A) (A) (A)
                 (A) (A) (A) (A) (A) (A) (A) (A) (A) (A) (A) (A)
                 (A) (A) (A)
 The electronic state is 1-A.
 Alpha  occ. eigenvalues -- -145.48622 -19.24605 -19.17124 -19.15482 -19.13811
 Alpha  occ. eigenvalues --  -19.12912 -19.11847 -19.11741 -19.10424 -19.10287
 Alpha  occ. eigenvalues --  -19.09472 -19.08914 -19.08817 -19.08493 -19.07230
 Alpha  occ. eigenvalues --  -19.06926 -19.06916 -19.06910 -19.06547 -19.06512
 Alpha  occ. eigenvalues --  -19.05900 -19.04548 -18.96656 -18.94462 -15.54555
 Alpha  occ. eigenvalues --  -14.55317 -14.40098 -14.38797 -14.37614 -14.36793
 Alpha  occ. eigenvalues --  -14.36585 -14.35885 -14.34953 -14.34735 -14.33555
 Alpha  occ. eigenvalues --  -14.33469 -14.33252 -14.32796 -14.31217 -14.30867
 Alpha  occ. eigenvalues --  -12.68197 -12.68129 -12.68035 -10.32685 -10.32008
 Alpha  occ. eigenvalues --  -10.31791 -10.30248 -10.29925 -10.29046 -10.28829
 Alpha  occ. eigenvalues --  -10.28148 -10.27736 -10.27298 -10.27190 -10.26693
 Alpha  occ. eigenvalues --  -10.26461 -10.26401 -10.26265 -10.26133 -10.26120
 Alpha  occ. eigenvalues --  -10.25792 -10.25568 -10.25557 -10.25044 -10.24234
 Alpha  occ. eigenvalues --  -10.24200 -10.24160 -10.23962 -10.23744 -10.23656
 Alpha  occ. eigenvalues --  -10.23141 -10.22697 -10.22641 -10.21755 -10.21523
 Alpha  occ. eigenvalues --  -10.20725 -10.20644 -10.20524 -10.20186 -10.20112
 Alpha  occ. eigenvalues --  -10.20025 -10.19869 -10.19820 -10.19386 -10.19350
 Alpha  occ. eigenvalues --  -10.19003 -10.18951 -10.18293 -10.18115 -10.17816
 Alpha  occ. eigenvalues --  -10.17672 -10.17336 -10.17070 -10.16483 -10.16371
 Alpha  occ. eigenvalues --  -10.15509 -10.11155  -1.91142  -1.18946  -1.18415
 Alpha  occ. eigenvalues --   -1.17886  -1.10911  -1.10372  -1.06875  -1.05965
 Alpha  occ. eigenvalues --   -1.05756  -1.04906  -1.04456  -1.04134  -1.03946
 Alpha  occ. eigenvalues --   -1.03281  -1.02916  -1.02745  -1.01939  -1.01483
 Alpha  occ. eigenvalues --   -1.00646  -1.00207  -0.99302  -0.99186  -0.98611
 Alpha  occ. eigenvalues --   -0.97675  -0.97545  -0.95381  -0.94295  -0.94020
 Alpha  occ. eigenvalues --   -0.93914  -0.92815  -0.92697  -0.92071  -0.91349
 Alpha  occ. eigenvalues --   -0.90891  -0.90608  -0.90555  -0.89872  -0.89375
 Alpha  occ. eigenvalues --   -0.89005  -0.87973  -0.87173  -0.86602  -0.86152
 Alpha  occ. eigenvalues --   -0.82885  -0.81544  -0.80430  -0.80409  -0.79800
 Alpha  occ. eigenvalues --   -0.78967  -0.78741  -0.77589  -0.77261  -0.76536
 Alpha  occ. eigenvalues --   -0.75780  -0.75382  -0.74808  -0.74622  -0.73301
 Alpha  occ. eigenvalues --   -0.73275  -0.73024  -0.71660  -0.71449  -0.70788
 Alpha  occ. eigenvalues --   -0.69477  -0.69054  -0.68564  -0.68087  -0.67596
 Alpha  occ. eigenvalues --   -0.67196  -0.66795  -0.66225  -0.65025  -0.64747
 Alpha  occ. eigenvalues --   -0.64353  -0.63976  -0.63531  -0.63370  -0.62786
 Alpha  occ. eigenvalues --   -0.62482  -0.62191  -0.61481  -0.60676  -0.60454
 Alpha  occ. eigenvalues --   -0.60087  -0.60034  -0.59485  -0.59058  -0.58703
 Alpha  occ. eigenvalues --   -0.58077  -0.58002  -0.57751  -0.57720  -0.57278
 Alpha  occ. eigenvalues --   -0.56759  -0.56522  -0.56290  -0.56025  -0.55872
 Alpha  occ. eigenvalues --   -0.55573  -0.54894  -0.54399  -0.54272  -0.53927
 Alpha  occ. eigenvalues --   -0.53176  -0.53163  -0.52843  -0.52519  -0.52153
 Alpha  occ. eigenvalues --   -0.51729  -0.51528  -0.51147  -0.51006  -0.50858
 Alpha  occ. eigenvalues --   -0.50265  -0.49945  -0.49711  -0.49542  -0.49402
 Alpha  occ. eigenvalues --   -0.48996  -0.48867  -0.48436  -0.48374  -0.48181
 Alpha  occ. eigenvalues --   -0.48138  -0.47788  -0.47459  -0.47289  -0.46719
 Alpha  occ. eigenvalues --   -0.46535  -0.46411  -0.46132  -0.46049  -0.45703
 Alpha  occ. eigenvalues --   -0.45605  -0.45483  -0.45409  -0.45243  -0.45003
 Alpha  occ. eigenvalues --   -0.44808  -0.44746  -0.44681  -0.44621  -0.44366
 Alpha  occ. eigenvalues --   -0.44337  -0.44031  -0.43772  -0.43398  -0.43308
 Alpha  occ. eigenvalues --   -0.43256  -0.43062  -0.42881  -0.42713  -0.42566
 Alpha  occ. eigenvalues --   -0.42435  -0.42230  -0.42087  -0.42001  -0.41929
 Alpha  occ. eigenvalues --   -0.41895  -0.41852  -0.41811  -0.41436  -0.41293
 Alpha  occ. eigenvalues --   -0.41058  -0.41007  -0.40890  -0.40740  -0.40675
 Alpha  occ. eigenvalues --   -0.40590  -0.40538  -0.40470  -0.40008  -0.39946
 Alpha  occ. eigenvalues --   -0.39856  -0.39848  -0.39577  -0.39016  -0.38988
 Alpha  occ. eigenvalues --   -0.38835  -0.38778  -0.38583  -0.38322  -0.38077
 Alpha  occ. eigenvalues --   -0.38006  -0.37946  -0.37881  -0.37780  -0.37692
 Alpha  occ. eigenvalues --   -0.37627  -0.37420  -0.37268  -0.36992  -0.36860
 Alpha  occ. eigenvalues --   -0.36686  -0.36407  -0.36343  -0.36179  -0.36154
 Alpha  occ. eigenvalues --   -0.35912  -0.35838  -0.35457  -0.35430  -0.35234
 Alpha  occ. eigenvalues --   -0.35132  -0.35081  -0.34658  -0.34533  -0.34193
 Alpha  occ. eigenvalues --   -0.34102  -0.33955  -0.33929  -0.33419  -0.33190
 Alpha  occ. eigenvalues --   -0.32948  -0.32887  -0.32612  -0.32163  -0.31477
 Alpha  occ. eigenvalues --   -0.31138  -0.31120  -0.30214  -0.29805  -0.29412
 Alpha  occ. eigenvalues --   -0.28692  -0.28503  -0.28349  -0.27919  -0.27915
 Alpha  occ. eigenvalues --   -0.27496  -0.27300  -0.26963  -0.26936  -0.26603
 Alpha  occ. eigenvalues --   -0.26480  -0.26298  -0.26162  -0.26087  -0.25476
 Alpha  occ. eigenvalues --   -0.25438  -0.25078  -0.25031  -0.24742  -0.24636
 Alpha  occ. eigenvalues --   -0.24317  -0.24245  -0.24111  -0.24063  -0.23347
 Alpha  occ. eigenvalues --   -0.23231  -0.23006  -0.22724  -0.22621  -0.22484
 Alpha  occ. eigenvalues --   -0.22400  -0.22047  -0.21528  -0.21079  -0.20299
 Alpha  occ. eigenvalues --   -0.14130  -0.12945  -0.10291
 Alpha virt. eigenvalues --   -0.09280  -0.07331  -0.03126  -0.02286  -0.02056
 Alpha virt. eigenvalues --   -0.01954  -0.01610  -0.01550  -0.01252  -0.01048
 Alpha virt. eigenvalues --   -0.00610  -0.00130   0.00682   0.00718   0.00937
 Alpha virt. eigenvalues --    0.01053   0.01521   0.01942   0.02048   0.02655
 Alpha virt. eigenvalues --    0.03125   0.03316   0.03473   0.03756   0.03790
 Alpha virt. eigenvalues --    0.03853   0.04173   0.04348   0.04500   0.04543
 Alpha virt. eigenvalues --    0.04853   0.05053   0.05185   0.05503   0.05603
 Alpha virt. eigenvalues --    0.06305   0.06388   0.06425   0.06504   0.06709
 Alpha virt. eigenvalues --    0.06784   0.07199   0.07309   0.07747   0.07906
 Alpha virt. eigenvalues --    0.07959   0.08121   0.08340   0.08626   0.08741
 Alpha virt. eigenvalues --    0.08970   0.09086   0.09206   0.09556   0.09807
 Alpha virt. eigenvalues --    0.09952   0.10207   0.10315   0.10443   0.10779
 Alpha virt. eigenvalues --    0.11041   0.11184   0.11355   0.11403   0.11597
 Alpha virt. eigenvalues --    0.11790   0.11828   0.12081   0.12242   0.12321
 Alpha virt. eigenvalues --    0.12482   0.12523   0.12894   0.13156   0.13337
 Alpha virt. eigenvalues --    0.13399   0.13567   0.13587   0.13761   0.13891
 Alpha virt. eigenvalues --    0.14027   0.14267   0.14449   0.14747   0.14806
 Alpha virt. eigenvalues --    0.15006   0.15066   0.15184   0.15230   0.15385
 Alpha virt. eigenvalues --    0.15480   0.15512   0.15657   0.15760   0.15928
 Alpha virt. eigenvalues --    0.16148   0.16310   0.16461   0.16538   0.16654
 Alpha virt. eigenvalues --    0.16957   0.17331   0.17425   0.17569   0.17726
 Alpha virt. eigenvalues --    0.17872   0.18017   0.18390   0.18443   0.18659
 Alpha virt. eigenvalues --    0.18742   0.19406   0.19498   0.19891   0.19997
 Alpha virt. eigenvalues --    0.20244   0.20485   0.20601   0.20881   0.21213
 Alpha virt. eigenvalues --    0.21329   0.21346   0.21661   0.22025   0.22075
 Alpha virt. eigenvalues --    0.22525   0.22629   0.22735   0.22947   0.23132
 Alpha virt. eigenvalues --    0.23320   0.23556   0.23965   0.24098   0.24396
 Alpha virt. eigenvalues --    0.24546   0.24638   0.24748   0.25190   0.25421
 Alpha virt. eigenvalues --    0.25503   0.25884   0.26149   0.26316   0.26585
 Alpha virt. eigenvalues --    0.26867   0.27017   0.27227   0.27298   0.27458
 Alpha virt. eigenvalues --    0.27627   0.28061   0.28260   0.28358   0.28521
 Alpha virt. eigenvalues --    0.28778   0.28905   0.29111   0.29877   0.30057
 Alpha virt. eigenvalues --    0.30529   0.30578   0.30761   0.30941   0.31025
 Alpha virt. eigenvalues --    0.31237   0.31496   0.31776   0.32030   0.32397
 Alpha virt. eigenvalues --    0.32736   0.32810   0.33270   0.33578   0.33730
 Alpha virt. eigenvalues --    0.33745   0.34266   0.34612   0.34674   0.35205
 Alpha virt. eigenvalues --    0.35402   0.35843   0.36648   0.36986   0.37410
 Alpha virt. eigenvalues --    0.37573   0.37785   0.38121   0.38540   0.38804
 Alpha virt. eigenvalues --    0.38947   0.39189   0.39420   0.40008   0.40080
 Alpha virt. eigenvalues --    0.40406   0.40517   0.40923   0.41034   0.41310
 Alpha virt. eigenvalues --    0.41382   0.41729   0.41891   0.41941   0.42511
 Alpha virt. eigenvalues --    0.42713   0.42793   0.42992   0.43329   0.43469
 Alpha virt. eigenvalues --    0.43733   0.44070   0.44122   0.44143   0.44471
 Alpha virt. eigenvalues --    0.44633   0.44798   0.44843   0.45235   0.45405
 Alpha virt. eigenvalues --    0.45479   0.45737   0.45849   0.45949   0.46094
 Alpha virt. eigenvalues --    0.46202   0.46342   0.46482   0.46642   0.46933
 Alpha virt. eigenvalues --    0.47189   0.47374   0.47462   0.47752   0.47782
 Alpha virt. eigenvalues --    0.48068   0.48124   0.48303   0.48636   0.48826
 Alpha virt. eigenvalues --    0.49270   0.49607   0.49758   0.50124   0.50407
 Alpha virt. eigenvalues --    0.50597   0.50958   0.51313   0.51421   0.51468
 Alpha virt. eigenvalues --    0.51951   0.51995   0.52139   0.52313   0.52552
 Alpha virt. eigenvalues --    0.52654   0.52813   0.52953   0.53205   0.53235
 Alpha virt. eigenvalues --    0.53332   0.53366   0.53682   0.53786   0.53992
 Alpha virt. eigenvalues --    0.54107   0.54273   0.54488   0.54584   0.54668
 Alpha virt. eigenvalues --    0.54827   0.55239   0.55353   0.55495   0.55530
 Alpha virt. eigenvalues --    0.55773   0.56010   0.56087   0.56217   0.56653
 Alpha virt. eigenvalues --    0.56788   0.56906   0.57098   0.57200   0.57350
 Alpha virt. eigenvalues --    0.57577   0.57721   0.57870   0.58192   0.58233
 Alpha virt. eigenvalues --    0.58352   0.58427   0.58688   0.58885   0.59147
 Alpha virt. eigenvalues --    0.59182   0.59461   0.59585   0.59741   0.59806
 Alpha virt. eigenvalues --    0.59861   0.60120   0.60215   0.60509   0.60575
 Alpha virt. eigenvalues --    0.60671   0.60782   0.60937   0.61080   0.61202
 Alpha virt. eigenvalues --    0.61334   0.61508   0.61593   0.61685   0.61997
 Alpha virt. eigenvalues --    0.62069   0.62172   0.62387   0.62484   0.62638
 Alpha virt. eigenvalues --    0.62771   0.62856   0.62964   0.62997   0.63259
 Alpha virt. eigenvalues --    0.63516   0.63549   0.63845   0.64071   0.64210
 Alpha virt. eigenvalues --    0.64273   0.64376   0.64477   0.64528   0.64665
 Alpha virt. eigenvalues --    0.64787   0.64864   0.64996   0.65186   0.65215
 Alpha virt. eigenvalues --    0.65350   0.65478   0.65575   0.65640   0.65722
 Alpha virt. eigenvalues --    0.65777   0.65900   0.66129   0.66194   0.66265
 Alpha virt. eigenvalues --    0.66364   0.66442   0.66465   0.66569   0.66756
 Alpha virt. eigenvalues --    0.66869   0.67021   0.67208   0.67392   0.67469
 Alpha virt. eigenvalues --    0.67576   0.67652   0.67691   0.67802   0.67920
 Alpha virt. eigenvalues --    0.67999   0.68110   0.68221   0.68411   0.68537
 Alpha virt. eigenvalues --    0.68651   0.68686   0.68764   0.68923   0.68943
 Alpha virt. eigenvalues --    0.69110   0.69119   0.69238   0.69317   0.69510
 Alpha virt. eigenvalues --    0.69546   0.69599   0.69685   0.69832   0.69947
 Alpha virt. eigenvalues --    0.69973   0.70211   0.70215   0.70344   0.70471
 Alpha virt. eigenvalues --    0.70556   0.70656   0.70948   0.71184   0.71324
 Alpha virt. eigenvalues --    0.71378   0.71476   0.71531   0.71617   0.71888
 Alpha virt. eigenvalues --    0.72230   0.72356   0.72463   0.72487   0.72610
 Alpha virt. eigenvalues --    0.73041   0.73189   0.73401   0.73607   0.73750
 Alpha virt. eigenvalues --    0.73900   0.74166   0.74425   0.74569   0.74722
 Alpha virt. eigenvalues --    0.74983   0.75100   0.75211   0.75461   0.75615
 Alpha virt. eigenvalues --    0.75708   0.76121   0.76338   0.76968   0.77109
 Alpha virt. eigenvalues --    0.77309   0.77739   0.78006   0.78168   0.78455
 Alpha virt. eigenvalues --    0.78582   0.78723   0.78970   0.79179   0.79526
 Alpha virt. eigenvalues --    0.79639   0.79746   0.79895   0.80089   0.80369
 Alpha virt. eigenvalues --    0.80606   0.80715   0.80827   0.81098   0.81359
 Alpha virt. eigenvalues --    0.81674   0.82039   0.82408   0.82701   0.83095
 Alpha virt. eigenvalues --    0.83318   0.83794   0.84245   0.84430   0.84637
 Alpha virt. eigenvalues --    0.84820   0.85138   0.85434   0.85559   0.85873
 Alpha virt. eigenvalues --    0.86390   0.86646   0.86834   0.86949   0.87311
 Alpha virt. eigenvalues --    0.87634   0.88044   0.88080   0.88355   0.88592
 Alpha virt. eigenvalues --    0.88872   0.89409   0.89578   0.89791   0.89958
 Alpha virt. eigenvalues --    0.90306   0.90387   0.90691   0.90821   0.91076
 Alpha virt. eigenvalues --    0.91478   0.91630   0.91846   0.92277   0.92431
 Alpha virt. eigenvalues --    0.92683   0.93259   0.93521   0.93610   0.94105
 Alpha virt. eigenvalues --    0.94461   0.94800   0.95083   0.95215   0.95736
 Alpha virt. eigenvalues --    0.96028   0.96168   0.96274   0.96531   0.96993
 Alpha virt. eigenvalues --    0.97058   0.97630   0.97784   0.98237   0.98289
 Alpha virt. eigenvalues --    0.98357   0.98612   0.98716   0.99178   0.99245
 Alpha virt. eigenvalues --    0.99937   1.00432   1.00723   1.00957   1.01203
 Alpha virt. eigenvalues --    1.01752   1.01937   1.02193   1.02602   1.03050
 Alpha virt. eigenvalues --    1.03406   1.03656   1.03885   1.03997   1.04192
 Alpha virt. eigenvalues --    1.04586   1.04817   1.05023   1.05559   1.05729
 Alpha virt. eigenvalues --    1.06213   1.06397   1.06832   1.06885   1.07203
 Alpha virt. eigenvalues --    1.07321   1.07354   1.07712   1.08139   1.08566
 Alpha virt. eigenvalues --    1.08959   1.09232   1.09388   1.09425   1.09660
 Alpha virt. eigenvalues --    1.10002   1.10219   1.10724   1.10861   1.11183
 Alpha virt. eigenvalues --    1.11508   1.11549   1.11903   1.12110   1.12526
 Alpha virt. eigenvalues --    1.12740   1.12948   1.13393   1.13552   1.13969
 Alpha virt. eigenvalues --    1.14121   1.14425   1.14524   1.14835   1.15311
 Alpha virt. eigenvalues --    1.15528   1.16011   1.16094   1.16553   1.16821
 Alpha virt. eigenvalues --    1.16942   1.17130   1.17465   1.17605   1.17766
 Alpha virt. eigenvalues --    1.17918   1.18405   1.18587   1.18905   1.19033
 Alpha virt. eigenvalues --    1.19313   1.19474   1.19727   1.19991   1.20377
 Alpha virt. eigenvalues --    1.20624   1.20684   1.21158   1.21687   1.21858
 Alpha virt. eigenvalues --    1.22281   1.22552   1.22892   1.23034   1.23095
 Alpha virt. eigenvalues --    1.23410   1.23583   1.23765   1.23975   1.24055
 Alpha virt. eigenvalues --    1.24404   1.24647   1.24756   1.25036   1.25358
 Alpha virt. eigenvalues --    1.25615   1.25964   1.26097   1.26280   1.26355
 Alpha virt. eigenvalues --    1.26747   1.26979   1.27320   1.27509   1.27890
 Alpha virt. eigenvalues --    1.27985   1.28262   1.28521   1.28822   1.29110
 Alpha virt. eigenvalues --    1.29255   1.29539   1.29769   1.29874   1.30104
 Alpha virt. eigenvalues --    1.30670   1.30962   1.31377   1.31536   1.31993
 Alpha virt. eigenvalues --    1.32234   1.32389   1.32511   1.33029   1.33301
 Alpha virt. eigenvalues --    1.33497   1.33555   1.34133   1.34371   1.34750
 Alpha virt. eigenvalues --    1.34942   1.35297   1.35737   1.35909   1.36458
 Alpha virt. eigenvalues --    1.36777   1.36870   1.36969   1.37406   1.37765
 Alpha virt. eigenvalues --    1.38048   1.38342   1.38932   1.39151   1.39284
 Alpha virt. eigenvalues --    1.40094   1.40334   1.40467   1.40704   1.41101
 Alpha virt. eigenvalues --    1.41283   1.41805   1.42111   1.42147   1.42620
 Alpha virt. eigenvalues --    1.42777   1.43058   1.43211   1.43553   1.44196
 Alpha virt. eigenvalues --    1.44330   1.44730   1.44996   1.45301   1.45378
 Alpha virt. eigenvalues --    1.45587   1.46063   1.46294   1.46527   1.46747
 Alpha virt. eigenvalues --    1.47008   1.47444   1.47535   1.47776   1.48160
 Alpha virt. eigenvalues --    1.48859   1.48938   1.49119   1.49698   1.50144
 Alpha virt. eigenvalues --    1.50371   1.50576   1.50874   1.51172   1.51237
 Alpha virt. eigenvalues --    1.51806   1.52049   1.52354   1.52798   1.53047
 Alpha virt. eigenvalues --    1.53454   1.53692   1.53855   1.54407   1.54777
 Alpha virt. eigenvalues --    1.55020   1.55149   1.55525   1.55741   1.55875
 Alpha virt. eigenvalues --    1.56206   1.56935   1.57137   1.57837   1.58209
 Alpha virt. eigenvalues --    1.58725   1.59535   1.60206   1.61385   1.61590
 Alpha virt. eigenvalues --    1.61843   1.61963   1.62364   1.62412   1.62821
 Alpha virt. eigenvalues --    1.63030   1.63095   1.63284   1.63403   1.64241
 Alpha virt. eigenvalues --    1.64371   1.64806   1.65322   1.65382   1.65588
 Alpha virt. eigenvalues --    1.65812   1.66256   1.66501   1.66789   1.67030
 Alpha virt. eigenvalues --    1.67588   1.67610   1.68132   1.68290   1.68411
 Alpha virt. eigenvalues --    1.68658   1.68753   1.69026   1.69250   1.69346
 Alpha virt. eigenvalues --    1.69488   1.69524   1.70513   1.70734   1.71216
 Alpha virt. eigenvalues --    1.71682   1.71845   1.71934   1.71998   1.72402
 Alpha virt. eigenvalues --    1.72785   1.72981   1.73086   1.73334   1.73514
 Alpha virt. eigenvalues --    1.73729   1.73866   1.73966   1.74338   1.74526
 Alpha virt. eigenvalues --    1.74716   1.74843   1.75011   1.75018   1.75274
 Alpha virt. eigenvalues --    1.75340   1.75555   1.75881   1.76041   1.76074
 Alpha virt. eigenvalues --    1.76241   1.76422   1.76699   1.76769   1.76903
 Alpha virt. eigenvalues --    1.77124   1.77259   1.77444   1.77762   1.77999
 Alpha virt. eigenvalues --    1.78145   1.78221   1.78270   1.78524   1.78663
 Alpha virt. eigenvalues --    1.78843   1.78994   1.79009   1.79242   1.79421
 Alpha virt. eigenvalues --    1.79708   1.79922   1.80083   1.80431   1.80546
 Alpha virt. eigenvalues --    1.80666   1.80694   1.80769   1.81047   1.81260
 Alpha virt. eigenvalues --    1.81480   1.81685   1.81768   1.81884   1.82058
 Alpha virt. eigenvalues --    1.82213   1.82352   1.82531   1.82598   1.82764
 Alpha virt. eigenvalues --    1.83004   1.83080   1.83439   1.83593   1.84002
 Alpha virt. eigenvalues --    1.84090   1.84161   1.84454   1.84823   1.84890
 Alpha virt. eigenvalues --    1.85001   1.85266   1.85408   1.85696   1.85763
 Alpha virt. eigenvalues --    1.86011   1.86327   1.86341   1.86476   1.86666
 Alpha virt. eigenvalues --    1.86854   1.87122   1.87171   1.87201   1.87350
 Alpha virt. eigenvalues --    1.87461   1.87612   1.88216   1.88446   1.88502
 Alpha virt. eigenvalues --    1.88672   1.89119   1.89139   1.89462   1.89639
 Alpha virt. eigenvalues --    1.89807   1.89991   1.90162   1.90201   1.90337
 Alpha virt. eigenvalues --    1.90463   1.90555   1.91011   1.91456   1.91648
 Alpha virt. eigenvalues --    1.91807   1.91885   1.92270   1.92336   1.92420
 Alpha virt. eigenvalues --    1.92775   1.92885   1.93025   1.93277   1.93380
 Alpha virt. eigenvalues --    1.93964   1.94063   1.94223   1.94622   1.94885
 Alpha virt. eigenvalues --    1.94992   1.95246   1.95502   1.95880   1.95983
 Alpha virt. eigenvalues --    1.96177   1.96266   1.96363   1.96723   1.97208
 Alpha virt. eigenvalues --    1.97367   1.97459   1.97741   1.97976   1.98353
 Alpha virt. eigenvalues --    1.98523   1.98823   1.98944   1.99666   1.99757
 Alpha virt. eigenvalues --    2.00086   2.00199   2.00347   2.00644   2.00742
 Alpha virt. eigenvalues --    2.00959   2.00979   2.01445   2.01665   2.01873
 Alpha virt. eigenvalues --    2.01924   2.02166   2.02394   2.02826   2.03138
 Alpha virt. eigenvalues --    2.03253   2.03486   2.04125   2.04485   2.04685
 Alpha virt. eigenvalues --    2.04782   2.05189   2.05466   2.05779   2.05868
 Alpha virt. eigenvalues --    2.05933   2.06074   2.06504   2.06769   2.06918
 Alpha virt. eigenvalues --    2.07198   2.07300   2.07652   2.07903   2.08721
 Alpha virt. eigenvalues --    2.08964   2.09175   2.09445   2.09700   2.10118
 Alpha virt. eigenvalues --    2.10365   2.10440   2.10679   2.10874   2.11115
 Alpha virt. eigenvalues --    2.11271   2.11386   2.11760   2.12093   2.12218
 Alpha virt. eigenvalues --    2.12512   2.12855   2.13074   2.13440   2.13653
 Alpha virt. eigenvalues --    2.13884   2.13912   2.14440   2.14610   2.14950
 Alpha virt. eigenvalues --    2.15217   2.15737   2.15921   2.16474   2.16540
 Alpha virt. eigenvalues --    2.16717   2.17000   2.17317   2.17404   2.17647
 Alpha virt. eigenvalues --    2.17773   2.18096   2.18771   2.19080   2.19196
 Alpha virt. eigenvalues --    2.19244   2.19438   2.19626   2.20240   2.20729
 Alpha virt. eigenvalues --    2.21019   2.21308   2.21674   2.21765   2.21926
 Alpha virt. eigenvalues --    2.22046   2.22649   2.23058   2.23478   2.23541
 Alpha virt. eigenvalues --    2.24283   2.24588   2.25212   2.25323   2.25812
 Alpha virt. eigenvalues --    2.25968   2.26662   2.27481   2.27661   2.27703
 Alpha virt. eigenvalues --    2.28171   2.28318   2.29311   2.29360   2.29369
 Alpha virt. eigenvalues --    2.29921   2.30003   2.30564   2.31011   2.31222
 Alpha virt. eigenvalues --    2.31332   2.31556   2.31720   2.31784   2.32090
 Alpha virt. eigenvalues --    2.32197   2.33409   2.33766   2.33917   2.34233
 Alpha virt. eigenvalues --    2.34456   2.34523   2.34664   2.34815   2.35735
 Alpha virt. eigenvalues --    2.36165   2.36456   2.36568   2.36655   2.37082
 Alpha virt. eigenvalues --    2.37422   2.37447   2.37815   2.38001   2.38186
 Alpha virt. eigenvalues --    2.38248   2.38602   2.39084   2.39144   2.40044
 Alpha virt. eigenvalues --    2.40242   2.41179   2.41860   2.41881   2.42215
 Alpha virt. eigenvalues --    2.42379   2.42884   2.43128   2.43369   2.43635
 Alpha virt. eigenvalues --    2.43985   2.44381   2.44849   2.44890   2.45293
 Alpha virt. eigenvalues --    2.45515   2.45949   2.46239   2.46559   2.46968
 Alpha virt. eigenvalues --    2.47248   2.47765   2.47804   2.48101   2.48982
 Alpha virt. eigenvalues --    2.49681   2.49849   2.50181   2.50215   2.50471
 Alpha virt. eigenvalues --    2.50925   2.51108   2.51229   2.52366   2.52713
 Alpha virt. eigenvalues --    2.53628   2.53873   2.54192   2.54283   2.54637
 Alpha virt. eigenvalues --    2.55227   2.55312   2.55968   2.56129   2.56548
 Alpha virt. eigenvalues --    2.56699   2.57005   2.57356   2.57598   2.57806
 Alpha virt. eigenvalues --    2.58234   2.58851   2.59183   2.59536   2.59576
 Alpha virt. eigenvalues --    2.59778   2.60182   2.60348   2.60968   2.61325
 Alpha virt. eigenvalues --    2.61422   2.61524   2.61628   2.61926   2.61970
 Alpha virt. eigenvalues --    2.62383   2.62544   2.62719   2.62879   2.63263
 Alpha virt. eigenvalues --    2.63439   2.63824   2.64382   2.64662   2.64967
 Alpha virt. eigenvalues --    2.65336   2.65486   2.65753   2.65973   2.66504
 Alpha virt. eigenvalues --    2.66516   2.66732   2.67913   2.68006   2.68135
 Alpha virt. eigenvalues --    2.68319   2.68791   2.69029   2.69399   2.69490
 Alpha virt. eigenvalues --    2.69807   2.70073   2.70142   2.70256   2.70577
 Alpha virt. eigenvalues --    2.70772   2.71575   2.71891   2.71896   2.72563
 Alpha virt. eigenvalues --    2.72806   2.73091   2.73106   2.73367   2.73571
 Alpha virt. eigenvalues --    2.74614   2.74655   2.74845   2.75057   2.75849
 Alpha virt. eigenvalues --    2.75911   2.76245   2.76335   2.76598   2.76873
 Alpha virt. eigenvalues --    2.76981   2.77109   2.77324   2.77473   2.78135
 Alpha virt. eigenvalues --    2.78585   2.78917   2.79222   2.79330   2.79355
 Alpha virt. eigenvalues --    2.79694   2.79762   2.80134   2.80167   2.80551
 Alpha virt. eigenvalues --    2.80782   2.81348   2.81378   2.81745   2.82580
 Alpha virt. eigenvalues --    2.83008   2.83139   2.83474   2.83728   2.84155
 Alpha virt. eigenvalues --    2.84267   2.84315   2.85238   2.85697   2.85754
 Alpha virt. eigenvalues --    2.86135   2.86679   2.86858   2.87125   2.87501
 Alpha virt. eigenvalues --    2.88317   2.88327   2.88670   2.88852   2.89286
 Alpha virt. eigenvalues --    2.89551   2.89617   2.89667   2.90081   2.90448
 Alpha virt. eigenvalues --    2.90500   2.90706   2.91079   2.91233   2.92078
 Alpha virt. eigenvalues --    2.92229   2.92391   2.92551   2.92803   2.92842
 Alpha virt. eigenvalues --    2.93213   2.93562   2.93739   2.94054   2.94245
 Alpha virt. eigenvalues --    2.94530   2.95083   2.95227   2.95725   2.96035
 Alpha virt. eigenvalues --    2.96312   2.96548   2.96797   2.97149   2.97190
 Alpha virt. eigenvalues --    2.97371   2.97436   2.97750   2.98550   2.98588
 Alpha virt. eigenvalues --    2.99479   2.99556   2.99774   3.00059   3.00640
 Alpha virt. eigenvalues --    3.01327   3.01411   3.01847   3.02283   3.02381
 Alpha virt. eigenvalues --    3.02873   3.03303   3.03599   3.03910   3.04680
 Alpha virt. eigenvalues --    3.04772   3.05121   3.05424   3.05587   3.05739
 Alpha virt. eigenvalues --    3.05891   3.06398   3.06844   3.06921   3.07095
 Alpha virt. eigenvalues --    3.07453   3.08005   3.08362   3.08605   3.10189
 Alpha virt. eigenvalues --    3.10261   3.10584   3.11499   3.12734   3.12774
 Alpha virt. eigenvalues --    3.13432   3.13610   3.13875   3.14499   3.14830
 Alpha virt. eigenvalues --    3.15393   3.15693   3.15981   3.16152   3.16615
 Alpha virt. eigenvalues --    3.17060   3.17654   3.17803   3.17973   3.18336
 Alpha virt. eigenvalues --    3.18806   3.19010   3.19414   3.19978   3.20040
 Alpha virt. eigenvalues --    3.20471   3.20507   3.20574   3.21024   3.21454
 Alpha virt. eigenvalues --    3.21910   3.22373   3.22873   3.22972   3.23546
 Alpha virt. eigenvalues --    3.24188   3.24335   3.24431   3.24712   3.24843
 Alpha virt. eigenvalues --    3.25555   3.26221   3.27296   3.28320   3.28350
 Alpha virt. eigenvalues --    3.30122   3.31516   3.32026   3.32895   3.33552
 Alpha virt. eigenvalues --    3.34144   3.34884   3.36152   3.36320   3.36799
 Alpha virt. eigenvalues --    3.36870   3.39245   3.40071   3.44782   3.45027
 Alpha virt. eigenvalues --    3.47200   3.52867   3.53044   3.54514   3.55498
 Alpha virt. eigenvalues --    3.55702   3.56374   3.56435   3.57042   3.57663
 Alpha virt. eigenvalues --    3.57793   3.59188   3.59769   3.59999   3.62366
 Alpha virt. eigenvalues --    3.62946   3.63583   3.65535   3.66543   3.67672
 Alpha virt. eigenvalues --    3.67796   3.67912   3.68470   3.68733   3.68980
 Alpha virt. eigenvalues --    3.69254   3.69659   3.69807   3.70245   3.70281
 Alpha virt. eigenvalues --    3.70677   3.70991   3.71669   3.71739   3.73643
 Alpha virt. eigenvalues --    3.75968   3.76684   3.78594   3.80866
          Condensed to atoms (all electrons):
 Mulliken charges:
               1
     1  C    0.078764
     2  C   -0.001635
     3  O   -0.325383
     4  H   -0.003757
     5  H    0.020075
     6  H    0.033954
     7  N   -0.115919
     8  C    0.121250
     9  C    0.040205
    10  O   -0.310253
    11  C    0.081579
    12  C    0.046395
    13  O   -0.407517
    14  O   -0.353889
    15  H    0.115761
    16  H   -0.037773
    17  H    0.006464
    18  H    0.012354
    19  N   -0.118308
    20  C    0.089182
    21  C    0.060956
    22  O   -0.224399
    23  C    0.093132
    24  C    0.010653
    25  C   -0.038106
    26  C    0.028125
    27  N    0.095595
    28  H    0.073615
    29  H    0.011890
    30  H    0.016431
    31  H    0.037958
    32  H    0.016330
    33  H   -0.011085
    34  H    0.031046
    35  H    0.046567
    36  H    0.068894
    37  H    0.047219
    38  H    0.184350
    39  H    0.168122
    40  H    0.184829
    41  N   -0.133545
    42  C    0.086853
    43  C    0.077865
    44  O   -0.278084
    45  C    0.107632
    46  C    0.076015
    47  O   -0.350372
    48  O   -0.477851
    49  H    0.114097
    50  H    0.012549
    51  H    0.009632
    52  H   -0.010762
    53  N   -0.123183
    54  C    0.227664
    55  C    0.037638
    56  O   -0.269496
    57  H    0.128722
    58  H    0.037230
    59  H    0.017924
    60  N   -0.138781
    61  C    0.082699
    62  C    0.086256
    63  O   -0.281785
    64  C    0.107214
    65  C    0.016947
    66  N   -0.013359
    67  O   -0.276022
    68  H    0.124988
    69  H    0.032776
    70  H   -0.019923
    71  H   -0.032924
    72  H    0.119341
    73  H    0.132692
    74  N   -0.123328
    75  C    0.185546
    76  C    0.039540
    77  O   -0.233149
    78  H    0.137412
    79  H    0.005283
    80  H    0.020134
    81  N   -0.155212
    82  C    0.116265
    83  C    0.070675
    84  O   -0.310692
    85  C    0.138161
    86  C   -0.034862
    87  C    0.011570
    88  C   -0.023043
    89  C   -0.022859
    90  C   -0.036363
    91  C    0.195443
    92  O   -0.205108
    93  H    0.123542
    94  H    0.019026
    95  H    0.016695
    96  H    0.014921
    97  H   -0.023194
    98  H   -0.047203
    99  H   -0.027333
   100  H   -0.045080
   101  H    0.177348
   102  N   -0.085571
   103  C    0.173906
   104  C    0.060283
   105  O   -0.282247
   106  C   -0.112780
   107  C    0.020256
   108  C    0.085180
   109  C    0.001317
   110  H    0.132100
   111  H   -0.008377
   112  H   -0.011600
   113  H   -0.001284
   114  H    0.015309
   115  H   -0.004524
   116  H    0.027802
   117  H   -0.003573
   118  H    0.008813
   119  H    0.005198
   120  H   -0.002914
   121  N   -0.138856
   122  C    0.095096
   123  C    0.056646
   124  O   -0.258271
   125  C    0.237432
   126  O   -0.315081
   127  H    0.131428
   128  H   -0.000027
   129  H    0.011370
   130  H    0.009284
   131  H    0.169158
   132  N   -0.145621
   133  C    0.067158
   134  C    0.089017
   135  O   -0.280895
   136  C    0.045088
   137  H    0.135009
   138  H    0.021540
   139  H    0.020724
   140  H    0.008991
   141  H    0.014473
   142  N   -0.123972
   143  C    0.073905
   144  C    0.053768
   145  O   -0.235874
   146  C    0.040876
   147  H    0.163312
   148  H    0.005316
   149  H    0.033031
   150  H    0.006775
   151  H    0.013941
   152  N   -0.157272
   153  C    0.118477
   154  C    0.064845
   155  O   -0.285230
   156  C    0.051026
   157  C    0.094680
   158  C    0.061466
   159  O   -0.487735
   160  O   -0.353256
   161  H    0.117759
   162  H    0.008449
   163  H    0.018710
   164  H    0.013773
   165  H   -0.021580
   166  H   -0.009134
   167  N   -0.140701
   168  C    0.130119
   169  H    0.034801
   170  H    0.029964
   171  H    0.015127
   172  H    0.115740
   173  Ca   1.387337
   174  O   -0.328642
   175  H    0.202266
   176  H    0.208519
 Sum of Mulliken charges =  -0.00000
 Mulliken charges with hydrogens summed into heavy atoms:
               1
     1  C    0.129036
     2  C   -0.001635
     3  O   -0.325383
     7  N   -0.000158
     8  C    0.083477
     9  C    0.040205
    10  O   -0.310253
    11  C    0.100397
    12  C    0.046395
    13  O   -0.407517
    14  O   -0.353889
    19  N   -0.044693
    20  C    0.101072
    21  C    0.060956
    22  O   -0.224399
    23  C    0.147521
    24  C    0.015899
    25  C    0.039507
    26  C    0.144238
    27  N    0.632896
    41  N   -0.019448
    42  C    0.099403
    43  C    0.077865
    44  O   -0.278084
    45  C    0.106501
    46  C    0.076015
    47  O   -0.350372
    48  O   -0.477851
    53  N    0.005539
    54  C    0.282817
    55  C    0.037638
    56  O   -0.269496
    60  N   -0.013793
    61  C    0.115475
    62  C    0.086256
    63  O   -0.281785
    64  C    0.054367
    65  C    0.016947
    66  N    0.238674
    67  O   -0.276022
    74  N    0.014085
    75  C    0.210962
    76  C    0.039540
    77  O   -0.233149
    81  N   -0.031670
    82  C    0.135291
    83  C    0.070675
    84  O   -0.310692
    85  C    0.169777
    86  C   -0.034862
    87  C   -0.011624
    88  C   -0.070246
    89  C   -0.050192
    90  C   -0.081443
    91  C    0.195443
    92  O   -0.027761
   102  N    0.046529
   103  C    0.165530
   104  C    0.060283
   105  O   -0.282247
   106  C   -0.124381
   107  C    0.034281
   108  C    0.104885
   109  C    0.012415
   121  N   -0.007428
   122  C    0.095070
   123  C    0.056646
   124  O   -0.258271
   125  C    0.258086
   126  O   -0.145922
   132  N   -0.010612
   133  C    0.088698
   134  C    0.089017
   135  O   -0.280895
   136  C    0.089276
   142  N    0.039340
   143  C    0.079221
   144  C    0.053768
   145  O   -0.235874
   146  C    0.094623
   152  N   -0.039513
   153  C    0.126926
   154  C    0.064845
   155  O   -0.285230
   156  C    0.083509
   157  C    0.063967
   158  C    0.061466
   159  O   -0.487735
   160  O   -0.353256
   167  N   -0.024961
   168  C    0.210010
   173  Ca   1.387337
   174  O    0.082143
 DipInt: DoE/N= T F RetVal/Mat= T F Init=T NMatP=  1 IDeriv=0 Min/MaxMlt=  0  4
 Entering OneElI...
 OneElI was handed  1333951383 working-precision words.
 Multipole integrals L=0 to 4 MinM= 0 MaxM= 0.
 Requested accuracy = 0.1000D-12
 ShPair: Thresh= 1.00D-13 NBox=     0 BxSize= 0.00D+00 RnKept= 2.93D+01
         NSMCal=               327645 NSMKep=              120231
 PrmmSu-InSpLW:  IPartL=    0 NPrtUS=    1 NPrtUL=    1 DoSpLW=F IThBeg=    0 IThEnd=    0 NThAct=    1.
 PrsmSu:  NPrtUS=   1 ThrOK=F IAlg=1 NPAlg=1 LenDen=           0 ISkipM=0 DoSpLW=F IThBeg=    0 IThEnd=    0.
 Prism:   IPart=     0 DynPar=F LinDyn=F Incr=         512.
 PRISM was handed  1325438975 working-precision words and120231 shell-pairs
 IPart=  0 NShTot=      120231 NBatch=         284 AvBLen=       423.3
 PrsmSu-ThDecC:  IPartSL=    0    0 NPrtUSL=    1    1 IThBeg=    0 IThEnd=    0 CPU=   -1 GPU=   -1 NThAct=    1.
 PrSmSu:  NxtVal=            513.
 Electronic moments (au):
       -716.00000000          7.95577326          7.30830536         -7.73875839
     -93942.12232583     -41813.39892709     -13448.20719121       -220.49874936
         27.76932279         23.57978621     162866.42642947     -10358.69326991
      -4879.08864809    -120224.11981662      46996.91908819    -235233.59981340
      46702.54052280      -1046.26964341       5559.66030704      45565.20043704
  -24728568.20308324   -5027269.43238444    -867465.40014979    2103836.93067518
     882054.91935814    -199437.39156094    -261180.77174440     479154.36803493
      35247.55794970   -4031232.63740231   -2052904.43463096    -499545.58744090
     597146.19923368    -554678.45433933     213783.69320071
 Electronic spatial extent (au):  <R**2>=         149203.7284
 DipInt: DoE/N= F T RetVal/Mat= T F Init=T NMatP=  1 IDeriv=0 Min/MaxMlt=  0  4
 Nuclear    moments (au):
        716.00000000         -0.00000000          0.00000000          0.00000000
      93477.52952359      41385.07869581      13086.04113133          0.00000000
          0.00000000          0.00000000    -159525.43763418      11501.64249507
       4277.81658592     119755.01582816     -44648.96645336     234096.44079494
     -46612.95645504        973.16229720      -5935.08368881     -45363.48499782
   24366895.89333545    4876039.90068351     828386.85877336   -2177716.43177419
    -862316.89293209     181031.21037480     261983.50973920    -480078.08062804
     -34182.06638884    3966664.04163362    1987071.86632155     468265.82107932
    -595224.18759630     554118.45016700    -211184.07258220
 Total      moments (au):
         -0.00000000          7.95577326          7.30830536         -7.73875839
       -464.59280224       -428.32023128       -362.16605988       -220.49874936
         27.76932279         23.57978621       3340.98879529       1142.94922516
       -601.27206216       -469.10398846       2347.95263482      -1137.15901846
         89.58406776        -73.10734620       -375.42338177        201.71543921
    -361672.30974779    -151229.53170093     -39078.54137643     -73879.50109901
      19738.02642605     -18406.18118614        802.73799480       -923.71259311
       1065.49156086     -64568.59576869     -65832.56830941     -31279.76636158
       1922.01163738       -560.00417233       2599.62061851
 Traceless Quadrup. (au):
        -46.23310444         -9.96053348         56.19363792       -220.49874936
         27.76932279         23.57978621
 Charge=             -0.0000 electrons
 Dipole moment (field-independent basis, Debye):
    X=             20.2216    Y=             18.5759    Z=            -19.6700  Tot=             33.7769
 Quadrupole moment (field-independent basis, Debye-Ang):
   XX=           -624.8932   YY=           -576.1054   ZZ=           -487.1258
   XY=           -296.5784   XZ=             37.3507   YZ=             31.7156
 Traceless Quadrupole moment (field-independent basis, Debye-Ang):
   XX=            -62.1851   YY=            -13.3973   ZZ=             75.5824
   XY=           -296.5784   XZ=             37.3507   YZ=             31.7156
 Octapole moment (field-independent basis, Debye-Ang**2):
  XXX=           2377.9871  YYY=            813.5072  ZZZ=           -427.9623  XYY=           -333.8901
  XXY=           1671.1822  XXZ=           -809.3860  XZZ=             63.7625  YZZ=            -52.0350
  YYZ=           -267.2119  XYZ=            143.5733
 Hexadecapole moment (field-independent basis, Debye-Ang**3):
 XXXX=        -136223.1346 YYYY=         -56960.2933 ZZZZ=         -14718.8526 XXXY=         -27826.5628
 XXXZ=           7434.2872 YYYX=          -6932.6504 YYYZ=            302.3496 ZZZX=           -347.9145
 ZZZY=            401.3152 XXYY=         -24319.6293 XXZZ=         -24795.7020 YYZZ=         -11781.4599
 XXYZ=            723.9217 YYXZ=           -210.9244 ZZXY=            979.1418
 N-N= 1.872898166478D+04 E-N=-4.993475796785D+04  KE= 5.290514036104D+03
 Leave Link  601 at Tue Sep 17 12:09:19 2019, MaxMem=  1342177280 cpu:              44.0 elap:               1.2
 FitSet:  NAtFit=   176 NAtPot=   176 NAtFrz=     0 MDM=   180 TotChg=   0.00000
 Merz-Kollman atomic radii used.
 Read replacement radii for each type of atom:
 Rad(20) =   1.700000000000D+00
 Atom Element Radius
    1     6    1.50
    2     6    1.50
    3     8    1.40
    4     1    1.20
    5     1    1.20
    6     1    1.20
    7     7    1.50
    8     6    1.50
    9     6    1.50
   10     8    1.40
   11     6    1.50
   12     6    1.50
   13     8    1.40
   14     8    1.40
   15     1    1.20
   16     1    1.20
   17     1    1.20
   18     1    1.20
   19     7    1.50
   20     6    1.50
   21     6    1.50
   22     8    1.40
   23     6    1.50
   24     6    1.50
   25     6    1.50
   26     6    1.50
   27     7    1.50
   28     1    1.20
   29     1    1.20
   30     1    1.20
   31     1    1.20
   32     1    1.20
   33     1    1.20
   34     1    1.20
   35     1    1.20
   36     1    1.20
   37     1    1.20
   38     1    1.20
   39     1    1.20
   40     1    1.20
   41     7    1.50
   42     6    1.50
   43     6    1.50
   44     8    1.40
   45     6    1.50
   46     6    1.50
   47     8    1.40
   48     8    1.40
   49     1    1.20
   50     1    1.20
   51     1    1.20
   52     1    1.20
   53     7    1.50
   54     6    1.50
   55     6    1.50
   56     8    1.40
   57     1    1.20
   58     1    1.20
   59     1    1.20
   60     7    1.50
   61     6    1.50
   62     6    1.50
   63     8    1.40
   64     6    1.50
   65     6    1.50
   66     7    1.50
   67     8    1.40
   68     1    1.20
   69     1    1.20
   70     1    1.20
   71     1    1.20
   72     1    1.20
   73     1    1.20
   74     7    1.50
   75     6    1.50
   76     6    1.50
   77     8    1.40
   78     1    1.20
   79     1    1.20
   80     1    1.20
   81     7    1.50
   82     6    1.50
   83     6    1.50
   84     8    1.40
   85     6    1.50
   86     6    1.50
   87     6    1.50
   88     6    1.50
   89     6    1.50
   90     6    1.50
   91     6    1.50
   92     8    1.40
   93     1    1.20
   94     1    1.20
   95     1    1.20
   96     1    1.20
   97     1    1.20
   98     1    1.20
   99     1    1.20
  100     1    1.20
  101     1    1.20
  102     7    1.50
  103     6    1.50
  104     6    1.50
  105     8    1.40
  106     6    1.50
  107     6    1.50
  108     6    1.50
  109     6    1.50
  110     1    1.20
  111     1    1.20
  112     1    1.20
  113     1    1.20
  114     1    1.20
  115     1    1.20
  116     1    1.20
  117     1    1.20
  118     1    1.20
  119     1    1.20
  120     1    1.20
  121     7    1.50
  122     6    1.50
  123     6    1.50
  124     8    1.40
  125     6    1.50
  126     8    1.40
  127     1    1.20
  128     1    1.20
  129     1    1.20
  130     1    1.20
  131     1    1.20
  132     7    1.50
  133     6    1.50
  134     6    1.50
  135     8    1.40
  136     6    1.50
  137     1    1.20
  138     1    1.20
  139     1    1.20
  140     1    1.20
  141     1    1.20
  142     7    1.50
  143     6    1.50
  144     6    1.50
  145     8    1.40
  146     6    1.50
  147     1    1.20
  148     1    1.20
  149     1    1.20
  150     1    1.20
  151     1    1.20
  152     7    1.50
  153     6    1.50
  154     6    1.50
  155     8    1.40
  156     6    1.50
  157     6    1.50
  158     6    1.50
  159     8    1.40
  160     8    1.40
  161     1    1.20
  162     1    1.20
  163     1    1.20
  164     1    1.20
  165     1    1.20
  166     1    1.20
  167     7    1.50
[...]
 **** Fit      -0.006306
 **** Fit      -0.004263
 **** Fit      -0.001362
 **** Fit       0.001497
 **** Fit       0.003857
 **** Fit       0.005596
 **** Fit       0.006740
 **** Fit       0.007370
 **** Fit       0.007569
 **** Fit       0.007409
 **** Fit       0.006946
 **** Fit      -0.001161
 **** Fit       0.001416
 **** Fit       0.003961
 **** Fit       0.005972
 **** Fit       0.007336
 **** Fit       0.008104
 **** Fit       0.008363
 **** Fit       0.008198
 **** Fit       0.007674
 **** Fit       0.007890
 **** Fit       0.008942
 **** Fit       0.009536
 **** Fit       0.009664
 **** Fit       0.009373
 **** Fit       0.008709
 **** Fit      -0.002070
 **** Fit       0.001308
 **** Fit       0.007335
 **** Fit      -0.000546
 **** Fit       0.006199
 **** Fit       0.010546
 **** Fit       0.007623
 **** Fit       0.011767
 **** Fit       0.014055
 **** Fit       0.012398
 **** Fit       0.015387
 **** Fit       0.016826
 **** Fit       0.018893
 **** Fit       0.020261
 **** Fit       0.020544
 **** Fit       0.025819
 **** Fit       0.000706
 **** Fit       0.008114
 **** Fit       0.005949
 **** Fit      -0.001928
 **** Fit      -0.007957
 **** Fit      -0.006190
 **** Fit       0.001641
 **** Fit       0.014903
 **** Fit       0.014066
 **** Fit       0.009373
 **** Fit       0.002493
 **** Fit      -0.005974
 **** Fit       0.000630
 **** Fit       0.009966
 **** Fit       0.021591
 **** Fit       0.020291
 **** Fit       0.016071
 **** Fit       0.010840
 **** Fit       0.005016
 **** Fit      -0.002213
 **** Fit      -0.011090
 **** Fit       0.009009
 **** Fit       0.017953
 **** Fit       0.028399
 **** Fit       0.025905
 **** Fit       0.020845
 **** Fit       0.015239
 **** Fit       0.010313
 **** Fit      -0.017062
 **** Fit       0.026308
 **** Fit       0.030833
 **** Fit       0.024143
 **** Fit       0.017077
 **** Fit       0.011189
 **** Fit       0.034696
 **** Fit       0.026611
 **** Fit       0.017929
 **** Fit       0.038404
 **** Fit       0.027932
 **** Fit       0.017650
 **** Fit       0.047482
 **** Fit       0.040218
 **** Fit       0.029366
 **** Fit       0.055309
 **** Fit       0.054544
 **** Fit       0.052673
 **** Fit       0.043275
 **** Fit       0.031990
 **** Fit       0.059870
 **** Fit       0.061803
 **** Fit       0.059144
 **** Fit       0.056924
 **** Fit       0.047211
 **** Fit       0.035476
 **** Fit       0.062934
 **** Fit       0.067403
 **** Fit       0.067566
 **** Fit       0.063910
 **** Fit       0.062211
 **** Fit       0.052717
 **** Fit       0.041025
 **** Fit       0.071538
 **** Fit       0.073972
 **** Fit       0.073111
 **** Fit       0.069119
 **** Fit       0.068848
 **** Fit       0.059713
 **** Fit       0.048112
 **** Fit       0.067357
 **** Fit       0.074048
 **** Fit       0.078278
 **** Fit       0.079957
 **** Fit       0.079003
 **** Fit       0.075314
 **** Fit       0.068569
 **** Fit       0.075205
 **** Fit       0.080463
 **** Fit       0.084131
 **** Fit       0.086028
 **** Fit       0.039373
 **** Fit       0.046743
 **** Fit       0.053714
 **** Fit       0.060514
 **** Fit       0.067190
 **** Fit       0.073587
 **** Fit       0.079472
 **** Fit       0.084691
 **** Fit       0.040791
 **** Fit       0.047316
 **** Fit       0.053577
 **** Fit       0.059558
 **** Fit       0.065343
 **** Fit       0.071004
 **** Fit       0.076574
 **** Fit       0.082116
 **** Fit       0.018150
 **** Fit       0.024409
 **** Fit       0.042386
 **** Fit       0.047101
 **** Fit       0.052224
 **** Fit       0.057382
 **** Fit       0.062411
 **** Fit       0.067296
 **** Fit       0.072118
 **** Fit       0.077043
 **** Fit       0.021219
 **** Fit       0.027775
 **** Fit       0.033261
 **** Fit       0.037839
 **** Fit       0.041526
 **** Fit       0.045540
 **** Fit       0.045775
 **** Fit       0.046979
 **** Fit       0.049272
 **** Fit       0.052459
 **** Fit       0.056195
 **** Fit       0.060148
 **** Fit       0.064101
 **** Fit       0.067974
 **** Fit       0.071827
 **** Fit       0.023448
 **** Fit       0.029740
 **** Fit       0.035438
 **** Fit       0.040327
 **** Fit       0.044372
 **** Fit       0.047544
 **** Fit       0.049795
 **** Fit       0.051152
 **** Fit       0.051825
 **** Fit       0.052194
 **** Fit       0.052708
 **** Fit       0.053743
 **** Fit       0.055477
 **** Fit       0.057850
 **** Fit       0.060641
 **** Fit       0.063593
 **** Fit       0.066514
 **** Fit       0.069349
 **** Fit       0.028369
 **** Fit       0.032498
 **** Fit       0.037275
 **** Fit       0.041980
 **** Fit       0.046198
 **** Fit       0.049741
 **** Fit       0.052526
 **** Fit       0.054542
 **** Fit       0.055877
 **** Fit       0.056761
 **** Fit       0.057511
 **** Fit       0.058439
 **** Fit       0.059732
 **** Fit       0.061396
 **** Fit       0.063283
 **** Fit       0.065176
 **** Fit       0.066893
 **** Fit       0.039939
 **** Fit       0.037984
 **** Fit       0.038398
 **** Fit       0.040603
 **** Fit       0.043883
 **** Fit       0.047534
 **** Fit       0.051034
 **** Fit       0.054075
 **** Fit       0.056512
 **** Fit       0.058324
 **** Fit       0.059608
 **** Fit       0.060562
 **** Fit       0.061413
 **** Fit       0.062328
 **** Fit       0.063329
 **** Fit       0.064290
 **** Fit       0.064991
 **** Fit       0.048598
 **** Fit       0.047399
 **** Fit       0.048352
 **** Fit       0.050599
 **** Fit       0.053387
 **** Fit       0.056146
 **** Fit       0.058529
 **** Fit       0.060385
 **** Fit       0.061722
 **** Fit       0.062656
 **** Fit       0.063323
 **** Fit       0.063774
 **** Fit       0.063895
 **** Fit       0.054409
 **** Fit       0.054182
 **** Fit       0.055531
 **** Fit       0.057575
 **** Fit       0.059663
 **** Fit       0.061400
 **** Fit       0.062620
 **** Fit       0.063301
 **** Fit       0.063433
 **** Fit       0.062877
 **** Fit       0.058082
 **** Fit       0.059201
 **** Fit       0.060746
 **** Fit       0.061981
 **** Fit       0.062486
 **** Fit       0.061963
 **** Fit       0.037466
 **** Fit       0.082154
 **** Fit       0.076454
 **** Fit       0.076530
 **** Fit       0.072193
 **** Fit       0.070511
 **** Fit       0.070506
 **** Fit       0.071830
 **** Fit       0.066943
 **** Fit       0.064884
 **** Fit       0.064373
 **** Fit       0.065203
 **** Fit       0.067140
 **** Fit       0.062752
 **** Fit       0.060111
 **** Fit       0.058816
 **** Fit       0.058802
 **** Fit       0.059946
 **** Fit       0.062082
 **** Fit       0.054681
 **** Fit       0.061784
 **** Fit       0.058520
 **** Fit       0.055873
 **** Fit       0.054129
 **** Fit       0.053412
 **** Fit       0.053732
 **** Fit       0.055028
 **** Fit       0.057181
 **** Fit       0.051889
 **** Fit       0.054238
 **** Fit       0.056419
 **** Fit       0.057826
 **** Fit       0.058099
 **** Fit       0.057215
 **** Fit       0.055460
 **** Fit       0.053297
 **** Fit       0.051222
 **** Fit       0.049637
 **** Fit       0.048811
 **** Fit       0.048871
 **** Fit       0.049840
 **** Fit       0.051653
 **** Fit       0.054184
 **** Fit       0.057780
 **** Fit       0.048281
 **** Fit       0.048993
 **** Fit       0.049774
 **** Fit       0.050166
 **** Fit       0.049896
 **** Fit       0.048964
 **** Fit       0.047615
 **** Fit       0.046228
 **** Fit       0.045184
 **** Fit       0.044776
 **** Fit       0.045169
 **** Fit       0.046406
 **** Fit       0.048423
 **** Fit       0.051066
 **** Fit       0.055618
 **** Fit       0.054712
 **** Fit       0.045795
 **** Fit       0.045403
 **** Fit       0.045217
 **** Fit       0.044916
 **** Fit       0.044311
 **** Fit       0.043430
 **** Fit       0.042496
 **** Fit       0.041820
 **** Fit       0.041689
 **** Fit       0.042286
 **** Fit       0.043664
 **** Fit       0.045749
 **** Fit       0.048348
 **** Fit       0.051162
 **** Fit       0.052547
 **** Fit       0.052442
 **** Fit       0.051971
 **** Fit       0.051464
 **** Fit       0.044899
 **** Fit       0.043578
 **** Fit       0.042614
 **** Fit       0.041837
 **** Fit       0.041069
 **** Fit       0.040289
 **** Fit       0.039665
 **** Fit       0.039473
 **** Fit       0.039952
 **** Fit       0.041210
 **** Fit       0.043184
 **** Fit       0.045640
 **** Fit       0.048204
 **** Fit       0.050428
 **** Fit       0.051927
 **** Fit       0.048477
 **** Fit       0.048726
 **** Fit       0.048505
 **** Fit       0.048045
 **** Fit       0.044356
 **** Fit       0.042615
 **** Fit       0.041115
 **** Fit       0.039917
 **** Fit       0.038973
 **** Fit       0.038365
 **** Fit       0.038349
 **** Fit       0.039168
 **** Fit       0.040859
 **** Fit       0.043154
 **** Fit       0.045539
 **** Fit       0.047432
 **** Fit       0.045057
 **** Fit       0.045491
 **** Fit       0.045140
 **** Fit       0.044106
 **** Fit       0.042460
 **** Fit       0.040637
 **** Fit       0.039125
 **** Fit       0.038214
 **** Fit       0.038209
 **** Fit       0.039361
 **** Fit       0.041435
 **** Fit       0.043619
 **** Fit       0.042355
 **** Fit       0.042541
 **** Fit       0.041100
 **** Fit       0.039326
 **** Fit       0.038940
 **** Fit       0.040524
 **** Fit       0.040426
 **** Fit       0.070104
 **** Fit       0.064478
 **** Fit       0.057692
 **** Fit       0.051546
 **** Fit       0.078595
 **** Fit       0.071508
 **** Fit       0.061842
 **** Fit       0.055850
 **** Fit       0.050049
 **** Fit       0.044355
 **** Fit       0.083817
 **** Fit       0.078386
 **** Fit       0.073226
 **** Fit       0.067723
 **** Fit       0.060858
 **** Fit       0.055713
 **** Fit       0.050660
 **** Fit       0.045752
 **** Fit       0.040546
 **** Fit       0.086956
 **** Fit       0.081840
 **** Fit       0.078078
 **** Fit       0.074441
 **** Fit       0.070401
 **** Fit       0.065836
 **** Fit       0.060659
 **** Fit       0.056475
 **** Fit       0.052357
 **** Fit       0.048427
 **** Fit       0.044574
 **** Fit       0.040326
 **** Fit       0.082602
 **** Fit       0.079236
 **** Fit       0.076782
 **** Fit       0.074392
 **** Fit       0.071647
 **** Fit       0.068407
 **** Fit       0.064701
 **** Fit       0.060713
 **** Fit       0.057252
 **** Fit       0.053864
 **** Fit       0.050699
 **** Fit       0.047785
 **** Fit       0.044967
 **** Fit       0.076892
 **** Fit       0.075157
 **** Fit       0.073653
 **** Fit       0.071925
 **** Fit       0.069760
 **** Fit       0.067117
 **** Fit       0.064058
 **** Fit       0.060738
 **** Fit       0.058002
 **** Fit       0.055345
 **** Fit       0.052923
 **** Fit       0.050844
 **** Fit       0.049157
 **** Fit       0.073686
 **** Fit       0.072529
 **** Fit       0.071694
 **** Fit       0.070776
 **** Fit       0.069538
 **** Fit       0.067880
 **** Fit       0.065807
 **** Fit       0.063388
 **** Fit       0.060610
 **** Fit       0.058483
 **** Fit       0.056444
 **** Fit       0.054651
 **** Fit       0.053256
 **** Fit       0.052413
 **** Fit       0.069312
 **** Fit       0.068962
 **** Fit       0.068656
 **** Fit       0.068159
 **** Fit       0.067331
 **** Fit       0.066121
 **** Fit       0.064546
 **** Fit       0.062675
 **** Fit       0.060284
 **** Fit       0.058624
 **** Fit       0.057075
 **** Fit       0.055813
 **** Fit       0.055035
 **** Fit       0.054986
 **** Fit       0.065446
 **** Fit       0.065641
 **** Fit       0.065779
 **** Fit       0.065689
 **** Fit       0.065267
 **** Fit       0.064473
 **** Fit       0.063327
 **** Fit       0.061896
 **** Fit       0.059746
 **** Fit       0.058498
 **** Fit       0.057389
 **** Fit       0.056623
 **** Fit       0.056451
 **** Fit       0.057212
 **** Fit       0.062164
 **** Fit       0.062776
 **** Fit       0.063119
 **** Fit       0.063113
 **** Fit       0.062729
 **** Fit       0.061987
 **** Fit       0.060956
 **** Fit       0.058991
 **** Fit       0.058141
 **** Fit       0.057447
 **** Fit       0.057134
 **** Fit       0.057482
 **** Fit       0.058509
 **** Fit       0.059625
 **** Fit       0.060400
 **** Fit       0.060798
 **** Fit       0.060807
 **** Fit       0.060455
 **** Fit       0.059812
 **** Fit       0.058015
 **** Fit       0.057500
 **** Fit       0.057182
 **** Fit       0.057343
 **** Fit       0.058328
 **** Fit       0.055714
 **** Fit       0.057182
 **** Fit       0.058168
 **** Fit       0.058683
 **** Fit       0.058765
 **** Fit       0.058498
 **** Fit       0.056812
 **** Fit       0.056626
 **** Fit       0.056656
 **** Fit       0.057212
 **** Fit       0.055109
 **** Fit       0.056222
 **** Fit       0.056799
 **** Fit       0.056943
 **** Fit       0.055367
 **** Fit       0.055485
 **** Fit       0.055801
 **** Fit       0.053153
 **** Fit       0.054447
 **** Fit       0.055117
 **** Fit       0.053658
 **** Fit       0.052885
 **** Fit       0.036738
 **** Fit       0.027671
 **** Fit       0.043555
 **** Fit       0.036247
 **** Fit       0.029556
 **** Fit       0.047974
 **** Fit       0.041843
 **** Fit       0.036505
 **** Fit       0.031686
 **** Fit       0.027273
 **** Fit       0.056421
 **** Fit       0.050051
 **** Fit       0.044826
 **** Fit       0.040405
 **** Fit       0.036569
 **** Fit       0.033224
 **** Fit       0.030397
 **** Fit       0.028204
 **** Fit       0.026790
 **** Fit       0.026280
 **** Fit       0.026838
 **** Fit       0.028836
 **** Fit       0.032971
 **** Fit       0.040031
 **** Fit       0.056172
 **** Fit       0.050804
 **** Fit       0.046419
 **** Fit       0.042769
 **** Fit       0.039699
 **** Fit       0.037144
 **** Fit       0.035124
 **** Fit       0.033717
 **** Fit       0.033031
 **** Fit       0.033218
 **** Fit       0.034535
 **** Fit       0.037365
 **** Fit       0.042081
 **** Fit       0.048718
 **** Fit       0.055293
 **** Fit       0.050966
 **** Fit       0.047398
 **** Fit       0.044452
 **** Fit       0.042035
 **** Fit       0.040114
 **** Fit       0.038712
 **** Fit       0.037899
 **** Fit       0.037785
 **** Fit       0.038531
 **** Fit       0.040338
 **** Fit       0.043346
 **** Fit       0.047448
 **** Fit       0.053481
 **** Fit       0.050026
 **** Fit       0.047167
 **** Fit       0.044855
 **** Fit       0.043062
 **** Fit       0.041803
 **** Fit       0.041141
 **** Fit       0.041175
 **** Fit       0.042018
 **** Fit       0.043731
 **** Fit       0.046167
 **** Fit       0.054611
 **** Fit       0.051623
 **** Fit       0.048976
 **** Fit       0.046787
 **** Fit       0.045093
 **** Fit       0.043930
 **** Fit       0.043354
 **** Fit       0.043426
 **** Fit       0.044158
 **** Fit       0.045390
 **** Fit       0.051799
 **** Fit       0.049621
 **** Fit       0.047639
 **** Fit       0.046086
 **** Fit       0.045076
 **** Fit       0.044666
 **** Fit       0.044813
 **** Fit       0.045248
 **** Fit       0.049237
 **** Fit       0.047585
 **** Fit       0.046206
 **** Fit       0.045415
 **** Fit       0.045105
 **** Fit       0.047008
 **** Fit       0.045775
 -----------------------------------------------------------------
 Leave Link  602 at Tue Sep 17 12:09:22 2019, MaxMem=  1342177280 cpu:             136.3 elap:               2.9

 Test job not archived.
 1\1\GINC-C506-093\SP\RB3LYP\SVP\C54H83Ca1N15O23\PENGZHI\17-Sep-2019\0\
 \#b3lyp/svp scf=(tight,noincore) Test #IOP(5/87=12) Density=Current Po
 p=(MK,readradii) iop(6/33=2) iop(6/42=6)\\Ng-293_loop3_56.0\\0,1\C,0,4
 2.65,78.33,71.97\C,0,42.87,78.1,70.49\O,0,43.84,78.6,69.91\H,0,41.599,
 78.171,72.209\H,0,43.262,77.632,72.542\H,0,42.93,79.352,72.225\N,0,41.
 92,77.47,69.8\C,0,42.03,77.41,68.35\C,0,41.37,76.1,67.91\O,0,40.7,75.4
 3,68.7\C,0,41.1,78.46,67.76\C,0,41.17,78.66,66.26\O,0,42.07,78.17,65.5
 5\O,0,40.19,79.2,65.7\H,0,41.1,77.15,70.29\H,0,43.07,77.37,68.04\H,0,4
 1.43,79.4,68.22\H,0,40.04,78.32,67.97\N,0,41.66,75.69,66.68\C,0,41.08,
 74.58,65.95\C,0,39.57,74.72,65.79\O,0,38.89,75.72,66.05\C,0,41.55,73.2
 1,66.45\C,0,43.04,73.08,66.71\C,0,43.91,73.26,65.47\C,0,45.41,73.34,65
 .76\N,0,45.79,74.54,66.52\H,0,42.24,76.3,66.13\H,0,41.39,74.83,64.94\H
 ,0,41.25,72.45,65.72\H,0,41.05,73.01,67.39\H,0,43.28,72.09,67.09\H,0,4
 3.33,73.79,67.49\H,0,43.65,74.24,65.06\H,0,43.83,72.45,64.75\H,0,46.,7
 3.22,64.85\H,0,45.69,72.48,66.36\H,0,45.48,75.34,65.98\H,0,45.22,74.65
 ,67.34\H,0,46.75,74.5,66.83\N,0,38.93,73.65,65.32\C,0,37.72,73.72,64.5
 2\C,0,36.5,74.26,65.24\O,0,35.75,75.03,64.63\C,0,37.45,72.46,63.7\C,0,
 37.35,71.25,64.62\O,0,38.44,70.83,65.06\O,0,36.32,70.54,64.71\H,0,39.5
 3,72.85,65.18\H,0,37.92,74.44,63.73\H,0,38.19,72.37,62.91\H,0,36.51,72
 .58,63.17\N,0,36.38,74.02,66.55\C,0,35.24,74.45,67.34\C,0,33.85,73.97,
 66.97\O,0,32.85,74.62,67.26\H,0,37.11,73.5,66.99\H,0,35.19,75.52,67.51
 \H,0,35.44,74.14,68.37\N,0,33.76,72.82,66.31\C,0,32.47,72.23,66.\C,0,3
 2.41,70.74,66.32\O,0,33.39,70.01,66.38\C,0,32.03,72.56,64.58\C,0,31.57
 ,74.,64.37\N,0,32.33,74.81,63.64\O,0,30.49,74.35,64.85\H,0,34.55,72.2,
 66.18\H,0,31.74,72.71,66.65\H,0,31.23,71.9,64.25\H,0,32.72,72.25,63.79
 \H,0,33.16,74.4,63.24\H,0,32.03,75.74,63.39\N,0,31.18,70.31,66.62\C,0,
 30.82,68.91,66.74\C,0,30.89,68.42,68.18\O,0,31.31,69.18,69.05\H,0,30.4
 3,70.99,66.64\H,0,31.49,68.31,66.13\H,0,29.78,68.75,66.46\N,0,30.33,67
 .21,68.26\C,0,30.19,66.44,69.48\C,0,31.5,66.04,70.15\O,0,31.4,65.32,71
 .14\C,0,29.31,67.25,70.42\C,0,28.22,66.6,71.24\C,0,28.37,66.32,72.61\C
 ,0,27.04,66.21,70.61\C,0,27.41,65.68,73.4\C,0,26.05,65.57,71.37\C,0,26
 .21,65.33,72.75\O,0,25.22,64.69,73.43\H,0,30.11,66.67,67.44\H,0,29.67,
 65.51,69.24\H,0,28.76,68.05,69.92\H,0,29.95,67.8,71.11\H,0,29.32,66.52
 ,73.08\H,0,26.97,66.37,69.54\H,0,27.6,65.51,74.44\H,0,25.17,65.26,70.8
 3\H,0,24.56,64.29,72.85\N,0,32.67,66.44,69.66\C,0,34.03,65.99,69.93\C,
 0,34.29,64.5,69.82\O,0,35.27,64.14,69.16\C,0,34.59,66.63,71.19\C,0,34.
 23,68.1,71.41\C,0,36.08,66.35,71.36\C,0,34.9,68.97,70.36\H,0,32.62,67.
 08,68.88\H,0,34.64,66.45,69.15\H,0,34.06,66.26,72.07\H,0,34.65,68.42,7
 2.36\H,0,33.15,68.29,71.34\H,0,36.31,65.3,71.48\H,0,36.66,66.78,70.54\
 H,0,36.5,66.88,72.22\H,0,34.38,68.88,69.4\H,0,34.92,70.,70.71\H,0,35.9
 6,68.77,70.29\N,0,33.48,63.67,70.48\C,0,33.58,62.23,70.33\C,0,34.96,61
 .69,70.71\O,0,35.48,60.77,70.09\C,0,32.38,61.61,71.04\O,0,32.54,61.93,
 72.4\H,0,32.67,64.,70.98\H,0,33.51,62.02,69.26\H,0,32.41,60.52,71.\H,0
 ,31.43,61.97,70.66\H,0,31.67,61.95,72.8\N,0,35.41,62.24,71.84\C,0,36.6
 3,61.84,72.52\C,0,37.98,62.02,71.83\O,0,39.03,61.69,72.37\C,0,36.36,60
 .42,73.02\H,0,34.9,63.03,72.21\H,0,36.62,62.38,73.47\H,0,36.62,59.65,7
 2.3\H,0,37.04,60.18,73.83\H,0,35.35,60.26,73.39\N,0,37.97,62.63,70.65\
 C,0,39.12,62.85,69.79\C,0,39.63,64.28,69.62\O,0,39.05,65.27,70.04\C,0,
 38.89,62.13,68.47\H,0,37.08,62.97,70.28\H,0,39.94,62.27,70.19\H,0,37.8
 2,61.99,68.31\H,0,39.39,62.71,67.69\H,0,39.27,61.11,68.49\N,0,40.76,64
 .4,68.92\C,0,41.51,65.61,68.7\C,0,41.99,66.29,69.98\O,0,42.6,67.36,69.
 97\C,0,40.83,66.5,67.67\C,0,40.5,65.89,66.31\C,0,39.59,66.66,65.37\O,0
 ,38.46,66.19,65.1\O,0,39.95,67.75,64.89\H,0,41.2,63.51,68.72\H,0,42.47
 ,65.3,68.29\H,0,41.47,67.36,67.45\H,0,39.9,66.9,68.07\H,0,39.98,64.96,
 66.53\H,0,41.4,65.64,65.73\N,0,41.89,65.59,71.11\C,0,42.26,66.11,72.41
 \H,0,43.105,66.79,72.302\H,0,41.415,66.647,72.841\H,0,42.54,65.285,73.
 066\H,0,41.48,64.67,71.1\Ca,0,36.94,68.12,64.3\O,0,36.19,66.05,62.93\H
 ,0,35.48,65.45,63.17\H,0,36.98,65.51,62.96\\Version=ES64L-G16RevA.03\S
 tate=1-A\HF=-5333.3831524\RMSD=1.042e-09\Dipole=1.3224547,-12.720501,-
 3.6102639\Quadrupole=186.4458034,-231.0612915,44.6154881,51.8790487,-1
 5.4912103,68.1299891\PG=C01 [X(C54H83Ca1N15O23)]\\@


 A DANDELION FROM A LOVER MEANS MORE THAN AN ORCHID FROM A FRIEND.
 Job cpu time:       0 days  7 hours 41 minutes  3.5 seconds.
 Elapsed time:       0 days  0 hours  9 minutes 44.5 seconds.
 File lengths (MBytes):  RWF=   1517 Int=      0 D2E=      0 Chk=    171 Scr=      1
 Normal termination of Gaussian 16 at Tue Sep 17 12:09:24 2019.
