 Entering Gaussian System, Link 0=g16
 Initial command:
 /home1/apps/gaussian/16rA.03/g16/l1.exe "/scratch/01990/pengzhi/4350463/Gau-119781.inp" -scrdir="/scratch/01990/pengzhi/4350463/"
 Entering Link 1 = /home1/apps/gaussian/16rA.03/g16/l1.exe PID=    119782.
  
 Copyright (c) 1988,1990,1992,1993,1995,1998,2003,2009,2016,
            Gaussian, Inc.  All Rights Reserved.
  
 This is part of the Gaussian(R) 16 program.  It is based on
 the Gaussian(R) 09 system (copyright 2009, Gaussian, Inc.),
 the Gaussian(R) 03 system (copyright 2003, Gaussian, Inc.),
 the Gaussian(R) 98 system (copyright 1998, Gaussian, Inc.),
 the Gaussian(R) 94 system (copyright 1995, Gaussian, Inc.),
 the Gaussian 92(TM) system (copyright 1992, Gaussian, Inc.),
 the Gaussian 90(TM) system (copyright 1990, Gaussian, Inc.),
 the Gaussian 88(TM) system (copyright 1988, Gaussian, Inc.),
 the Gaussian 86(TM) system (copyright 1986, Carnegie Mellon
 University), and the Gaussian 82(TM) system (copyright 1983,
 Carnegie Mellon University). Gaussian is a federally registered
 trademark of Gaussian, Inc.
  
 This software contains proprietary and confidential information,
 including trade secrets, belonging to Gaussian, Inc.
  
 This software is provided under written license and may be
 used, copied, transmitted, or stored only in accord with that
 written license.
  
 The following legend is applicable only to US Government
 contracts under FAR:
  
                    RESTRICTED RIGHTS LEGEND
  
 Use, reproduction and disclosure by the US Government is
 subject to restrictions as set forth in subparagraphs (a)
 and (c) of the Commercial Computer Software - Restricted
 Rights clause in FAR 52.227-19.
  
 Gaussian, Inc.
 340 Quinnipiac St., Bldg. 40, Wallingford CT 06492
  
  
 ---------------------------------------------------------------
 Warning -- This program may not be used in any manner that
 competes with the business of Gaussian, Inc. or will provide
 assistance to any competitor of Gaussian, Inc.  The licensee
 of this program is prohibited from giving any competitor of
 Gaussian, Inc. access to this program.  By using this program,
 the user acknowledges that Gaussian, Inc. is engaged in the
 business of creating and licensing software in the field of
 computational chemistry and represents and warrants to the
 licensee that it is not a competitor of Gaussian, Inc. and that
 it will not use this program in any manner prohibited above.
 ---------------------------------------------------------------
  

 Cite this work as:
 Gaussian 16, Revision A.03,
 M. J. Frisch, G. W. Trucks, H. B. Schlegel, G. E. Scuseria, 
 M. A. Robb, J. R. Cheeseman, G. Scalmani, V. Barone, 
 G. A. Petersson, H. Nakatsuji, X. Li, M. Caricato, A. V. Marenich, 
 J. Bloino, B. G. Janesko, R. Gomperts, B. Mennucci, H. P. Hratchian, 
 J. V. Ortiz, A. F. Izmaylov, J. L. Sonnenberg, D. Williams-Young, 
 F. Ding, F. Lipparini, F. Egidi, J. Goings, B. Peng, A. Petrone, 
 T. Henderson, D. Ranasinghe, V. G. Zakrzewski, J. Gao, N. Rega, 
 G. Zheng, W. Liang, M. Hada, M. Ehara, K. Toyota, R. Fukuda, 
 J. Hasegawa, M. Ishida, T. Nakajima, Y. Honda, O. Kitao, H. Nakai, 
 T. Vreven, K. Throssell, J. A. Montgomery, Jr., J. E. Peralta, 
 F. Ogliaro, M. J. Bearpark, J. J. Heyd, E. N. Brothers, K. N. Kudin, 
 V. N. Staroverov, T. A. Keith, R. Kobayashi, J. Normand, 
 K. Raghavachari, A. P. Rendell, J. C. Burant, S. S. Iyengar, 
 J. Tomasi, M. Cossi, J. M. Millam, M. Klene, C. Adamo, R. Cammi, 
 J. W. Ochterski, R. L. Martin, K. Morokuma, O. Farkas, 
 J. B. Foresman, and D. J. Fox, Gaussian, Inc., Wallingford CT, 2016.
 
 ******************************************
 Gaussian 16:  ES64L-G16RevA.03 25-Dec-2016
                17-Sep-2019 
 ******************************************
 %chk=Ng-293_loop3_81.0.chk
 %nprocshared=48
 Will use up to   48 processors via shared memory.
 %mem=10GB
 %nosave
 ----------------------------------------------------------------------
 #b3lyp/svp scf=(tight,noincore) Test #IOP(5/87=12) Density=Current Pop
 =(MK,readradii) iop(6/33=2) iop(6/42=6)
 ----------------------------------------------------------------------
 1/30=1,38=1,172=1/1;
 2/12=2,17=6,18=5,40=1/2;
 3/5=18,7=101,11=2,25=1,30=1,74=-5/1,2,3;
 4//1;
 5/5=4,32=2,38=5,87=12/2;
 6/7=2,8=2,9=2,10=2,15=8,20=101,22=-1,28=1,33=2,42=6/1,2;
 99/5=1,9=1/99;
 -----------------
 Ng-293_loop3_81.0
 -----------------
 Symbolic Z-matrix:
 Charge =  0 Multiplicity = 1
 C                     67.08     21.3      8.38 
 C                     67.21     22.2      7.17 
 O                     66.35     22.12     6.29 
 H                     66.029    21.058    8.541 
 H                     67.642    20.381    8.212 
 H                     67.473    21.812    9.258 
 N                     68.26     23.02     7.02 
 C                     68.43     24.14     6.11 
 C                     67.78     25.41     6.63 
 O                     67.88     25.8      7.79 
 C                     69.83     24.52     5.65 
 C                     70.83     24.35     6.79 
 O                     71.21     23.19     7.04 
 O                     71.14     25.31     7.52 
 H                     68.94     23.       7.77 
 H                     67.96     23.83     5.18 
 H                     69.86     25.56     5.33 
 H                     70.07     23.93     4.76 
 N                     67.24     26.15     5.65 
 C                     66.34     27.28     5.57 
 C                     66.89     28.61     6.06 
 O                     66.86     29.55     5.27 
 C                     65.02     26.86     6.21 
 C                     64.04     28.03     6.11 
 C                     62.7      27.66     6.73 
 C                     61.59     28.69     6.54 
 N                     60.38     28.16     7.18 
 H                     67.31     25.63     4.79 
 H                     66.06     27.55     4.55 
 H                     65.19     26.57     7.25 
 H                     64.62     26.03     5.62 
 H                     63.98     28.37     5.08 
 H                     64.36     28.81     6.8 
 H                     62.79     27.47     7.8 
 H                     62.3      26.72     6.34 
 H                     61.33     28.88     5.49 
 H                     61.95     29.59     7.03 
 H                     60.14     27.29     6.73 
 H                     60.55     27.97     8.16 
 H                     59.56     28.75     7.19 
 N                     67.57     28.65     7.21 
 C                     68.13     29.84     7.82 
 C                     69.32     29.51     8.7 
 O                     69.32     28.48     9.37 
 C                     67.06     30.58     8.62 
 C                     67.48     31.91     9.24 
 O                     68.22     32.69     8.6 
 O                     67.3      32.11     10.46 
 H                     67.61     27.84     7.82 
 H                     68.5      30.5      7.04 
 H                     66.81     29.88     9.41 
 H                     66.19     30.7      7.98 
 N                     70.31     30.4      8.83 
 C                     71.4      30.25     9.78 
 C                     71.02     30.56     11.22 
 O                     70.14     31.39     11.44 
 H                     70.22     31.24     8.29 
 H                     72.29     30.8      9.5 
 H                     71.74     29.22     9.73 
 N                     71.76     29.91     12.13 
 C                     71.51     29.89     13.55 
 C                     72.35     30.93     14.29 
 O                     71.8      31.7      15.07 
 C                     71.78     28.47     14.05 
 C                     71.04     27.47     13.18 
 N                     71.8      26.65     12.45 
 O                     69.81     27.4      13.11 
 H                     72.62     29.48     11.83 
 H                     70.47     30.21     13.66 
 H                     71.33     28.34     15.03 
 H                     72.85     28.27     14.05 
 H                     72.79     26.51     12.62 
 H                     71.33     26.09     11.75 
 N                     73.65     31.08     14.03 
 C                     74.55     31.95     14.75 
 C                     74.62     31.77     16.26 
 O                     74.54     30.63     16.7 
 H                     74.05     30.36     13.45 
 H                     74.23     32.97     14.52 
 H                     75.55     31.74     14.37 
 N                     74.74     32.83     17.07 
 C                     74.79     32.93     18.52 
 C                     73.58     32.44     19.3 
 O                     73.58     32.68     20.51 
 C                     76.       32.18     19.07 
 C                     77.35     32.83     18.88 
 C                     78.09     32.71     17.69 
 C                     77.91     33.56     19.93 
 C                     79.39     33.21     17.53 
 C                     79.16     34.18     19.74 
 C                     79.91     34.02     18.56 
 O                     81.1      34.68     18.51 
 H                     75.11     33.63     16.58 
 H                     75.04     33.97     18.72 
 H                     76.05     31.18     18.65 
 H                     75.85     32.08     20.14 
 H                     77.73     32.08     16.89 
 H                     77.29     33.76     20.79 
 H                     80.01     32.97     16.68 
 H                     79.55     34.87     20.46 
 H                     81.28     35.21     19.29 
 N                     72.57     31.86     18.66 
 C                     71.34     31.39     19.26 
 C                     70.53     32.54     19.85 
 O                     69.31     32.37     19.9 
 C                     71.59     30.2      20.17 
 C                     72.29     29.04     19.48 
 C                     70.34     29.65     20.86 
 C                     72.77     27.86     20.32 
 H                     72.6      31.8      17.65 
 H                     70.74     31.       18.43 
 H                     72.22     30.58     20.97 
 H                     73.19     29.34     18.93 
 H                     71.67     28.69     18.66 
 H                     69.5      29.37     20.23 
 H                     70.41     28.71     21.41 
 H                     69.86     30.46     21.41 
 H                     73.36     27.19     19.7 
 H                     73.43     28.17     21.13 
 H                     71.96     27.32     20.81 
 N                     71.08     33.64     20.36 
 C                     70.48     34.95     20.47 
 C                     69.52     35.08     21.64 
 O                     68.91     36.15     21.69 
 C                     71.57     36.       20.66 
 O                     72.55     35.77     19.68 
 H                     72.08     33.72     20.31 
 H                     69.86     35.23     19.61 
 H                     71.97     35.7      21.63 
 H                     71.14     36.98     20.43 
 H                     73.4      36.05     20.02 
 N                     69.33     34.01     22.42 
 C                     68.06     33.56     22.96 
 C                     66.89     34.05     22.13 
 O                     65.99     34.76     22.6 
 C                     68.01     34.12     24.38 
 H                     70.08     33.33     22.44 
 H                     67.97     32.48     23.01 
 H                     67.26     33.63     25. 
 H                     68.95     33.87     24.89 
 H                     67.91     35.2      24.44 
 N                     66.94     33.69     20.85 
 C                     66.11     34.26     19.81 
 C                     65.72     33.27     18.73 
 O                     66.51     32.34     18.56 
 C                     66.77     35.48     19.17 
 H                     67.67     33.07     20.5 
 H                     65.17     34.57     20.28 
 H                     66.21     35.8      18.29 
 H                     66.84     36.3      19.89 
 H                     67.77     35.22     18.8 
 N                     64.61     33.58     18.06 
 C                     64.01     32.89     16.95 
 C                     63.7      31.43     17.29 
 O                     63.87     30.5      16.51 
 C                     64.86     33.06     15.69 
 C                     65.12     34.54     15.4 
 C                     65.76     34.74     14.03 
 O                     65.04     34.78     13.01 
 O                     66.98     34.91     13.85 
 H                     64.13     34.44     18.31 
 H                     62.99     33.29     17.01 
 H                     64.21     32.72     14.89 
 H                     65.75     32.44     15.74 
 H                     65.7      35.04     16.17 
 H                     64.2      35.11     15.47 
 N                     63.4      31.09     18.54 
 C                     63.12     29.77     19.07 
 H                     62.133    29.448    18.738 
 H                     63.871    29.067    18.71 
 H                     63.144    29.803    20.159 
 H                     63.17     31.85     19.16 
 Ca                    68.35     33.86     11.97 
 O                     69.68     34.39     9.84 
 H                     69.14     33.8      9.31 
 H                     69.89     35.11     9.25 
 
 Stoichiometry    C54H83CaN15O23
 Framework group  C1[X(C54H83CaN15O23)]
 Deg. of freedom   522
 Full point group                 C1      NOp   1
 Largest Abelian subgroup         C1      NOp   1
 Largest concise Abelian subgroup C1      NOp   1
                         Standard orientation:                         
 ---------------------------------------------------------------------
 Center     Atomic      Atomic             Coordinates (Angstroms)
 Number     Number       Type             X           Y           Z
 ---------------------------------------------------------------------
      1          6           0       -9.861878   -1.462136    5.584995
      2          6           0      -10.443807   -1.642114    4.199366
      3          8           0      -11.495990   -1.058538    3.929644
      4          1           0      -10.172157   -0.496859    5.986309
      5          1           0      -10.221687   -2.258402    6.237012
      6          1           0       -8.774180   -1.499602    5.530341
      7          7           0       -9.872699   -2.459982    3.303639
      8          6           0      -10.093842   -2.552910    1.870509
      9          6           0       -9.313891   -1.504536    1.096954
     10          8           0       -8.137316   -1.231247    1.317598
     11          6           0       -9.861627   -3.881563    1.165700
     12          6           0       -8.654744   -4.598433    1.764056
     13          8           0       -8.827407   -5.186242    2.849030
     14          8           0       -7.522945   -4.480805    1.258295
     15          1           0       -9.031517   -2.929521    3.615482
     16          1           0      -11.162086   -2.404877    1.733242
     17          1           0       -9.667410   -3.725370    0.106085
     18          1           0      -10.788607   -4.461385    1.213830
     19          7           0       -9.989147   -1.040920    0.034555
     20          6           0       -9.855015    0.067861   -0.885180
     21          6           0       -8.685879   -0.003914   -1.854442
     22          8           0       -8.949394    0.074310   -3.051538
     23          6           0       -9.927606    1.353276   -0.066132
     24          6           0       -9.818720    2.542564   -1.021662
     25          6           0       -9.892786    3.854570   -0.253513
     26          6           0       -9.962564    5.110249   -1.118095
     27          7           0      -10.047508    6.264868   -0.215742
     28          1           0      -10.915421   -1.436512    0.055141
     29          1           0      -10.684592    0.160719   -1.588657
     30          1           0       -9.125536    1.363505    0.676283
     31          1           0      -10.914282    1.385232    0.405512
     32          1           0      -10.555011    2.443703   -1.814254
     33          1           0       -8.795731    2.596658   -1.392427
     34          1           0       -9.047819    3.971892    0.425726
     35          1           0      -10.759431    3.905726    0.411325
     36          1           0      -10.845733    5.157401   -1.769239
     37          1           0       -9.042307    5.110031   -1.695006
     38          1           0      -10.882272    6.169062    0.341923
     39          1           0       -9.252247    6.286019    0.410766
     40          1           0      -10.047258    7.184960   -0.632912
     41          7           0       -7.482600   -0.365343   -1.398384
     42          6           0       -6.270461   -0.453424   -2.188802
     43          6           0       -5.290207   -1.449307   -1.599973
     44          8           0       -5.176407   -1.549688   -0.380640
     45          6           0       -5.622221    0.923049   -2.321496
     46          6           0       -4.385960    1.003766   -3.213036
     47          8           0       -4.344114    0.353230   -4.281049
     48          8           0       -3.332389    1.506949   -2.768520
     49          1           0       -7.310367   -0.462529   -0.403050
     50          1           0       -6.518201   -0.818616   -3.181858
     51          1           0       -5.344692    1.167802   -1.301852
     52          1           0       -6.388904    1.621723   -2.645459
     53          7           0       -4.472839   -2.128121   -2.412513
     54          6           0       -3.387697   -2.968875   -1.934288
     55          6           0       -2.166118   -2.199044   -1.455534
     56          8           0       -1.904306   -1.113878   -1.970869
     57          1           0       -4.589383   -1.960157   -3.394096
     58          1           0       -3.095212   -3.733833   -2.643014
     59          1           0       -3.768603   -3.556593   -1.104530
     60          7           0       -1.445723   -2.844573   -0.526814
     61          6           0       -0.342709   -2.283773    0.213567
     62          6           0        1.003825   -2.642142   -0.413505
     63          8           0        1.816576   -1.751702   -0.637896
     64          6           0       -0.454310   -2.774674    1.657818
     65          6           0       -1.860240   -2.530635    2.175799
     66          7           0       -2.584850   -3.619295    2.445357
     67          8           0       -2.347477   -1.408066    2.334355
     68          1           0       -1.606860   -3.829982   -0.394511
     69          1           0       -0.447323   -1.200793    0.102618
     70          1           0        0.166515   -2.155733    2.299136
     71          1           0       -0.195304   -3.830358    1.715681
     72          1           0       -2.182798   -4.545236    2.543279
     73          1           0       -3.568883   -3.479932    2.637078
     74          7           0        1.271419   -3.887465   -0.810573
     75          6           0        2.546474   -4.349224   -1.306872
     76          6           0        3.758871   -4.108122   -0.418410
     77          8           0        3.605677   -4.214257    0.791907
     78          1           0        0.599904   -4.577859   -0.515235
     79          1           0        2.694329   -3.848017   -2.267409
     80          1           0        2.459325   -5.430104   -1.419132
     81          7           0        4.939973   -3.768347   -0.950999
     82          6           0        6.217541   -3.452707   -0.331974
     83          6           0        6.267612   -2.255519    0.604420
     84          8           0        7.388452   -1.913921    0.990072
     85          6           0        6.744058   -4.648827    0.456173
     86          6           0        7.304537   -5.800362   -0.344408
     87          6           0        6.492203   -6.803086   -0.903656
     88          6           0        8.685733   -5.900482   -0.521251
     89          6           0        6.996326   -7.937975   -1.554414
     90          6           0        9.200784   -6.965478   -1.285126
     91          6           0        8.382651   -7.985233   -1.805952
     92          8           0        9.013305   -8.951255   -2.529330
     93          1           0        4.996811   -4.031134   -1.922962
     94          1           0        6.919666   -3.382209   -1.160317
     95          1           0        5.971654   -5.042635    1.109784
     96          1           0        7.550604   -4.283478    1.083393
     97          1           0        5.429263   -6.807853   -0.712253
     98          1           0        9.294600   -5.067517   -0.205894
     99          1           0        6.378424   -8.778570   -1.830272
    100          1           0       10.232391   -6.992610   -1.570873
    101          1           0        9.957630   -8.806829   -2.624682
    102          7           0        5.150550   -1.599515    0.900953
    103          6           0        5.051690   -0.420473    1.733952
    104          6           0        5.786368    0.764742    1.115718
    105          8           0        5.359567    1.880964    1.418521
    106          6           0        5.378207   -0.739808    3.182439
    107          6           0        4.519596   -1.847397    3.772129
    108          6           0        5.313598    0.459081    4.130906
    109          6           0        4.866091   -2.396766    5.152902
    110          1           0        4.285839   -1.877914    0.454445
    111          1           0        3.990508   -0.146855    1.728891
    112          1           0        6.419540   -1.051107    3.178213
    113          1           0        4.479593   -2.746890    3.146181
    114          1           0        3.477776   -1.542688    3.739526
    115          1           0        4.390685    1.032293    4.154581
    116          1           0        5.388486    0.287350    5.206035
    117          1           0        5.973260    1.240101    3.751625
    118          1           0        4.244243   -3.262644    5.364944
    119          1           0        5.895020   -2.751367    5.210895
    120          1           0        4.780219   -1.655610    5.947329
    121          7           0        6.872059    0.640362    0.355190
    122          6           0        7.341274    1.556190   -0.659352
    123          6           0        8.069993    2.763563   -0.094889
    124          8           0        8.380980    3.615063   -0.930195
    125          6           0        8.311121    0.837179   -1.591619
    126          8           0        7.704864   -0.369637   -1.978592
    127          1           0        7.188459   -0.291450    0.153898
    128          1           0        6.540436    2.008435   -1.256455
    129          1           0        9.124452    0.612395   -0.899619
    130          1           0        8.405954    1.431836   -2.505725
    131          1           0        8.387450   -1.019799   -2.145522
    132          7           0        8.197275    2.857461    1.233412
    133          6           0        8.043799    4.065110    2.024000
    134          6           0        7.181743    5.093673    1.319148
    135          8           0        7.594751    6.225996    1.032322
    136          6           0        9.464304    4.582298    2.241219
    137          1           0        8.160349    1.987755    1.750662
    138          1           0        7.585973    3.892472    2.992293
    139          1           0        9.528817    5.309779    3.049680
    140          1           0       10.087792    3.755171    2.606352
    141          1           0        9.953046    4.959175    1.347298
    142          7           0        5.965988    4.658889    0.997586
    143          6           0        5.072426    5.338827    0.084005
    144          6           0        3.607716    5.207412    0.452725
    145          8           0        3.315196    4.193603    1.088746
    146          6           0        5.280158    4.873047   -1.355959
    147          1           0        5.637990    3.736740    1.283693
    148          1           0        5.298158    6.409164    0.147444
    149          1           0        4.499367    5.274187   -2.003919
    150          1           0        6.264895    5.179108   -1.719715
    151          1           0        5.179615    3.782047   -1.420071
    152          7           0        2.820999    6.172024   -0.024456
    153          6           0        1.393904    6.305730    0.092678
    154          6           0        0.942845    6.312849    1.555482
    155          8           0       -0.062580    5.739805    1.959141
    156          6           0        0.684760    5.255495   -0.763547
    157          6           0        1.170352    5.312006   -2.213756
    158          6           0        0.313957    4.441035   -3.127264
    159          8           0       -0.758213    4.890266   -3.584475
    160          8           0        0.631575    3.294532   -3.493802
    161          1           0        3.250493    6.895614   -0.594064
    162          1           0        1.288633    7.378180   -0.114129
    163          1           0       -0.345611    5.595554   -0.791765
    164          1           0        0.744473    4.276103   -0.298545
    165          1           0        2.222614    5.070600   -2.331099
    166          1           0        1.179926    6.335102   -2.573452
    167          7           0        1.747437    6.801384    2.494665
    168          6           0        1.526676    6.859414    3.926306
    169          1           0        0.788181    7.629774    4.148223
    170          1           0        1.160899    5.894528    4.277038
    171          1           0        2.463439    7.098728    4.429088
    172          1           0        2.524980    7.351240    2.166051
    173         20           0       -0.961773    1.307289   -3.654758
    174          8           0       -2.089408   -0.307204   -5.300525
    175          1           0       -2.966386   -0.069906   -4.991979
    176          1           0       -2.203188   -0.462788   -6.235110
 ---------------------------------------------------------------------
 Rotational constants (GHZ):           0.0188987           0.0081478           0.0067212
 Standard basis: SVP (5D, 7F)
 There are  1809 symmetry adapted cartesian basis functions of A   symmetry.
 There are  1717 symmetry adapted basis functions of A   symmetry.
  1717 basis functions,  2922 primitive gaussians,  1809 cartesian basis functions
   358 alpha electrons      358 beta electrons
       nuclear repulsion energy     18565.1615146454 Hartrees.
 NAtoms=  176 NActive=  176 NUniq=  176 SFac= 1.00D+00 NAtFMM=   60 NAOKFM=T Big=T
 Integral buffers will be    131072 words long.
 Raffenetti 2 integral format.
 Two-electron integral symmetry is turned on.
 One-electron integrals computed using PRISM.
 NBasis=  1717 RedAO= T EigKep=  2.95D-04  NBF=  1717
 NBsUse=  1717 1.00D-06 EigRej= -1.00D+00 NBFU=  1717
 ExpMin= 1.98D-02 ExpMax= 3.51D+04 ExpMxC= 5.28D+03 IAcc=3 IRadAn=         5 AccDes= 0.00D+00
 Harris functional with IExCor=  402 and IRadAn=       5 diagonalized for initial guess.
 HarFok:  IExCor=  402 AccDes= 0.00D+00 IRadAn=         5 IDoV= 1 UseB2=F ITyADJ=14
 ICtDFT=  3500011 ScaDFX=  1.000000  1.000000  1.000000  1.000000
 FoFCou: FMM=F IPFlag=           0 FMFlag=      100000 FMFlg1=        2001
         NFxFlg=           0 DoJE=T BraDBF=F KetDBF=T FulRan=T
         wScrn=  0.000000 ICntrl=       500 IOpCl=  0 I1Cent=   200000004 NGrid=           0
         NMat0=    1 NMatS0=      1 NMatT0=    0 NMatD0=    1 NMtDS0=    0 NMtDT0=    0
 Petite list used in FoFCou.
 Requested convergence on RMS density matrix=1.00D-08 within 128 cycles.
 Requested convergence on MAX density matrix=1.00D-06.
 Requested convergence on             energy=1.00D-06.
 No special actions if energy rises.
 EnCoef did   100 forward-backward iterations
 EnCoef did     6 forward-backward iterations
 EnCoef did   100 forward-backward iterations
 Rare condition: small coef for last iteration:  0.000D+00
 EnCoef did   100 forward-backward iterations
 EnCoef did   100 forward-backward iterations
 Rare condition: small coef for last iteration:  0.000D+00
 EnCoef did   100 forward-backward iterations
 EnCoef did   100 forward-backward iterations
 Rare condition: small coef for last iteration:  0.692D-15
 Restarting incremental Fock formation.
 EnCoef did    22 forward-backward iterations
 Rare condition: small coef for last iteration:  0.736D-05
 EnCoef did    22 forward-backward iterations
 SCF Done:  E(RB3LYP) =  -5333.35523579     A.U. after   35 cycles
            NFock= 35  Conv=0.58D-09     -V/T= 2.0081
 SCF density gives NOpUse=  1 NOpAll=  1.
 Hyperfine terms turned off by default for NAtoms > 100.

 **********************************************************************

            Population analysis using the SCF density.

 **********************************************************************

 Orbital symmetries:
 BldTbl:  Degeneracy threshold= 1.00D-02
       Occupied  (A) (A) (A) (A) (A) (A) (A) (A) (A) (A) (A) (A)
                 (A) (A) (A) (A) (A) (A) (A) (A) (A) (A) (A) (A)
                 (A) (A) (A) (A) (A) (A) (A) (A) (A) (A) (A) (A)
                 (A) (A) (A) (A) (A) (A) (A) (A) (A) (A) (A) (A)
                 (A) (A) (A) (A) (A) (A) (A) (A) (A) (A) (A) (A)
                 (A) (A) (A) (A) (A) (A) (A) (A) (A) (A) (A) (A)
                 (A) (A) (A) (A) (A) (A) (A) (A) (A) (A) (A) (A)
                 (A) (A) (A) (A) (A) (A) (A) (A) (A) (A) (A) (A)
                 (A) (A) (A) (A) (A) (A) (A) (A) (A) (A) (A) (A)
                 (A) (A) (A) (A) (A) (A) (A) (A) (A) (A) (A) (A)
                 (A) (A) (A) (A) (A) (A) (A) (A) (A) (A) (A) (A)
                 (A) (A) (A) (A) (A) (A) (A) (A) (A) (A) (A) (A)
                 (A) (A) (A) (A) (A) (A) (A) (A) (A) (A) (A) (A)
                 (A) (A) (A) (A) (A) (A) (A) (A) (A) (A) (A) (A)
                 (A) (A) (A) (A) (A) (A) (A) (A) (A) (A) (A) (A)
                 (A) (A) (A) (A) (A) (A) (A) (A) (A) (A) (A) (A)
                 (A) (A) (A) (A) (A) (A) (A) (A) (A) (A) (A) (A)
                 (A) (A) (A) (A) (A) (A) (A) (A) (A) (A) (A) (A)
                 (A) (A) (A) (A) (A) (A) (A) (A) (A) (A) (A) (A)
                 (A) (A) (A) (A) (A) (A) (A) (A) (A) (A) (A) (A)
                 (A) (A) (A) (A) (A) (A) (A) (A) (A) (A) (A) (A)
                 (A) (A) (A) (A) (A) (A) (A) (A) (A) (A) (A) (A)
                 (A) (A) (A) (A) (A) (A) (A) (A) (A) (A) (A) (A)
                 (A) (A) (A) (A) (A) (A) (A) (A) (A) (A) (A) (A)
                 (A) (A) (A) (A) (A) (A) (A) (A) (A) (A) (A) (A)
                 (A) (A) (A) (A) (A) (A) (A) (A) (A) (A) (A) (A)
                 (A) (A) (A) (A) (A) (A) (A) (A) (A) (A) (A) (A)
                 (A) (A) (A) (A) (A) (A) (A) (A) (A) (A) (A) (A)
                 (A) (A) (A) (A) (A) (A) (A) (A) (A) (A) (A) (A)
                 (A) (A) (A) (A) (A) (A) (A) (A) (A) (A)
       Virtual   (A) (A) (A) (A) (A) (A) (A) (A) (A) (A) (A) (A)
                 (A) (A) (A) (A) (A) (A) (A) (A) (A) (A) (A) (A)
                 (A) (A) (A) (A) (A) (A) (A) (A) (A) (A) (A) (A)
                 (A) (A) (A) (A) (A) (A) (A) (A) (A) (A) (A) (A)
                 (A) (A) (A) (A) (A) (A) (A) (A) (A) (A) (A) (A)
                 (A) (A) (A) (A) (A) (A) (A) (A) (A) (A) (A) (A)
                 (A) (A) (A) (A) (A) (A) (A) (A) (A) (A) (A) (A)
                 (A) (A) (A) (A) (A) (A) (A) (A) (A) (A) (A) (A)
                 (A) (A) (A) (A) (A) (A) (A) (A) (A) (A) (A) (A)
                 (A) (A) (A) (A) (A) (A) (A) (A) (A) (A) (A) (A)
                 (A) (A) (A) (A) (A) (A) (A) (A) (A) (A) (A) (A)
                 (A) (A) (A) (A) (A) (A) (A) (A) (A) (A) (A) (A)
                 (A) (A) (A) (A) (A) (A) (A) (A) (A) (A) (A) (A)
                 (A) (A) (A) (A) (A) (A) (A) (A) (A) (A) (A) (A)
                 (A) (A) (A) (A) (A) (A) (A) (A) (A) (A) (A) (A)
                 (A) (A) (A) (A) (A) (A) (A) (A) (A) (A) (A) (A)
                 (A) (A) (A) (A) (A) (A) (A) (A) (A) (A) (A) (A)
                 (A) (A) (A) (A) (A) (A) (A) (A) (A) (A) (A) (A)
                 (A) (A) (A) (A) (A) (A) (A) (A) (A) (A) (A) (A)
                 (A) (A) (A) (A) (A) (A) (A) (A) (A) (A) (A) (A)
                 (A) (A) (A) (A) (A) (A) (A) (A) (A) (A) (A) (A)
                 (A) (A) (A) (A) (A) (A) (A) (A) (A) (A) (A) (A)
                 (A) (A) (A) (A) (A) (A) (A) (A) (A) (A) (A) (A)
                 (A) (A) (A) (A) (A) (A) (A) (A) (A) (A) (A) (A)
                 (A) (A) (A) (A) (A) (A) (A) (A) (A) (A) (A) (A)
                 (A) (A) (A) (A) (A) (A) (A) (A) (A) (A) (A) (A)
                 (A) (A) (A) (A) (A) (A) (A) (A) (A) (A) (A) (A)
                 (A) (A) (A) (A) (A) (A) (A) (A) (A) (A) (A) (A)
                 (A) (A) (A) (A) (A) (A) (A) (A) (A) (A) (A) (A)
                 (A) (A) (A) (A) (A) (A) (A) (A) (A) (A) (A) (A)
                 (A) (A) (A) (A) (A) (A) (A) (A) (A) (A) (A) (A)
                 (A) (A) (A) (A) (A) (A) (A) (A) (A) (A) (A) (A)
                 (A) (A) (A) (A) (A) (A) (A) (A) (A) (A) (A) (A)
                 (A) (A) (A) (A) (A) (A) (A) (A) (A) (A) (A) (A)
                 (A) (A) (A) (A) (A) (A) (A) (A) (A) (A) (A) (A)
                 (A) (A) (A) (A) (A) (A) (A) (A) (A) (A) (A) (A)
                 (A) (A) (A) (A) (A) (A) (A) (A) (A) (A) (A) (A)
                 (A) (A) (A) (A) (A) (A) (A) (A) (A) (A) (A) (A)
                 (A) (A) (A) (A) (A) (A) (A) (A) (A) (A) (A) (A)
                 (A) (A) (A) (A) (A) (A) (A) (A) (A) (A) (A) (A)
                 (A) (A) (A) (A) (A) (A) (A) (A) (A) (A) (A) (A)
                 (A) (A) (A) (A) (A) (A) (A) (A) (A) (A) (A) (A)
                 (A) (A) (A) (A) (A) (A) (A) (A) (A) (A) (A) (A)
                 (A) (A) (A) (A) (A) (A) (A) (A) (A) (A) (A) (A)
                 (A) (A) (A) (A) (A) (A) (A) (A) (A) (A) (A) (A)
                 (A) (A) (A) (A) (A) (A) (A) (A) (A) (A) (A) (A)
                 (A) (A) (A) (A) (A) (A) (A) (A) (A) (A) (A) (A)
                 (A) (A) (A) (A) (A) (A) (A) (A) (A) (A) (A) (A)
                 (A) (A) (A) (A) (A) (A) (A) (A) (A) (A) (A) (A)
                 (A) (A) (A) (A) (A) (A) (A) (A) (A) (A) (A) (A)
                 (A) (A) (A) (A) (A) (A) (A) (A) (A) (A) (A) (A)
                 (A) (A) (A) (A) (A) (A) (A) (A) (A) (A) (A) (A)
                 (A) (A) (A) (A) (A) (A) (A) (A) (A) (A) (A) (A)
                 (A) (A) (A) (A) (A) (A) (A) (A) (A) (A) (A) (A)
                 (A) (A) (A) (A) (A) (A) (A) (A) (A) (A) (A) (A)
                 (A) (A) (A) (A) (A) (A) (A) (A) (A) (A) (A) (A)
                 (A) (A) (A) (A) (A) (A) (A) (A) (A) (A) (A) (A)
                 (A) (A) (A) (A) (A) (A) (A) (A) (A) (A) (A) (A)
                 (A) (A) (A) (A) (A) (A) (A) (A) (A) (A) (A) (A)
                 (A) (A) (A) (A) (A) (A) (A) (A) (A) (A) (A) (A)
                 (A) (A) (A) (A) (A) (A) (A) (A) (A) (A) (A) (A)
                 (A) (A) (A) (A) (A) (A) (A) (A) (A) (A) (A) (A)
                 (A) (A) (A) (A) (A) (A) (A) (A) (A) (A) (A) (A)
                 (A) (A) (A) (A) (A) (A) (A) (A) (A) (A) (A) (A)
                 (A) (A) (A) (A) (A) (A) (A) (A) (A) (A) (A) (A)
                 (A) (A) (A) (A) (A) (A) (A) (A) (A) (A) (A) (A)
                 (A) (A) (A) (A) (A) (A) (A) (A) (A) (A) (A) (A)
                 (A) (A) (A) (A) (A) (A) (A) (A) (A) (A) (A) (A)
                 (A) (A) (A) (A) (A) (A) (A) (A) (A) (A) (A) (A)
                 (A) (A) (A) (A) (A) (A) (A) (A) (A) (A) (A) (A)
                 (A) (A) (A) (A) (A) (A) (A) (A) (A) (A) (A) (A)
                 (A) (A) (A) (A) (A) (A) (A) (A) (A) (A) (A) (A)
                 (A) (A) (A) (A) (A) (A) (A) (A) (A) (A) (A) (A)
                 (A) (A) (A) (A) (A) (A) (A) (A) (A) (A) (A) (A)
                 (A) (A) (A) (A) (A) (A) (A) (A) (A) (A) (A) (A)
                 (A) (A) (A) (A) (A) (A) (A) (A) (A) (A) (A) (A)
                 (A) (A) (A) (A) (A) (A) (A) (A) (A) (A) (A) (A)
                 (A) (A) (A) (A) (A) (A) (A) (A) (A) (A) (A) (A)
                 (A) (A) (A) (A) (A) (A) (A) (A) (A) (A) (A) (A)
                 (A) (A) (A) (A) (A) (A) (A) (A) (A) (A) (A) (A)
                 (A) (A) (A) (A) (A) (A) (A) (A) (A) (A) (A) (A)
                 (A) (A) (A) (A) (A) (A) (A) (A) (A) (A) (A) (A)
                 (A) (A) (A) (A) (A) (A) (A) (A) (A) (A) (A) (A)
                 (A) (A) (A) (A) (A) (A) (A) (A) (A) (A) (A) (A)
                 (A) (A) (A) (A) (A) (A) (A) (A) (A) (A) (A) (A)
                 (A) (A) (A) (A) (A) (A) (A) (A) (A) (A) (A) (A)
                 (A) (A) (A) (A) (A) (A) (A) (A) (A) (A) (A) (A)
                 (A) (A) (A) (A) (A) (A) (A) (A) (A) (A) (A) (A)
                 (A) (A) (A) (A) (A) (A) (A) (A) (A) (A) (A) (A)
                 (A) (A) (A) (A) (A) (A) (A) (A) (A) (A) (A) (A)
                 (A) (A) (A) (A) (A) (A) (A) (A) (A) (A) (A) (A)
                 (A) (A) (A) (A) (A) (A) (A) (A) (A) (A) (A) (A)
                 (A) (A) (A) (A) (A) (A) (A) (A) (A) (A) (A) (A)
                 (A) (A) (A) (A) (A) (A) (A) (A) (A) (A) (A) (A)
                 (A) (A) (A) (A) (A) (A) (A) (A) (A) (A) (A) (A)
                 (A) (A) (A) (A) (A) (A) (A) (A) (A) (A) (A) (A)
                 (A) (A) (A) (A) (A) (A) (A) (A) (A) (A) (A) (A)
                 (A) (A) (A) (A) (A) (A) (A) (A) (A) (A) (A) (A)
                 (A) (A) (A) (A) (A) (A) (A) (A) (A) (A) (A) (A)
                 (A) (A) (A) (A) (A) (A) (A) (A) (A) (A) (A) (A)
                 (A) (A) (A) (A) (A) (A) (A) (A) (A) (A) (A) (A)
                 (A) (A) (A) (A) (A) (A) (A) (A) (A) (A) (A) (A)
                 (A) (A) (A) (A) (A) (A) (A) (A) (A) (A) (A) (A)
                 (A) (A) (A) (A) (A) (A) (A) (A) (A) (A) (A) (A)
                 (A) (A) (A) (A) (A) (A) (A) (A) (A) (A) (A) (A)
                 (A) (A) (A) (A) (A) (A) (A) (A) (A) (A) (A) (A)
                 (A) (A) (A) (A) (A) (A) (A) (A) (A) (A) (A) (A)
                 (A) (A) (A) (A) (A) (A) (A) (A) (A) (A) (A) (A)
                 (A) (A) (A) (A) (A) (A) (A) (A) (A) (A) (A) (A)
                 (A) (A) (A) (A) (A) (A) (A) (A) (A) (A) (A) (A)
                 (A) (A) (A) (A) (A) (A) (A) (A) (A) (A) (A) (A)
                 (A) (A) (A) (A) (A) (A) (A) (A) (A) (A) (A) (A)
                 (A) (A) (A) (A) (A) (A) (A) (A) (A) (A) (A) (A)
                 (A) (A) (A)
 The electronic state is 1-A.
 Alpha  occ. eigenvalues -- -145.45919 -19.17435 -19.15589 -19.14787 -19.13222
 Alpha  occ. eigenvalues --  -19.12739 -19.12453 -19.11617 -19.09870 -19.08966
 Alpha  occ. eigenvalues --  -19.08323 -19.08163 -19.08087 -19.07453 -19.07442
 Alpha  occ. eigenvalues --  -19.07046 -19.06927 -19.06867 -19.06602 -19.05493
 Alpha  occ. eigenvalues --  -19.03931 -19.02302 -18.95812 -18.95779 -15.51803
 Alpha  occ. eigenvalues --  -14.56767 -14.39573 -14.38806 -14.38600 -14.37161
 Alpha  occ. eigenvalues --  -14.35299 -14.34651 -14.34603 -14.34540 -14.34175
 Alpha  occ. eigenvalues --  -14.33491 -14.33375 -14.32938 -14.31463 -14.29833
 Alpha  occ. eigenvalues --  -12.65429 -12.65394 -12.65302 -10.34007 -10.31600
 Alpha  occ. eigenvalues --  -10.31347 -10.31226 -10.30601 -10.28800 -10.28040
 Alpha  occ. eigenvalues --  -10.27399 -10.27397 -10.26839 -10.26798 -10.26703
 Alpha  occ. eigenvalues --  -10.26678 -10.26624 -10.26275 -10.26207 -10.26132
 Alpha  occ. eigenvalues --  -10.26078 -10.25491 -10.25216 -10.24611 -10.23981
 Alpha  occ. eigenvalues --  -10.23736 -10.23558 -10.23399 -10.23282 -10.23087
 Alpha  occ. eigenvalues --  -10.22919 -10.22764 -10.22055 -10.21749 -10.21471
 Alpha  occ. eigenvalues --  -10.21072 -10.20791 -10.20692 -10.20659 -10.20634
 Alpha  occ. eigenvalues --  -10.20614 -10.20417 -10.20225 -10.19719 -10.19053
 Alpha  occ. eigenvalues --  -10.19024 -10.17397 -10.17372 -10.17157 -10.16906
 Alpha  occ. eigenvalues --  -10.16547 -10.16539 -10.15865 -10.15754 -10.15651
 Alpha  occ. eigenvalues --  -10.15376 -10.11999  -1.88320  -1.15965  -1.15678
 Alpha  occ. eigenvalues --   -1.15072  -1.12459  -1.06752  -1.06178  -1.05776
 Alpha  occ. eigenvalues --   -1.05207  -1.04967  -1.03754  -1.02915  -1.02836
 Alpha  occ. eigenvalues --   -1.01640  -1.01497  -1.01395  -1.01355  -1.01013
 Alpha  occ. eigenvalues --   -1.00590  -1.00348  -0.99662  -0.99383  -0.98793
 Alpha  occ. eigenvalues --   -0.96873  -0.96388  -0.95660  -0.95160  -0.94099
 Alpha  occ. eigenvalues --   -0.92733  -0.92533  -0.91575  -0.91206  -0.91019
 Alpha  occ. eigenvalues --   -0.90842  -0.90564  -0.89808  -0.89297  -0.89086
 Alpha  occ. eigenvalues --   -0.88539  -0.88139  -0.87673  -0.86315  -0.86285
 Alpha  occ. eigenvalues --   -0.82041  -0.81636  -0.81403  -0.80529  -0.80484
 Alpha  occ. eigenvalues --   -0.78390  -0.77707  -0.77343  -0.77133  -0.75712
 Alpha  occ. eigenvalues --   -0.75650  -0.75448  -0.74871  -0.73746  -0.73612
 Alpha  occ. eigenvalues --   -0.73446  -0.73106  -0.71876  -0.71853  -0.71023
 Alpha  occ. eigenvalues --   -0.70193  -0.69417  -0.68548  -0.68280  -0.67424
 Alpha  occ. eigenvalues --   -0.67299  -0.65461  -0.65265  -0.64693  -0.63889
 Alpha  occ. eigenvalues --   -0.63550  -0.63384  -0.63159  -0.62863  -0.62630
 Alpha  occ. eigenvalues --   -0.62058  -0.61666  -0.60475  -0.60387  -0.60358
 Alpha  occ. eigenvalues --   -0.59863  -0.59688  -0.59623  -0.58536  -0.58506
 Alpha  occ. eigenvalues --   -0.58081  -0.57997  -0.56981  -0.56390  -0.56328
 Alpha  occ. eigenvalues --   -0.56323  -0.56042  -0.55912  -0.55808  -0.55794
 Alpha  occ. eigenvalues --   -0.55557  -0.55200  -0.54470  -0.54258  -0.53995
 Alpha  occ. eigenvalues --   -0.53552  -0.53226  -0.52997  -0.51987  -0.51769
 Alpha  occ. eigenvalues --   -0.51671  -0.51576  -0.51553  -0.50827  -0.50634
 Alpha  occ. eigenvalues --   -0.49924  -0.49905  -0.49533  -0.49039  -0.48783
 Alpha  occ. eigenvalues --   -0.48708  -0.48268  -0.48106  -0.47947  -0.47745
 Alpha  occ. eigenvalues --   -0.47677  -0.47581  -0.47204  -0.46971  -0.46295
 Alpha  occ. eigenvalues --   -0.46113  -0.45778  -0.45726  -0.45673  -0.45489
 Alpha  occ. eigenvalues --   -0.45239  -0.45062  -0.44987  -0.44890  -0.44799
 Alpha  occ. eigenvalues --   -0.44562  -0.44513  -0.44329  -0.44169  -0.44138
 Alpha  occ. eigenvalues --   -0.43952  -0.43684  -0.43585  -0.43391  -0.43217
 Alpha  occ. eigenvalues --   -0.42866  -0.42824  -0.42767  -0.42705  -0.42429
 Alpha  occ. eigenvalues --   -0.42365  -0.42249  -0.42192  -0.42059  -0.42041
 Alpha  occ. eigenvalues --   -0.41625  -0.41172  -0.40983  -0.40825  -0.40740
 Alpha  occ. eigenvalues --   -0.40574  -0.40437  -0.40331  -0.39955  -0.39554
 Alpha  occ. eigenvalues --   -0.39391  -0.39312  -0.39260  -0.39109  -0.39055
 Alpha  occ. eigenvalues --   -0.38985  -0.38833  -0.38662  -0.38553  -0.38455
 Alpha  occ. eigenvalues --   -0.38330  -0.38175  -0.38112  -0.38084  -0.37963
 Alpha  occ. eigenvalues --   -0.37881  -0.37464  -0.37382  -0.37214  -0.37084
 Alpha  occ. eigenvalues --   -0.36918  -0.36772  -0.36703  -0.36628  -0.36388
 Alpha  occ. eigenvalues --   -0.36275  -0.36108  -0.35704  -0.35356  -0.35320
 Alpha  occ. eigenvalues --   -0.35205  -0.35115  -0.34962  -0.34824  -0.34615
 Alpha  occ. eigenvalues --   -0.34598  -0.34546  -0.34492  -0.33953  -0.33783
 Alpha  occ. eigenvalues --   -0.33335  -0.33219  -0.33127  -0.33069  -0.32746
 Alpha  occ. eigenvalues --   -0.32715  -0.32192  -0.31892  -0.31734  -0.31305
 Alpha  occ. eigenvalues --   -0.31186  -0.30889  -0.30711  -0.30076  -0.29831
 Alpha  occ. eigenvalues --   -0.28782  -0.28669  -0.27987  -0.27469  -0.27346
 Alpha  occ. eigenvalues --   -0.27229  -0.27170  -0.26890  -0.26802  -0.26798
 Alpha  occ. eigenvalues --   -0.26309  -0.26105  -0.25713  -0.25655  -0.25312
 Alpha  occ. eigenvalues --   -0.24434  -0.24258  -0.24197  -0.23971  -0.23959
 Alpha  occ. eigenvalues --   -0.23771  -0.23644  -0.23410  -0.23397  -0.23177
 Alpha  occ. eigenvalues --   -0.22905  -0.22647  -0.22622  -0.22545  -0.22385
 Alpha  occ. eigenvalues --   -0.22154  -0.21430  -0.20296  -0.19975  -0.17990
 Alpha  occ. eigenvalues --   -0.13549  -0.13312  -0.10541
 Alpha virt. eigenvalues --   -0.09627  -0.05963  -0.03595  -0.03482  -0.03376
 Alpha virt. eigenvalues --   -0.03001  -0.01748  -0.01103  -0.01016  -0.00900
 Alpha virt. eigenvalues --   -0.00660   0.00234   0.00324   0.01056   0.01644
 Alpha virt. eigenvalues --    0.01747   0.02029   0.02228   0.02893   0.02998
 Alpha virt. eigenvalues --    0.03096   0.03352   0.03481   0.03528   0.03651
 Alpha virt. eigenvalues --    0.03933   0.04040   0.04563   0.04734   0.04848
 Alpha virt. eigenvalues --    0.04926   0.05108   0.05546   0.06030   0.06334
 Alpha virt. eigenvalues --    0.06396   0.06521   0.06660   0.06804   0.06975
 Alpha virt. eigenvalues --    0.07383   0.07430   0.07624   0.07758   0.08124
 Alpha virt. eigenvalues --    0.08176   0.08634   0.08829   0.08932   0.09290
 Alpha virt. eigenvalues --    0.09627   0.09708   0.09715   0.09981   0.10162
 Alpha virt. eigenvalues --    0.10502   0.10597   0.10723   0.11186   0.11355
 Alpha virt. eigenvalues --    0.11474   0.11571   0.11630   0.11763   0.11998
 Alpha virt. eigenvalues --    0.12126   0.12333   0.12793   0.12841   0.12963
 Alpha virt. eigenvalues --    0.13393   0.13539   0.13608   0.13640   0.13828
 Alpha virt. eigenvalues --    0.14100   0.14183   0.14329   0.14620   0.14821
 Alpha virt. eigenvalues --    0.14870   0.15000   0.15153   0.15227   0.15288
 Alpha virt. eigenvalues --    0.15396   0.15637   0.15710   0.15957   0.16109
 Alpha virt. eigenvalues --    0.16308   0.16555   0.16601   0.16883   0.16946
 Alpha virt. eigenvalues --    0.16997   0.17324   0.17491   0.17666   0.17729
 Alpha virt. eigenvalues --    0.17763   0.17872   0.18063   0.18582   0.18710
 Alpha virt. eigenvalues --    0.18737   0.18974   0.19116   0.19263   0.19477
 Alpha virt. eigenvalues --    0.19716   0.19880   0.19996   0.20020   0.20224
 Alpha virt. eigenvalues --    0.20415   0.20972   0.21074   0.21284   0.21525
 Alpha virt. eigenvalues --    0.21717   0.22042   0.22343   0.22507   0.22768
 Alpha virt. eigenvalues --    0.22893   0.23338   0.23458   0.23615   0.23741
 Alpha virt. eigenvalues --    0.23994   0.24091   0.24246   0.24335   0.24397
 Alpha virt. eigenvalues --    0.24633   0.24655   0.25001   0.25338   0.25447
 Alpha virt. eigenvalues --    0.25818   0.25952   0.26093   0.26483   0.26631
 Alpha virt. eigenvalues --    0.27440   0.27556   0.27669   0.27829   0.27989
 Alpha virt. eigenvalues --    0.28064   0.28281   0.28429   0.28769   0.28860
 Alpha virt. eigenvalues --    0.28970   0.29114   0.29364   0.29850   0.30011
 Alpha virt. eigenvalues --    0.30170   0.30236   0.30603   0.30958   0.31061
 Alpha virt. eigenvalues --    0.31319   0.31613   0.31672   0.31999   0.32552
 Alpha virt. eigenvalues --    0.33381   0.33473   0.34101   0.34212   0.34297
 Alpha virt. eigenvalues --    0.34854   0.34907   0.35594   0.35808   0.36095
 Alpha virt. eigenvalues --    0.36253   0.36745   0.37098   0.37611   0.37746
 Alpha virt. eigenvalues --    0.37848   0.38076   0.38168   0.38474   0.38522
 Alpha virt. eigenvalues --    0.38935   0.39127   0.39310   0.39379   0.39484
 Alpha virt. eigenvalues --    0.40034   0.40140   0.40470   0.40798   0.40974
 Alpha virt. eigenvalues --    0.41229   0.41264   0.41636   0.41673   0.41822
 Alpha virt. eigenvalues --    0.42374   0.42527   0.42713   0.43106   0.43260
 Alpha virt. eigenvalues --    0.43503   0.43949   0.44398   0.44546   0.44577
 Alpha virt. eigenvalues --    0.44925   0.45041   0.45289   0.45336   0.45475
 Alpha virt. eigenvalues --    0.45624   0.45786   0.45997   0.46153   0.46259
 Alpha virt. eigenvalues --    0.46385   0.46648   0.46966   0.47050   0.47074
 Alpha virt. eigenvalues --    0.47292   0.47686   0.47712   0.48074   0.48315
 Alpha virt. eigenvalues --    0.48448   0.48589   0.48758   0.48825   0.49269
 Alpha virt. eigenvalues --    0.49384   0.49467   0.50044   0.50406   0.50607
 Alpha virt. eigenvalues --    0.50754   0.50909   0.50996   0.51362   0.51490
 Alpha virt. eigenvalues --    0.51566   0.51815   0.51901   0.52053   0.52605
 Alpha virt. eigenvalues --    0.52651   0.52773   0.52793   0.53059   0.53387
 Alpha virt. eigenvalues --    0.53492   0.53726   0.53826   0.53932   0.54132
 Alpha virt. eigenvalues --    0.54296   0.54395   0.54587   0.55057   0.55156
 Alpha virt. eigenvalues --    0.55246   0.55479   0.55647   0.55859   0.55891
 Alpha virt. eigenvalues --    0.56246   0.56384   0.56918   0.57112   0.57293
 Alpha virt. eigenvalues --    0.57321   0.57611   0.57838   0.57909   0.58095
 Alpha virt. eigenvalues --    0.58182   0.58330   0.58653   0.58778   0.58866
 Alpha virt. eigenvalues --    0.58916   0.59112   0.59264   0.59309   0.59421
 Alpha virt. eigenvalues --    0.59838   0.60107   0.60197   0.60261   0.60367
 Alpha virt. eigenvalues --    0.60515   0.60690   0.60786   0.60864   0.61038
 Alpha virt. eigenvalues --    0.61049   0.61224   0.61275   0.61341   0.61566
 Alpha virt. eigenvalues --    0.61723   0.61871   0.61891   0.62015   0.62269
 Alpha virt. eigenvalues --    0.62572   0.62819   0.62871   0.62936   0.63013
 Alpha virt. eigenvalues --    0.63172   0.63261   0.63314   0.63665   0.63764
 Alpha virt. eigenvalues --    0.63943   0.63952   0.64085   0.64137   0.64287
 Alpha virt. eigenvalues --    0.64317   0.64417   0.64587   0.64699   0.64888
 Alpha virt. eigenvalues --    0.65161   0.65236   0.65389   0.65536   0.65570
 Alpha virt. eigenvalues --    0.65626   0.65838   0.65957   0.66153   0.66193
 Alpha virt. eigenvalues --    0.66349   0.66380   0.66559   0.66631   0.66692
 Alpha virt. eigenvalues --    0.66768   0.66810   0.66882   0.67042   0.67083
 Alpha virt. eigenvalues --    0.67245   0.67559   0.67594   0.67669   0.67747
 Alpha virt. eigenvalues --    0.67821   0.67906   0.67959   0.68039   0.68208
 Alpha virt. eigenvalues --    0.68293   0.68345   0.68477   0.68657   0.68794
 Alpha virt. eigenvalues --    0.68899   0.68970   0.69019   0.69258   0.69419
 Alpha virt. eigenvalues --    0.69550   0.69667   0.69785   0.69839   0.69920
 Alpha virt. eigenvalues --    0.70118   0.70139   0.70207   0.70358   0.70466
 Alpha virt. eigenvalues --    0.70550   0.70638   0.70969   0.71114   0.71174
 Alpha virt. eigenvalues --    0.71187   0.71275   0.71320   0.71571   0.71607
 Alpha virt. eigenvalues --    0.71719   0.71869   0.72309   0.72428   0.72442
 Alpha virt. eigenvalues --    0.72495   0.72612   0.72880   0.73009   0.73242
 Alpha virt. eigenvalues --    0.73621   0.73685   0.73839   0.73945   0.74119
 Alpha virt. eigenvalues --    0.74372   0.74604   0.74616   0.74953   0.75229
 Alpha virt. eigenvalues --    0.75284   0.75465   0.75763   0.75823   0.75987
 Alpha virt. eigenvalues --    0.76000   0.76427   0.76504   0.76872   0.76955
 Alpha virt. eigenvalues --    0.77134   0.77271   0.77424   0.77650   0.77932
 Alpha virt. eigenvalues --    0.78495   0.78676   0.79092   0.79099   0.79346
 Alpha virt. eigenvalues --    0.79548   0.80042   0.80266   0.80303   0.80606
 Alpha virt. eigenvalues --    0.80787   0.80967   0.81269   0.81347   0.81623
 Alpha virt. eigenvalues --    0.81830   0.82009   0.82644   0.83009   0.83280
 Alpha virt. eigenvalues --    0.83825   0.84044   0.84379   0.84746   0.85099
 Alpha virt. eigenvalues --    0.85273   0.85432   0.86116   0.86217   0.86385
 Alpha virt. eigenvalues --    0.86456   0.87312   0.87412   0.87583   0.87720
 Alpha virt. eigenvalues --    0.87982   0.88272   0.88825   0.89064   0.89155
 Alpha virt. eigenvalues --    0.89577   0.89740   0.90184   0.90247   0.90997
 Alpha virt. eigenvalues --    0.91083   0.91420   0.91794   0.92146   0.92377
 Alpha virt. eigenvalues --    0.92641   0.92922   0.93348   0.93702   0.93823
 Alpha virt. eigenvalues --    0.94080   0.94591   0.94760   0.95230   0.95277
 Alpha virt. eigenvalues --    0.95599   0.95856   0.96105   0.96390   0.96514
 Alpha virt. eigenvalues --    0.96671   0.96752   0.96825   0.97105   0.97536
 Alpha virt. eigenvalues --    0.97829   0.98314   0.98413   0.99069   0.99143
 Alpha virt. eigenvalues --    0.99398   0.99727   1.00285   1.00316   1.00425
 Alpha virt. eigenvalues --    1.00825   1.01055   1.01328   1.01896   1.02245
 Alpha virt. eigenvalues --    1.02422   1.02567   1.02740   1.02948   1.03186
 Alpha virt. eigenvalues --    1.03752   1.03899   1.04165   1.04399   1.04749
 Alpha virt. eigenvalues --    1.04937   1.05250   1.05519   1.05704   1.05792
 Alpha virt. eigenvalues --    1.06159   1.06317   1.06519   1.06680   1.06845
 Alpha virt. eigenvalues --    1.07502   1.07872   1.07951   1.08191   1.08503
 Alpha virt. eigenvalues --    1.08681   1.08894   1.09416   1.09735   1.10139
 Alpha virt. eigenvalues --    1.10216   1.10262   1.10732   1.11197   1.11464
 Alpha virt. eigenvalues --    1.11774   1.11891   1.12502   1.12694   1.12886
 Alpha virt. eigenvalues --    1.12989   1.13573   1.14010   1.14354   1.14451
 Alpha virt. eigenvalues --    1.15014   1.15693   1.15748   1.16005   1.16110
 Alpha virt. eigenvalues --    1.16852   1.17066   1.17323   1.17454   1.17678
 Alpha virt. eigenvalues --    1.17883   1.18398   1.18594   1.18669   1.18957
 Alpha virt. eigenvalues --    1.19260   1.19556   1.19831   1.19919   1.20186
 Alpha virt. eigenvalues --    1.20307   1.20532   1.20681   1.21235   1.21262
 Alpha virt. eigenvalues --    1.21662   1.21807   1.22092   1.22208   1.22696
 Alpha virt. eigenvalues --    1.22827   1.22977   1.23074   1.23368   1.23464
 Alpha virt. eigenvalues --    1.23988   1.24217   1.24368   1.24653   1.24854
 Alpha virt. eigenvalues --    1.24929   1.25216   1.25339   1.25607   1.26181
 Alpha virt. eigenvalues --    1.26332   1.26553   1.26813   1.26987   1.27072
 Alpha virt. eigenvalues --    1.27280   1.27498   1.27630   1.28238   1.28554
 Alpha virt. eigenvalues --    1.28725   1.28944   1.29043   1.29670   1.30056
 Alpha virt. eigenvalues --    1.30232   1.30388   1.30795   1.30867   1.31245
 Alpha virt. eigenvalues --    1.31563   1.31678   1.31737   1.32234   1.32905
 Alpha virt. eigenvalues --    1.32959   1.33277   1.33363   1.33698   1.33797
 Alpha virt. eigenvalues --    1.33953   1.34460   1.34492   1.35117   1.35621
 Alpha virt. eigenvalues --    1.35805   1.36660   1.36859   1.37358   1.37586
 Alpha virt. eigenvalues --    1.38125   1.38344   1.38368   1.38602   1.38813
 Alpha virt. eigenvalues --    1.39192   1.39322   1.39683   1.39899   1.40033
 Alpha virt. eigenvalues --    1.40523   1.40692   1.41005   1.41283   1.41552
 Alpha virt. eigenvalues --    1.42282   1.42376   1.42692   1.42852   1.42877
 Alpha virt. eigenvalues --    1.43623   1.43939   1.44320   1.44495   1.44826
 Alpha virt. eigenvalues --    1.45238   1.45333   1.45779   1.45949   1.46010
 Alpha virt. eigenvalues --    1.46525   1.47548   1.47654   1.47951   1.48287
 Alpha virt. eigenvalues --    1.48380   1.48502   1.48756   1.49131   1.49279
 Alpha virt. eigenvalues --    1.49574   1.49816   1.50098   1.50306   1.51059
 Alpha virt. eigenvalues --    1.51145   1.51367   1.51832   1.52215   1.52347
 Alpha virt. eigenvalues --    1.52900   1.53325   1.53436   1.53709   1.54033
 Alpha virt. eigenvalues --    1.54255   1.54501   1.54732   1.55318   1.55543
 Alpha virt. eigenvalues --    1.55748   1.56154   1.56490   1.56504   1.57003
 Alpha virt. eigenvalues --    1.57350   1.58189   1.58440   1.58956   1.59107
 Alpha virt. eigenvalues --    1.59657   1.59851   1.59991   1.60252   1.60530
 Alpha virt. eigenvalues --    1.60947   1.61129   1.62059   1.62394   1.62600
 Alpha virt. eigenvalues --    1.63301   1.63700   1.63821   1.64301   1.64371
 Alpha virt. eigenvalues --    1.64602   1.64801   1.65220   1.65368   1.65501
 Alpha virt. eigenvalues --    1.65876   1.66118   1.66226   1.66414   1.66593
 Alpha virt. eigenvalues --    1.67716   1.68010   1.68255   1.68475   1.68700
 Alpha virt. eigenvalues --    1.68872   1.69430   1.69630   1.70065   1.70394
 Alpha virt. eigenvalues --    1.70741   1.70751   1.71188   1.71244   1.71689
 Alpha virt. eigenvalues --    1.71697   1.72135   1.72276   1.72324   1.72412
 Alpha virt. eigenvalues --    1.72751   1.73128   1.73177   1.73474   1.73674
 Alpha virt. eigenvalues --    1.74079   1.74113   1.74377   1.74561   1.74758
 Alpha virt. eigenvalues --    1.74921   1.75103   1.75214   1.75466   1.75622
 Alpha virt. eigenvalues --    1.75769   1.75932   1.76074   1.76104   1.76469
 Alpha virt. eigenvalues --    1.76588   1.76901   1.77114   1.77237   1.77343
 Alpha virt. eigenvalues --    1.77677   1.77786   1.78012   1.78194   1.78444
 Alpha virt. eigenvalues --    1.78508   1.78613   1.78725   1.78744   1.79021
 Alpha virt. eigenvalues --    1.79125   1.79357   1.79531   1.79786   1.79913
 Alpha virt. eigenvalues --    1.80179   1.80247   1.80549   1.80605   1.80709
 Alpha virt. eigenvalues --    1.80867   1.81055   1.81319   1.81533   1.81566
 Alpha virt. eigenvalues --    1.81801   1.81946   1.81996   1.82072   1.82238
 Alpha virt. eigenvalues --    1.82337   1.82417   1.82946   1.83175   1.83342
 Alpha virt. eigenvalues --    1.83404   1.83545   1.83565   1.83747   1.83960
 Alpha virt. eigenvalues --    1.84241   1.84919   1.85039   1.85253   1.85536
 Alpha virt. eigenvalues --    1.85631   1.85976   1.86073   1.86155   1.86387
 Alpha virt. eigenvalues --    1.86544   1.86650   1.86789   1.87125   1.87375
 Alpha virt. eigenvalues --    1.87432   1.87561   1.87754   1.88020   1.88189
 Alpha virt. eigenvalues --    1.88275   1.88359   1.88561   1.88735   1.88781
 Alpha virt. eigenvalues --    1.89069   1.89112   1.89242   1.89580   1.89922
 Alpha virt. eigenvalues --    1.90045   1.90530   1.90744   1.91057   1.91088
 Alpha virt. eigenvalues --    1.91391   1.91473   1.91698   1.92070   1.92563
 Alpha virt. eigenvalues --    1.92652   1.92758   1.93080   1.93312   1.93338
 Alpha virt. eigenvalues --    1.93463   1.93669   1.93910   1.93928   1.94065
 Alpha virt. eigenvalues --    1.94556   1.94681   1.94927   1.95068   1.95339
 Alpha virt. eigenvalues --    1.95439   1.95744   1.95964   1.96181   1.96200
 Alpha virt. eigenvalues --    1.96455   1.96859   1.96928   1.97199   1.97332
 Alpha virt. eigenvalues --    1.97402   1.97539   1.97561   1.97932   1.98106
 Alpha virt. eigenvalues --    1.98120   1.98215   1.98553   1.98668   1.98966
 Alpha virt. eigenvalues --    1.99272   1.99482   1.99949   2.00092   2.00606
 Alpha virt. eigenvalues --    2.00914   2.01058   2.01117   2.01727   2.01778
 Alpha virt. eigenvalues --    2.01927   2.02404   2.02578   2.02781   2.02910
 Alpha virt. eigenvalues --    2.03387   2.03608   2.03881   2.04424   2.04523
 Alpha virt. eigenvalues --    2.04565   2.05144   2.05178   2.05260   2.05329
 Alpha virt. eigenvalues --    2.05632   2.05788   2.05991   2.06645   2.06805
 Alpha virt. eigenvalues --    2.06820   2.07053   2.07284   2.07489   2.07628
 Alpha virt. eigenvalues --    2.07916   2.07986   2.08220   2.09051   2.09373
 Alpha virt. eigenvalues --    2.09588   2.09935   2.10065   2.10316   2.10650
 Alpha virt. eigenvalues --    2.10971   2.11120   2.11412   2.11659   2.12263
 Alpha virt. eigenvalues --    2.12403   2.12719   2.12953   2.13383   2.13828
 Alpha virt. eigenvalues --    2.13917   2.14256   2.14285   2.14547   2.14921
 Alpha virt. eigenvalues --    2.15285   2.15470   2.15940   2.16452   2.16664
 Alpha virt. eigenvalues --    2.16859   2.16922   2.17035   2.17726   2.17922
 Alpha virt. eigenvalues --    2.18061   2.18496   2.18607   2.18928   2.19192
 Alpha virt. eigenvalues --    2.19250   2.19893   2.19930   2.20197   2.20568
 Alpha virt. eigenvalues --    2.20858   2.21373   2.21949   2.21988   2.22329
 Alpha virt. eigenvalues --    2.22730   2.23104   2.23681   2.23938   2.24373
 Alpha virt. eigenvalues --    2.24779   2.25581   2.25711   2.26067   2.26128
 Alpha virt. eigenvalues --    2.26427   2.26996   2.27423   2.28014   2.28296
 Alpha virt. eigenvalues --    2.28439   2.29525   2.29587   2.30113   2.30168
 Alpha virt. eigenvalues --    2.30525   2.30961   2.31428   2.31570   2.31836
 Alpha virt. eigenvalues --    2.32055   2.32185   2.32193   2.32759   2.32882
 Alpha virt. eigenvalues --    2.33246   2.33402   2.33613   2.33743   2.33955
 Alpha virt. eigenvalues --    2.34313   2.34654   2.35195   2.35783   2.35842
 Alpha virt. eigenvalues --    2.36149   2.36273   2.36518   2.37346   2.37533
 Alpha virt. eigenvalues --    2.37990   2.38230   2.38514   2.38590   2.39074
 Alpha virt. eigenvalues --    2.39552   2.39984   2.40023   2.40639   2.40801
 Alpha virt. eigenvalues --    2.41278   2.41406   2.41846   2.42110   2.42472
 Alpha virt. eigenvalues --    2.42781   2.43199   2.43728   2.44168   2.44969
 Alpha virt. eigenvalues --    2.45156   2.45249   2.45749   2.46452   2.46913
 Alpha virt. eigenvalues --    2.46949   2.47327   2.47635   2.47964   2.48587
 Alpha virt. eigenvalues --    2.48869   2.49501   2.49564   2.49580   2.49816
 Alpha virt. eigenvalues --    2.49948   2.50159   2.50665   2.50942   2.51327
 Alpha virt. eigenvalues --    2.51727   2.52644   2.52937   2.52960   2.52981
 Alpha virt. eigenvalues --    2.53901   2.54000   2.54802   2.55264   2.55410
 Alpha virt. eigenvalues --    2.55534   2.55772   2.56160   2.56409   2.56750
 Alpha virt. eigenvalues --    2.57348   2.57555   2.57595   2.57695   2.58094
 Alpha virt. eigenvalues --    2.58303   2.58562   2.58809   2.59171   2.59410
 Alpha virt. eigenvalues --    2.59570   2.60179   2.60337   2.60367   2.60572
 Alpha virt. eigenvalues --    2.60826   2.60945   2.61141   2.61156   2.61410
 Alpha virt. eigenvalues --    2.61661   2.62291   2.62387   2.62596   2.62648
 Alpha virt. eigenvalues --    2.63208   2.63865   2.63926   2.64855   2.65423
 Alpha virt. eigenvalues --    2.65581   2.65954   2.66388   2.66574   2.66942
 Alpha virt. eigenvalues --    2.67002   2.67103   2.67788   2.67952   2.68410
 Alpha virt. eigenvalues --    2.68475   2.68990   2.69620   2.69876   2.70551
 Alpha virt. eigenvalues --    2.70569   2.70876   2.71030   2.71154   2.71919
 Alpha virt. eigenvalues --    2.72356   2.73054   2.73298   2.73611   2.73655
 Alpha virt. eigenvalues --    2.73880   2.74203   2.74328   2.74803   2.75101
 Alpha virt. eigenvalues --    2.75248   2.75530   2.75930   2.76291   2.76330
 Alpha virt. eigenvalues --    2.76522   2.76646   2.76860   2.76996   2.77202
 Alpha virt. eigenvalues --    2.77452   2.78146   2.78527   2.78718   2.78979
 Alpha virt. eigenvalues --    2.79212   2.79392   2.79633   2.79693   2.79816
 Alpha virt. eigenvalues --    2.80090   2.80572   2.80628   2.81041   2.81522
 Alpha virt. eigenvalues --    2.81740   2.81906   2.82119   2.82158   2.82208
 Alpha virt. eigenvalues --    2.82432   2.82905   2.83054   2.83292   2.83363
 Alpha virt. eigenvalues --    2.83687   2.83738   2.84279   2.84428   2.84618
 Alpha virt. eigenvalues --    2.84971   2.86053   2.86516   2.87056   2.87182
 Alpha virt. eigenvalues --    2.87618   2.87861   2.88392   2.88577   2.89060
 Alpha virt. eigenvalues --    2.89606   2.89775   2.90486   2.90759   2.91117
 Alpha virt. eigenvalues --    2.91226   2.91543   2.91868   2.92252   2.92328
 Alpha virt. eigenvalues --    2.92483   2.92841   2.93418   2.93742   2.94285
 Alpha virt. eigenvalues --    2.94693   2.95044   2.95429   2.95460   2.95946
 Alpha virt. eigenvalues --    2.96102   2.96257   2.96733   2.96939   2.97174
 Alpha virt. eigenvalues --    2.97290   2.98071   2.98221   2.98365   2.98547
 Alpha virt. eigenvalues --    2.98704   2.98869   2.99023   2.99217   2.99380
 Alpha virt. eigenvalues --    2.99670   2.99827   3.00176   3.00302   3.00832
 Alpha virt. eigenvalues --    3.01268   3.01626   3.01796   3.01885   3.01956
 Alpha virt. eigenvalues --    3.02007   3.02334   3.03155   3.03391   3.03820
 Alpha virt. eigenvalues --    3.04119   3.04189   3.04469   3.05824   3.06108
 Alpha virt. eigenvalues --    3.06919   3.07448   3.07607   3.07794   3.09321
 Alpha virt. eigenvalues --    3.09732   3.09832   3.10194   3.11791   3.12008
 Alpha virt. eigenvalues --    3.12751   3.12988   3.13196   3.13685   3.13978
 Alpha virt. eigenvalues --    3.14266   3.14527   3.15340   3.15488   3.15688
 Alpha virt. eigenvalues --    3.16071   3.16330   3.16944   3.17152   3.17363
 Alpha virt. eigenvalues --    3.17703   3.17718   3.18546   3.18652   3.18831
 Alpha virt. eigenvalues --    3.18861   3.18968   3.19129   3.19808   3.20123
 Alpha virt. eigenvalues --    3.20326   3.20476   3.20632   3.20736   3.21561
 Alpha virt. eigenvalues --    3.21736   3.22218   3.22476   3.22768   3.22814
 Alpha virt. eigenvalues --    3.22982   3.23587   3.23655   3.24599   3.25383
 Alpha virt. eigenvalues --    3.25438   3.25691   3.25877   3.27035   3.27051
 Alpha virt. eigenvalues --    3.28609   3.31301   3.32424   3.33044   3.33379
 Alpha virt. eigenvalues --    3.34244   3.35521   3.36557   3.36812   3.37361
 Alpha virt. eigenvalues --    3.38756   3.39223   3.44202   3.49857   3.50566
 Alpha virt. eigenvalues --    3.52203   3.53153   3.53541   3.54139   3.54493
 Alpha virt. eigenvalues --    3.54896   3.55610   3.55954   3.57506   3.58915
 Alpha virt. eigenvalues --    3.60433   3.61211   3.61272   3.61307   3.61984
 Alpha virt. eigenvalues --    3.61995   3.65075   3.65609   3.66401   3.67357
 Alpha virt. eigenvalues --    3.68477   3.68567   3.68739   3.68950   3.69627
 Alpha virt. eigenvalues --    3.69716   3.70075   3.70376   3.70729   3.71133
 Alpha virt. eigenvalues --    3.71747   3.72498   3.73097   3.73362   3.75919
 Alpha virt. eigenvalues --    3.76113   3.78836   3.81418   3.87028
          Condensed to atoms (all electrons):
 Mulliken charges:
               1
     1  C    0.067970
     2  C   -0.001309
     3  O   -0.326974
     4  H    0.012554
     5  H    0.040461
     6  H    0.014555
     7  N   -0.092195
     8  C    0.090897
     9  C    0.061561
    10  O   -0.258622
    11  C    0.133037
    12  C    0.003947
    13  O   -0.384320
    14  O   -0.345619
    15  H    0.130733
    16  H   -0.027405
    17  H   -0.027254
    18  H   -0.022603
    19  N   -0.094446
    20  C    0.125257
    21  C    0.042713
    22  O   -0.289094
    23  C    0.011413
    24  C    0.035734
    25  C   -0.072511
    26  C    0.073241
    27  N    0.121704
    28  H    0.115979
    29  H   -0.001900
    30  H    0.032295
    31  H    0.011285
    32  H    0.020090
    33  H    0.030549
    34  H    0.021575
    35  H   -0.002102
    36  H    0.067537
    37  H    0.075186
    38  H    0.143953
    39  H    0.148188
    40  H    0.138430
    41  N   -0.125569
    42  C    0.110987
    43  C    0.072158
    44  O   -0.254788
    45  C    0.105497
    46  C    0.149481
    47  O   -0.408438
    48  O   -0.460293
    49  H    0.147684
    50  H   -0.002283
    51  H    0.008201
    52  H    0.008291
    53  N   -0.112858
    54  C    0.172431
    55  C    0.119750
    56  O   -0.315975
    57  H    0.118531
    58  H    0.023512
    59  H    0.040265
    60  N   -0.140108
    61  C    0.076461
    62  C    0.080558
    63  O   -0.276616
    64  C    0.111541
    65  C    0.011539
    66  N   -0.066483
    67  O   -0.239193
    68  H    0.110734
    69  H    0.031427
    70  H    0.047922
    71  H   -0.024979
    72  H    0.114537
    73  H    0.168360
    74  N   -0.113973
    75  C    0.234369
    76  C    0.008273
    77  O   -0.277249
    78  H    0.104064
    79  H    0.012087
    80  H    0.031041
    81  N   -0.124523
    82  C    0.148984
    83  C    0.126447
    84  O   -0.339574
    85  C    0.114835
    86  C   -0.057332
    87  C   -0.017729
    88  C    0.008209
    89  C   -0.036815
    90  C   -0.030480
    91  C    0.171636
    92  O   -0.193902
    93  H    0.123414
    94  H   -0.005999
    95  H    0.024883
    96  H    0.010329
    97  H   -0.033768
    98  H   -0.022343
    99  H   -0.022324
   100  H   -0.049904
   101  H    0.176880
   102  N   -0.099409
   103  C    0.156475
   104  C    0.070143
   105  O   -0.284301
   106  C   -0.061701
   107  C    0.007361
   108  C    0.066848
   109  C    0.039925
   110  H    0.144829
   111  H    0.025531
   112  H   -0.004045
   113  H   -0.002668
   114  H   -0.022009
   115  H   -0.001305
   116  H    0.003107
   117  H   -0.004023
   118  H    0.006118
   119  H   -0.000570
   120  H    0.008773
   121  N   -0.104085
   122  C    0.044671
   123  C    0.047591
   124  O   -0.272196
   125  C    0.242550
   126  O   -0.321403
   127  H    0.124301
   128  H    0.031279
   129  H   -0.002491
   130  H    0.033569
   131  H    0.171179
   132  N   -0.113218
   133  C    0.074089
   134  C    0.051822
   135  O   -0.279108
   136  C    0.104516
   137  H    0.127362
   138  H    0.024002
   139  H   -0.006361
   140  H   -0.029036
   141  H    0.032586
   142  N   -0.139030
   143  C    0.073952
   144  C    0.067158
   145  O   -0.260518
   146  C    0.064821
   147  H    0.147886
   148  H   -0.012189
   149  H   -0.014158
   150  H    0.048965
   151  H    0.005927
   152  N   -0.152211
   153  C    0.094893
   154  C    0.029622
   155  O   -0.268998
   156  C    0.086251
   157  C    0.102354
   158  C    0.076026
   159  O   -0.363320
   160  O   -0.498339
   161  H    0.127904
   162  H   -0.006073
   163  H    0.015031
   164  H    0.028350
   165  H   -0.023546
   166  H   -0.030645
   167  N   -0.133227
   168  C    0.139457
   169  H    0.013076
   170  H    0.043459
   171  H    0.014326
   172  H    0.095852
   173  Ca   1.428184
   174  O   -0.364668
   175  H    0.157865
   176  H    0.178553
 Sum of Mulliken charges =  -0.00000
 Mulliken charges with hydrogens summed into heavy atoms:
               1
     1  C    0.135540
     2  C   -0.001309
     3  O   -0.326974
     7  N    0.038538
     8  C    0.063492
     9  C    0.061561
    10  O   -0.258622
    11  C    0.083180
    12  C    0.003947
    13  O   -0.384320
    14  O   -0.345619
    19  N    0.021534
    20  C    0.123357
    21  C    0.042713
    22  O   -0.289094
    23  C    0.054993
    24  C    0.086373
    25  C   -0.053038
    26  C    0.215964
    27  N    0.552275
    41  N    0.022116
    42  C    0.108704
    43  C    0.072158
    44  O   -0.254788
    45  C    0.121989
    46  C    0.149481
    47  O   -0.408438
    48  O   -0.460293
    53  N    0.005673
    54  C    0.236208
    55  C    0.119750
    56  O   -0.315975
    60  N   -0.029374
    61  C    0.107889
    62  C    0.080558
    63  O   -0.276616
    64  C    0.134484
    65  C    0.011539
    66  N    0.216415
    67  O   -0.239193
    74  N   -0.009909
    75  C    0.277497
    76  C    0.008273
    77  O   -0.277249
    81  N   -0.001109
    82  C    0.142985
    83  C    0.126447
    84  O   -0.339574
    85  C    0.150047
    86  C   -0.057332
    87  C   -0.051497
    88  C   -0.014134
    89  C   -0.059139
    90  C   -0.080385
    91  C    0.171636
    92  O   -0.017022
   102  N    0.045420
   103  C    0.182006
   104  C    0.070143
   105  O   -0.284301
   106  C   -0.065746
   107  C   -0.017316
   108  C    0.064627
   109  C    0.054247
   121  N    0.020216
   122  C    0.075949
   123  C    0.047591
   124  O   -0.272196
   125  C    0.273628
   126  O   -0.150224
   132  N    0.014144
   133  C    0.098092
   134  C    0.051822
   135  O   -0.279108
   136  C    0.101706
   142  N    0.008856
   143  C    0.061763
   144  C    0.067158
   145  O   -0.260518
   146  C    0.105555
   152  N   -0.024307
   153  C    0.088820
   154  C    0.029622
   155  O   -0.268998
   156  C    0.129632
   157  C    0.048163
   158  C    0.076026
   159  O   -0.363320
   160  O   -0.498339
   167  N   -0.037375
   168  C    0.210317
   173  Ca   1.428184
   174  O   -0.028250
 DipInt: DoE/N= T F RetVal/Mat= T F Init=T NMatP=  1 IDeriv=0 Min/MaxMlt=  0  4
 Entering OneElI...
 OneElI was handed  1333951383 working-precision words.
 Multipole integrals L=0 to 4 MinM= 0 MaxM= 0.
 Requested accuracy = 0.1000D-12
 ShPair: Thresh= 1.00D-13 NBox=     0 BxSize= 0.00D+00 RnKept= 2.82D+01
         NSMCal=               327645 NSMKep=              117076
 PrmmSu-InSpLW:  IPartL=    0 NPrtUS=    1 NPrtUL=    1 DoSpLW=F IThBeg=    0 IThEnd=    0 NThAct=    1.
 PrsmSu:  NPrtUS=   1 ThrOK=F IAlg=1 NPAlg=1 LenDen=           0 ISkipM=0 DoSpLW=F IThBeg=    0 IThEnd=    0.
 Prism:   IPart=     0 DynPar=F LinDyn=F Incr=         512.
 PRISM was handed  1325561689 working-precision words and117076 shell-pairs
 IPart=  0 NShTot=      117076 NBatch=         280 AvBLen=       418.1
 PrsmSu-ThDecC:  IPartSL=    0    0 NPrtUSL=    1    1 IThBeg=    0 IThEnd=    0 CPU=   -1 GPU=   -1 NThAct=    1.
 PrSmSu:  NxtVal=            513.
 Electronic moments (au):
       -716.00000000         -0.53980455          5.59243980         -4.71865010
    -106065.62429621     -38594.88519725     -13612.58250406       -286.16746324
         41.98010967         50.73185785     369453.10401290      -4385.72655686
     -10763.25567520    -174373.70714346      99657.99192155     -92365.29231606
      38805.35214707       -490.27112538        -85.44262960     -81999.48888617
  -27921316.88273999   -4801261.92480216    -727571.54414863     607835.04866757
    1721358.13571317    1413860.29259476    -559933.38471884      77053.68985245
      95558.58167311   -5790602.94705694   -1879141.14463034    -524673.24058868
      67537.20659056     380962.57304669    -130429.43082758
 Electronic spatial extent (au):  <R**2>=         158273.0920
 DipInt: DoE/N= F T RetVal/Mat= T F Init=T NMatP=  1 IDeriv=0 Min/MaxMlt=  0  4
 Nuclear    moments (au):
        716.00000000          0.00000000          0.00000000         -0.00000000
     105703.77556108      38244.05873849      13196.17974761          0.00000000
         -0.00000000         -0.00000000    -370872.79810424       5890.76374826
      10592.13582014     172972.73106590     -96253.29505985      91057.32884832
     -38287.92801165        461.61551505        -90.68700860      81851.41742659
   27595955.88058876    4680462.29858162     684512.81330155    -711672.19063452
   -1703074.92613468   -1448999.30591616     564831.47566970     -76632.97520587
     -93421.95117170    5729428.12769305    1801798.03054070     493136.50752694
     -58426.65521098    -377986.44972636     129404.22811156
 Total      moments (au):
         -0.00000000         -0.53980455          5.59243980         -4.71865010
       -361.84873512       -350.82645876       -416.40275645       -286.16746324
         41.98010967         50.73185785      -1419.69409133       1505.03719140
       -171.11985505      -1400.97607756       3404.69686169      -1307.96346775
        517.42413541        -28.65561033       -176.12963821       -148.07145958
    -325361.00215123    -120799.62622055     -43058.73084708    -103837.14196695
      18283.20957848     -35139.01332140       4898.09095086        420.71464658
       2136.63050142     -61174.81936389     -77343.11408963     -31536.73306174
       9110.55137958       2976.12332032      -1025.20271602
 Traceless Quadrup. (au):
         14.51058166         25.53285802        -40.04343967       -286.16746324
         41.98010967         50.73185785
 Charge=             -0.0000 electrons
 Dipole moment (field-independent basis, Debye):
    X=             -1.3720    Y=             14.2146    Z=            -11.9936  Tot=             18.6489
 Quadrupole moment (field-independent basis, Debye-Ang):
   XX=           -486.6989   YY=           -471.8736   ZZ=           -560.0760
   XY=           -384.9050   XZ=             56.4647   YZ=             68.2361
 Traceless Quadrupole moment (field-independent basis, Debye-Ang):
   XX=             19.5172   YY=             34.3426   ZZ=            -53.8598
   XY=           -384.9050   XZ=             56.4647   YZ=             68.2361
 Octapole moment (field-independent basis, Debye-Ang**2):
  XXX=          -1010.4836  YYY=           1071.2275  ZZZ=           -121.7965  XYY=           -997.1608
  XXY=           2423.3321  XXZ=           -930.9580  XZZ=            368.2826  YZZ=            -20.3960
  YYZ=           -125.3623  XYZ=           -105.3916
 Hexadecapole moment (field-independent basis, Debye-Ang**3):
 XXXX=        -122546.5550 YYYY=         -45498.9318 ZZZZ=         -16217.9828 XXXY=         -39110.0468
 XXXZ=           6886.3334 YYYX=         -13235.0374 YYYZ=           1844.8559 ZZZX=            158.4613
 ZZZY=            804.7575 XXYY=         -23041.3704 XXZZ=         -29131.1255 YYZZ=         -11878.2459
 XXYZ=           3431.4705 YYXZ=           1120.9508 ZZXY=           -386.1405
 N-N= 1.856516151465D+04 E-N=-4.961016180972D+04  KE= 5.290623146298D+03
 Leave Link  601 at Tue Sep 17 23:50:53 2019, MaxMem=  1342177280 cpu:              44.1 elap:               1.1
 FitSet:  NAtFit=   176 NAtPot=   176 NAtFrz=     0 MDM=   180 TotChg=   0.00000
 Merz-Kollman atomic radii used.
 Read replacement radii for each type of atom:
 Rad(20) =   1.700000000000D+00
 Atom Element Radius
    1     6    1.50
    2     6    1.50
    3     8    1.40
    4     1    1.20
    5     1    1.20
    6     1    1.20
    7     7    1.50
    8     6    1.50
    9     6    1.50
   10     8    1.40
   11     6    1.50
   12     6    1.50
   13     8    1.40
   14     8    1.40
   15     1    1.20
   16     1    1.20
   17     1    1.20
   18     1    1.20
   19     7    1.50
   20     6    1.50
   21     6    1.50
   22     8    1.40
   23     6    1.50
   24     6    1.50
   25     6    1.50
   26     6    1.50
   27     7    1.50
   28     1    1.20
   29     1    1.20
   30     1    1.20
   31     1    1.20
   32     1    1.20
   33     1    1.20
   34     1    1.20
   35     1    1.20
   36     1    1.20
   37     1    1.20
   38     1    1.20
   39     1    1.20
   40     1    1.20
   41     7    1.50
   42     6    1.50
   43     6    1.50
   44     8    1.40
   45     6    1.50
   46     6    1.50
   47     8    1.40
   48     8    1.40
   49     1    1.20
   50     1    1.20
   51     1    1.20
   52     1    1.20
   53     7    1.50
   54     6    1.50
   55     6    1.50
   56     8    1.40
   57     1    1.20
   58     1    1.20
   59     1    1.20
   60     7    1.50
   61     6    1.50
   62     6    1.50
   63     8    1.40
   64     6    1.50
   65     6    1.50
   66     7    1.50
   67     8    1.40
   68     1    1.20
   69     1    1.20
   70     1    1.20
   71     1    1.20
   72     1    1.20
   73     1    1.20
   74     7    1.50
   75     6    1.50
   76     6    1.50
   77     8    1.40
   78     1    1.20
   79     1    1.20
   80     1    1.20
   81     7    1.50
   82     6    1.50
   83     6    1.50
   84     8    1.40
   85     6    1.50
   86     6    1.50
   87     6    1.50
   88     6    1.50
   89     6    1.50
   90     6    1.50
   91     6    1.50
   92     8    1.40
   93     1    1.20
   94     1    1.20
   95     1    1.20
   96     1    1.20
   97     1    1.20
   98     1    1.20
   99     1    1.20
  100     1    1.20
  101     1    1.20
  102     7    1.50
  103     6    1.50
  104     6    1.50
  105     8    1.40
  106     6    1.50
  107     6    1.50
  108     6    1.50
  109     6    1.50
  110     1    1.20
  111     1    1.20
  112     1    1.20
  113     1    1.20
  114     1    1.20
  115     1    1.20
  116     1    1.20
  117     1    1.20
  118     1    1.20
  119     1    1.20
  120     1    1.20
  121     7    1.50
  122     6    1.50
  123     6    1.50
  124     8    1.40
  125     6    1.50
  126     8    1.40
  127     1    1.20
  128     1    1.20
  129     1    1.20
  130     1    1.20
  131     1    1.20
  132     7    1.50
  133     6    1.50
  134     6    1.50
  135     8    1.40
  136     6    1.50
  137     1    1.20
  138     1    1.20
  139     1    1.20
  140     1    1.20
  141     1    1.20
  142     7    1.50
  143     6    1.50
  144     6    1.50
  145     8    1.40
[...]
 **** Fit      -0.030495
 **** Fit      -0.030034
 **** Fit      -0.029052
 **** Fit      -0.039836
 **** Fit      -0.038314
 **** Fit      -0.037679
 **** Fit      -0.037719
 **** Fit      -0.037895
 **** Fit      -0.037406
 **** Fit      -0.045443
 **** Fit      -0.045754
 **** Fit      -0.000014
 **** Fit       0.000108
 **** Fit       0.000828
 **** Fit       0.000694
 **** Fit      -0.000835
 **** Fit       0.000165
 **** Fit       0.001033
 **** Fit       0.001554
 **** Fit       0.001642
 **** Fit      -0.001794
 **** Fit      -0.000871
 **** Fit       0.000123
 **** Fit       0.001027
 **** Fit       0.001731
 **** Fit       0.002178
 **** Fit       0.002339
 **** Fit       0.002221
 **** Fit      -0.002925
 **** Fit      -0.001983
 **** Fit      -0.000912
 **** Fit      -0.000051
 **** Fit       0.000909
 **** Fit       0.001728
 **** Fit       0.002364
 **** Fit       0.002777
 **** Fit       0.002949
 **** Fit       0.002892
 **** Fit      -0.004425
 **** Fit      -0.003426
 **** Fit      -0.002276
 **** Fit      -0.001124
 **** Fit      -0.000385
 **** Fit       0.000658
 **** Fit       0.001597
 **** Fit       0.002395
 **** Fit       0.003006
 **** Fit       0.003394
 **** Fit       0.003549
 **** Fit       0.003494
 **** Fit      -0.006414
 **** Fit      -0.005357
 **** Fit      -0.004079
 **** Fit      -0.002765
 **** Fit      -0.001524
 **** Fit      -0.000892
 **** Fit       0.000233
 **** Fit       0.001292
 **** Fit       0.002252
 **** Fit       0.003060
 **** Fit       0.003665
 **** Fit       0.004041
 **** Fit       0.004188
 **** Fit      -0.007770
 **** Fit      -0.006351
 **** Fit      -0.004842
 **** Fit      -0.003402
 **** Fit      -0.002091
 **** Fit      -0.001567
 **** Fit      -0.000270
 **** Fit       0.000992
 **** Fit       0.002179
 **** Fit       0.003216
 **** Fit       0.004036
 **** Fit       0.004597
 **** Fit       0.004891
 **** Fit       0.004940
 **** Fit      -0.009760
 **** Fit      -0.007923
 **** Fit      -0.006078
 **** Fit      -0.004398
 **** Fit      -0.002917
 **** Fit      -0.002352
 **** Fit      -0.000843
 **** Fit       0.000668
 **** Fit       0.002122
 **** Fit       0.003427
 **** Fit       0.004497
 **** Fit       0.005276
 **** Fit       0.005745
 **** Fit       0.005919
 **** Fit      -0.012119
 **** Fit      -0.009772
 **** Fit      -0.007534
 **** Fit      -0.005577
 **** Fit      -0.003891
 **** Fit      -0.003094
 **** Fit      -0.001256
 **** Fit       0.000605
 **** Fit       0.002410
 **** Fit       0.004038
 **** Fit       0.005382
 **** Fit       0.006375
 **** Fit       0.006993
 **** Fit      -0.012196
 **** Fit      -0.009378
 **** Fit      -0.006980
 **** Fit      -0.004948
 **** Fit      -0.003455
 **** Fit      -0.001064
 **** Fit       0.001337
 **** Fit       0.003632
 **** Fit       0.005654
 **** Fit       0.007268
 **** Fit       0.008398
 **** Fit      -0.015667
 **** Fit      -0.011817
 **** Fit      -0.008579
 **** Fit      -0.005882
 **** Fit      -0.002824
 **** Fit       0.000356
 **** Fit       0.003468
 **** Fit       0.006345
 **** Fit       0.008766
 **** Fit       0.010567
 **** Fit      -0.009899
 **** Fit      -0.006133
 **** Fit       0.000681
 **** Fit       0.003523
 **** Fit       0.006209
 **** Fit       0.008593
 **** Fit       0.010509
 **** Fit       0.011854
 **** Fit       0.012595
 **** Fit      -0.002140
 **** Fit       0.000973
 **** Fit       0.004122
 **** Fit       0.007038
 **** Fit       0.009474
 **** Fit       0.011297
 **** Fit       0.012466
 **** Fit       0.012989
 **** Fit      -0.005214
 **** Fit      -0.004229
 **** Fit      -0.001010
 **** Fit       0.002481
 **** Fit       0.005821
 **** Fit       0.008681
 **** Fit       0.010903
 **** Fit       0.012445
 **** Fit       0.013324
 **** Fit       0.013572
 **** Fit      -0.001721
 **** Fit       0.001933
 **** Fit       0.005534
 **** Fit       0.008658
 **** Fit       0.011120
 **** Fit       0.012882
 **** Fit       0.013968
 **** Fit       0.014424
 **** Fit       0.014286
 **** Fit       0.003348
 **** Fit       0.006937
 **** Fit       0.010072
 **** Fit       0.012525
 **** Fit       0.014254
 **** Fit       0.015295
 **** Fit       0.015702
 **** Fit       0.015522
 **** Fit       0.010043
 **** Fit       0.012831
 **** Fit       0.014991
 **** Fit       0.016463
 **** Fit       0.017284
 **** Fit       0.017518
 **** Fit       0.017225
 **** Fit       0.016700
 **** Fit       0.018320
 **** Fit       0.019397
 **** Fit       0.019967
 **** Fit       0.020112
 **** Fit       0.023540
 **** Fit      -0.006529
 **** Fit      -0.001035
 **** Fit      -0.005151
 **** Fit      -0.010686
 **** Fit      -0.013835
 **** Fit       0.002303
 **** Fit      -0.001030
 **** Fit      -0.004864
 **** Fit      -0.009403
 **** Fit      -0.014536
 **** Fit      -0.019589
 **** Fit      -0.022561
 **** Fit       0.003521
 **** Fit       0.000488
 **** Fit      -0.013395
 **** Fit      -0.018360
 **** Fit       0.003110
 **** Fit       0.000137
 **** Fit      -0.017448
 **** Fit      -0.022288
 **** Fit       0.005413
 **** Fit       0.001868
 **** Fit      -0.001596
 **** Fit      -0.023058
 **** Fit       0.000605
 **** Fit      -0.003909
 **** Fit      -0.029102
 **** Fit      -0.000131
 **** Fit      -0.000164
 **** Fit       0.004862
 **** Fit       0.000442
 **** Fit       0.007383
 **** Fit       0.015771
 **** Fit       0.010481
 **** Fit       0.024760
 **** Fit       0.020595
 **** Fit       0.013666
 **** Fit       0.037860
 **** Fit       0.036349
 **** Fit       0.034043
 **** Fit       0.030482
 **** Fit       0.025015
 **** Fit       0.016998
 **** Fit       0.037961
 **** Fit       0.041968
 **** Fit       0.044106
 **** Fit       0.044636
 **** Fit       0.043909
 **** Fit       0.042128
 **** Fit       0.039230
 **** Fit       0.034923
 **** Fit       0.028784
 **** Fit       0.020294
 **** Fit       0.038065
 **** Fit       0.043189
 **** Fit       0.046427
 **** Fit       0.047895
 **** Fit       0.047787
 **** Fit       0.046258
 **** Fit       0.043325
 **** Fit       0.038839
 **** Fit       0.032512
 **** Fit       0.023922
 **** Fit       0.042639
 **** Fit       0.046889
 **** Fit       0.049220
 **** Fit       0.049787
 **** Fit       0.048722
 **** Fit       0.046076
 **** Fit       0.041786
 **** Fit       0.035670
 **** Fit       0.027425
 **** Fit       0.020921
 **** Fit      -0.018132
 **** Fit       0.045333
 **** Fit       0.048831
 **** Fit       0.050340
 **** Fit       0.050020
 **** Fit       0.047960
 **** Fit       0.044161
 **** Fit       0.038530
 **** Fit       0.030874
 **** Fit       0.025110
 **** Fit      -0.011932
 **** Fit      -0.008769
 **** Fit       0.047307
 **** Fit       0.049747
 **** Fit       0.050224
 **** Fit       0.048866
 **** Fit       0.045726
 **** Fit       0.040783
 **** Fit       0.033952
 **** Fit       0.028967
 **** Fit       0.019236
 **** Fit      -0.013649
 **** Fit      -0.006856
 **** Fit      -0.002885
 **** Fit      -0.001822
 **** Fit       0.047729
 **** Fit       0.049514
 **** Fit       0.049241
 **** Fit       0.047019
 **** Fit       0.042896
 **** Fit       0.036878
 **** Fit       0.032326
 **** Fit       0.023875
 **** Fit       0.014307
 **** Fit      -0.007429
 **** Fit      -0.001517
 **** Fit       0.002684
 **** Fit       0.004688
 **** Fit       0.004403
 **** Fit       0.047898
 **** Fit       0.048735
 **** Fit       0.047512
 **** Fit       0.044311
 **** Fit       0.039212
 **** Fit       0.035084
 **** Fit       0.027904
 **** Fit       0.019930
 **** Fit       0.011963
 **** Fit      -0.005978
 **** Fit      -0.005890
 **** Fit      -0.003768
 **** Fit      -0.000030
 **** Fit       0.004292
 **** Fit       0.008071
 **** Fit       0.010541
 **** Fit       0.011450
 **** Fit       0.047623
 **** Fit       0.047323
 **** Fit       0.045056
 **** Fit       0.040913
 **** Fit       0.037198
 **** Fit       0.031018
 **** Fit       0.024279
 **** Fit       0.017844
 **** Fit       0.012534
 **** Fit       0.008870
 **** Fit       0.007048
 **** Fit       0.007087
 **** Fit       0.008785
 **** Fit       0.011511
 **** Fit       0.014349
 **** Fit       0.016529
 **** Fit       0.017807
 **** Fit       0.046737
 **** Fit       0.045378
 **** Fit       0.042131
 **** Fit       0.038677
 **** Fit       0.033436
 **** Fit       0.027854
 **** Fit       0.022855
 **** Fit       0.019195
 **** Fit       0.017266
 **** Fit       0.017086
 **** Fit       0.018293
 **** Fit       0.020186
 **** Fit       0.022063
 **** Fit       0.045234
 **** Fit       0.042772
 **** Fit       0.039581
 **** Fit       0.034950
 **** Fit       0.030287
 **** Fit       0.026723
 **** Fit       0.024928
 **** Fit       0.024896
 **** Fit       0.026058
 **** Fit       0.027800
 **** Fit       0.043103
 **** Fit       0.040005
 **** Fit       0.035853
 **** Fit       0.032328
 **** Fit       0.030751
 **** Fit       0.031225
 **** Fit       0.040063
 **** Fit       0.036467
 **** Fit       0.017760
 **** Fit       0.019642
 **** Fit       0.023110
 **** Fit       0.028610
 **** Fit       0.016342
 **** Fit       0.016794
 **** Fit       0.017993
 **** Fit       0.020161
 **** Fit       0.023557
 **** Fit       0.028483
 **** Fit       0.035332
 **** Fit       0.015534
 **** Fit       0.015395
 **** Fit       0.015536
 **** Fit       0.015998
 **** Fit       0.016898
 **** Fit       0.018385
 **** Fit       0.020623
 **** Fit       0.023783
 **** Fit       0.028062
 **** Fit       0.033711
 **** Fit       0.041071
 **** Fit       0.013948
 **** Fit       0.014611
 **** Fit       0.015099
 **** Fit       0.015644
 **** Fit       0.016381
 **** Fit       0.017438
 **** Fit       0.018939
 **** Fit       0.021007
 **** Fit       0.023760
 **** Fit       0.027326
 **** Fit       0.031857
 **** Fit       0.037544
 **** Fit       0.044612
 **** Fit       0.007537
 **** Fit       0.011419
 **** Fit       0.013666
 **** Fit       0.014990
 **** Fit       0.015889
 **** Fit       0.016662
 **** Fit       0.017500
 **** Fit       0.018540
 **** Fit       0.019899
 **** Fit       0.021675
 **** Fit       0.023958
 **** Fit       0.026831
 **** Fit       0.030382
 **** Fit       0.034710
 **** Fit       0.039910
 **** Fit       0.046037
 **** Fit       0.045682
 **** Fit       0.014405
 **** Fit       0.007099
 **** Fit       0.008728
 **** Fit       0.012514
 **** Fit       0.015047
 **** Fit       0.016707
 **** Fit       0.017852
 **** Fit       0.018756
 **** Fit       0.019614
 **** Fit       0.020571
 **** Fit       0.021735
 **** Fit       0.023193
 **** Fit       0.025013
 **** Fit       0.027250
 **** Fit       0.029950
 **** Fit       0.033152
 **** Fit       0.036875
 **** Fit       0.041092
 **** Fit       0.040995
 **** Fit       0.043893
 **** Fit       0.022299
 **** Fit       0.016755
 **** Fit       0.011424
 **** Fit       0.006247
 **** Fit       0.026471
 **** Fit       0.028116
 **** Fit       0.030093
 **** Fit       0.032412
 **** Fit       0.035059
 **** Fit       0.037967
 **** Fit       0.038464
 **** Fit       0.040106
 **** Fit       0.041185
 **** Fit       0.041383
 **** Fit       0.040460
 **** Fit       0.035172
 **** Fit       0.031263
 **** Fit       0.027010
 **** Fit       0.022746
 **** Fit       0.018661
 **** Fit       0.014832
 **** Fit       0.036563
 **** Fit       0.007975
 **** Fit       0.011959
 **** Fit       0.015019
 **** Fit       0.017258
 **** Fit       0.018901
 **** Fit       0.020183
 **** Fit       0.021297
 **** Fit       0.022395
 **** Fit       0.023601
 **** Fit       0.025017
 **** Fit       0.013417
 **** Fit       0.009341
 **** Fit       0.005878
 **** Fit       0.003832
 **** Fit       0.006236
 **** Fit       0.009385
 **** Fit       0.012640
 **** Fit       0.015568
 **** Fit       0.017989
 **** Fit       0.019919
 **** Fit       0.021473
 **** Fit       0.022790
 **** Fit       0.023999
 **** Fit       0.025207
 **** Fit       0.026502
 **** Fit       0.027950
 **** Fit       0.029598
 **** Fit       0.031466
 **** Fit       0.033542
 **** Fit       0.035846
 **** Fit       0.036840
 **** Fit       0.037289
 **** Fit       0.036982
 **** Fit       0.035790
 **** Fit       0.033730
 **** Fit       0.030972
 **** Fit       0.027783
 **** Fit       0.024435
 **** Fit       0.021120
 **** Fit       0.017952
 **** Fit       0.015043
 **** Fit       0.012593
 **** Fit       0.010899
 **** Fit       0.010252
 **** Fit       0.010756
 **** Fit       0.012244
 **** Fit       0.014344
 **** Fit       0.016648
 **** Fit       0.018849
 **** Fit       0.020792
 **** Fit       0.022452
 **** Fit       0.023882
 **** Fit       0.025162
 **** Fit       0.026371
 **** Fit       0.027578
 **** Fit       0.028835
 **** Fit       0.030172
 **** Fit       0.031592
 **** Fit       0.033067
 **** Fit       0.034527
 **** Fit       0.034396
 **** Fit       0.034808
 **** Fit       0.034657
 **** Fit       0.033818
 **** Fit       0.032278
 **** Fit       0.030154
 **** Fit       0.027659
 **** Fit       0.025024
 **** Fit       0.022435
 **** Fit       0.020034
 **** Fit       0.017979
 **** Fit       0.016483
 **** Fit       0.015776
 **** Fit       0.015974
 **** Fit       0.016991
 **** Fit       0.018560
 **** Fit       0.020363
 **** Fit       0.022150
 **** Fit       0.023791
 **** Fit       0.025258
 **** Fit       0.026585
 **** Fit       0.027824
 **** Fit       0.029024
 **** Fit       0.030215
 **** Fit       0.031401
 **** Fit       0.032551
 **** Fit       0.033589
 **** Fit       0.033337
 **** Fit       0.033376
 **** Fit       0.032858
 **** Fit       0.031741
 **** Fit       0.030097
 **** Fit       0.028106
 **** Fit       0.025984
 **** Fit       0.023934
 **** Fit       0.022130
 **** Fit       0.020762
 **** Fit       0.020021
 **** Fit       0.020029
 **** Fit       0.020746
 **** Fit       0.021971
 **** Fit       0.023444
 **** Fit       0.024951
 **** Fit       0.026380
 **** Fit       0.027700
 **** Fit       0.028922
 **** Fit       0.030065
 **** Fit       0.031131
 **** Fit       0.032088
 **** Fit       0.032861
 **** Fit       0.032448
 **** Fit       0.032228
 **** Fit       0.031413
 **** Fit       0.030056
 **** Fit       0.028347
 **** Fit       0.026552
 **** Fit       0.024938
 **** Fit       0.023753
 **** Fit       0.023211
 **** Fit       0.023405
 **** Fit       0.024238
 **** Fit       0.025464
 **** Fit       0.026830
 **** Fit       0.028173
 **** Fit       0.029418
 **** Fit       0.030532
 **** Fit       0.031470
 **** Fit       0.032150
 **** Fit       0.031567
 **** Fit       0.031088
 **** Fit       0.029888
 **** Fit       0.028285
 **** Fit       0.026785
 **** Fit       0.025877
 **** Fit       0.025862
 **** Fit       0.026672
 **** Fit       0.027942
 **** Fit       0.029294
 **** Fit       0.030477
 **** Fit       0.031304
 **** Fit       0.030567
 **** Fit       0.029691
 **** Fit       0.028249
 **** Fit       0.027807
 **** Fit       0.028775
 **** Fit       0.030084
 **** Fit       0.029344
 -----------------------------------------------------------------
 Leave Link  602 at Tue Sep 17 23:50:56 2019, MaxMem=  1342177280 cpu:             125.2 elap:               2.7

 Test job not archived.
 1\1\GINC-C484-031\SP\RB3LYP\SVP\C54H83Ca1N15O23\PENGZHI\17-Sep-2019\0\
 \#b3lyp/svp scf=(tight,noincore) Test #IOP(5/87=12) Density=Current Po
 p=(MK,readradii) iop(6/33=2) iop(6/42=6)\\Ng-293_loop3_81.0\\0,1\C,0,6
 7.08,21.3,8.38\C,0,67.21,22.2,7.17\O,0,66.35,22.12,6.29\H,0,66.029,21.
 058,8.541\H,0,67.642,20.381,8.212\H,0,67.473,21.812,9.258\N,0,68.26,23
 .02,7.02\C,0,68.43,24.14,6.11\C,0,67.78,25.41,6.63\O,0,67.88,25.8,7.79
 \C,0,69.83,24.52,5.65\C,0,70.83,24.35,6.79\O,0,71.21,23.19,7.04\O,0,71
 .14,25.31,7.52\H,0,68.94,23.,7.77\H,0,67.96,23.83,5.18\H,0,69.86,25.56
 ,5.33\H,0,70.07,23.93,4.76\N,0,67.24,26.15,5.65\C,0,66.34,27.28,5.57\C
 ,0,66.89,28.61,6.06\O,0,66.86,29.55,5.27\C,0,65.02,26.86,6.21\C,0,64.0
 4,28.03,6.11\C,0,62.7,27.66,6.73\C,0,61.59,28.69,6.54\N,0,60.38,28.16,
 7.18\H,0,67.31,25.63,4.79\H,0,66.06,27.55,4.55\H,0,65.19,26.57,7.25\H,
 0,64.62,26.03,5.62\H,0,63.98,28.37,5.08\H,0,64.36,28.81,6.8\H,0,62.79,
 27.47,7.8\H,0,62.3,26.72,6.34\H,0,61.33,28.88,5.49\H,0,61.95,29.59,7.0
 3\H,0,60.14,27.29,6.73\H,0,60.55,27.97,8.16\H,0,59.56,28.75,7.19\N,0,6
 7.57,28.65,7.21\C,0,68.13,29.84,7.82\C,0,69.32,29.51,8.7\O,0,69.32,28.
 48,9.37\C,0,67.06,30.58,8.62\C,0,67.48,31.91,9.24\O,0,68.22,32.69,8.6\
 O,0,67.3,32.11,10.46\H,0,67.61,27.84,7.82\H,0,68.5,30.5,7.04\H,0,66.81
 ,29.88,9.41\H,0,66.19,30.7,7.98\N,0,70.31,30.4,8.83\C,0,71.4,30.25,9.7
 8\C,0,71.02,30.56,11.22\O,0,70.14,31.39,11.44\H,0,70.22,31.24,8.29\H,0
 ,72.29,30.8,9.5\H,0,71.74,29.22,9.73\N,0,71.76,29.91,12.13\C,0,71.51,2
 9.89,13.55\C,0,72.35,30.93,14.29\O,0,71.8,31.7,15.07\C,0,71.78,28.47,1
 4.05\C,0,71.04,27.47,13.18\N,0,71.8,26.65,12.45\O,0,69.81,27.4,13.11\H
 ,0,72.62,29.48,11.83\H,0,70.47,30.21,13.66\H,0,71.33,28.34,15.03\H,0,7
 2.85,28.27,14.05\H,0,72.79,26.51,12.62\H,0,71.33,26.09,11.75\N,0,73.65
 ,31.08,14.03\C,0,74.55,31.95,14.75\C,0,74.62,31.77,16.26\O,0,74.54,30.
 63,16.7\H,0,74.05,30.36,13.45\H,0,74.23,32.97,14.52\H,0,75.55,31.74,14
 .37\N,0,74.74,32.83,17.07\C,0,74.79,32.93,18.52\C,0,73.58,32.44,19.3\O
 ,0,73.58,32.68,20.51\C,0,76.,32.18,19.07\C,0,77.35,32.83,18.88\C,0,78.
 09,32.71,17.69\C,0,77.91,33.56,19.93\C,0,79.39,33.21,17.53\C,0,79.16,3
 4.18,19.74\C,0,79.91,34.02,18.56\O,0,81.1,34.68,18.51\H,0,75.11,33.63,
 16.58\H,0,75.04,33.97,18.72\H,0,76.05,31.18,18.65\H,0,75.85,32.08,20.1
 4\H,0,77.73,32.08,16.89\H,0,77.29,33.76,20.79\H,0,80.01,32.97,16.68\H,
 0,79.55,34.87,20.46\H,0,81.28,35.21,19.29\N,0,72.57,31.86,18.66\C,0,71
 .34,31.39,19.26\C,0,70.53,32.54,19.85\O,0,69.31,32.37,19.9\C,0,71.59,3
 0.2,20.17\C,0,72.29,29.04,19.48\C,0,70.34,29.65,20.86\C,0,72.77,27.86,
 20.32\H,0,72.6,31.8,17.65\H,0,70.74,31.,18.43\H,0,72.22,30.58,20.97\H,
 0,73.19,29.34,18.93\H,0,71.67,28.69,18.66\H,0,69.5,29.37,20.23\H,0,70.
 41,28.71,21.41\H,0,69.86,30.46,21.41\H,0,73.36,27.19,19.7\H,0,73.43,28
 .17,21.13\H,0,71.96,27.32,20.81\N,0,71.08,33.64,20.36\C,0,70.48,34.95,
 20.47\C,0,69.52,35.08,21.64\O,0,68.91,36.15,21.69\C,0,71.57,36.,20.66\
 O,0,72.55,35.77,19.68\H,0,72.08,33.72,20.31\H,0,69.86,35.23,19.61\H,0,
 71.97,35.7,21.63\H,0,71.14,36.98,20.43\H,0,73.4,36.05,20.02\N,0,69.33,
 34.01,22.42\C,0,68.06,33.56,22.96\C,0,66.89,34.05,22.13\O,0,65.99,34.7
 6,22.6\C,0,68.01,34.12,24.38\H,0,70.08,33.33,22.44\H,0,67.97,32.48,23.
 01\H,0,67.26,33.63,25.\H,0,68.95,33.87,24.89\H,0,67.91,35.2,24.44\N,0,
 66.94,33.69,20.85\C,0,66.11,34.26,19.81\C,0,65.72,33.27,18.73\O,0,66.5
 1,32.34,18.56\C,0,66.77,35.48,19.17\H,0,67.67,33.07,20.5\H,0,65.17,34.
 57,20.28\H,0,66.21,35.8,18.29\H,0,66.84,36.3,19.89\H,0,67.77,35.22,18.
 8\N,0,64.61,33.58,18.06\C,0,64.01,32.89,16.95\C,0,63.7,31.43,17.29\O,0
 ,63.87,30.5,16.51\C,0,64.86,33.06,15.69\C,0,65.12,34.54,15.4\C,0,65.76
 ,34.74,14.03\O,0,65.04,34.78,13.01\O,0,66.98,34.91,13.85\H,0,64.13,34.
 44,18.31\H,0,62.99,33.29,17.01\H,0,64.21,32.72,14.89\H,0,65.75,32.44,1
 5.74\H,0,65.7,35.04,16.17\H,0,64.2,35.11,15.47\N,0,63.4,31.09,18.54\C,
 0,63.12,29.77,19.07\H,0,62.133,29.448,18.738\H,0,63.871,29.067,18.71\H
 ,0,63.144,29.803,20.159\H,0,63.17,31.85,19.16\Ca,0,68.35,33.86,11.97\O
 ,0,69.68,34.39,9.84\H,0,69.14,33.8,9.31\H,0,69.89,35.11,9.25\\Version=
 ES64L-G16RevA.03\State=1-A\HF=-5333.3552358\RMSD=5.807e-10\Dipole=-4.9
 243351,5.2382856,-1.4641442\Quadrupole=205.0305368,-141.2193527,-63.81
 11841,112.7171765,183.0529576,-90.6705818\PG=C01 [X(C54H83Ca1N15O23)]\
 \@


 WERE I TO AWAIT PERFECTION, MY BOOK WOULD NEVER BE FINISHED.
                                    -- HISTORY OF CHINESE WRITING

                                       TAI T'UNG, 13TH CENTURY
 Job cpu time:       0 days  9 hours 17 minutes  2.6 seconds.
 Elapsed time:       0 days  0 hours 11 minutes 46.5 seconds.
 File lengths (MBytes):  RWF=   1517 Int=      0 D2E=      0 Chk=    171 Scr=      1
 Normal termination of Gaussian 16 at Tue Sep 17 23:50:58 2019.
