 Entering Gaussian System, Link 0=g16
 Initial command:
 /home1/apps/gaussian/16rA.03/g16/l1.exe "/scratch/01990/pengzhi/4342283/Gau-209538.inp" -scrdir="/scratch/01990/pengzhi/4342283/"
 Entering Link 1 = /home1/apps/gaussian/16rA.03/g16/l1.exe PID=    209539.
  
 Copyright (c) 1988,1990,1992,1993,1995,1998,2003,2009,2016,
            Gaussian, Inc.  All Rights Reserved.
  
 This is part of the Gaussian(R) 16 program.  It is based on
 the Gaussian(R) 09 system (copyright 2009, Gaussian, Inc.),
 the Gaussian(R) 03 system (copyright 2003, Gaussian, Inc.),
 the Gaussian(R) 98 system (copyright 1998, Gaussian, Inc.),
 the Gaussian(R) 94 system (copyright 1995, Gaussian, Inc.),
 the Gaussian 92(TM) system (copyright 1992, Gaussian, Inc.),
 the Gaussian 90(TM) system (copyright 1990, Gaussian, Inc.),
 the Gaussian 88(TM) system (copyright 1988, Gaussian, Inc.),
 the Gaussian 86(TM) system (copyright 1986, Carnegie Mellon
 University), and the Gaussian 82(TM) system (copyright 1983,
 Carnegie Mellon University). Gaussian is a federally registered
 trademark of Gaussian, Inc.
  
 This software contains proprietary and confidential information,
 including trade secrets, belonging to Gaussian, Inc.
  
 This software is provided under written license and may be
 used, copied, transmitted, or stored only in accord with that
 written license.
  
 The following legend is applicable only to US Government
 contracts under FAR:
  
                    RESTRICTED RIGHTS LEGEND
  
 Use, reproduction and disclosure by the US Government is
 subject to restrictions as set forth in subparagraphs (a)
 and (c) of the Commercial Computer Software - Restricted
 Rights clause in FAR 52.227-19.
  
 Gaussian, Inc.
 340 Quinnipiac St., Bldg. 40, Wallingford CT 06492
  
  
 ---------------------------------------------------------------
 Warning -- This program may not be used in any manner that
 competes with the business of Gaussian, Inc. or will provide
 assistance to any competitor of Gaussian, Inc.  The licensee
 of this program is prohibited from giving any competitor of
 Gaussian, Inc. access to this program.  By using this program,
 the user acknowledges that Gaussian, Inc. is engaged in the
 business of creating and licensing software in the field of
 computational chemistry and represents and warrants to the
 licensee that it is not a competitor of Gaussian, Inc. and that
 it will not use this program in any manner prohibited above.
 ---------------------------------------------------------------
  

 Cite this work as:
 Gaussian 16, Revision A.03,
 M. J. Frisch, G. W. Trucks, H. B. Schlegel, G. E. Scuseria, 
 M. A. Robb, J. R. Cheeseman, G. Scalmani, V. Barone, 
 G. A. Petersson, H. Nakatsuji, X. Li, M. Caricato, A. V. Marenich, 
 J. Bloino, B. G. Janesko, R. Gomperts, B. Mennucci, H. P. Hratchian, 
 J. V. Ortiz, A. F. Izmaylov, J. L. Sonnenberg, D. Williams-Young, 
 F. Ding, F. Lipparini, F. Egidi, J. Goings, B. Peng, A. Petrone, 
 T. Henderson, D. Ranasinghe, V. G. Zakrzewski, J. Gao, N. Rega, 
 G. Zheng, W. Liang, M. Hada, M. Ehara, K. Toyota, R. Fukuda, 
 J. Hasegawa, M. Ishida, T. Nakajima, Y. Honda, O. Kitao, H. Nakai, 
 T. Vreven, K. Throssell, J. A. Montgomery, Jr., J. E. Peralta, 
 F. Ogliaro, M. J. Bearpark, J. J. Heyd, E. N. Brothers, K. N. Kudin, 
 V. N. Staroverov, T. A. Keith, R. Kobayashi, J. Normand, 
 K. Raghavachari, A. P. Rendell, J. C. Burant, S. S. Iyengar, 
 J. Tomasi, M. Cossi, J. M. Millam, M. Klene, C. Adamo, R. Cammi, 
 J. W. Ochterski, R. L. Martin, K. Morokuma, O. Farkas, 
 J. B. Foresman, and D. J. Fox, Gaussian, Inc., Wallingford CT, 2016.
 
 ******************************************
 Gaussian 16:  ES64L-G16RevA.03 25-Dec-2016
                16-Sep-2019 
 ******************************************
 %chk=Ng-293_loop3_17.0.chk
 %nprocshared=48
 Will use up to   48 processors via shared memory.
 %mem=10GB
 %nosave
 ----------------------------------------------------------------------
 #b3lyp/svp scf=(tight,noincore) Test #IOP(5/87=12) Density=Current Pop
 =(MK,readradii) iop(6/33=2) iop(6/42=6)
 ----------------------------------------------------------------------
 1/30=1,38=1,172=1/1;
 2/12=2,17=6,18=5,40=1/2;
 3/5=18,7=101,11=2,25=1,30=1,74=-5/1,2,3;
 4//1;
 5/5=4,32=2,38=5,87=12/2;
 6/7=2,8=2,9=2,10=2,15=8,20=101,22=-1,28=1,33=2,42=6/1,2;
 99/5=1,9=1/99;
 -----------------
 Ng-293_loop3_17.0
 -----------------
 Symbolic Z-matrix:
 Charge =  0 Multiplicity = 1
 C                     53.85     19.67     10.86 
 C                     53.42     21.07     10.47 
 O                     52.86     21.27     9.39 
 H                     54.783    19.72     11.422 
 H                     53.078    19.211    11.478 
 H                     53.999    19.072    9.961 
 N                     53.57     22.03     11.39 
 C                     53.25     23.41     11.06 
 C                     51.84     23.71     11.55 
 O                     51.28     23.11     12.46 
 C                     54.29     24.28     11.76 
 C                     54.16     25.65     11.11 
 O                     53.44     26.52     11.65 
 O                     54.87     25.87     10.11 
 H                     54.14     21.84     12.21 
 H                     53.39     23.63     10.01 
 H                     55.23     23.8      11.5 
 H                     54.15     24.2      12.84 
 N                     51.22     24.68     10.87 
 C                     49.96     25.34     11.13 
 C                     49.73     25.99     12.48 
 O                     48.93     26.92     12.56 
 C                     48.86     24.46     10.54 
 C                     48.98     24.11     9.06 
 C                     49.64     22.78     8.74 
 C                     50.55     22.75     7.52 
 N                     50.97     21.38     7.16 
 H                     51.88     25.27     10.38 
 H                     49.84     26.25     10.54 
 H                     47.93     24.99     10.73 
 H                     48.88     23.57     11.17 
 H                     49.6      24.87     8.58 
 H                     48.01     24.15     8.55 
 H                     48.78     22.13     8.58 
 H                     50.24     22.42     9.57 
 H                     51.4      23.39     7.76 
 H                     50.06     23.21     6.66 
 H                     51.68     21.43     6.45 
 H                     51.44     20.92     7.92 
 H                     50.12     20.9      6.9 
 N                     50.29     25.52     13.6 
 C                     50.28     26.09     14.93 
 C                     51.67     26.54     15.34 
 O                     52.64     26.09     14.73 
 C                     49.73     25.05     15.89 
 C                     49.45     25.62     17.28 
 O                     49.34     26.86     17.34 
 O                     49.15     24.98     18.31 
 H                     50.89     24.72     13.49 
 H                     49.61     26.95     14.98 
 H                     50.43     24.22     15.98 
 H                     48.75     24.7      15.55 
 N                     51.76     27.35     16.4 
 C                     52.93     27.98     16.98 
 C                     52.61     28.59     18.33 
 O                     51.69     29.41     18.44 
 H                     50.95     27.51     16.97 
 H                     53.2      28.84     16.37 
 H                     53.75     27.27     17.09 
 N                     53.3      28.1      19.36 
 C                     53.02     28.21     20.78 
 C                     54.23     28.66     21.57 
 O                     54.24     28.39     22.77 
 C                     52.45     26.9      21.31 
 C                     51.31     26.35     20.47 
 N                     51.69     25.48     19.53 
 O                     50.14     26.71     20.56 
 H                     53.92     27.33     19.14 
 H                     52.26     28.98     20.95 
 H                     51.93     27.17     22.23 
 H                     53.27     26.2      21.49 
 H                     52.55     25.       19.76 
 H                     50.98     25.03     18.97 
 N                     55.17     29.4      20.98 
 C                     56.07     30.24     21.74 
 C                     57.03     29.46     22.64 
 O                     57.7      28.54     22.18 
 H                     54.98     29.62     20.02 
 H                     55.47     30.89     22.38 
 H                     56.69     30.77     21.02 
 N                     57.1      29.94     23.88 
 C                     57.69     29.19     24.97 
 C                     57.07     27.87     25.41 
 O                     57.55     27.25     26.36 
 C                     59.21     29.13     24.84 
 C                     59.99     30.4      25.11 
 C                     60.5      31.15     24.05 
 C                     60.3      30.71     26.44 
 C                     61.31     32.25     24.37 
 C                     61.16     31.77     26.73 
 C                     61.73     32.52     25.69 
 O                     62.59     33.56     25.94 
 H                     56.55     30.73     24.17 
 H                     57.55     29.81     25.85 
 H                     59.52     28.85     23.83 
 H                     59.61     28.35     25.49 
 H                     60.23     30.97     23.02 
 H                     59.89     30.06     27.2 
 H                     61.69     32.88     23.59 
 H                     61.33     32.11     27.74 
 H                     62.8      33.58     26.87 
 N                     56.12     27.37     24.62 
 C                     55.44     26.09     24.74 
 C                     54.49     25.89     25.91 
 O                     53.46     25.26     25.7 
 C                     56.42     24.95     24.46 
 C                     56.96     24.95     23.03 
 C                     55.83     23.57     24.74 
 C                     58.47     24.76     22.87 
 H                     55.72     27.98     23.92 
 H                     54.77     26.11     23.89 
 H                     57.2      25.16     25.19 
 H                     56.69     25.89     22.56 
 H                     56.43     24.15     22.52 
 H                     55.       23.33     24.08 
 H                     56.63     22.83     24.68 
 H                     55.55     23.55     25.79 
 H                     58.82     23.84     23.34 
 H                     58.68     24.63     21.8 
 H                     59.11     25.53     23.27 
 N                     54.93     26.32     27.09 
 C                     54.2      26.48     28.33 
 C                     53.68     25.18     28.92 
 O                     52.85     25.25     29.82 
 C                     54.94     27.39     29.31 
 O                     54.9      28.74     28.88 
 H                     55.85     26.71     26.95 
 H                     53.31     27.02     28.02 
 H                     55.98     27.07     29.37 
 H                     54.34     27.31     30.22 
 H                     55.76     29.16     28.91 
 N                     54.13     24.01     28.44 
 C                     53.59     22.7      28.7 
 C                     52.08     22.58     28.56 
 O                     51.43     21.8      29.26 
 C                     54.12     22.09     30. 
 H                     54.91     24.02     27.79 
 H                     54.06     22.12     27.9 
 H                     53.89     21.03     29.98 
 H                     55.2      22.22     30.09 
 H                     53.63     22.59     30.83 
 N                     51.5      23.37     27.65 
 C                     50.08     23.45     27.37 
 C                     49.79     22.57     26.16 
 O                     50.71     22.34     25.38 
 C                     49.65     24.9      27.18 
 H                     52.1      24.       27.15 
 H                     49.48     23.04     28.19 
 H                     48.6      24.91     26.91 
 H                     49.89     25.35     28.15 
 H                     50.25     25.3      26.36 
 N                     48.53     22.2      25.91 
 C                     47.9      21.6      24.75 
 C                     48.46     20.21     24.53 
 O                     48.48     19.77     23.38 
 C                     47.95     22.47     23.5 
 C                     47.38     23.88     23.56 
 C                     47.48     24.58     22.21 
 O                     47.98     24.       21.22 
 O                     46.98     25.71     22.05 
 H                     47.99     22.6      26.66 
 H                     46.85     21.47     25.03 
 H                     47.35     21.9      22.78 
 H                     48.98     22.59     23.16 
 H                     47.98     24.48     24.25 
 H                     46.31     23.76     23.74 
 N                     48.87     19.46     25.56 
 C                     49.67     18.26     25.41 
 H                     50.618    18.389    25.932 
 H                     49.135    17.41     25.834 
 H                     49.86     18.079    24.352 
 H                     48.78     19.91     26.46 
 Ca                    47.72     26.68     19.72 
 O                     45.82     28.09     20.81 
 H                     45.95     28.62     21.59 
 H                     44.94     28.29     20.52 
 
 Stoichiometry    C54H83CaN15O23
 Framework group  C1[X(C54H83CaN15O23)]
 Deg. of freedom   522
 Full point group                 C1      NOp   1
 Largest Abelian subgroup         C1      NOp   1
 Largest concise Abelian subgroup C1      NOp   1
                         Standard orientation:                         
 ---------------------------------------------------------------------
 Center     Atomic      Atomic             Coordinates (Angstroms)
 Number     Number       Type             X           Y           Z
 ---------------------------------------------------------------------
      1          6           0        9.889551    0.387432    5.692713
      2          6           0       10.146593    0.991594    4.326727
      3          8           0       11.289268    1.019947    3.864676
      4          1           0        9.098688    0.946146    6.193918
      5          1           0        9.583238   -0.652668    5.578902
      6          1           0       10.801197    0.434638    6.288262
      7          7           0        9.076256    1.372516    3.619778
      8          6           0        9.250221    2.029558    2.333803
      9          6           0        9.112007    0.985247    1.234480
     10          8           0        8.494750   -0.066899    1.351444
     11          6           0        8.166119    3.099200    2.238470
     12          6           0        8.594996    3.993517    1.084104
     13          8           0        8.132355    3.783620   -0.059927
     14          8           0        9.319650    4.967739    1.363868
     15          1           0        8.176256    1.438358    4.087822
     16          1           0       10.174416    2.588819    2.273876
     17          1           0        8.240558    3.613146    3.193415
     18          1           0        7.190615    2.611370    2.185414
     19          7           0        9.765265    1.288054    0.107865
     20          6           0        9.746856    0.636254   -1.182723
     21          6           0        8.419942    0.417581   -1.882281
     22          8           0        8.405814    0.324959   -3.108055
     23          6           0       10.744104   -0.518690   -1.118695
     24          6           0       12.174964   -0.169600   -0.721108
     25          6           0       12.519588   -0.338815    0.748416
     26          6           0       13.440603    0.710679    1.354794
     27          7           0       13.893759    0.349562    2.713891
     28          1           0        9.958523    2.279318    0.045828
     29          1           0       10.191025    1.254098   -1.964761
     30          1           0       10.725342   -0.974465   -2.105517
     31          1           0       10.285355   -1.212968   -0.413764
     32          1           0       12.341693    0.886410   -0.943470
     33          1           0       12.911638   -0.720516   -1.318103
     34          1           0       13.006886   -1.313562    0.758776
     35          1           0       11.629787   -0.351493    1.370182
     36          1           0       12.881609    1.647220    1.343987
     37          1           0       14.313264    0.873457    0.719762
     38          1           0       14.370644    1.135510    3.120790
     39          1           0       13.121422    0.202783    3.340031
     40          1           0       14.445679   -0.488459    2.597247
     41          7           0        7.283265    0.221030   -1.205351
     42          6           0        5.929700    0.128592   -1.708556
     43          6           0        5.096139    1.310503   -1.249250
     44          8           0        5.490151    1.973283   -0.289574
     45          6           0        5.333974   -1.185380   -1.234962
     46          6           0        3.995437   -1.500409   -1.901652
     47          8           0        3.765739   -0.886830   -2.961869
     48          8           0        3.201355   -2.416582   -1.600719
     49          1           0        7.358057    0.246919   -0.202437
     50          1           0        5.920797    0.103108   -2.799551
     51          1           0        5.197001   -1.163479   -0.154333
     52          1           0        5.975381   -2.021709   -1.531020
     53          7           0        3.933264    1.516029   -1.876370
     54          6           0        2.967577    2.582735   -1.698080
     55          6           0        1.671188    2.273011   -2.419500
     56          8           0        1.678497    2.016967   -3.629991
     57          1           0        3.581821    0.819243   -2.506908
     58          1           0        3.334859    3.472518   -2.206006
     59          1           0        2.760043    2.758274   -0.642279
     60          7           0        0.588584    2.191105   -1.645963
     61          6           0       -0.703497    1.601381   -1.945386
     62          6           0       -1.850002    2.529140   -1.605546
     63          8           0       -2.948546    2.007670   -1.420423
     64          6           0       -0.841440    0.250302   -1.254404
     65          6           0        0.350181   -0.666721   -1.470756
     66          7           0        1.283474   -0.589200   -0.517942
     67          8           0        0.518128   -1.370728   -2.462102
     68          1           0        0.757640    2.283622   -0.651700
     69          1           0       -0.787715    1.418676   -3.021921
     70          1           0       -1.620625   -0.272863   -1.810163
     71          1           0       -1.117096    0.409836   -0.208764
     72          1           0        0.913807   -0.288095    0.374012
     73          1           0        2.078129   -1.210857   -0.565542
     74          7           0       -1.660886    3.849521   -1.616941
     75          6           0       -2.759749    4.777453   -1.773922
     76          6           0       -3.743637    4.772617   -0.602622
     77          8           0       -3.335502    4.891022    0.549031
     78          1           0       -0.734154    4.131542   -1.877196
     79          1           0       -3.313542    4.500173   -2.673104
     80          1           0       -2.327570    5.775435   -1.804792
     81          7           0       -5.018387    4.716679   -0.983125
     82          6           0       -6.088945    4.390593   -0.063194
     83          6           0       -6.126431    3.023975    0.608633
     84          8           0       -7.055844    2.733349    1.362972
     85          6           0       -6.361141    5.544456    0.898789
     86          6           0       -7.032612    6.782226    0.340889
     87          6           0       -6.283974    7.929798    0.078552
     88          6           0       -8.429172    6.781493    0.237361
     89          6           0       -6.983242    9.076605   -0.326858
     90          6           0       -9.106763    7.952322   -0.105174
     91          6           0       -8.393128    9.138989   -0.332209
     92          8           0       -9.029464   10.310723   -0.657504
     93          1           0       -5.275868    4.666795   -1.953648
     94          1           0       -6.988529    4.368786   -0.670378
     95          1           0       -5.438819    5.931236    1.339608
     96          1           0       -6.958176    5.194423    1.742546
     97          1           0       -5.204234    7.942419    0.092728
     98          1           0       -8.935812    5.860454    0.488767
     99          1           0       -6.446344    9.969669   -0.579598
    100          1           0      -10.166902    7.962692   -0.306666
    101          1           0       -9.972140   10.191589   -0.576451
    102          7           0       -5.041134    2.263748    0.464464
    103          6           0       -4.765167    0.974426    1.078215
    104          6           0       -5.590541   -0.222408    0.633528
    105          8           0       -5.013659   -1.298464    0.527649
    106          6           0       -4.574858    1.144067    2.585997
    107          6           0       -3.360556    1.996732    2.953331
    108          6           0       -4.458587   -0.184736    3.328738
    109          6           0       -3.580406    3.077380    4.014306
    110          1           0       -4.368904    2.531265   -0.241682
    111          1           0       -3.782296    0.744317    0.687301
    112          1           0       -5.510561    1.627265    2.862365
    113          1           0       -2.995250    2.481262    2.053786
    114          1           0       -2.604381    1.293568    3.292093
    115          1           0       -3.571150   -0.744778    3.044293
    116          1           0       -4.494416    0.011271    4.401817
    117          1           0       -5.378025   -0.734362    3.144770
    118          1           0       -3.970311    2.664810    4.945735
    119          1           0       -2.598856    3.493826    4.277047
    120          1           0       -4.256547    3.880535    3.768798
    121          7           0       -6.898848   -0.009070    0.516397
    122          6           0       -7.908058   -0.853839   -0.086894
    123          6           0       -8.117961   -2.180049    0.624168
    124          8           0       -8.762869   -3.046507    0.043526
    125          6           0       -9.184623   -0.074805   -0.402467
    126          8           0       -8.985471    0.807518   -1.493725
    127          1           0       -7.074819    0.954324    0.759308
    128          1           0       -7.464173   -1.118107   -1.042368
    129          1           0       -9.466894    0.507432    0.474416
    130          1           0       -9.875941   -0.857188   -0.725665
    131          1           0       -9.311807    1.690022   -1.315983
    132          7           0       -7.591409   -2.365806    1.844838
    133          6           0       -7.480883   -3.610241    2.562100
    134          6           0       -6.925554   -4.776404    1.758499
    135          8           0       -7.289998   -5.935042    1.972130
    136          6           0       -8.757725   -3.966204    3.327583
    137          1           0       -7.183672   -1.568726    2.323812
    138          1           0       -6.751835   -3.340999    3.332358
    139          1           0       -8.504658   -4.745186    4.038950
    140          1           0       -9.152487   -3.103494    3.867300
    141          1           0       -9.496900   -4.306034    2.608460
    142          7           0       -6.035162   -4.475680    0.806991
    143          6           0       -5.403444   -5.414944   -0.098501
    144          6           0       -4.033329   -5.765250    0.469540
    145          8           0       -3.500345   -4.960443    1.228430
    146          6           0       -5.344527   -4.844149   -1.510670
    147          1           0       -5.822918   -3.503548    0.677327
    148          1           0       -5.955500   -6.359701   -0.154788
    149          1           0       -4.809599   -5.547448   -2.138940
    150          1           0       -6.403266   -4.705010   -1.757069
    151          1           0       -4.790841   -3.905161   -1.446379
    152          7           0       -3.399464   -6.852593    0.019095
    153          6           0       -2.031772   -7.313725    0.157937
    154          6           0       -1.745687   -7.624187    1.612539
    155          8           0       -0.586951   -7.505192    2.012130
    156          6           0       -0.999503   -6.385260   -0.469976
    157          6           0       -1.134197   -6.021045   -1.941644
    158          6           0        0.007423   -5.121779   -2.400472
    159          8           0        0.908948   -4.770777   -1.606400
    160          8           0        0.108657   -4.797786   -3.599339
    161          1           0       -4.033015   -7.262990   -0.647453
    162          1           0       -1.996473   -8.268867   -0.375222
    163          1           0       -0.062655   -6.943292   -0.350745
    164          1           0       -0.970844   -5.432330    0.061062
    165          1           0       -2.047437   -5.436376   -2.083963
    166          1           0       -1.000204   -6.954418   -2.491698
    167          7           0       -2.711237   -8.067561    2.426562
    168          6           0       -2.586622   -8.108922    3.870605
    169          1           0       -3.356363   -7.480863    4.318789
    170          1           0       -2.708166   -9.135232    4.217615
    171          1           0       -1.602826   -7.740735    4.161824
    172          1           0       -3.615456   -8.155894    1.984764
    173         20           0        1.966458   -2.954546   -3.860945
    174          8           0        1.208151   -3.915251   -6.160558
    175          1           0        0.346199   -3.753943   -6.530987
    176          1           0        1.685771   -4.374323   -6.838519
 ---------------------------------------------------------------------
 Rotational constants (GHZ):           0.0175439           0.0078730           0.0062826
 Standard basis: SVP (5D, 7F)
 There are  1809 symmetry adapted cartesian basis functions of A   symmetry.
 There are  1717 symmetry adapted basis functions of A   symmetry.
  1717 basis functions,  2922 primitive gaussians,  1809 cartesian basis functions
   358 alpha electrons      358 beta electrons
       nuclear repulsion energy     18541.8829827401 Hartrees.
 NAtoms=  176 NActive=  176 NUniq=  176 SFac= 1.00D+00 NAtFMM=   60 NAOKFM=T Big=T
 Integral buffers will be    131072 words long.
 Raffenetti 2 integral format.
 Two-electron integral symmetry is turned on.
 One-electron integrals computed using PRISM.
 NBasis=  1717 RedAO= T EigKep=  2.92D-04  NBF=  1717
 NBsUse=  1717 1.00D-06 EigRej= -1.00D+00 NBFU=  1717
 ExpMin= 1.98D-02 ExpMax= 3.51D+04 ExpMxC= 5.28D+03 IAcc=3 IRadAn=         5 AccDes= 0.00D+00
 Harris functional with IExCor=  402 and IRadAn=       5 diagonalized for initial guess.
 HarFok:  IExCor=  402 AccDes= 0.00D+00 IRadAn=         5 IDoV= 1 UseB2=F ITyADJ=14
 ICtDFT=  3500011 ScaDFX=  1.000000  1.000000  1.000000  1.000000
 FoFCou: FMM=F IPFlag=           0 FMFlag=      100000 FMFlg1=        2001
         NFxFlg=           0 DoJE=T BraDBF=F KetDBF=T FulRan=T
         wScrn=  0.000000 ICntrl=       500 IOpCl=  0 I1Cent=   200000004 NGrid=           0
         NMat0=    1 NMatS0=      1 NMatT0=    0 NMatD0=    1 NMtDS0=    0 NMtDT0=    0
 Petite list used in FoFCou.
 Requested convergence on RMS density matrix=1.00D-08 within 128 cycles.
 Requested convergence on MAX density matrix=1.00D-06.
 Requested convergence on             energy=1.00D-06.
 No special actions if energy rises.
 EnCoef did     2 forward-backward iterations
 EnCoef did     3 forward-backward iterations
 EnCoef did     4 forward-backward iterations
 Restarting incremental Fock formation.
 SCF Done:  E(RB3LYP) =  -5333.46634249     A.U. after   21 cycles
            NFock= 21  Conv=0.36D-08     -V/T= 2.0081
 SCF density gives NOpUse=  1 NOpAll=  1.
 Hyperfine terms turned off by default for NAtoms > 100.

 **********************************************************************

            Population analysis using the SCF density.

 **********************************************************************

 Orbital symmetries:
 BldTbl:  Degeneracy threshold= 1.00D-02
       Occupied  (A) (A) (A) (A) (A) (A) (A) (A) (A) (A) (A) (A)
                 (A) (A) (A) (A) (A) (A) (A) (A) (A) (A) (A) (A)
                 (A) (A) (A) (A) (A) (A) (A) (A) (A) (A) (A) (A)
                 (A) (A) (A) (A) (A) (A) (A) (A) (A) (A) (A) (A)
                 (A) (A) (A) (A) (A) (A) (A) (A) (A) (A) (A) (A)
                 (A) (A) (A) (A) (A) (A) (A) (A) (A) (A) (A) (A)
                 (A) (A) (A) (A) (A) (A) (A) (A) (A) (A) (A) (A)
                 (A) (A) (A) (A) (A) (A) (A) (A) (A) (A) (A) (A)
                 (A) (A) (A) (A) (A) (A) (A) (A) (A) (A) (A) (A)
                 (A) (A) (A) (A) (A) (A) (A) (A) (A) (A) (A) (A)
                 (A) (A) (A) (A) (A) (A) (A) (A) (A) (A) (A) (A)
                 (A) (A) (A) (A) (A) (A) (A) (A) (A) (A) (A) (A)
                 (A) (A) (A) (A) (A) (A) (A) (A) (A) (A) (A) (A)
                 (A) (A) (A) (A) (A) (A) (A) (A) (A) (A) (A) (A)
                 (A) (A) (A) (A) (A) (A) (A) (A) (A) (A) (A) (A)
                 (A) (A) (A) (A) (A) (A) (A) (A) (A) (A) (A) (A)
                 (A) (A) (A) (A) (A) (A) (A) (A) (A) (A) (A) (A)
                 (A) (A) (A) (A) (A) (A) (A) (A) (A) (A) (A) (A)
                 (A) (A) (A) (A) (A) (A) (A) (A) (A) (A) (A) (A)
                 (A) (A) (A) (A) (A) (A) (A) (A) (A) (A) (A) (A)
                 (A) (A) (A) (A) (A) (A) (A) (A) (A) (A) (A) (A)
                 (A) (A) (A) (A) (A) (A) (A) (A) (A) (A) (A) (A)
                 (A) (A) (A) (A) (A) (A) (A) (A) (A) (A) (A) (A)
                 (A) (A) (A) (A) (A) (A) (A) (A) (A) (A) (A) (A)
                 (A) (A) (A) (A) (A) (A) (A) (A) (A) (A) (A) (A)
                 (A) (A) (A) (A) (A) (A) (A) (A) (A) (A) (A) (A)
                 (A) (A) (A) (A) (A) (A) (A) (A) (A) (A) (A) (A)
                 (A) (A) (A) (A) (A) (A) (A) (A) (A) (A) (A) (A)
                 (A) (A) (A) (A) (A) (A) (A) (A) (A) (A) (A) (A)
                 (A) (A) (A) (A) (A) (A) (A) (A) (A) (A)
       Virtual   (A) (A) (A) (A) (A) (A) (A) (A) (A) (A) (A) (A)
                 (A) (A) (A) (A) (A) (A) (A) (A) (A) (A) (A) (A)
                 (A) (A) (A) (A) (A) (A) (A) (A) (A) (A) (A) (A)
                 (A) (A) (A) (A) (A) (A) (A) (A) (A) (A) (A) (A)
                 (A) (A) (A) (A) (A) (A) (A) (A) (A) (A) (A) (A)
                 (A) (A) (A) (A) (A) (A) (A) (A) (A) (A) (A) (A)
                 (A) (A) (A) (A) (A) (A) (A) (A) (A) (A) (A) (A)
                 (A) (A) (A) (A) (A) (A) (A) (A) (A) (A) (A) (A)
                 (A) (A) (A) (A) (A) (A) (A) (A) (A) (A) (A) (A)
                 (A) (A) (A) (A) (A) (A) (A) (A) (A) (A) (A) (A)
                 (A) (A) (A) (A) (A) (A) (A) (A) (A) (A) (A) (A)
                 (A) (A) (A) (A) (A) (A) (A) (A) (A) (A) (A) (A)
                 (A) (A) (A) (A) (A) (A) (A) (A) (A) (A) (A) (A)
                 (A) (A) (A) (A) (A) (A) (A) (A) (A) (A) (A) (A)
                 (A) (A) (A) (A) (A) (A) (A) (A) (A) (A) (A) (A)
                 (A) (A) (A) (A) (A) (A) (A) (A) (A) (A) (A) (A)
                 (A) (A) (A) (A) (A) (A) (A) (A) (A) (A) (A) (A)
                 (A) (A) (A) (A) (A) (A) (A) (A) (A) (A) (A) (A)
                 (A) (A) (A) (A) (A) (A) (A) (A) (A) (A) (A) (A)
                 (A) (A) (A) (A) (A) (A) (A) (A) (A) (A) (A) (A)
                 (A) (A) (A) (A) (A) (A) (A) (A) (A) (A) (A) (A)
                 (A) (A) (A) (A) (A) (A) (A) (A) (A) (A) (A) (A)
                 (A) (A) (A) (A) (A) (A) (A) (A) (A) (A) (A) (A)
                 (A) (A) (A) (A) (A) (A) (A) (A) (A) (A) (A) (A)
                 (A) (A) (A) (A) (A) (A) (A) (A) (A) (A) (A) (A)
                 (A) (A) (A) (A) (A) (A) (A) (A) (A) (A) (A) (A)
                 (A) (A) (A) (A) (A) (A) (A) (A) (A) (A) (A) (A)
                 (A) (A) (A) (A) (A) (A) (A) (A) (A) (A) (A) (A)
                 (A) (A) (A) (A) (A) (A) (A) (A) (A) (A) (A) (A)
                 (A) (A) (A) (A) (A) (A) (A) (A) (A) (A) (A) (A)
                 (A) (A) (A) (A) (A) (A) (A) (A) (A) (A) (A) (A)
                 (A) (A) (A) (A) (A) (A) (A) (A) (A) (A) (A) (A)
                 (A) (A) (A) (A) (A) (A) (A) (A) (A) (A) (A) (A)
                 (A) (A) (A) (A) (A) (A) (A) (A) (A) (A) (A) (A)
                 (A) (A) (A) (A) (A) (A) (A) (A) (A) (A) (A) (A)
                 (A) (A) (A) (A) (A) (A) (A) (A) (A) (A) (A) (A)
                 (A) (A) (A) (A) (A) (A) (A) (A) (A) (A) (A) (A)
                 (A) (A) (A) (A) (A) (A) (A) (A) (A) (A) (A) (A)
                 (A) (A) (A) (A) (A) (A) (A) (A) (A) (A) (A) (A)
                 (A) (A) (A) (A) (A) (A) (A) (A) (A) (A) (A) (A)
                 (A) (A) (A) (A) (A) (A) (A) (A) (A) (A) (A) (A)
                 (A) (A) (A) (A) (A) (A) (A) (A) (A) (A) (A) (A)
                 (A) (A) (A) (A) (A) (A) (A) (A) (A) (A) (A) (A)
                 (A) (A) (A) (A) (A) (A) (A) (A) (A) (A) (A) (A)
                 (A) (A) (A) (A) (A) (A) (A) (A) (A) (A) (A) (A)
                 (A) (A) (A) (A) (A) (A) (A) (A) (A) (A) (A) (A)
                 (A) (A) (A) (A) (A) (A) (A) (A) (A) (A) (A) (A)
                 (A) (A) (A) (A) (A) (A) (A) (A) (A) (A) (A) (A)
                 (A) (A) (A) (A) (A) (A) (A) (A) (A) (A) (A) (A)
                 (A) (A) (A) (A) (A) (A) (A) (A) (A) (A) (A) (A)
                 (A) (A) (A) (A) (A) (A) (A) (A) (A) (A) (A) (A)
                 (A) (A) (A) (A) (A) (A) (A) (A) (A) (A) (A) (A)
                 (A) (A) (A) (A) (A) (A) (A) (A) (A) (A) (A) (A)
                 (A) (A) (A) (A) (A) (A) (A) (A) (A) (A) (A) (A)
                 (A) (A) (A) (A) (A) (A) (A) (A) (A) (A) (A) (A)
                 (A) (A) (A) (A) (A) (A) (A) (A) (A) (A) (A) (A)
                 (A) (A) (A) (A) (A) (A) (A) (A) (A) (A) (A) (A)
                 (A) (A) (A) (A) (A) (A) (A) (A) (A) (A) (A) (A)
                 (A) (A) (A) (A) (A) (A) (A) (A) (A) (A) (A) (A)
                 (A) (A) (A) (A) (A) (A) (A) (A) (A) (A) (A) (A)
                 (A) (A) (A) (A) (A) (A) (A) (A) (A) (A) (A) (A)
                 (A) (A) (A) (A) (A) (A) (A) (A) (A) (A) (A) (A)
                 (A) (A) (A) (A) (A) (A) (A) (A) (A) (A) (A) (A)
                 (A) (A) (A) (A) (A) (A) (A) (A) (A) (A) (A) (A)
                 (A) (A) (A) (A) (A) (A) (A) (A) (A) (A) (A) (A)
                 (A) (A) (A) (A) (A) (A) (A) (A) (A) (A) (A) (A)
                 (A) (A) (A) (A) (A) (A) (A) (A) (A) (A) (A) (A)
                 (A) (A) (A) (A) (A) (A) (A) (A) (A) (A) (A) (A)
                 (A) (A) (A) (A) (A) (A) (A) (A) (A) (A) (A) (A)
                 (A) (A) (A) (A) (A) (A) (A) (A) (A) (A) (A) (A)
                 (A) (A) (A) (A) (A) (A) (A) (A) (A) (A) (A) (A)
                 (A) (A) (A) (A) (A) (A) (A) (A) (A) (A) (A) (A)
                 (A) (A) (A) (A) (A) (A) (A) (A) (A) (A) (A) (A)
                 (A) (A) (A) (A) (A) (A) (A) (A) (A) (A) (A) (A)
                 (A) (A) (A) (A) (A) (A) (A) (A) (A) (A) (A) (A)
                 (A) (A) (A) (A) (A) (A) (A) (A) (A) (A) (A) (A)
                 (A) (A) (A) (A) (A) (A) (A) (A) (A) (A) (A) (A)
                 (A) (A) (A) (A) (A) (A) (A) (A) (A) (A) (A) (A)
                 (A) (A) (A) (A) (A) (A) (A) (A) (A) (A) (A) (A)
                 (A) (A) (A) (A) (A) (A) (A) (A) (A) (A) (A) (A)
                 (A) (A) (A) (A) (A) (A) (A) (A) (A) (A) (A) (A)
                 (A) (A) (A) (A) (A) (A) (A) (A) (A) (A) (A) (A)
                 (A) (A) (A) (A) (A) (A) (A) (A) (A) (A) (A) (A)
                 (A) (A) (A) (A) (A) (A) (A) (A) (A) (A) (A) (A)
                 (A) (A) (A) (A) (A) (A) (A) (A) (A) (A) (A) (A)
                 (A) (A) (A) (A) (A) (A) (A) (A) (A) (A) (A) (A)
                 (A) (A) (A) (A) (A) (A) (A) (A) (A) (A) (A) (A)
                 (A) (A) (A) (A) (A) (A) (A) (A) (A) (A) (A) (A)
                 (A) (A) (A) (A) (A) (A) (A) (A) (A) (A) (A) (A)
                 (A) (A) (A) (A) (A) (A) (A) (A) (A) (A) (A) (A)
                 (A) (A) (A) (A) (A) (A) (A) (A) (A) (A) (A) (A)
                 (A) (A) (A) (A) (A) (A) (A) (A) (A) (A) (A) (A)
                 (A) (A) (A) (A) (A) (A) (A) (A) (A) (A) (A) (A)
                 (A) (A) (A) (A) (A) (A) (A) (A) (A) (A) (A) (A)
                 (A) (A) (A) (A) (A) (A) (A) (A) (A) (A) (A) (A)
                 (A) (A) (A) (A) (A) (A) (A) (A) (A) (A) (A) (A)
                 (A) (A) (A) (A) (A) (A) (A) (A) (A) (A) (A) (A)
                 (A) (A) (A) (A) (A) (A) (A) (A) (A) (A) (A) (A)
                 (A) (A) (A) (A) (A) (A) (A) (A) (A) (A) (A) (A)
                 (A) (A) (A) (A) (A) (A) (A) (A) (A) (A) (A) (A)
                 (A) (A) (A) (A) (A) (A) (A) (A) (A) (A) (A) (A)
                 (A) (A) (A) (A) (A) (A) (A) (A) (A) (A) (A) (A)
                 (A) (A) (A) (A) (A) (A) (A) (A) (A) (A) (A) (A)
                 (A) (A) (A) (A) (A) (A) (A) (A) (A) (A) (A) (A)
                 (A) (A) (A) (A) (A) (A) (A) (A) (A) (A) (A) (A)
                 (A) (A) (A) (A) (A) (A) (A) (A) (A) (A) (A) (A)
                 (A) (A) (A) (A) (A) (A) (A) (A) (A) (A) (A) (A)
                 (A) (A) (A) (A) (A) (A) (A) (A) (A) (A) (A) (A)
                 (A) (A) (A) (A) (A) (A) (A) (A) (A) (A) (A) (A)
                 (A) (A) (A) (A) (A) (A) (A) (A) (A) (A) (A) (A)
                 (A) (A) (A) (A) (A) (A) (A) (A) (A) (A) (A) (A)
                 (A) (A) (A) (A) (A) (A) (A) (A) (A) (A) (A) (A)
                 (A) (A) (A) (A) (A) (A) (A) (A) (A) (A) (A) (A)
                 (A) (A) (A)
 The electronic state is 1-A.
 Alpha  occ. eigenvalues -- -145.43142 -19.21217 -19.16966 -19.14078 -19.13462
 Alpha  occ. eigenvalues --  -19.12336 -19.12277 -19.12228 -19.11784 -19.10751
 Alpha  occ. eigenvalues --  -19.09691 -19.08725 -19.08462 -19.07308 -19.07191
 Alpha  occ. eigenvalues --  -19.06688 -19.06551 -19.05471 -19.05409 -19.05330
 Alpha  occ. eigenvalues --  -19.03382 -19.01737 -18.95921 -18.95868 -15.49013
 Alpha  occ. eigenvalues --  -14.53358 -14.39548 -14.38763 -14.38216 -14.35855
 Alpha  occ. eigenvalues --  -14.35831 -14.35106 -14.34801 -14.34712 -14.33678
 Alpha  occ. eigenvalues --  -14.32976 -14.32354 -14.32007 -14.31250 -14.30423
 Alpha  occ. eigenvalues --  -12.62645 -12.62587 -12.62517 -10.32150 -10.31178
 Alpha  occ. eigenvalues --  -10.30715 -10.30676 -10.30124 -10.30088 -10.29645
 Alpha  occ. eigenvalues --  -10.27943 -10.27650 -10.26859 -10.26604 -10.26531
 Alpha  occ. eigenvalues --  -10.26430 -10.25750 -10.25719 -10.25294 -10.25264
 Alpha  occ. eigenvalues --  -10.24804 -10.24700 -10.24291 -10.24274 -10.23459
 Alpha  occ. eigenvalues --  -10.22936 -10.22315 -10.21993 -10.21926 -10.21841
 Alpha  occ. eigenvalues --  -10.21594 -10.21497 -10.21444 -10.21362 -10.21304
 Alpha  occ. eigenvalues --  -10.20717 -10.20663 -10.19840 -10.19803 -10.19795
 Alpha  occ. eigenvalues --  -10.19554 -10.19442 -10.19421 -10.19232 -10.19072
 Alpha  occ. eigenvalues --  -10.18802 -10.18229 -10.17576 -10.17245 -10.17201
 Alpha  occ. eigenvalues --  -10.17055 -10.16679 -10.16213 -10.16054 -10.14728
 Alpha  occ. eigenvalues --  -10.13737 -10.12887  -1.85665  -1.13380  -1.12851
 Alpha  occ. eigenvalues --   -1.12504  -1.08903  -1.07486  -1.07315  -1.05490
 Alpha  occ. eigenvalues --   -1.05353  -1.04551  -1.04507  -1.04380  -1.03474
 Alpha  occ. eigenvalues --   -1.03254  -1.02819  -1.01745  -1.01646  -1.01325
 Alpha  occ. eigenvalues --   -1.00398  -0.99148  -0.98908  -0.98543  -0.97957
 Alpha  occ. eigenvalues --   -0.97813  -0.96509  -0.95805  -0.94724  -0.93272
 Alpha  occ. eigenvalues --   -0.92504  -0.92459  -0.92049  -0.91348  -0.91103
 Alpha  occ. eigenvalues --   -0.90935  -0.90610  -0.90345  -0.88835  -0.88593
 Alpha  occ. eigenvalues --   -0.88101  -0.87382  -0.86729  -0.85682  -0.84941
 Alpha  occ. eigenvalues --   -0.81730  -0.81254  -0.80893  -0.80054  -0.79098
 Alpha  occ. eigenvalues --   -0.77943  -0.77108  -0.77058  -0.76835  -0.75792
 Alpha  occ. eigenvalues --   -0.75215  -0.74994  -0.74323  -0.73889  -0.73658
 Alpha  occ. eigenvalues --   -0.72809  -0.72347  -0.71765  -0.70668  -0.70182
 Alpha  occ. eigenvalues --   -0.69873  -0.69268  -0.68061  -0.67101  -0.66774
 Alpha  occ. eigenvalues --   -0.65883  -0.65422  -0.64568  -0.63998  -0.63532
 Alpha  occ. eigenvalues --   -0.62974  -0.62776  -0.62218  -0.62126  -0.61936
 Alpha  occ. eigenvalues --   -0.61843  -0.60881  -0.60551  -0.60449  -0.59599
 Alpha  occ. eigenvalues --   -0.59491  -0.59229  -0.58912  -0.58592  -0.58296
 Alpha  occ. eigenvalues --   -0.57719  -0.57668  -0.57241  -0.56448  -0.55962
 Alpha  occ. eigenvalues --   -0.55830  -0.55784  -0.55414  -0.55381  -0.55088
 Alpha  occ. eigenvalues --   -0.54493  -0.54094  -0.53989  -0.53737  -0.53363
 Alpha  occ. eigenvalues --   -0.52652  -0.52457  -0.52432  -0.52293  -0.52091
 Alpha  occ. eigenvalues --   -0.51480  -0.51161  -0.50863  -0.50162  -0.49946
 Alpha  occ. eigenvalues --   -0.49173  -0.49076  -0.48777  -0.48668  -0.48524
 Alpha  occ. eigenvalues --   -0.48480  -0.48349  -0.47884  -0.47728  -0.47440
 Alpha  occ. eigenvalues --   -0.47098  -0.46926  -0.46631  -0.46553  -0.46344
 Alpha  occ. eigenvalues --   -0.46030  -0.45985  -0.45767  -0.45542  -0.45488
 Alpha  occ. eigenvalues --   -0.45365  -0.45290  -0.45155  -0.44846  -0.44494
 Alpha  occ. eigenvalues --   -0.44449  -0.44185  -0.44018  -0.43841  -0.43662
 Alpha  occ. eigenvalues --   -0.43651  -0.43436  -0.43416  -0.43275  -0.43111
 Alpha  occ. eigenvalues --   -0.43071  -0.43039  -0.42855  -0.42589  -0.42496
 Alpha  occ. eigenvalues --   -0.42373  -0.42163  -0.41718  -0.41630  -0.41573
 Alpha  occ. eigenvalues --   -0.41549  -0.41458  -0.41070  -0.41027  -0.40776
 Alpha  occ. eigenvalues --   -0.40658  -0.40461  -0.40229  -0.39992  -0.39932
 Alpha  occ. eigenvalues --   -0.39603  -0.39531  -0.39475  -0.39352  -0.39284
 Alpha  occ. eigenvalues --   -0.39002  -0.38951  -0.38782  -0.38747  -0.38462
 Alpha  occ. eigenvalues --   -0.38339  -0.38315  -0.38155  -0.37996  -0.37957
 Alpha  occ. eigenvalues --   -0.37873  -0.37543  -0.37428  -0.37264  -0.37101
 Alpha  occ. eigenvalues --   -0.37077  -0.36575  -0.36413  -0.36156  -0.36042
 Alpha  occ. eigenvalues --   -0.36001  -0.35832  -0.35624  -0.35615  -0.35289
 Alpha  occ. eigenvalues --   -0.35068  -0.35019  -0.34805  -0.34789  -0.34402
 Alpha  occ. eigenvalues --   -0.34283  -0.33835  -0.33594  -0.33430  -0.33386
 Alpha  occ. eigenvalues --   -0.33375  -0.33106  -0.32874  -0.32524  -0.32319
 Alpha  occ. eigenvalues --   -0.32037  -0.31636  -0.31408  -0.31353  -0.31256
 Alpha  occ. eigenvalues --   -0.30808  -0.30752  -0.30325  -0.29574  -0.29299
 Alpha  occ. eigenvalues --   -0.28625  -0.28546  -0.28502  -0.28431  -0.28028
 Alpha  occ. eigenvalues --   -0.27655  -0.27589  -0.27401  -0.27161  -0.26936
 Alpha  occ. eigenvalues --   -0.26677  -0.26435  -0.26335  -0.26215  -0.25707
 Alpha  occ. eigenvalues --   -0.25699  -0.25330  -0.24771  -0.24244  -0.23918
 Alpha  occ. eigenvalues --   -0.23841  -0.23012  -0.22961  -0.22621  -0.22581
 Alpha  occ. eigenvalues --   -0.22474  -0.22338  -0.22010  -0.21924  -0.21651
 Alpha  occ. eigenvalues --   -0.21192  -0.20960  -0.20835  -0.20079  -0.17537
 Alpha  occ. eigenvalues --   -0.13877  -0.13674  -0.11360
 Alpha virt. eigenvalues --   -0.06063  -0.05831  -0.02624  -0.02384  -0.01712
 Alpha virt. eigenvalues --   -0.00924  -0.00663  -0.00623   0.00127   0.00238
 Alpha virt. eigenvalues --    0.00436   0.00691   0.01342   0.01690   0.01733
 Alpha virt. eigenvalues --    0.02384   0.02630   0.03029   0.03039   0.03519
 Alpha virt. eigenvalues --    0.03623   0.03778   0.03888   0.04394   0.04445
 Alpha virt. eigenvalues --    0.04558   0.04714   0.05260   0.05439   0.05555
 Alpha virt. eigenvalues --    0.05640   0.05736   0.06003   0.06355   0.06508
 Alpha virt. eigenvalues --    0.06828   0.07475   0.07575   0.07673   0.08023
 Alpha virt. eigenvalues --    0.08141   0.08336   0.08612   0.08768   0.08981
 Alpha virt. eigenvalues --    0.09139   0.09229   0.09649   0.09659   0.09861
 Alpha virt. eigenvalues --    0.10247   0.10498   0.10534   0.10885   0.11094
 Alpha virt. eigenvalues --    0.11399   0.11542   0.11700   0.11765   0.11916
 Alpha virt. eigenvalues --    0.12106   0.12132   0.12350   0.12589   0.12717
 Alpha virt. eigenvalues --    0.12857   0.13004   0.13052   0.13359   0.13615
 Alpha virt. eigenvalues --    0.13712   0.13893   0.13927   0.14100   0.14176
 Alpha virt. eigenvalues --    0.14376   0.14635   0.14740   0.14873   0.15104
 Alpha virt. eigenvalues --    0.15149   0.15392   0.15459   0.15625   0.15781
 Alpha virt. eigenvalues --    0.15890   0.16068   0.16212   0.16364   0.16553
 Alpha virt. eigenvalues --    0.16700   0.16745   0.16901   0.17064   0.17229
 Alpha virt. eigenvalues --    0.17542   0.17659   0.17820   0.17852   0.18083
 Alpha virt. eigenvalues --    0.18154   0.18286   0.18328   0.18445   0.18639
 Alpha virt. eigenvalues --    0.18920   0.19213   0.19365   0.19475   0.19520
 Alpha virt. eigenvalues --    0.19806   0.19927   0.20278   0.20347   0.20517
 Alpha virt. eigenvalues --    0.20619   0.20800   0.20835   0.21594   0.21770
 Alpha virt. eigenvalues --    0.22110   0.22356   0.22601   0.22746   0.22941
 Alpha virt. eigenvalues --    0.23062   0.23224   0.23484   0.23725   0.23842
 Alpha virt. eigenvalues --    0.24204   0.24286   0.24496   0.24691   0.24797
 Alpha virt. eigenvalues --    0.24952   0.25219   0.25334   0.25839   0.25964
 Alpha virt. eigenvalues --    0.26447   0.26656   0.26863   0.27020   0.27204
 Alpha virt. eigenvalues --    0.27550   0.27818   0.27927   0.27971   0.28392
 Alpha virt. eigenvalues --    0.28658   0.28984   0.29036   0.29082   0.29384
 Alpha virt. eigenvalues --    0.29454   0.29782   0.29904   0.30330   0.30558
 Alpha virt. eigenvalues --    0.31279   0.31469   0.32019   0.32115   0.32347
 Alpha virt. eigenvalues --    0.32397   0.33219   0.33516   0.33769   0.34176
 Alpha virt. eigenvalues --    0.34553   0.34627   0.34762   0.34898   0.35099
 Alpha virt. eigenvalues --    0.35299   0.35440   0.35676   0.35836   0.36650
 Alpha virt. eigenvalues --    0.36816   0.37145   0.37626   0.37863   0.38382
 Alpha virt. eigenvalues --    0.38564   0.38656   0.38809   0.39002   0.39138
 Alpha virt. eigenvalues --    0.39217   0.39578   0.39833   0.39931   0.40019
 Alpha virt. eigenvalues --    0.40334   0.41042   0.41259   0.41457   0.41557
 Alpha virt. eigenvalues --    0.42120   0.42291   0.42618   0.42733   0.42956
 Alpha virt. eigenvalues --    0.42994   0.43038   0.43236   0.43787   0.44001
 Alpha virt. eigenvalues --    0.44137   0.44473   0.44563   0.44955   0.45076
 Alpha virt. eigenvalues --    0.45261   0.45367   0.45513   0.45597   0.45803
 Alpha virt. eigenvalues --    0.45965   0.46064   0.46255   0.46350   0.46506
 Alpha virt. eigenvalues --    0.46710   0.47177   0.47422   0.47627   0.47747
 Alpha virt. eigenvalues --    0.47844   0.47965   0.48262   0.48581   0.48684
 Alpha virt. eigenvalues --    0.48770   0.48865   0.49274   0.49346   0.49398
 Alpha virt. eigenvalues --    0.49730   0.50080   0.50394   0.50519   0.50591
 Alpha virt. eigenvalues --    0.50736   0.50837   0.50880   0.51196   0.51255
 Alpha virt. eigenvalues --    0.51418   0.51704   0.51834   0.52019   0.52190
 Alpha virt. eigenvalues --    0.52445   0.52705   0.52965   0.53118   0.53325
 Alpha virt. eigenvalues --    0.53441   0.53547   0.53898   0.54025   0.54519
 Alpha virt. eigenvalues --    0.54709   0.54729   0.55127   0.55426   0.55642
 Alpha virt. eigenvalues --    0.55754   0.55936   0.56109   0.56330   0.56401
 Alpha virt. eigenvalues --    0.56624   0.57045   0.57175   0.57249   0.57547
 Alpha virt. eigenvalues --    0.57752   0.57946   0.58197   0.58251   0.58416
 Alpha virt. eigenvalues --    0.58590   0.58727   0.58903   0.59055   0.59267
 Alpha virt. eigenvalues --    0.59357   0.59456   0.59520   0.59623   0.59909
 Alpha virt. eigenvalues --    0.59926   0.60054   0.60321   0.60416   0.60586
 Alpha virt. eigenvalues --    0.60744   0.60921   0.61105   0.61428   0.61529
 Alpha virt. eigenvalues --    0.61620   0.61907   0.62138   0.62209   0.62327
 Alpha virt. eigenvalues --    0.62675   0.62731   0.62884   0.63034   0.63186
 Alpha virt. eigenvalues --    0.63256   0.63471   0.63519   0.63686   0.63773
 Alpha virt. eigenvalues --    0.64048   0.64076   0.64180   0.64322   0.64477
 Alpha virt. eigenvalues --    0.64550   0.64654   0.64737   0.64801   0.64857
 Alpha virt. eigenvalues --    0.64989   0.65112   0.65182   0.65259   0.65324
 Alpha virt. eigenvalues --    0.65583   0.65739   0.65799   0.65899   0.66004
 Alpha virt. eigenvalues --    0.66073   0.66172   0.66199   0.66207   0.66352
 Alpha virt. eigenvalues --    0.66414   0.66453   0.66730   0.66792   0.66884
 Alpha virt. eigenvalues --    0.67050   0.67123   0.67142   0.67297   0.67474
 Alpha virt. eigenvalues --    0.67712   0.67749   0.67944   0.68082   0.68235
 Alpha virt. eigenvalues --    0.68251   0.68398   0.68427   0.68583   0.68658
 Alpha virt. eigenvalues --    0.68785   0.68859   0.69032   0.69224   0.69276
 Alpha virt. eigenvalues --    0.69391   0.69496   0.69697   0.69726   0.69750
 Alpha virt. eigenvalues --    0.69814   0.69891   0.70014   0.70313   0.70372
 Alpha virt. eigenvalues --    0.70526   0.70599   0.70664   0.70730   0.70832
 Alpha virt. eigenvalues --    0.70960   0.71073   0.71121   0.71135   0.71307
 Alpha virt. eigenvalues --    0.71555   0.71619   0.71717   0.71832   0.71886
 Alpha virt. eigenvalues --    0.72103   0.72188   0.72294   0.72423   0.72685
 Alpha virt. eigenvalues --    0.72773   0.72907   0.73099   0.73166   0.73432
 Alpha virt. eigenvalues --    0.73582   0.73749   0.73952   0.74199   0.74335
 Alpha virt. eigenvalues --    0.74560   0.74629   0.74919   0.75108   0.75231
 Alpha virt. eigenvalues --    0.75564   0.75785   0.75963   0.76392   0.76563
 Alpha virt. eigenvalues --    0.76739   0.76883   0.77322   0.77421   0.77618
 Alpha virt. eigenvalues --    0.77716   0.77970   0.78196   0.78522   0.78706
 Alpha virt. eigenvalues --    0.78984   0.79043   0.79320   0.79557   0.79787
 Alpha virt. eigenvalues --    0.79901   0.80001   0.80308   0.80570   0.80965
 Alpha virt. eigenvalues --    0.81091   0.81379   0.81767   0.81871   0.81991
 Alpha virt. eigenvalues --    0.82134   0.82234   0.82828   0.83026   0.83404
 Alpha virt. eigenvalues --    0.83476   0.83771   0.84013   0.84218   0.84540
 Alpha virt. eigenvalues --    0.84847   0.85192   0.85326   0.85645   0.85828
 Alpha virt. eigenvalues --    0.86294   0.86469   0.87056   0.87571   0.87791
 Alpha virt. eigenvalues --    0.87896   0.88204   0.88333   0.88779   0.89190
 Alpha virt. eigenvalues --    0.89857   0.90060   0.90469   0.90691   0.91387
 Alpha virt. eigenvalues --    0.91398   0.91628   0.91978   0.92116   0.92265
 Alpha virt. eigenvalues --    0.92605   0.92804   0.92897   0.93091   0.93529
 Alpha virt. eigenvalues --    0.93778   0.94008   0.94164   0.94488   0.94692
 Alpha virt. eigenvalues --    0.95224   0.95528   0.96187   0.96318   0.96770
 Alpha virt. eigenvalues --    0.97104   0.97235   0.97782   0.98058   0.98351
 Alpha virt. eigenvalues --    0.98490   0.98792   0.99245   0.99580   0.99653
 Alpha virt. eigenvalues --    0.99885   1.00014   1.00274   1.00639   1.00681
 Alpha virt. eigenvalues --    1.01412   1.01553   1.01735   1.02314   1.02366
 Alpha virt. eigenvalues --    1.02969   1.03182   1.03567   1.03785   1.03863
 Alpha virt. eigenvalues --    1.03991   1.04354   1.04704   1.04952   1.05075
 Alpha virt. eigenvalues --    1.05401   1.05562   1.05933   1.06133   1.06665
 Alpha virt. eigenvalues --    1.06860   1.06889   1.07201   1.07620   1.07652
 Alpha virt. eigenvalues --    1.08185   1.08684   1.08932   1.09241   1.09340
 Alpha virt. eigenvalues --    1.09707   1.10173   1.10221   1.10909   1.11160
 Alpha virt. eigenvalues --    1.11189   1.11576   1.11778   1.12142   1.12389
 Alpha virt. eigenvalues --    1.12844   1.12941   1.13157   1.13444   1.13686
 Alpha virt. eigenvalues --    1.14053   1.14199   1.14396   1.14715   1.15048
 Alpha virt. eigenvalues --    1.15317   1.15488   1.15541   1.15937   1.16068
 Alpha virt. eigenvalues --    1.16322   1.16419   1.16681   1.17059   1.17676
 Alpha virt. eigenvalues --    1.18057   1.18153   1.18676   1.18777   1.18993
 Alpha virt. eigenvalues --    1.19599   1.19682   1.19966   1.20124   1.20223
 Alpha virt. eigenvalues --    1.20595   1.20826   1.21077   1.21407   1.21467
 Alpha virt. eigenvalues --    1.21565   1.21774   1.22315   1.22570   1.23077
 Alpha virt. eigenvalues --    1.23119   1.23418   1.23477   1.23908   1.24116
 Alpha virt. eigenvalues --    1.24382   1.24896   1.24940   1.25014   1.25033
 Alpha virt. eigenvalues --    1.25664   1.25898   1.26231   1.26497   1.26631
 Alpha virt. eigenvalues --    1.26874   1.27214   1.27240   1.27518   1.27619
 Alpha virt. eigenvalues --    1.27932   1.28029   1.28161   1.29143   1.29770
 Alpha virt. eigenvalues --    1.29971   1.30092   1.30360   1.30989   1.31091
 Alpha virt. eigenvalues --    1.31780   1.31842   1.31888   1.32138   1.32444
 Alpha virt. eigenvalues --    1.32600   1.33519   1.33942   1.34494   1.34678
 Alpha virt. eigenvalues --    1.35002   1.35064   1.35217   1.35470   1.35800
 Alpha virt. eigenvalues --    1.35981   1.36827   1.37118   1.37246   1.37528
 Alpha virt. eigenvalues --    1.37891   1.38173   1.38280   1.38452   1.38602
 Alpha virt. eigenvalues --    1.38852   1.39322   1.39756   1.40112   1.40244
 Alpha virt. eigenvalues --    1.40346   1.40584   1.41009   1.41270   1.41408
 Alpha virt. eigenvalues --    1.41807   1.42148   1.42457   1.42963   1.43035
 Alpha virt. eigenvalues --    1.43151   1.43490   1.43714   1.43936   1.44597
 Alpha virt. eigenvalues --    1.44763   1.44808   1.44918   1.45287   1.45512
 Alpha virt. eigenvalues --    1.45719   1.46195   1.46948   1.47127   1.47486
 Alpha virt. eigenvalues --    1.47722   1.47998   1.48038   1.48299   1.48813
 Alpha virt. eigenvalues --    1.49042   1.49376   1.49469   1.49573   1.49959
 Alpha virt. eigenvalues --    1.50131   1.50479   1.50558   1.50720   1.51081
 Alpha virt. eigenvalues --    1.51426   1.51766   1.52090   1.52483   1.52561
 Alpha virt. eigenvalues --    1.52784   1.52942   1.53238   1.53823   1.54136
 Alpha virt. eigenvalues --    1.54260   1.54506   1.54620   1.54919   1.55124
 Alpha virt. eigenvalues --    1.55806   1.56318   1.56365   1.56425   1.56718
 Alpha virt. eigenvalues --    1.56892   1.57113   1.57779   1.58082   1.58222
 Alpha virt. eigenvalues --    1.59271   1.59698   1.59992   1.60424   1.60815
 Alpha virt. eigenvalues --    1.61245   1.61720   1.61810   1.62003   1.62891
 Alpha virt. eigenvalues --    1.63162   1.63701   1.63942   1.64047   1.64262
 Alpha virt. eigenvalues --    1.64807   1.65456   1.65606   1.66126   1.66542
 Alpha virt. eigenvalues --    1.66732   1.66905   1.67272   1.67572   1.67620
 Alpha virt. eigenvalues --    1.68279   1.68818   1.69183   1.69410   1.69426
 Alpha virt. eigenvalues --    1.69816   1.70043   1.70260   1.70630   1.70978
 Alpha virt. eigenvalues --    1.71074   1.71206   1.71495   1.71904   1.72457
 Alpha virt. eigenvalues --    1.72498   1.72599   1.72818   1.72877   1.73136
 Alpha virt. eigenvalues --    1.73298   1.73346   1.73440   1.73554   1.73652
 Alpha virt. eigenvalues --    1.74009   1.74201   1.74328   1.74839   1.74873
 Alpha virt. eigenvalues --    1.75252   1.75326   1.75601   1.75825   1.75948
 Alpha virt. eigenvalues --    1.76240   1.76452   1.76497   1.76832   1.77029
 Alpha virt. eigenvalues --    1.77115   1.77228   1.77427   1.77532   1.77631
 Alpha virt. eigenvalues --    1.77716   1.77960   1.78125   1.78249   1.78563
 Alpha virt. eigenvalues --    1.78582   1.78670   1.78912   1.79136   1.79223
 Alpha virt. eigenvalues --    1.79472   1.79623   1.79705   1.80118   1.80306
 Alpha virt. eigenvalues --    1.80603   1.80771   1.80920   1.81096   1.81192
 Alpha virt. eigenvalues --    1.81389   1.81486   1.81553   1.81860   1.81983
 Alpha virt. eigenvalues --    1.82306   1.82650   1.82751   1.82955   1.82987
 Alpha virt. eigenvalues --    1.83178   1.83276   1.83400   1.83455   1.83692
 Alpha virt. eigenvalues --    1.83846   1.83999   1.84261   1.84360   1.84558
 Alpha virt. eigenvalues --    1.84601   1.84883   1.84997   1.85198   1.85294
 Alpha virt. eigenvalues --    1.85848   1.86058   1.86115   1.86408   1.86718
 Alpha virt. eigenvalues --    1.86839   1.87033   1.87214   1.87573   1.87597
 Alpha virt. eigenvalues --    1.87700   1.87763   1.88027   1.88245   1.88385
 Alpha virt. eigenvalues --    1.88751   1.88936   1.89191   1.89448   1.89647
 Alpha virt. eigenvalues --    1.89780   1.90032   1.90457   1.90515   1.90616
 Alpha virt. eigenvalues --    1.90742   1.90842   1.91153   1.91189   1.91260
 Alpha virt. eigenvalues --    1.91571   1.91681   1.92309   1.92508   1.92663
 Alpha virt. eigenvalues --    1.93038   1.93083   1.93245   1.93572   1.93702
 Alpha virt. eigenvalues --    1.93811   1.94107   1.94188   1.94332   1.94493
 Alpha virt. eigenvalues --    1.94853   1.95126   1.95301   1.95629   1.95698
 Alpha virt. eigenvalues --    1.95833   1.96001   1.96289   1.96979   1.97041
 Alpha virt. eigenvalues --    1.97284   1.97718   1.97784   1.97919   1.98074
 Alpha virt. eigenvalues --    1.98196   1.98496   1.98576   1.98921   1.99003
 Alpha virt. eigenvalues --    1.99451   1.99547   1.99837   2.00047   2.00583
 Alpha virt. eigenvalues --    2.00633   2.00936   2.01236   2.01500   2.01689
 Alpha virt. eigenvalues --    2.01791   2.01900   2.02090   2.02450   2.02759
 Alpha virt. eigenvalues --    2.02988   2.03190   2.03513   2.03729   2.03795
 Alpha virt. eigenvalues --    2.04170   2.04330   2.04813   2.05064   2.05183
 Alpha virt. eigenvalues --    2.05492   2.05521   2.05965   2.06176   2.06522
 Alpha virt. eigenvalues --    2.07096   2.07268   2.07783   2.08089   2.08353
 Alpha virt. eigenvalues --    2.08445   2.08620   2.08930   2.09275   2.09350
 Alpha virt. eigenvalues --    2.09692   2.09853   2.10444   2.10693   2.11095
 Alpha virt. eigenvalues --    2.11326   2.11421   2.11490   2.12139   2.12610
 Alpha virt. eigenvalues --    2.12832   2.12994   2.13148   2.13387   2.13724
 Alpha virt. eigenvalues --    2.13953   2.14289   2.14412   2.14570   2.14797
 Alpha virt. eigenvalues --    2.15277   2.15566   2.15665   2.16025   2.16202
 Alpha virt. eigenvalues --    2.16282   2.16620   2.16749   2.16869   2.17204
 Alpha virt. eigenvalues --    2.17271   2.17652   2.18146   2.18479   2.18549
 Alpha virt. eigenvalues --    2.18936   2.18979   2.19398   2.19532   2.19911
 Alpha virt. eigenvalues --    2.20333   2.20815   2.21023   2.22140   2.22335
 Alpha virt. eigenvalues --    2.22607   2.23177   2.23278   2.23350   2.24024
 Alpha virt. eigenvalues --    2.24159   2.24309   2.24554   2.25451   2.25559
 Alpha virt. eigenvalues --    2.25715   2.26173   2.26511   2.26987   2.27044
 Alpha virt. eigenvalues --    2.27708   2.27985   2.28055   2.28059   2.28827
 Alpha virt. eigenvalues --    2.29276   2.29341   2.29640   2.30261   2.30662
 Alpha virt. eigenvalues --    2.30847   2.31004   2.31232   2.31330   2.31697
 Alpha virt. eigenvalues --    2.31769   2.31889   2.32333   2.32607   2.33307
 Alpha virt. eigenvalues --    2.33437   2.33515   2.33721   2.33876   2.34372
 Alpha virt. eigenvalues --    2.34441   2.34460   2.35076   2.35290   2.35319
 Alpha virt. eigenvalues --    2.35925   2.36322   2.36569   2.36932   2.37640
 Alpha virt. eigenvalues --    2.37733   2.38291   2.38596   2.39184   2.39597
 Alpha virt. eigenvalues --    2.39628   2.39883   2.40371   2.40760   2.40994
 Alpha virt. eigenvalues --    2.41235   2.41535   2.41643   2.41927   2.42453
 Alpha virt. eigenvalues --    2.42594   2.42840   2.42845   2.43201   2.43818
 Alpha virt. eigenvalues --    2.44010   2.44499   2.44932   2.45517   2.45814
 Alpha virt. eigenvalues --    2.46004   2.46325   2.46595   2.46760   2.47338
 Alpha virt. eigenvalues --    2.47473   2.48024   2.48150   2.49147   2.49208
 Alpha virt. eigenvalues --    2.49426   2.49743   2.50393   2.50578   2.50878
 Alpha virt. eigenvalues --    2.52117   2.52557   2.52665   2.53108   2.53240
 Alpha virt. eigenvalues --    2.54258   2.54415   2.54763   2.55017   2.55522
 Alpha virt. eigenvalues --    2.55723   2.55816   2.56323   2.56496   2.56548
 Alpha virt. eigenvalues --    2.57484   2.57766   2.57930   2.58679   2.59280
 Alpha virt. eigenvalues --    2.59646   2.59933   2.60136   2.60306   2.60635
 Alpha virt. eigenvalues --    2.60818   2.61238   2.61704   2.62080   2.62439
 Alpha virt. eigenvalues --    2.62589   2.62689   2.62939   2.63039   2.63363
 Alpha virt. eigenvalues --    2.63754   2.64154   2.64225   2.64577   2.64611
 Alpha virt. eigenvalues --    2.64959   2.65038   2.65424   2.65684   2.66224
 Alpha virt. eigenvalues --    2.66615   2.66851   2.67681   2.68203   2.68821
 Alpha virt. eigenvalues --    2.68948   2.69121   2.69202   2.69587   2.69749
 Alpha virt. eigenvalues --    2.69782   2.70084   2.70521   2.70979   2.71081
 Alpha virt. eigenvalues --    2.71643   2.71797   2.71884   2.72182   2.72486
 Alpha virt. eigenvalues --    2.73173   2.73307   2.73558   2.73593   2.73713
 Alpha virt. eigenvalues --    2.74281   2.74485   2.74846   2.74966   2.75220
 Alpha virt. eigenvalues --    2.75366   2.76057   2.76252   2.76625   2.76841
 Alpha virt. eigenvalues --    2.77249   2.77489   2.77625   2.77837   2.78042
 Alpha virt. eigenvalues --    2.78114   2.78428   2.78784   2.78838   2.79155
 Alpha virt. eigenvalues --    2.79381   2.79709   2.79756   2.79899   2.80164
 Alpha virt. eigenvalues --    2.80516   2.80883   2.81193   2.81541   2.81590
 Alpha virt. eigenvalues --    2.81803   2.82294   2.82723   2.82862   2.83376
 Alpha virt. eigenvalues --    2.83546   2.83672   2.84192   2.84267   2.84845
 Alpha virt. eigenvalues --    2.85041   2.85370   2.85381   2.85998   2.86249
 Alpha virt. eigenvalues --    2.86509   2.86800   2.86917   2.86987   2.87174
 Alpha virt. eigenvalues --    2.87756   2.88089   2.88265   2.88676   2.89494
 Alpha virt. eigenvalues --    2.89500   2.90037   2.90699   2.90888   2.91052
 Alpha virt. eigenvalues --    2.91238   2.91468   2.91586   2.91769   2.91891
 Alpha virt. eigenvalues --    2.92706   2.92878   2.92884   2.93212   2.93602
 Alpha virt. eigenvalues --    2.93748   2.94120   2.94318   2.94576   2.94723
 Alpha virt. eigenvalues --    2.95725   2.96174   2.96198   2.96292   2.96497
 Alpha virt. eigenvalues --    2.96958   2.97304   2.97378   2.97440   2.97821
 Alpha virt. eigenvalues --    2.97875   2.98345   2.98598   2.98653   2.98924
 Alpha virt. eigenvalues --    2.99335   2.99569   3.00305   3.00633   3.00778
 Alpha virt. eigenvalues --    3.00849   3.01348   3.02168   3.02466   3.02732
 Alpha virt. eigenvalues --    3.03141   3.03295   3.03826   3.04303   3.04844
 Alpha virt. eigenvalues --    3.05751   3.06391   3.06832   3.07171   3.07311
 Alpha virt. eigenvalues --    3.07344   3.07815   3.08017   3.08573   3.08752
 Alpha virt. eigenvalues --    3.08804   3.09526   3.10255   3.10351   3.10458
 Alpha virt. eigenvalues --    3.11189   3.11196   3.11497   3.12710   3.13147
 Alpha virt. eigenvalues --    3.14138   3.14164   3.14358   3.14401   3.14699
 Alpha virt. eigenvalues --    3.14865   3.15209   3.15368   3.15724   3.16576
 Alpha virt. eigenvalues --    3.17074   3.17322   3.17784   3.17812   3.17996
 Alpha virt. eigenvalues --    3.19035   3.19327   3.19478   3.19588   3.20164
 Alpha virt. eigenvalues --    3.20395   3.20435   3.20958   3.21136   3.22094
 Alpha virt. eigenvalues --    3.22434   3.22764   3.23520   3.24142   3.24659
 Alpha virt. eigenvalues --    3.25521   3.25726   3.26909   3.26950   3.27949
 Alpha virt. eigenvalues --    3.28033   3.28401   3.28836   3.29002   3.29491
 Alpha virt. eigenvalues --    3.30349   3.31285   3.32626   3.32719   3.34747
 Alpha virt. eigenvalues --    3.34957   3.35524   3.36569   3.37695   3.38279
 Alpha virt. eigenvalues --    3.38865   3.40728   3.44104   3.49516   3.50813
 Alpha virt. eigenvalues --    3.51085   3.52208   3.53292   3.53514   3.53992
 Alpha virt. eigenvalues --    3.54735   3.55414   3.56848   3.57525   3.58816
 Alpha virt. eigenvalues --    3.59726   3.60124   3.60703   3.61140   3.61967
 Alpha virt. eigenvalues --    3.64047   3.66157   3.66674   3.66748   3.67423
 Alpha virt. eigenvalues --    3.68745   3.69073   3.69199   3.69245   3.69946
 Alpha virt. eigenvalues --    3.70105   3.70345   3.70918   3.71202   3.72295
 Alpha virt. eigenvalues --    3.73084   3.73675   3.73739   3.74122   3.76016
 Alpha virt. eigenvalues --    3.76390   3.77052   3.80957   3.81744
          Condensed to atoms (all electrons):
 Mulliken charges:
               1
     1  C    0.051403
     2  C    0.064569
     3  O   -0.369297
     4  H    0.025307
     5  H    0.053132
     6  H    0.014552
     7  N   -0.087883
     8  C   -0.022090
     9  C    0.115486
    10  O   -0.312478
    11  C    0.182204
    12  C   -0.027616
    13  O   -0.379675
    14  O   -0.383667
    15  H    0.132619
    16  H    0.000321
    17  H   -0.035684
    18  H   -0.011173
    19  N   -0.119821
    20  C    0.090683
    21  C    0.081559
    22  O   -0.305410
    23  C    0.057523
    24  C    0.047136
    25  C   -0.034578
    26  C    0.003002
    27  N    0.095891
    28  H    0.140578
    29  H    0.018329
    30  H   -0.000514
    31  H    0.011061
    32  H   -0.005757
    33  H    0.005759
    34  H   -0.002179
    35  H    0.055134
    36  H    0.092256
    37  H    0.048791
    38  H    0.185611
    39  H    0.162107
    40  H    0.181189
    41  N   -0.101229
    42  C    0.109960
    43  C    0.057286
    44  O   -0.249924
    45  C    0.116508
    46  C    0.063929
    47  O   -0.423085
    48  O   -0.404145
    49  H    0.128579
    50  H    0.016692
    51  H    0.007908
    52  H    0.029665
    53  N   -0.162465
    54  C    0.289222
    55  C   -0.008494
    56  O   -0.279051
    57  H    0.137199
    58  H    0.029476
    59  H   -0.011787
    60  N   -0.154985
    61  C    0.094289
    62  C    0.067536
    63  O   -0.297902
    64  C    0.088997
    65  C    0.105493
    66  N   -0.052629
    67  O   -0.362660
    68  H    0.120728
    69  H    0.050784
    70  H    0.045001
    71  H    0.021638
    72  H    0.120263
    73  H    0.148238
    74  N   -0.084896
    75  C    0.230423
    76  C    0.016955
    77  O   -0.249525
    78  H    0.128440
    79  H    0.000071
    80  H    0.037613
    81  N   -0.126250
    82  C    0.138480
    83  C    0.094923
    84  O   -0.321509
    85  C    0.128527
    86  C   -0.074808
    87  C    0.002186
    88  C    0.015238
    89  C   -0.025087
    90  C   -0.037700
    91  C    0.165543
    92  O   -0.192253
    93  H    0.130801
    94  H   -0.009690
    95  H    0.020459
    96  H    0.013127
    97  H   -0.023484
    98  H   -0.025447
    99  H   -0.028222
   100  H   -0.042968
   101  H    0.170248
   102  N   -0.120250
   103  C    0.153616
   104  C    0.011676
   105  O   -0.267047
   106  C   -0.152589
   107  C    0.063694
   108  C    0.130845
   109  C    0.028339
   110  H    0.144174
   111  H   -0.006092
   112  H   -0.003009
   113  H   -0.014393
   114  H   -0.018995
   115  H    0.031569
   116  H   -0.000431
   117  H   -0.038171
   118  H   -0.007175
   119  H    0.003998
   120  H    0.017191
   121  N   -0.137682
   122  C    0.121566
   123  C    0.044466
   124  O   -0.273589
   125  C    0.240957
   126  O   -0.327159
   127  H    0.118481
   128  H    0.024346
   129  H    0.006686
   130  H    0.021188
   131  H    0.166533
   132  N   -0.134981
   133  C    0.048539
   134  C    0.067276
   135  O   -0.283232
   136  C    0.095531
   137  H    0.133986
   138  H    0.018448
   139  H    0.018402
   140  H   -0.015443
   141  H    0.030622
   142  N   -0.107702
   143  C    0.061395
   144  C    0.025627
   145  O   -0.270447
   146  C    0.055570
   147  H    0.126488
   148  H    0.000684
   149  H    0.002135
   150  H    0.047891
   151  H    0.030754
   152  N   -0.133303
   153  C    0.144728
   154  C    0.046621
   155  O   -0.276434
   156  C    0.029604
   157  C    0.080323
   158  C    0.073422
   159  O   -0.367834
   160  O   -0.478603
   161  H    0.101157
   162  H   -0.003545
   163  H    0.016952
   164  H    0.021529
   165  H   -0.000298
   166  H   -0.016672
   167  N   -0.138602
   168  C    0.134651
   169  H    0.022919
   170  H    0.011428
   171  H    0.045008
   172  H    0.106029
   173  Ca   1.369703
   174  O   -0.295226
   175  H    0.197864
   176  H    0.183682
 Sum of Mulliken charges =  -0.00000
 Mulliken charges with hydrogens summed into heavy atoms:
               1
     1  C    0.144393
     2  C    0.064569
     3  O   -0.369297
     7  N    0.044736
     8  C   -0.021768
     9  C    0.115486
    10  O   -0.312478
    11  C    0.135347
    12  C   -0.027616
    13  O   -0.379675
    14  O   -0.383667
    19  N    0.020757
    20  C    0.109012
    21  C    0.081559
    22  O   -0.305410
    23  C    0.068070
    24  C    0.047137
    25  C    0.018377
    26  C    0.144049
    27  N    0.624799
    41  N    0.027349
    42  C    0.126652
    43  C    0.057286
    44  O   -0.249924
    45  C    0.154081
    46  C    0.063929
    47  O   -0.423085
    48  O   -0.404145
    53  N   -0.025267
    54  C    0.306911
    55  C   -0.008494
    56  O   -0.279051
    60  N   -0.034257
    61  C    0.145073
    62  C    0.067536
    63  O   -0.297902
    64  C    0.155635
    65  C    0.105493
    66  N    0.215872
    67  O   -0.362660
    74  N    0.043544
    75  C    0.268107
    76  C    0.016955
    77  O   -0.249525
    81  N    0.004552
    82  C    0.128790
    83  C    0.094923
    84  O   -0.321509
    85  C    0.162114
    86  C   -0.074808
    87  C   -0.021298
    88  C   -0.010209
    89  C   -0.053309
    90  C   -0.080668
    91  C    0.165543
    92  O   -0.022004
   102  N    0.023924
   103  C    0.147524
   104  C    0.011676
   105  O   -0.267047
   106  C   -0.155598
   107  C    0.030306
   108  C    0.123812
   109  C    0.042353
   121  N   -0.019201
   122  C    0.145912
   123  C    0.044466
   124  O   -0.273589
   125  C    0.268831
   126  O   -0.160626
   132  N   -0.000995
   133  C    0.066988
   134  C    0.067276
   135  O   -0.283232
   136  C    0.129112
   142  N    0.018786
   143  C    0.062078
   144  C    0.025627
   145  O   -0.270447
   146  C    0.136351
   152  N   -0.032146
   153  C    0.141183
   154  C    0.046621
   155  O   -0.276434
   156  C    0.068084
   157  C    0.063353
   158  C    0.073422
   159  O   -0.367834
   160  O   -0.478603
   167  N   -0.032573
   168  C    0.214006
   173  Ca   1.369703
   174  O    0.086321
 DipInt: DoE/N= T F RetVal/Mat= T F Init=T NMatP=  1 IDeriv=0 Min/MaxMlt=  0  4
 Entering OneElI...
 OneElI was handed  1333951383 working-precision words.
 Multipole integrals L=0 to 4 MinM= 0 MaxM= 0.
 Requested accuracy = 0.1000D-12
 ShPair: Thresh= 1.00D-13 NBox=     0 BxSize= 0.00D+00 RnKept= 3.41D+01
         NSMCal=               327645 NSMKep=              116937
 PrmmSu-InSpLW:  IPartL=    0 NPrtUS=    1 NPrtUL=    1 DoSpLW=F IThBeg=    0 IThEnd=    0 NThAct=    1.
 PrsmSu:  NPrtUS=   1 ThrOK=F IAlg=1 NPAlg=1 LenDen=           0 ISkipM=0 DoSpLW=F IThBeg=    0 IThEnd=    0.
 Prism:   IPart=     0 DynPar=F LinDyn=F Incr=         512.
 PRISM was handed  1325532893 working-precision words and116937 shell-pairs
 IPart=  0 NShTot=      116937 NBatch=         280 AvBLen=       417.6
 PrsmSu-ThDecC:  IPartSL=    0    0 NPrtUSL=    1    1 IThBeg=    0 IThEnd=    0 CPU=   -1 GPU=   -1 NThAct=    1.
 PrSmSu:  NxtVal=            513.
 Electronic moments (au):
       -716.00000000          5.51716010         -0.86707761         -1.23149875
    -111407.49423837     -43254.94291815     -12610.57218284       -135.14610358
         87.74323364         26.33173450    -611582.60733652     -22413.79170051
      -3916.73761687     309024.94011149    -220359.68871346    -176821.16558038
     -49424.46457025      27089.33067075     -16711.62468358     -53087.98332975
  -35015281.50240175   -7318749.40406955    -704949.36326468    -127386.21094629
   -2393404.57808012    2046456.73288166     497076.79808598    -179366.43413980
    -136918.63943649   -5326102.61542461   -1832232.32977268    -559696.10510897
        447.62764050     180066.69112768    -173941.22407087
 Electronic spatial extent (au):  <R**2>=         167273.0093
 DipInt: DoE/N= F T RetVal/Mat= T F Init=T NMatP=  1 IDeriv=0 Min/MaxMlt=  0  4
 Nuclear    moments (au):
        716.00000000         -0.00000000         -0.00000000         -0.00000000
     111255.72816172      42779.15994571      12270.31188959          0.00000000
          0.00000000         -0.00000000     620812.42112840      21980.63085821
       3463.23784645    -309944.11478866     219963.76147627     178923.17699470
      50029.01410837     -27581.10385599      16104.07982233      53266.14373543
   34919717.10631568    7162494.65083016     673845.64861146      85111.01988198
    2452501.27523387   -2056084.64003578    -495699.58998359     182929.67480648
     142695.16318464    5225119.37788136    1772025.77014424     530167.10419953
       -772.88810185    -180214.20188694     172829.38084406
 Total      moments (au):
         -0.00000000          5.51716010         -0.86707761         -1.23149875
       -151.76607665       -475.78297244       -340.26029325       -135.14610358
         87.74323364         26.33173450       9229.81379188       -433.16084230
       -453.49977043       -919.17467717       -395.92723719       2102.01141432
        604.54953812       -491.77318524       -607.54486125        178.16040568
     -95564.39608607    -156254.75323939     -31103.71465322     -42275.19106431
      59096.69715375      -9627.90715412       1377.20810239       3563.24066668
       5776.52374815    -100983.23754325     -60206.55962843     -29529.00090944
       -325.26046135       -147.51075927      -1111.84322680
 Traceless Quadrup. (au):
        170.83703746       -153.17985833        -17.65717914       -135.14610358
         87.74323364         26.33173450
 Charge=             -0.0000 electrons
 Dipole moment (field-independent basis, Debye):
    X=             14.0232    Y=             -2.2039    Z=             -3.1302  Tot=             14.5364
 Quadrupole moment (field-independent basis, Debye-Ang):
   XX=           -204.1306   YY=           -639.9444   ZZ=           -457.6617
   XY=           -181.7761   XZ=            118.0177   YZ=             35.4171
 Traceless Quadrupole moment (field-independent basis, Debye-Ang):
   XX=            229.7817   YY=           -206.0322   ZZ=            -23.7495
   XY=           -181.7761   XZ=            118.0177   YZ=             35.4171
 Octapole moment (field-independent basis, Debye-Ang**2):
  XXX=           6569.4259  YYY=           -308.3072  ZZZ=           -322.7837  XYY=           -654.2331
  XXY=           -281.8058  XXZ=           1496.1307  XZZ=            430.2951  YZZ=           -350.0252
  YYZ=           -432.4270  XYZ=            126.8077
 Hexadecapole moment (field-independent basis, Debye-Ang**3):
 XXXX=         -35994.1340 YYYY=         -58853.0327 ZZZZ=         -11715.1504 XXXY=         -15922.8641
 XXXZ=          22258.6499 YYYX=          -3626.3315 YYYZ=            518.7226 ZZZX=           1342.0873
 ZZZY=           2175.7158 XXYY=         -38035.1296 XXZZ=         -22676.6774 YYZZ=         -11122.0377
 XXYZ=           -122.5087 YYXZ=            -55.5596 ZZXY=           -418.7735
 N-N= 1.854188298274D+04 E-N=-4.956583693212D+04  KE= 5.290713110810D+03
 Leave Link  601 at Tue Sep 17 00:04:32 2019, MaxMem=  1342177280 cpu:              40.7 elap:               1.1
 FitSet:  NAtFit=   176 NAtPot=   176 NAtFrz=     0 MDM=   180 TotChg=   0.00000
 Merz-Kollman atomic radii used.
 Read replacement radii for each type of atom:
 Rad(20) =   1.700000000000D+00
 Atom Element Radius
    1     6    1.50
    2     6    1.50
    3     8    1.40
    4     1    1.20
    5     1    1.20
    6     1    1.20
    7     7    1.50
    8     6    1.50
    9     6    1.50
   10     8    1.40
   11     6    1.50
   12     6    1.50
   13     8    1.40
   14     8    1.40
   15     1    1.20
   16     1    1.20
   17     1    1.20
   18     1    1.20
   19     7    1.50
   20     6    1.50
   21     6    1.50
   22     8    1.40
   23     6    1.50
   24     6    1.50
   25     6    1.50
   26     6    1.50
   27     7    1.50
   28     1    1.20
   29     1    1.20
   30     1    1.20
   31     1    1.20
   32     1    1.20
   33     1    1.20
   34     1    1.20
   35     1    1.20
   36     1    1.20
   37     1    1.20
   38     1    1.20
   39     1    1.20
   40     1    1.20
   41     7    1.50
   42     6    1.50
   43     6    1.50
   44     8    1.40
   45     6    1.50
   46     6    1.50
   47     8    1.40
   48     8    1.40
   49     1    1.20
   50     1    1.20
   51     1    1.20
   52     1    1.20
   53     7    1.50
   54     6    1.50
   55     6    1.50
   56     8    1.40
   57     1    1.20
   58     1    1.20
   59     1    1.20
   60     7    1.50
   61     6    1.50
   62     6    1.50
   63     8    1.40
   64     6    1.50
   65     6    1.50
   66     7    1.50
   67     8    1.40
   68     1    1.20
   69     1    1.20
   70     1    1.20
   71     1    1.20
   72     1    1.20
   73     1    1.20
   74     7    1.50
   75     6    1.50
   76     6    1.50
   77     8    1.40
   78     1    1.20
   79     1    1.20
   80     1    1.20
   81     7    1.50
   82     6    1.50
   83     6    1.50
   84     8    1.40
   85     6    1.50
   86     6    1.50
   87     6    1.50
   88     6    1.50
   89     6    1.50
   90     6    1.50
   91     6    1.50
   92     8    1.40
   93     1    1.20
   94     1    1.20
   95     1    1.20
   96     1    1.20
   97     1    1.20
   98     1    1.20
   99     1    1.20
  100     1    1.20
  101     1    1.20
  102     7    1.50
  103     6    1.50
  104     6    1.50
  105     8    1.40
  106     6    1.50
  107     6    1.50
  108     6    1.50
  109     6    1.50
  110     1    1.20
  111     1    1.20
  112     1    1.20
  113     1    1.20
  114     1    1.20
  115     1    1.20
  116     1    1.20
  117     1    1.20
  118     1    1.20
  119     1    1.20
  120     1    1.20
  121     7    1.50
  122     6    1.50
  123     6    1.50
  124     8    1.40
  125     6    1.50
  126     8    1.40
  127     1    1.20
  128     1    1.20
  129     1    1.20
  130     1    1.20
  131     1    1.20
  132     7    1.50
  133     6    1.50
  134     6    1.50
  135     8    1.40
  136     6    1.50
  137     1    1.20
  138     1    1.20
  139     1    1.20
  140     1    1.20
  141     1    1.20
  142     7    1.50
  143     6    1.50
  144     6    1.50
  145     8    1.40
  146     6    1.50
  147     1    1.20
  148     1    1.20
  149     1    1.20
  150     1    1.20
  151     1    1.20
  152     7    1.50
  153     6    1.50
  154     6    1.50
  155     8    1.40
  156     6    1.50
  157     6    1.50
  158     6    1.50
  159     8    1.40
  160     8    1.40
  161     1    1.20
  162     1    1.20
  163     1    1.20
  164     1    1.20
  165     1    1.20
  166     1    1.20
  167     7    1.50
  168     6    1.50
[...]
 **** Fit      -0.032679
 **** Fit      -0.031621
 **** Fit      -0.030545
 **** Fit      -0.029453
 **** Fit      -0.024818
 **** Fit      -0.027265
 **** Fit      -0.029537
 **** Fit      -0.031507
 **** Fit      -0.040472
 **** Fit      -0.041723
 **** Fit      -0.042166
 **** Fit      -0.041838
 **** Fit      -0.040885
 **** Fit      -0.039529
 **** Fit      -0.038024
 **** Fit      -0.036579
 **** Fit      -0.035294
 **** Fit      -0.029825
 **** Fit      -0.032970
 **** Fit      -0.035920
 **** Fit      -0.038486
 **** Fit      -0.045956
 **** Fit      -0.043837
 **** Fit      -0.042116
 **** Fit      -0.036050
 **** Fit      -0.049424
 **** Fit      -0.023835
 **** Fit      -0.018181
 **** Fit      -0.013102
 **** Fit      -0.009160
 **** Fit      -0.021424
 **** Fit      -0.014965
 **** Fit      -0.010134
 **** Fit      -0.006862
 **** Fit      -0.004953
 **** Fit      -0.023471
 **** Fit      -0.016050
 **** Fit      -0.010624
 **** Fit      -0.006949
 **** Fit      -0.004735
 **** Fit      -0.003756
 **** Fit      -0.019029
 **** Fit      -0.012488
 **** Fit      -0.007903
 **** Fit      -0.004932
 **** Fit      -0.003287
 **** Fit      -0.002769
 **** Fit      -0.012678
 **** Fit      -0.007678
 **** Fit      -0.004330
 **** Fit      -0.002357
 **** Fit      -0.001544
 **** Fit      -0.001747
 **** Fit      -0.013223
 **** Fit      -0.008087
 **** Fit      -0.004213
 **** Fit      -0.001639
 **** Fit      -0.000235
 **** Fit       0.000140
 **** Fit      -0.000402
 **** Fit      -0.002481
 **** Fit      -0.000132
 **** Fit       0.001442
 **** Fit       0.002177
 **** Fit       0.002115
 **** Fit       0.001335
 **** Fit       0.004951
 **** Fit       0.004850
 **** Fit       0.004216
 **** Fit      -0.019685
 **** Fit      -0.014568
 **** Fit      -0.011094
 **** Fit      -0.005060
 **** Fit      -0.000901
 **** Fit       0.001609
 **** Fit       0.002803
 **** Fit      -0.012253
 **** Fit      -0.004136
 **** Fit       0.002376
 **** Fit       0.007275
 **** Fit       0.010650
 **** Fit       0.012653
 **** Fit       0.013487
 **** Fit       0.013406
 **** Fit      -0.008918
 **** Fit      -0.000138
 **** Fit       0.007134
 **** Fit       0.012893
 **** Fit       0.017187
 **** Fit       0.020098
 **** Fit       0.021726
 **** Fit       0.022180
 **** Fit       0.021560
 **** Fit       0.019907
 **** Fit       0.002054
 **** Fit       0.010208
 **** Fit       0.016792
 **** Fit       0.021913
 **** Fit       0.025661
 **** Fit       0.028115
 **** Fit       0.029346
 **** Fit       0.029402
 **** Fit       0.028292
 **** Fit       0.025950
 **** Fit       0.022173
 **** Fit       0.021304
 **** Fit       0.008120
 **** Fit       0.016606
 **** Fit       0.023332
 **** Fit       0.028491
 **** Fit       0.032218
 **** Fit       0.034616
 **** Fit       0.035749
 **** Fit       0.035651
 **** Fit       0.034302
 **** Fit       0.031611
 **** Fit       0.027386
 **** Fit       0.026745
 **** Fit       0.018979
 **** Fit       0.011208
 **** Fit       0.006292
 **** Fit       0.013776
 **** Fit       0.022490
 **** Fit       0.029289
 **** Fit       0.034419
 **** Fit       0.038062
 **** Fit       0.040351
 **** Fit       0.041369
 **** Fit       0.041151
 **** Fit       0.039683
 **** Fit       0.036892
 **** Fit       0.032643
 **** Fit       0.032446
 **** Fit       0.025527
 **** Fit       0.013997
 **** Fit       0.018974
 **** Fit       0.022084
 **** Fit       0.023737
 **** Fit       0.024295
 **** Fit       0.023823
 **** Fit       0.022062
 **** Fit       0.018486
 **** Fit       0.026868
 **** Fit       0.034088
 **** Fit       0.039424
 **** Fit       0.043139
 **** Fit       0.045427
 **** Fit       0.046416
 **** Fit       0.046173
 **** Fit       0.044706
 **** Fit       0.041978
 **** Fit       0.037918
 **** Fit       0.038051
 **** Fit       0.032079
 **** Fit       0.025260
 **** Fit       0.000229
 **** Fit       0.015250
 **** Fit       0.020742
 **** Fit       0.025383
 **** Fit       0.028823
 **** Fit       0.031142
 **** Fit       0.032577
 **** Fit       0.033287
 **** Fit       0.044921
 **** Fit       0.048420
 **** Fit       0.050459
 **** Fit       0.051236
 **** Fit       0.050854
 **** Fit       0.049353
 **** Fit       0.046727
 **** Fit       0.042959
 **** Fit       0.043302
 **** Fit       0.037961
 **** Fit       0.032103
 **** Fit       0.026188
 **** Fit       0.020807
 **** Fit       0.016550
 **** Fit       0.013775
 **** Fit       0.012468
 **** Fit       0.012335
 **** Fit       0.013110
 **** Fit       0.014781
 **** Fit       0.017502
 **** Fit       0.021246
 **** Fit       0.025598
 **** Fit       0.029920
 **** Fit       0.033713
 **** Fit       0.036831
 **** Fit       0.039444
 **** Fit       0.055886
 **** Fit       0.056317
 **** Fit       0.055685
 **** Fit       0.054058
 **** Fit       0.051443
 **** Fit       0.047843
 **** Fit       0.048047
 **** Fit       0.043224
 **** Fit       0.038165
 **** Fit       0.033301
 **** Fit       0.029112
 **** Fit       0.025994
 **** Fit       0.024117
 **** Fit       0.023423
 **** Fit       0.023764
 **** Fit       0.025065
 **** Fit       0.027304
 **** Fit       0.030352
 **** Fit       0.033882
 **** Fit       0.037507
 **** Fit       0.041032
 **** Fit       0.044625
 **** Fit       0.061198
 **** Fit       0.058897
 **** Fit       0.055966
 **** Fit       0.052343
 **** Fit       0.052213
 **** Fit       0.047724
 **** Fit       0.043275
 **** Fit       0.039218
 **** Fit       0.035921
 **** Fit       0.033639
 **** Fit       0.032456
 **** Fit       0.032327
 **** Fit       0.033172
 **** Fit       0.034905
 **** Fit       0.037376
 **** Fit       0.040375
 **** Fit       0.043783
 **** Fit       0.060559
 **** Fit       0.056507
 **** Fit       0.055770
 **** Fit       0.051232
 **** Fit       0.047080
 **** Fit       0.043573
 **** Fit       0.040977
 **** Fit       0.039446
 **** Fit       0.038998
 **** Fit       0.039567
 **** Fit       0.041047
 **** Fit       0.043328
 **** Fit       0.049739
 **** Fit       0.046664
 **** Fit       0.044676
 **** Fit       0.043820
 **** Fit       0.005578
 **** Fit       0.016155
 **** Fit       0.027116
 **** Fit      -0.001551
 **** Fit       0.006273
 **** Fit       0.014478
 **** Fit       0.022958
 **** Fit       0.031623
 **** Fit       0.040400
 **** Fit      -0.008340
 **** Fit      -0.005557
 **** Fit      -0.001467
 **** Fit       0.003633
 **** Fit       0.009499
 **** Fit       0.015919
 **** Fit       0.044197
 **** Fit       0.003998
 **** Fit       0.004247
 **** Fit       0.005998
 **** Fit       0.009039
 **** Fit       0.013142
 **** Fit       0.056696
 **** Fit       0.042098
 **** Fit       0.041688
 **** Fit       0.041947
 **** Fit       0.015438
 **** Fit       0.014690
 **** Fit       0.015436
 **** Fit       0.017540
 **** Fit       0.049969
 **** Fit       0.047615
 **** Fit       0.045319
 **** Fit       0.043217
 **** Fit       0.041441
 **** Fit       0.040121
 **** Fit       0.039379
 **** Fit       0.039311
 **** Fit       0.039953
 **** Fit       0.041266
 **** Fit       0.023967
 **** Fit       0.024000
 **** Fit       0.025400
 **** Fit       0.046986
 **** Fit       0.044313
 **** Fit       0.041967
 **** Fit       0.040088
 **** Fit       0.038800
 **** Fit       0.038211
 **** Fit       0.038397
 **** Fit       0.039383
 **** Fit       0.031841
 **** Fit       0.031842
 **** Fit       0.042650
 **** Fit       0.040487
 **** Fit       0.039074
 **** Fit       0.038518
 **** Fit       0.038881
 **** Fit       0.040162
 **** Fit       0.042389
 **** Fit       0.040682
 **** Fit       0.039972
 **** Fit       0.040312
 **** Fit       0.041671
 **** Fit       0.043008
 **** Fit       0.042186
 **** Fit       0.042610
 **** Fit       0.044166
 **** Fit       0.044829
 **** Fit       0.045605
 **** Fit       0.047643
 **** Fit       0.048803
 **** Fit       0.024098
 **** Fit       0.017241
 **** Fit       0.010323
 **** Fit       0.003025
 **** Fit       0.036879
 **** Fit       0.031522
 **** Fit       0.026581
 **** Fit       0.021720
 **** Fit       0.016752
 **** Fit       0.011570
 **** Fit       0.006122
 **** Fit       0.000435
 **** Fit       0.043762
 **** Fit       0.039532
 **** Fit       0.035873
 **** Fit       0.032440
 **** Fit       0.029034
 **** Fit       0.025556
 **** Fit       0.021963
 **** Fit       0.018242
 **** Fit       0.014405
 **** Fit       0.010504
 **** Fit       0.006654
 **** Fit       0.003055
 **** Fit      -0.000001
 **** Fit      -0.002158
 **** Fit       0.042177
 **** Fit       0.039692
 **** Fit       0.037406
 **** Fit       0.035134
 **** Fit       0.032774
 **** Fit       0.030290
 **** Fit       0.027682
 **** Fit       0.024971
 **** Fit       0.022188
 **** Fit       0.019384
 **** Fit       0.016636
 **** Fit       0.014064
 **** Fit       0.011844
 **** Fit       0.010203
 **** Fit       0.009413
 **** Fit       0.041757
 **** Fit       0.040271
 **** Fit       0.038872
 **** Fit       0.037420
 **** Fit       0.035826
 **** Fit       0.034059
 **** Fit       0.032132
 **** Fit       0.030080
 **** Fit       0.027952
 **** Fit       0.025805
 **** Fit       0.023715
 **** Fit       0.021784
 **** Fit       0.020156
 **** Fit       0.019020
 **** Fit       0.018615
 **** Fit       0.019242
 **** Fit       0.040302
 **** Fit       0.039480
 **** Fit       0.038575
 **** Fit       0.037502
 **** Fit       0.036231
 **** Fit       0.034779
 **** Fit       0.033193
 **** Fit       0.031534
 **** Fit       0.029878
 **** Fit       0.028317
 **** Fit       0.026971
 **** Fit       0.026000
 **** Fit       0.025612
 **** Fit       0.026084
 **** Fit       0.027774
 **** Fit       0.040698
 **** Fit       0.040162
 **** Fit       0.039589
 **** Fit       0.038881
 **** Fit       0.037994
 **** Fit       0.036934
 **** Fit       0.035746
 **** Fit       0.034498
 **** Fit       0.033277
 **** Fit       0.032189
 **** Fit       0.031372
 **** Fit       0.031007
 **** Fit       0.031329
 **** Fit       0.032650
 **** Fit       0.042044
 **** Fit       0.041335
 **** Fit       0.040819
 **** Fit       0.040304
 **** Fit       0.039675
 **** Fit       0.038895
 **** Fit       0.037992
 **** Fit       0.037042
 **** Fit       0.036155
 **** Fit       0.035479
 **** Fit       0.035205
 **** Fit       0.035585
 **** Fit       0.036955
 **** Fit       0.039756
 **** Fit       0.043375
 **** Fit       0.042399
 **** Fit       0.041762
 **** Fit       0.041208
 **** Fit       0.040608
 **** Fit       0.039938
 **** Fit       0.039264
 **** Fit       0.038721
 **** Fit       0.038502
 **** Fit       0.038873
 **** Fit       0.040175
 **** Fit       0.042843
 **** Fit       0.044699
 **** Fit       0.043462
 **** Fit       0.042681
 **** Fit       0.042068
 **** Fit       0.041537
 **** Fit       0.041176
 **** Fit       0.041214
 **** Fit       0.041998
 **** Fit       0.043971
 **** Fit       0.047597
 **** Fit       0.047977
 **** Fit       0.045538
 **** Fit       0.044230
 **** Fit       0.043540
 **** Fit       0.043375
 **** Fit       0.044079
 **** Fit       0.046252
 **** Fit       0.048567
 **** Fit       0.046136
 **** Fit       0.045746
 **** Fit       0.047760
 **** Fit       0.048519
 **** Fit       0.022738
 **** Fit       0.028565
 **** Fit       0.034379
 **** Fit       0.040238
 **** Fit       0.046217
 **** Fit       0.052399
 **** Fit       0.058873
 **** Fit       0.057609
 **** Fit       0.061522
 **** Fit       0.020223
 **** Fit       0.024334
 **** Fit       0.028542
 **** Fit       0.032771
 **** Fit       0.036989
 **** Fit       0.041182
 **** Fit       0.045347
 **** Fit       0.049481
 **** Fit       0.053576
 **** Fit       0.052405
 **** Fit       0.054500
 **** Fit       0.056228
 **** Fit       0.021337
 **** Fit       0.023540
 **** Fit       0.026244
 **** Fit       0.029223
 **** Fit       0.032334
 **** Fit       0.035483
 **** Fit       0.038607
 **** Fit       0.041660
 **** Fit       0.044605
 **** Fit       0.047404
 **** Fit       0.050020
 **** Fit       0.049128
 **** Fit       0.050227
 **** Fit       0.050929
 **** Fit       0.051189
 **** Fit       0.027080
 **** Fit       0.028215
 **** Fit       0.029991
 **** Fit       0.032150
 **** Fit       0.034514
 **** Fit       0.036957
 **** Fit       0.039386
 **** Fit       0.041731
 **** Fit       0.043930
 **** Fit       0.045930
 **** Fit       0.047679
 **** Fit       0.047122
 **** Fit       0.047639
 **** Fit       0.047776
 **** Fit       0.047534
 **** Fit       0.046944
 **** Fit       0.033515
 **** Fit       0.032243
 **** Fit       0.032233
 **** Fit       0.033082
 **** Fit       0.034485
 **** Fit       0.036213
 **** Fit       0.038099
 **** Fit       0.040015
 **** Fit       0.041863
 **** Fit       0.043561
 **** Fit       0.045041
 **** Fit       0.046244
 **** Fit       0.045947
 **** Fit       0.046130
 **** Fit       0.045989
 **** Fit       0.045566
 **** Fit       0.044950
 **** Fit       0.039656
 **** Fit       0.037262
 **** Fit       0.036224
 **** Fit       0.036192
 **** Fit       0.036858
 **** Fit       0.037971
 **** Fit       0.039332
 **** Fit       0.040788
 **** Fit       0.042214
 **** Fit       0.043514
 **** Fit       0.044608
 **** Fit       0.045433
 **** Fit       0.045312
 **** Fit       0.045322
 **** Fit       0.045053
 **** Fit       0.044603
 **** Fit       0.044143
 **** Fit       0.043937
 **** Fit       0.044098
 **** Fit       0.041234
 **** Fit       0.039669
 **** Fit       0.039166
 **** Fit       0.039435
 **** Fit       0.040207
 **** Fit       0.041252
 **** Fit       0.042384
 **** Fit       0.043455
 **** Fit       0.044350
 **** Fit       0.044985
 **** Fit       0.045029
 **** Fit       0.044976
 **** Fit       0.044723
 **** Fit       0.044435
 **** Fit       0.044366
 **** Fit       0.044843
 **** Fit       0.047212
 **** Fit       0.044360
 **** Fit       0.042489
 **** Fit       0.041615
 **** Fit       0.041541
 **** Fit       0.042005
 **** Fit       0.042756
 **** Fit       0.043577
 **** Fit       0.044299
 **** Fit       0.044804
 **** Fit       0.044985
 **** Fit       0.044953
 **** Fit       0.044840
 **** Fit       0.044919
 **** Fit       0.045527
 **** Fit       0.046881
 **** Fit       0.048790
 **** Fit       0.050467
 **** Fit       0.050882
 **** Fit       0.049655
 **** Fit       0.047446
 **** Fit       0.045288
 **** Fit       0.043843
 **** Fit       0.043253
 **** Fit       0.043336
 **** Fit       0.043799
 **** Fit       0.044355
 **** Fit       0.044788
 **** Fit       0.045123
 **** Fit       0.045210
 **** Fit       0.045467
 **** Fit       0.046290
 **** Fit       0.047598
 **** Fit       0.048449
 **** Fit       0.047908
 **** Fit       0.046370
 **** Fit       0.045016
 **** Fit       0.044465
 **** Fit       0.044573
 **** Fit       0.044903
 **** Fit       0.045433
 **** Fit       0.045843
 **** Fit       0.046689
 **** Fit       0.046730
 **** Fit       0.045693
 **** Fit       0.045267
 **** Fit       0.045945
 -----------------------------------------------------------------
 Leave Link  602 at Tue Sep 17 00:04:35 2019, MaxMem=  1342177280 cpu:             116.7 elap:               2.5

 Test job not archived.
 1\1\GINC-C506-101\SP\RB3LYP\SVP\C54H83Ca1N15O23\PENGZHI\17-Sep-2019\0\
 \#b3lyp/svp scf=(tight,noincore) Test #IOP(5/87=12) Density=Current Po
 p=(MK,readradii) iop(6/33=2) iop(6/42=6)\\Ng-293_loop3_17.0\\0,1\C,0,5
 3.85,19.67,10.86\C,0,53.42,21.07,10.47\O,0,52.86,21.27,9.39\H,0,54.783
 ,19.72,11.422\H,0,53.078,19.211,11.478\H,0,53.999,19.072,9.961\N,0,53.
 57,22.03,11.39\C,0,53.25,23.41,11.06\C,0,51.84,23.71,11.55\O,0,51.28,2
 3.11,12.46\C,0,54.29,24.28,11.76\C,0,54.16,25.65,11.11\O,0,53.44,26.52
 ,11.65\O,0,54.87,25.87,10.11\H,0,54.14,21.84,12.21\H,0,53.39,23.63,10.
 01\H,0,55.23,23.8,11.5\H,0,54.15,24.2,12.84\N,0,51.22,24.68,10.87\C,0,
 49.96,25.34,11.13\C,0,49.73,25.99,12.48\O,0,48.93,26.92,12.56\C,0,48.8
 6,24.46,10.54\C,0,48.98,24.11,9.06\C,0,49.64,22.78,8.74\C,0,50.55,22.7
 5,7.52\N,0,50.97,21.38,7.16\H,0,51.88,25.27,10.38\H,0,49.84,26.25,10.5
 4\H,0,47.93,24.99,10.73\H,0,48.88,23.57,11.17\H,0,49.6,24.87,8.58\H,0,
 48.01,24.15,8.55\H,0,48.78,22.13,8.58\H,0,50.24,22.42,9.57\H,0,51.4,23
 .39,7.76\H,0,50.06,23.21,6.66\H,0,51.68,21.43,6.45\H,0,51.44,20.92,7.9
 2\H,0,50.12,20.9,6.9\N,0,50.29,25.52,13.6\C,0,50.28,26.09,14.93\C,0,51
 .67,26.54,15.34\O,0,52.64,26.09,14.73\C,0,49.73,25.05,15.89\C,0,49.45,
 25.62,17.28\O,0,49.34,26.86,17.34\O,0,49.15,24.98,18.31\H,0,50.89,24.7
 2,13.49\H,0,49.61,26.95,14.98\H,0,50.43,24.22,15.98\H,0,48.75,24.7,15.
 55\N,0,51.76,27.35,16.4\C,0,52.93,27.98,16.98\C,0,52.61,28.59,18.33\O,
 0,51.69,29.41,18.44\H,0,50.95,27.51,16.97\H,0,53.2,28.84,16.37\H,0,53.
 75,27.27,17.09\N,0,53.3,28.1,19.36\C,0,53.02,28.21,20.78\C,0,54.23,28.
 66,21.57\O,0,54.24,28.39,22.77\C,0,52.45,26.9,21.31\C,0,51.31,26.35,20
 .47\N,0,51.69,25.48,19.53\O,0,50.14,26.71,20.56\H,0,53.92,27.33,19.14\
 H,0,52.26,28.98,20.95\H,0,51.93,27.17,22.23\H,0,53.27,26.2,21.49\H,0,5
 2.55,25.,19.76\H,0,50.98,25.03,18.97\N,0,55.17,29.4,20.98\C,0,56.07,30
 .24,21.74\C,0,57.03,29.46,22.64\O,0,57.7,28.54,22.18\H,0,54.98,29.62,2
 0.02\H,0,55.47,30.89,22.38\H,0,56.69,30.77,21.02\N,0,57.1,29.94,23.88\
 C,0,57.69,29.19,24.97\C,0,57.07,27.87,25.41\O,0,57.55,27.25,26.36\C,0,
 59.21,29.13,24.84\C,0,59.99,30.4,25.11\C,0,60.5,31.15,24.05\C,0,60.3,3
 0.71,26.44\C,0,61.31,32.25,24.37\C,0,61.16,31.77,26.73\C,0,61.73,32.52
 ,25.69\O,0,62.59,33.56,25.94\H,0,56.55,30.73,24.17\H,0,57.55,29.81,25.
 85\H,0,59.52,28.85,23.83\H,0,59.61,28.35,25.49\H,0,60.23,30.97,23.02\H
 ,0,59.89,30.06,27.2\H,0,61.69,32.88,23.59\H,0,61.33,32.11,27.74\H,0,62
 .8,33.58,26.87\N,0,56.12,27.37,24.62\C,0,55.44,26.09,24.74\C,0,54.49,2
 5.89,25.91\O,0,53.46,25.26,25.7\C,0,56.42,24.95,24.46\C,0,56.96,24.95,
 23.03\C,0,55.83,23.57,24.74\C,0,58.47,24.76,22.87\H,0,55.72,27.98,23.9
 2\H,0,54.77,26.11,23.89\H,0,57.2,25.16,25.19\H,0,56.69,25.89,22.56\H,0
 ,56.43,24.15,22.52\H,0,55.,23.33,24.08\H,0,56.63,22.83,24.68\H,0,55.55
 ,23.55,25.79\H,0,58.82,23.84,23.34\H,0,58.68,24.63,21.8\H,0,59.11,25.5
 3,23.27\N,0,54.93,26.32,27.09\C,0,54.2,26.48,28.33\C,0,53.68,25.18,28.
 92\O,0,52.85,25.25,29.82\C,0,54.94,27.39,29.31\O,0,54.9,28.74,28.88\H,
 0,55.85,26.71,26.95\H,0,53.31,27.02,28.02\H,0,55.98,27.07,29.37\H,0,54
 .34,27.31,30.22\H,0,55.76,29.16,28.91\N,0,54.13,24.01,28.44\C,0,53.59,
 22.7,28.7\C,0,52.08,22.58,28.56\O,0,51.43,21.8,29.26\C,0,54.12,22.09,3
 0.\H,0,54.91,24.02,27.79\H,0,54.06,22.12,27.9\H,0,53.89,21.03,29.98\H,
 0,55.2,22.22,30.09\H,0,53.63,22.59,30.83\N,0,51.5,23.37,27.65\C,0,50.0
 8,23.45,27.37\C,0,49.79,22.57,26.16\O,0,50.71,22.34,25.38\C,0,49.65,24
 .9,27.18\H,0,52.1,24.,27.15\H,0,49.48,23.04,28.19\H,0,48.6,24.91,26.91
 \H,0,49.89,25.35,28.15\H,0,50.25,25.3,26.36\N,0,48.53,22.2,25.91\C,0,4
 7.9,21.6,24.75\C,0,48.46,20.21,24.53\O,0,48.48,19.77,23.38\C,0,47.95,2
 2.47,23.5\C,0,47.38,23.88,23.56\C,0,47.48,24.58,22.21\O,0,47.98,24.,21
 .22\O,0,46.98,25.71,22.05\H,0,47.99,22.6,26.66\H,0,46.85,21.47,25.03\H
 ,0,47.35,21.9,22.78\H,0,48.98,22.59,23.16\H,0,47.98,24.48,24.25\H,0,46
 .31,23.76,23.74\N,0,48.87,19.46,25.56\C,0,49.67,18.26,25.41\H,0,50.618
 ,18.389,25.932\H,0,49.135,17.41,25.834\H,0,49.86,18.079,24.352\H,0,48.
 78,19.91,26.46\Ca,0,47.72,26.68,19.72\O,0,45.82,28.09,20.81\H,0,45.95,
 28.62,21.59\H,0,44.94,28.29,20.52\\Version=ES64L-G16RevA.03\State=1-A\
 HF=-5333.4663425\RMSD=3.551e-09\Dipole=-2.8638297,-0.4134572,-4.933051
 9\Quadrupole=-31.310147,-33.7756057,65.0857527,-10.0768183,110.6557696
 ,193.9391558\PG=C01 [X(C54H83Ca1N15O23)]\\@


 ... THE UNIVERSE IS NOT ONLY QUEERER THAN WE SUPPOSE,
 BUT QUEERER THAN WE CAN SUPPOSE ... 

                                   -- J. B. S. HALDANE
 Job cpu time:       0 days  6 hours 24 minutes 31.9 seconds.
 Elapsed time:       0 days  0 hours  8 minutes  7.2 seconds.
 File lengths (MBytes):  RWF=   1517 Int=      0 D2E=      0 Chk=    171 Scr=      1
 Normal termination of Gaussian 16 at Tue Sep 17 00:04:37 2019.
