 Entering Gaussian System, Link 0=g16
 Initial command:
 /home1/apps/gaussian/16rA.03/g16/l1.exe "/scratch/01990/pengzhi/4342290/Gau-174736.inp" -scrdir="/scratch/01990/pengzhi/4342290/"
 Entering Link 1 = /home1/apps/gaussian/16rA.03/g16/l1.exe PID=    174737.
  
 Copyright (c) 1988,1990,1992,1993,1995,1998,2003,2009,2016,
            Gaussian, Inc.  All Rights Reserved.
  
 This is part of the Gaussian(R) 16 program.  It is based on
 the Gaussian(R) 09 system (copyright 2009, Gaussian, Inc.),
 the Gaussian(R) 03 system (copyright 2003, Gaussian, Inc.),
 the Gaussian(R) 98 system (copyright 1998, Gaussian, Inc.),
 the Gaussian(R) 94 system (copyright 1995, Gaussian, Inc.),
 the Gaussian 92(TM) system (copyright 1992, Gaussian, Inc.),
 the Gaussian 90(TM) system (copyright 1990, Gaussian, Inc.),
 the Gaussian 88(TM) system (copyright 1988, Gaussian, Inc.),
 the Gaussian 86(TM) system (copyright 1986, Carnegie Mellon
 University), and the Gaussian 82(TM) system (copyright 1983,
 Carnegie Mellon University). Gaussian is a federally registered
 trademark of Gaussian, Inc.
  
 This software contains proprietary and confidential information,
 including trade secrets, belonging to Gaussian, Inc.
  
 This software is provided under written license and may be
 used, copied, transmitted, or stored only in accord with that
 written license.
  
 The following legend is applicable only to US Government
 contracts under FAR:
  
                    RESTRICTED RIGHTS LEGEND
  
 Use, reproduction and disclosure by the US Government is
 subject to restrictions as set forth in subparagraphs (a)
 and (c) of the Commercial Computer Software - Restricted
 Rights clause in FAR 52.227-19.
  
 Gaussian, Inc.
 340 Quinnipiac St., Bldg. 40, Wallingford CT 06492
  
  
 ---------------------------------------------------------------
 Warning -- This program may not be used in any manner that
 competes with the business of Gaussian, Inc. or will provide
 assistance to any competitor of Gaussian, Inc.  The licensee
 of this program is prohibited from giving any competitor of
 Gaussian, Inc. access to this program.  By using this program,
 the user acknowledges that Gaussian, Inc. is engaged in the
 business of creating and licensing software in the field of
 computational chemistry and represents and warrants to the
 licensee that it is not a competitor of Gaussian, Inc. and that
 it will not use this program in any manner prohibited above.
 ---------------------------------------------------------------
  

 Cite this work as:
 Gaussian 16, Revision A.03,
 M. J. Frisch, G. W. Trucks, H. B. Schlegel, G. E. Scuseria, 
 M. A. Robb, J. R. Cheeseman, G. Scalmani, V. Barone, 
 G. A. Petersson, H. Nakatsuji, X. Li, M. Caricato, A. V. Marenich, 
 J. Bloino, B. G. Janesko, R. Gomperts, B. Mennucci, H. P. Hratchian, 
 J. V. Ortiz, A. F. Izmaylov, J. L. Sonnenberg, D. Williams-Young, 
 F. Ding, F. Lipparini, F. Egidi, J. Goings, B. Peng, A. Petrone, 
 T. Henderson, D. Ranasinghe, V. G. Zakrzewski, J. Gao, N. Rega, 
 G. Zheng, W. Liang, M. Hada, M. Ehara, K. Toyota, R. Fukuda, 
 J. Hasegawa, M. Ishida, T. Nakajima, Y. Honda, O. Kitao, H. Nakai, 
 T. Vreven, K. Throssell, J. A. Montgomery, Jr., J. E. Peralta, 
 F. Ogliaro, M. J. Bearpark, J. J. Heyd, E. N. Brothers, K. N. Kudin, 
 V. N. Staroverov, T. A. Keith, R. Kobayashi, J. Normand, 
 K. Raghavachari, A. P. Rendell, J. C. Burant, S. S. Iyengar, 
 J. Tomasi, M. Cossi, J. M. Millam, M. Klene, C. Adamo, R. Cammi, 
 J. W. Ochterski, R. L. Martin, K. Morokuma, O. Farkas, 
 J. B. Foresman, and D. J. Fox, Gaussian, Inc., Wallingford CT, 2016.
 
 ******************************************
 Gaussian 16:  ES64L-G16RevA.03 25-Dec-2016
                17-Sep-2019 
 ******************************************
 %chk=Ng-293_loop3_23.0.chk
 %nprocshared=48
 Will use up to   48 processors via shared memory.
 %mem=10GB
 %nosave
 ----------------------------------------------------------------------
 #b3lyp/svp scf=(tight,noincore) Test #IOP(5/87=12) Density=Current Pop
 =(MK,readradii) iop(6/33=2) iop(6/42=6)
 ----------------------------------------------------------------------
 1/30=1,38=1,172=1/1;
 2/12=2,17=6,18=5,40=1/2;
 3/5=18,7=101,11=2,25=1,30=1,74=-5/1,2,3;
 4//1;
 5/5=4,32=2,38=5,87=12/2;
 6/7=2,8=2,9=2,10=2,15=8,20=101,22=-1,28=1,33=2,42=6/1,2;
 99/5=1,9=1/99;
 -----------------
 Ng-293_loop3_23.0
 -----------------
 Symbolic Z-matrix:
 Charge =  0 Multiplicity = 1
 C                     38.84     11.61     97.9 
 C                     38.28     12.31     96.68 
 O                     37.71     11.69     95.78 
 H                     39.737    12.13     98.236 
 H                     38.096    11.617    98.697 
 H                     39.091    10.58     97.646 
 N                     38.32     13.65     96.68 
 C                     37.93     14.49     95.56 
 C                     36.42     14.43     95.35 
 O                     35.67     14.12     96.27 
 C                     38.44     15.92     95.7 
 C                     38.11     16.77     94.47 
 O                     37.28     17.7      94.54 
 O                     38.57     16.42     93.36 
 H                     38.85     14.08     97.42 
 H                     38.38     14.1      94.64 
 H                     39.48     15.97     95.99 
 H                     37.92     16.42     96.52 
 N                     36.02     14.68     94.1 
 C                     34.61     14.78     93.76 
 C                     33.87     15.75     94.66 
 O                     32.65     15.59     94.75 
 C                     34.03     13.39     93.52 
 C                     34.71     12.48     92.5 
 C                     34.78     13.01     91.07 
 C                     34.86     12.01     89.93 
 N                     34.96     12.77     88.68 
 H                     36.75     15.07     93.54 
 H                     34.53     15.25     92.78 
 H                     32.96     13.44     93.29 
 H                     34.03     12.79     94.44 
 H                     34.1      11.58     92.46 
 H                     35.74     12.24     92.78 
 H                     35.62     13.7      91. 
 H                     33.85     13.55     90.91 
 H                     34.08     11.25     89.96 
 H                     35.84     11.58     90.18 
 H                     35.44     13.66     88.64 
 H                     35.44     12.23     87.97 
 H                     34.04     12.87     88.27 
 N                     34.53     16.76     95.23 
 C                     34.02     17.66     96.25 
 C                     34.79     18.96     96.48 
 O                     35.64     19.09     97.36 
 C                     33.94     16.83     97.53 
 C                     33.44     17.57     98.76 
 O                     32.52     18.41     98.66 
 O                     33.97     17.37     99.87 
 H                     35.48     16.82     94.9 
 H                     33.01     17.87     95.91 
 H                     34.89     16.31     97.64 
 H                     33.16     16.08     97.38 
 N                     34.32     20.06     95.89 
 C                     34.72     21.4      96.26 
 C                     33.9      22.07     97.36 
 O                     32.71     21.77     97.46 
 H                     33.51     20.05     95.28 
 H                     34.76     21.94     95.32 
 H                     35.72     21.33     96.68 
 N                     34.53     22.88     98.21 
 C                     33.93     23.5      99.37 
 C                     34.35     24.92     99.71 
 O                     33.94     25.57     100.67 
 C                     34.15     22.55     100.55 
 C                     33.59     21.15     100.33 
 N                     34.46     20.14     100.26 
 O                     32.38     20.97     100.24 
 H                     35.53     23.03     98.09 
 H                     32.85     23.47     99.24 
 H                     33.71     22.94     101.47 
 H                     35.22     22.52     100.73 
 H                     35.42     20.4      100.1 
 H                     34.17     19.19     100.05 
 N                     35.35     25.44     98.99 
 C                     36.02     26.69     99.28 
 C                     36.99     26.58     100.45 
 O                     37.56     25.5      100.59 
 H                     35.56     25.01     98.09 
 H                     35.27     27.45     99.49 
 H                     36.56     27.07     98.42 
 N                     36.87     27.52     101.38 
 C                     37.57     27.58     102.65 
 C                     37.19     26.56     103.72 
 O                     37.32     26.79     104.92 
 C                     39.07     27.53     102.36 
 C                     39.98     27.85     103.53 
 C                     39.9      29.03     104.28 
 C                     40.95     26.92     103.92 
 C                     40.82     29.31     105.3 
 C                     41.89     27.14     104.93 
 C                     41.78     28.34     105.66 
 O                     42.58     28.48     106.75 
 H                     36.24     28.27     101.13 
 H                     37.39     28.57     103.07 
 H                     39.28     28.21     101.54 
 H                     39.25     26.54     101.96 
 H                     39.07     29.68     104.08 
 H                     40.89     25.96     103.42 
 H                     40.76     30.19     105.91 
 H                     42.61     26.37     105.16 
 H                     43.16     27.72     106.86 
 N                     36.64     25.44     103.25 
 C                     35.99     24.39     104. 
 C                     34.76     24.95     104.71 
 O                     33.73     24.32     104.46 
 C                     36.94     23.68     104.96 
 C                     38.06     22.97     104.21 
 C                     36.21     22.64     105.79 
 C                     39.21     22.34     105. 
 H                     36.61     25.26     102.25 
 H                     35.59     23.72     103.24 
 H                     37.45     24.35     105.65 
 H                     38.55     23.68     103.54 
 H                     37.64     22.17     103.59 
 H                     36.85     22.1      106.49 
 H                     35.56     23.16     106.49 
 H                     35.57     22.02     105.17 
 H                     39.62     23.07     105.69 
 H                     38.85     21.49     105.59 
 H                     40.01     22.08     104.31 
 N                     34.74     25.87     105.68 
 C                     33.58     26.5      106.29 
 C                     32.71     25.53     107.07 
 O                     31.64     25.98     107.5 
 C                     34.05     27.67     107.15 
 O                     35.02     28.48     106.52 
 H                     35.58     26.38     105.88 
 H                     32.96     26.85     105.47 
 H                     34.56     27.41     108.08 
 H                     33.2      28.31     107.4 
 H                     35.64     28.74     107.2 
 N                     33.1      24.3      107.39 
 C                     32.33     23.21     107.96 
 C                     31.       22.99     107.25 
 O                     29.95     22.81     107.86 
 C                     32.15     23.44     109.46 
 H                     34.06     24.03     107.23 
 H                     32.96     22.33     107.84 
 H                     33.05     23.76     109.98 
 H                     31.35     24.18     109.53 
 H                     31.71     22.52     109.84 
 N                     31.02     22.96     105.91 
 C                     30.       22.55     104.97 
 C                     29.95     21.03     104.93 
 O                     30.97     20.34     104.93 
 C                     30.32     23.29     103.67 
 H                     31.89     23.17     105.45 
 H                     28.99     22.85     105.24 
 H                     29.7      23.07     102.8 
 H                     30.04     24.29     103.98 
 H                     31.39     23.32     103.44 
 N                     28.73     20.5      104.84 
 C                     28.39     19.11     104.59 
 C                     28.97     18.09     105.56 
 O                     29.54     17.09     105.13 
 C                     28.47     18.7      103.13 
 C                     27.83     19.75     102.22 
 C                     27.83     19.27     100.78 
 O                     28.83     19.43     100.04 
 O                     26.91     18.48     100.47 
 H                     27.95     21.13     104.85 
 H                     27.31     19.07     104.72 
 H                     27.95     17.75     103. 
 H                     29.51     18.47     102.86 
 H                     28.45     20.64     102.24 
 H                     26.81     19.97     102.53 
 N                     28.92     18.31     106.88 
 C                     29.61     17.52     107.88 
 H                     30.522    18.035    108.183 
 H                     28.964    17.386    108.748 
 H                     29.865    16.546    107.462 
 H                     28.39     19.08     107.27 
 Ca                    30.65     19.98     98.39 
 O                     28.3      20.52     97.22 
 H                     27.89     20.16     96.43 
 H                     27.57     20.75     97.79 
 
 Stoichiometry    C54H83CaN15O23
 Framework group  C1[X(C54H83CaN15O23)]
 Deg. of freedom   522
 Full point group                 C1      NOp   1
 Largest Abelian subgroup         C1      NOp   1
 Largest concise Abelian subgroup C1      NOp   1
                         Standard orientation:                         
 ---------------------------------------------------------------------
 Center     Atomic      Atomic             Coordinates (Angstroms)
 Number     Number       Type             X           Y           Z
 ---------------------------------------------------------------------
      1          6           0       -8.483879   -1.977766    6.264798
      2          6           0       -8.873258   -2.119163    4.808642
      3          8           0       -9.961281   -1.723159    4.385927
      4          1           0       -7.860757   -2.822983    6.556745
      5          1           0       -7.927125   -1.050729    6.404160
      6          1           0       -9.382255   -1.958604    6.882026
      7          7           0       -7.932071   -2.580778    3.973012
      8          6           0       -8.148405   -2.883206    2.568079
      9          6           0       -8.371942   -1.598918    1.775339
     10          8           0       -7.950179   -0.523961    2.189566
     11          6           0       -7.034439   -3.741900    1.979585
     12          6           0       -7.320820   -4.137982    0.528583
     13          8           0       -6.635875   -3.675353   -0.407112
     14          8           0       -8.347162   -4.810868    0.283541
     15          1           0       -7.092164   -2.935294    4.399947
     16          1           0       -9.067726   -3.469978    2.460626
     17          1           0       -6.770876   -4.579823    2.609361
     18          1           0       -6.110614   -3.162125    1.922931
     19          7           0       -9.095092   -1.748995    0.661997
     20          6           0       -9.296813   -0.648270   -0.266126
     21          6           0       -7.990844    0.003916   -0.675515
     22          8           0       -8.064798    1.165231   -1.085368
     23          6           0      -10.455398    0.225691    0.202886
     24          6           0      -11.805983   -0.433233    0.472403
     25          6           0      -12.450898   -1.149521   -0.711538
     26          6           0      -13.962765   -1.289507   -0.737302
     27          7           0      -14.317465   -2.044360   -1.943322
     28          1           0       -9.204777   -2.709407    0.408664
     29          1           0       -9.666551   -1.059845   -1.205062
     30          1           0      -10.606693    1.078743   -0.467720
     31          1           0      -10.221304    0.729044    1.150639
     32          1           0      -12.478923    0.379366    0.737986
     33          1           0      -11.753259   -1.173463    1.276256
     34          1           0      -11.998801   -2.136270   -0.803915
     35          1           0      -12.205532   -0.552461   -1.586418
     36          1           0      -14.491202   -0.347188   -0.596986
     37          1           0      -14.065792   -1.935238    0.145997
     38          1           0      -13.711256   -2.765888   -2.312118
     39          1           0      -15.191871   -2.538642   -1.812179
     40          1           0      -14.558685   -1.401124   -2.686666
     41          7           0       -6.862236   -0.707892   -0.662336
     42          6           0       -5.515079   -0.196258   -0.846450
     43          6           0       -4.422760   -1.213164   -1.175907
     44          8           0       -3.686923   -1.707943   -0.322949
     45          6           0       -5.187716    0.573348    0.431924
     46          6           0       -3.803084    1.198356    0.483483
     47          8           0       -3.304255    1.711525   -0.541128
     48          8           0       -3.141796    1.169906    1.539366
     49          1           0       -7.035066   -1.679942   -0.461712
     50          1           0       -5.631160    0.515430   -1.658747
     51          1           0       -5.454230   -0.064760    1.272631
     52          1           0       -5.837316    1.451342    0.455270
     53          7           0       -4.080909   -1.347445   -2.458134
     54          6           0       -2.868637   -2.002021   -2.899075
     55          6           0       -1.632460   -1.115668   -3.031526
     56          8           0       -1.796904    0.067020   -3.332041
     57          1           0       -4.539420   -0.834523   -3.203102
     58          1           0       -3.158234   -2.528488   -3.802272
     59          1           0       -2.597554   -2.722212   -2.131521
     60          7           0       -0.445444   -1.642196   -2.732760
     61          6           0        0.803019   -0.914286   -2.694200
     62          6           0        2.050489   -1.622200   -3.195274
     63          8           0        3.181594   -1.139943   -3.210395
     64          6           0        0.981297   -0.406018   -1.261307
     65          6           0       -0.169642    0.460215   -0.764334
     66          7           0       -0.909882   -0.012373    0.240954
     67          8           0       -0.385600    1.557896   -1.267384
     68          1           0       -0.404517   -2.615793   -2.437238
     69          1           0        0.666584    0.007031   -3.257014
     70          1           0        1.900829    0.171903   -1.149206
     71          1           0        1.111021   -1.282415   -0.634172
     72          1           0       -0.821092   -0.999140    0.423181
     73          1           0       -1.732211    0.475142    0.582720
     74          7           0        1.923795   -2.917295   -3.504270
     75          6           0        3.021642   -3.809403   -3.811475
     76          6           0        3.798106   -4.235552   -2.571556
     77          8           0        3.151951   -4.349004   -1.532078
     78          1           0        0.985578   -3.272121   -3.685505
     79          1           0        3.688676   -3.315956   -4.515590
     80          1           0        2.687294   -4.700367   -4.331085
     81          7           0        5.117479   -4.112411   -2.655165
     82          6           0        6.078750   -4.319679   -1.587692
     83          6           0        6.116902   -3.295437   -0.456686
     84          8           0        7.135584   -3.076034    0.194428
     85          6           0        5.868827   -5.729972   -1.036687
     86          6           0        6.945776   -6.239783   -0.098776
     87          6           0        8.306233   -6.289527   -0.427382
     88          6           0        6.591359   -6.670073    1.184633
     89          6           0        9.248506   -6.846419    0.448514
     90          6           0        7.484828   -7.228980    2.101931
     91          6           0        8.844444   -7.265325    1.734341
     92          8           0        9.735786   -7.647695    2.686708
     93          1           0        5.452458   -3.878255   -3.579752
     94          1           0        7.068766   -4.332575   -2.044421
     95          1           0        5.766519   -6.410678   -1.876373
     96          1           0        4.893053   -5.710283   -0.567669
     97          1           0        8.602418   -5.829554   -1.350474
     98          1           0        5.560357   -6.481464    1.461514
     99          1           0       10.299165   -6.866001    0.234432
    100          1           0        7.123473   -7.543230    3.068817
    101          1           0        9.293038   -7.881971    3.508408
    102          7           0        4.984636   -2.612037   -0.287164
    103          6           0        4.768158   -1.447969    0.540836
    104          6           0        5.640761   -0.296206    0.048287
    105          8           0        4.998879    0.730933   -0.182525
    106          6           0        4.973607   -1.736910    2.024920
    107          6           0        3.964934   -2.757187    2.537378
    108          6           0        4.819425   -0.478038    2.858508
    109          6           0        4.109688   -3.306345    3.958987
    110          1           0        4.145576   -2.867918   -0.800781
    111          1           0        3.748334   -1.138977    0.315042
    112          1           0        5.945906   -2.167044    2.258841
    113          1           0        3.996408   -3.644316    1.900895
    114          1           0        2.953156   -2.341587    2.471177
    115          1           0        4.952476   -0.634980    3.930360
    116          1           0        5.669086    0.169679    2.654942
    117          1           0        3.929316    0.075037    2.575288
    118          1           0        5.121980   -3.667050    4.108172
    119          1           0        3.925745   -2.516927    4.695998
    120          1           0        3.452771   -4.166131    4.072684
    121          7           0        6.976695   -0.241628    0.048491
    122          6           0        7.828687    0.791943   -0.517583
    123          6           0        7.685066    2.135483    0.175579
    124          8           0        8.284464    3.085502   -0.344504
    125          6           0        9.272075    0.295927   -0.516546
    126          8           0        9.412345   -1.034282   -0.969061
    127          1           0        7.494749   -1.079410    0.236754
    128          1           0        7.477274    0.950853   -1.532746
    129          1           0        9.762655    0.243120    0.457693
    130          1           0        9.881271    0.929642   -1.166073
    131          1           0       10.092129   -1.434769   -0.428780
    132          7           0        7.058028    2.290208    1.337596
    133          6           0        6.682766    3.512069    2.024716
    134          6           0        5.994694    4.518081    1.110442
    135          8           0        6.280593    5.711924    1.111865
    136          6           0        7.908535    4.107767    2.716043
    137          1           0        6.774892    1.472016    1.857689
    138          1           0        5.993079    3.193577    2.804840
    139          1           0        8.522399    3.386011    3.249934
    140          1           0        8.460781    4.604275    1.915416
    141          1           0        7.524237    4.918925    3.331460
    142          7           0        5.019834    4.054740    0.315545
    143          6           0        4.041191    4.768668   -0.474813
    144          6           0        2.944993    5.282799    0.446339
    145          8           0        2.482328    4.599439    1.360374
    146          6           0        3.641496    3.808464   -1.596532
    147          1           0        4.858002    3.061631    0.303482
    148          1           0        4.422656    5.658939   -0.969688
    149          1           0        2.854481    4.131688   -2.279051
    150          1           0        4.558086    3.843535   -2.173709
    151          1           0        3.521360    2.773711   -1.259556
    152          7           0        2.483212    6.500655    0.161760
    153          6           0        1.322574    7.158789    0.736197
    154          6           0        1.309789    7.299343    2.252041
    155          8           0        0.313870    6.966823    2.890302
    156          6           0       -0.003137    6.722443    0.137705
    157          6           0        0.072161    6.645836   -1.388290
    158          6           0       -1.290120    6.309359   -1.967060
    159          8           0       -1.683684    5.121975   -2.058851
    160          8           0       -2.084684    7.269643   -2.081603
    161          1           0        2.915962    6.994067   -0.596312
    162          1           0        1.364271    8.171606    0.339506
    163          1           0       -0.773353    7.440713    0.421704
    164          1           0       -0.334846    5.783353    0.601903
    165          1           0        0.724052    5.820773   -1.655138
    166          1           0        0.425760    7.583992   -1.812239
    167          7           0        2.403105    7.722012    2.899582
    168          6           0        2.575408    7.702236    4.338373
    169          1           0        3.171839    6.834123    4.620205
    170          1           0        3.085845    8.611497    4.656801
    171          1           0        1.599628    7.644338    4.820997
    172          1           0        3.209982    8.078694    2.401960
    173         20           0       -2.434273    2.775626   -2.577182
    174          8           0       -2.938128    4.286478   -4.732746
    175          1           0       -3.761985    4.495531   -5.179241
    176          1           0       -2.386239    5.053086   -4.868508
 ---------------------------------------------------------------------
 Rotational constants (GHZ):           0.0191186           0.0085137           0.0068966
 Standard basis: SVP (5D, 7F)
 There are  1809 symmetry adapted cartesian basis functions of A   symmetry.
 There are  1717 symmetry adapted basis functions of A   symmetry.
  1717 basis functions,  2922 primitive gaussians,  1809 cartesian basis functions
   358 alpha electrons      358 beta electrons
       nuclear repulsion energy     18933.4591716820 Hartrees.
 NAtoms=  176 NActive=  176 NUniq=  176 SFac= 1.00D+00 NAtFMM=   60 NAOKFM=T Big=T
 Integral buffers will be    131072 words long.
 Raffenetti 2 integral format.
 Two-electron integral symmetry is turned on.
 One-electron integrals computed using PRISM.
 NBasis=  1717 RedAO= T EigKep=  3.03D-04  NBF=  1717
 NBsUse=  1717 1.00D-06 EigRej= -1.00D+00 NBFU=  1717
 ExpMin= 1.98D-02 ExpMax= 3.51D+04 ExpMxC= 5.28D+03 IAcc=3 IRadAn=         5 AccDes= 0.00D+00
 Harris functional with IExCor=  402 and IRadAn=       5 diagonalized for initial guess.
 HarFok:  IExCor=  402 AccDes= 0.00D+00 IRadAn=         5 IDoV= 1 UseB2=F ITyADJ=14
 ICtDFT=  3500011 ScaDFX=  1.000000  1.000000  1.000000  1.000000
 FoFCou: FMM=F IPFlag=           0 FMFlag=      100000 FMFlg1=        2001
         NFxFlg=           0 DoJE=T BraDBF=F KetDBF=T FulRan=T
         wScrn=  0.000000 ICntrl=       500 IOpCl=  0 I1Cent=   200000004 NGrid=           0
         NMat0=    1 NMatS0=      1 NMatT0=    0 NMatD0=    1 NMtDS0=    0 NMtDT0=    0
 Petite list used in FoFCou.
 Requested convergence on RMS density matrix=1.00D-08 within 128 cycles.
 Requested convergence on MAX density matrix=1.00D-06.
 Requested convergence on             energy=1.00D-06.
 No special actions if energy rises.
 EnCoef did     4 forward-backward iterations
 SCF Done:  E(RB3LYP) =  -5333.41268174     A.U. after   18 cycles
            NFock= 18  Conv=0.42D-08     -V/T= 2.0082
 SCF density gives NOpUse=  1 NOpAll=  1.
 Hyperfine terms turned off by default for NAtoms > 100.

 **********************************************************************

            Population analysis using the SCF density.

 **********************************************************************

 Orbital symmetries:
 BldTbl:  Degeneracy threshold= 1.00D-02
       Occupied  (A) (A) (A) (A) (A) (A) (A) (A) (A) (A) (A) (A)
                 (A) (A) (A) (A) (A) (A) (A) (A) (A) (A) (A) (A)
                 (A) (A) (A) (A) (A) (A) (A) (A) (A) (A) (A) (A)
                 (A) (A) (A) (A) (A) (A) (A) (A) (A) (A) (A) (A)
                 (A) (A) (A) (A) (A) (A) (A) (A) (A) (A) (A) (A)
                 (A) (A) (A) (A) (A) (A) (A) (A) (A) (A) (A) (A)
                 (A) (A) (A) (A) (A) (A) (A) (A) (A) (A) (A) (A)
                 (A) (A) (A) (A) (A) (A) (A) (A) (A) (A) (A) (A)
                 (A) (A) (A) (A) (A) (A) (A) (A) (A) (A) (A) (A)
                 (A) (A) (A) (A) (A) (A) (A) (A) (A) (A) (A) (A)
                 (A) (A) (A) (A) (A) (A) (A) (A) (A) (A) (A) (A)
                 (A) (A) (A) (A) (A) (A) (A) (A) (A) (A) (A) (A)
                 (A) (A) (A) (A) (A) (A) (A) (A) (A) (A) (A) (A)
                 (A) (A) (A) (A) (A) (A) (A) (A) (A) (A) (A) (A)
                 (A) (A) (A) (A) (A) (A) (A) (A) (A) (A) (A) (A)
                 (A) (A) (A) (A) (A) (A) (A) (A) (A) (A) (A) (A)
                 (A) (A) (A) (A) (A) (A) (A) (A) (A) (A) (A) (A)
                 (A) (A) (A) (A) (A) (A) (A) (A) (A) (A) (A) (A)
                 (A) (A) (A) (A) (A) (A) (A) (A) (A) (A) (A) (A)
                 (A) (A) (A) (A) (A) (A) (A) (A) (A) (A) (A) (A)
                 (A) (A) (A) (A) (A) (A) (A) (A) (A) (A) (A) (A)
                 (A) (A) (A) (A) (A) (A) (A) (A) (A) (A) (A) (A)
                 (A) (A) (A) (A) (A) (A) (A) (A) (A) (A) (A) (A)
                 (A) (A) (A) (A) (A) (A) (A) (A) (A) (A) (A) (A)
                 (A) (A) (A) (A) (A) (A) (A) (A) (A) (A) (A) (A)
                 (A) (A) (A) (A) (A) (A) (A) (A) (A) (A) (A) (A)
                 (A) (A) (A) (A) (A) (A) (A) (A) (A) (A) (A) (A)
                 (A) (A) (A) (A) (A) (A) (A) (A) (A) (A) (A) (A)
                 (A) (A) (A) (A) (A) (A) (A) (A) (A) (A) (A) (A)
                 (A) (A) (A) (A) (A) (A) (A) (A) (A) (A)
       Virtual   (A) (A) (A) (A) (A) (A) (A) (A) (A) (A) (A) (A)
                 (A) (A) (A) (A) (A) (A) (A) (A) (A) (A) (A) (A)
                 (A) (A) (A) (A) (A) (A) (A) (A) (A) (A) (A) (A)
                 (A) (A) (A) (A) (A) (A) (A) (A) (A) (A) (A) (A)
                 (A) (A) (A) (A) (A) (A) (A) (A) (A) (A) (A) (A)
                 (A) (A) (A) (A) (A) (A) (A) (A) (A) (A) (A) (A)
                 (A) (A) (A) (A) (A) (A) (A) (A) (A) (A) (A) (A)
                 (A) (A) (A) (A) (A) (A) (A) (A) (A) (A) (A) (A)
                 (A) (A) (A) (A) (A) (A) (A) (A) (A) (A) (A) (A)
                 (A) (A) (A) (A) (A) (A) (A) (A) (A) (A) (A) (A)
                 (A) (A) (A) (A) (A) (A) (A) (A) (A) (A) (A) (A)
                 (A) (A) (A) (A) (A) (A) (A) (A) (A) (A) (A) (A)
                 (A) (A) (A) (A) (A) (A) (A) (A) (A) (A) (A) (A)
                 (A) (A) (A) (A) (A) (A) (A) (A) (A) (A) (A) (A)
                 (A) (A) (A) (A) (A) (A) (A) (A) (A) (A) (A) (A)
                 (A) (A) (A) (A) (A) (A) (A) (A) (A) (A) (A) (A)
                 (A) (A) (A) (A) (A) (A) (A) (A) (A) (A) (A) (A)
                 (A) (A) (A) (A) (A) (A) (A) (A) (A) (A) (A) (A)
                 (A) (A) (A) (A) (A) (A) (A) (A) (A) (A) (A) (A)
                 (A) (A) (A) (A) (A) (A) (A) (A) (A) (A) (A) (A)
                 (A) (A) (A) (A) (A) (A) (A) (A) (A) (A) (A) (A)
                 (A) (A) (A) (A) (A) (A) (A) (A) (A) (A) (A) (A)
                 (A) (A) (A) (A) (A) (A) (A) (A) (A) (A) (A) (A)
                 (A) (A) (A) (A) (A) (A) (A) (A) (A) (A) (A) (A)
                 (A) (A) (A) (A) (A) (A) (A) (A) (A) (A) (A) (A)
                 (A) (A) (A) (A) (A) (A) (A) (A) (A) (A) (A) (A)
                 (A) (A) (A) (A) (A) (A) (A) (A) (A) (A) (A) (A)
                 (A) (A) (A) (A) (A) (A) (A) (A) (A) (A) (A) (A)
                 (A) (A) (A) (A) (A) (A) (A) (A) (A) (A) (A) (A)
                 (A) (A) (A) (A) (A) (A) (A) (A) (A) (A) (A) (A)
                 (A) (A) (A) (A) (A) (A) (A) (A) (A) (A) (A) (A)
                 (A) (A) (A) (A) (A) (A) (A) (A) (A) (A) (A) (A)
                 (A) (A) (A) (A) (A) (A) (A) (A) (A) (A) (A) (A)
                 (A) (A) (A) (A) (A) (A) (A) (A) (A) (A) (A) (A)
                 (A) (A) (A) (A) (A) (A) (A) (A) (A) (A) (A) (A)
                 (A) (A) (A) (A) (A) (A) (A) (A) (A) (A) (A) (A)
                 (A) (A) (A) (A) (A) (A) (A) (A) (A) (A) (A) (A)
                 (A) (A) (A) (A) (A) (A) (A) (A) (A) (A) (A) (A)
                 (A) (A) (A) (A) (A) (A) (A) (A) (A) (A) (A) (A)
                 (A) (A) (A) (A) (A) (A) (A) (A) (A) (A) (A) (A)
                 (A) (A) (A) (A) (A) (A) (A) (A) (A) (A) (A) (A)
                 (A) (A) (A) (A) (A) (A) (A) (A) (A) (A) (A) (A)
                 (A) (A) (A) (A) (A) (A) (A) (A) (A) (A) (A) (A)
                 (A) (A) (A) (A) (A) (A) (A) (A) (A) (A) (A) (A)
                 (A) (A) (A) (A) (A) (A) (A) (A) (A) (A) (A) (A)
                 (A) (A) (A) (A) (A) (A) (A) (A) (A) (A) (A) (A)
                 (A) (A) (A) (A) (A) (A) (A) (A) (A) (A) (A) (A)
                 (A) (A) (A) (A) (A) (A) (A) (A) (A) (A) (A) (A)
                 (A) (A) (A) (A) (A) (A) (A) (A) (A) (A) (A) (A)
                 (A) (A) (A) (A) (A) (A) (A) (A) (A) (A) (A) (A)
                 (A) (A) (A) (A) (A) (A) (A) (A) (A) (A) (A) (A)
                 (A) (A) (A) (A) (A) (A) (A) (A) (A) (A) (A) (A)
                 (A) (A) (A) (A) (A) (A) (A) (A) (A) (A) (A) (A)
                 (A) (A) (A) (A) (A) (A) (A) (A) (A) (A) (A) (A)
                 (A) (A) (A) (A) (A) (A) (A) (A) (A) (A) (A) (A)
                 (A) (A) (A) (A) (A) (A) (A) (A) (A) (A) (A) (A)
                 (A) (A) (A) (A) (A) (A) (A) (A) (A) (A) (A) (A)
                 (A) (A) (A) (A) (A) (A) (A) (A) (A) (A) (A) (A)
                 (A) (A) (A) (A) (A) (A) (A) (A) (A) (A) (A) (A)
                 (A) (A) (A) (A) (A) (A) (A) (A) (A) (A) (A) (A)
                 (A) (A) (A) (A) (A) (A) (A) (A) (A) (A) (A) (A)
                 (A) (A) (A) (A) (A) (A) (A) (A) (A) (A) (A) (A)
                 (A) (A) (A) (A) (A) (A) (A) (A) (A) (A) (A) (A)
                 (A) (A) (A) (A) (A) (A) (A) (A) (A) (A) (A) (A)
                 (A) (A) (A) (A) (A) (A) (A) (A) (A) (A) (A) (A)
                 (A) (A) (A) (A) (A) (A) (A) (A) (A) (A) (A) (A)
                 (A) (A) (A) (A) (A) (A) (A) (A) (A) (A) (A) (A)
                 (A) (A) (A) (A) (A) (A) (A) (A) (A) (A) (A) (A)
                 (A) (A) (A) (A) (A) (A) (A) (A) (A) (A) (A) (A)
                 (A) (A) (A) (A) (A) (A) (A) (A) (A) (A) (A) (A)
                 (A) (A) (A) (A) (A) (A) (A) (A) (A) (A) (A) (A)
                 (A) (A) (A) (A) (A) (A) (A) (A) (A) (A) (A) (A)
                 (A) (A) (A) (A) (A) (A) (A) (A) (A) (A) (A) (A)
                 (A) (A) (A) (A) (A) (A) (A) (A) (A) (A) (A) (A)
                 (A) (A) (A) (A) (A) (A) (A) (A) (A) (A) (A) (A)
                 (A) (A) (A) (A) (A) (A) (A) (A) (A) (A) (A) (A)
                 (A) (A) (A) (A) (A) (A) (A) (A) (A) (A) (A) (A)
                 (A) (A) (A) (A) (A) (A) (A) (A) (A) (A) (A) (A)
                 (A) (A) (A) (A) (A) (A) (A) (A) (A) (A) (A) (A)
                 (A) (A) (A) (A) (A) (A) (A) (A) (A) (A) (A) (A)
                 (A) (A) (A) (A) (A) (A) (A) (A) (A) (A) (A) (A)
                 (A) (A) (A) (A) (A) (A) (A) (A) (A) (A) (A) (A)
                 (A) (A) (A) (A) (A) (A) (A) (A) (A) (A) (A) (A)
                 (A) (A) (A) (A) (A) (A) (A) (A) (A) (A) (A) (A)
                 (A) (A) (A) (A) (A) (A) (A) (A) (A) (A) (A) (A)
                 (A) (A) (A) (A) (A) (A) (A) (A) (A) (A) (A) (A)
                 (A) (A) (A) (A) (A) (A) (A) (A) (A) (A) (A) (A)
                 (A) (A) (A) (A) (A) (A) (A) (A) (A) (A) (A) (A)
                 (A) (A) (A) (A) (A) (A) (A) (A) (A) (A) (A) (A)
                 (A) (A) (A) (A) (A) (A) (A) (A) (A) (A) (A) (A)
                 (A) (A) (A) (A) (A) (A) (A) (A) (A) (A) (A) (A)
                 (A) (A) (A) (A) (A) (A) (A) (A) (A) (A) (A) (A)
                 (A) (A) (A) (A) (A) (A) (A) (A) (A) (A) (A) (A)
                 (A) (A) (A) (A) (A) (A) (A) (A) (A) (A) (A) (A)
                 (A) (A) (A) (A) (A) (A) (A) (A) (A) (A) (A) (A)
                 (A) (A) (A) (A) (A) (A) (A) (A) (A) (A) (A) (A)
                 (A) (A) (A) (A) (A) (A) (A) (A) (A) (A) (A) (A)
                 (A) (A) (A) (A) (A) (A) (A) (A) (A) (A) (A) (A)
                 (A) (A) (A) (A) (A) (A) (A) (A) (A) (A) (A) (A)
                 (A) (A) (A) (A) (A) (A) (A) (A) (A) (A) (A) (A)
                 (A) (A) (A) (A) (A) (A) (A) (A) (A) (A) (A) (A)
                 (A) (A) (A) (A) (A) (A) (A) (A) (A) (A) (A) (A)
                 (A) (A) (A) (A) (A) (A) (A) (A) (A) (A) (A) (A)
                 (A) (A) (A) (A) (A) (A) (A) (A) (A) (A) (A) (A)
                 (A) (A) (A) (A) (A) (A) (A) (A) (A) (A) (A) (A)
                 (A) (A) (A) (A) (A) (A) (A) (A) (A) (A) (A) (A)
                 (A) (A) (A) (A) (A) (A) (A) (A) (A) (A) (A) (A)
                 (A) (A) (A) (A) (A) (A) (A) (A) (A) (A) (A) (A)
                 (A) (A) (A) (A) (A) (A) (A) (A) (A) (A) (A) (A)
                 (A) (A) (A) (A) (A) (A) (A) (A) (A) (A) (A) (A)
                 (A) (A) (A) (A) (A) (A) (A) (A) (A) (A) (A) (A)
                 (A) (A) (A) (A) (A) (A) (A) (A) (A) (A) (A) (A)
                 (A) (A) (A) (A) (A) (A) (A) (A) (A) (A) (A) (A)
                 (A) (A) (A)
 The electronic state is 1-A.
 Alpha  occ. eigenvalues -- -145.41904 -19.18994 -19.16228 -19.14004 -19.13164
 Alpha  occ. eigenvalues --  -19.12832 -19.12159 -19.10574 -19.08736 -19.08406
 Alpha  occ. eigenvalues --  -19.07739 -19.07153 -19.06116 -19.05906 -19.05852
 Alpha  occ. eigenvalues --  -19.05317 -19.05198 -19.04064 -19.03561 -19.02312
 Alpha  occ. eigenvalues --  -19.00231 -18.98961 -18.98689 -18.98548 -15.47764
 Alpha  occ. eigenvalues --  -14.59375 -14.40102 -14.39232 -14.38936 -14.35225
 Alpha  occ. eigenvalues --  -14.35204 -14.34164 -14.33657 -14.32118 -14.32084
 Alpha  occ. eigenvalues --  -14.31351 -14.31294 -14.31269 -14.30914 -14.30802
 Alpha  occ. eigenvalues --  -12.61385 -12.61354 -12.61278 -10.35060 -10.32449
 Alpha  occ. eigenvalues --  -10.31518 -10.31390 -10.29241 -10.27626 -10.27303
 Alpha  occ. eigenvalues --  -10.26837 -10.26622 -10.26362 -10.26222 -10.26219
 Alpha  occ. eigenvalues --  -10.25317 -10.25291 -10.25100 -10.25055 -10.24401
 Alpha  occ. eigenvalues --  -10.24292 -10.24076 -10.23870 -10.23807 -10.23440
 Alpha  occ. eigenvalues --  -10.23162 -10.22916 -10.22326 -10.22125 -10.21389
 Alpha  occ. eigenvalues --  -10.21234 -10.20392 -10.20330 -10.20050 -10.20008
 Alpha  occ. eigenvalues --  -10.19857 -10.19386 -10.19060 -10.19010 -10.18925
 Alpha  occ. eigenvalues --  -10.18909 -10.18892 -10.18888 -10.18886 -10.18856
 Alpha  occ. eigenvalues --  -10.18442 -10.18100 -10.17110 -10.17092 -10.16909
 Alpha  occ. eigenvalues --  -10.16282 -10.16070 -10.14955 -10.13188 -10.12616
 Alpha  occ. eigenvalues --  -10.12466 -10.12205  -1.84338  -1.14583  -1.11937
 Alpha  occ. eigenvalues --   -1.11610  -1.11194  -1.06804  -1.06493  -1.05141
 Alpha  occ. eigenvalues --   -1.05061  -1.04782  -1.03566  -1.02357  -1.01627
 Alpha  occ. eigenvalues --   -1.01125  -1.00868  -1.00358  -0.99696  -0.99078
 Alpha  occ. eigenvalues --   -0.98483  -0.98134  -0.97609  -0.97073  -0.96981
 Alpha  occ. eigenvalues --   -0.96892  -0.96077  -0.94888  -0.94240  -0.93828
 Alpha  occ. eigenvalues --   -0.92605  -0.91151  -0.91041  -0.90231  -0.89945
 Alpha  occ. eigenvalues --   -0.88862  -0.88706  -0.88252  -0.88112  -0.87718
 Alpha  occ. eigenvalues --   -0.87164  -0.86567  -0.86122  -0.85037  -0.84603
 Alpha  occ. eigenvalues --   -0.83346  -0.81836  -0.81140  -0.80647  -0.80118
 Alpha  occ. eigenvalues --   -0.76691  -0.76463  -0.76110  -0.75528  -0.75104
 Alpha  occ. eigenvalues --   -0.74305  -0.74224  -0.74083  -0.73764  -0.73016
 Alpha  occ. eigenvalues --   -0.72748  -0.72608  -0.72551  -0.71445  -0.70138
 Alpha  occ. eigenvalues --   -0.69104  -0.68698  -0.68574  -0.67346  -0.66853
 Alpha  occ. eigenvalues --   -0.65265  -0.64784  -0.64138  -0.63530  -0.63465
 Alpha  occ. eigenvalues --   -0.63202  -0.62749  -0.62535  -0.62061  -0.61657
 Alpha  occ. eigenvalues --   -0.61593  -0.61145  -0.60369  -0.60286  -0.59399
 Alpha  occ. eigenvalues --   -0.59133  -0.58863  -0.58411  -0.58131  -0.58075
 Alpha  occ. eigenvalues --   -0.56865  -0.56677  -0.56475  -0.56282  -0.56037
 Alpha  occ. eigenvalues --   -0.55345  -0.55222  -0.55106  -0.54935  -0.54653
 Alpha  occ. eigenvalues --   -0.54219  -0.53637  -0.53602  -0.53424  -0.53119
 Alpha  occ. eigenvalues --   -0.52770  -0.52212  -0.51603  -0.51344  -0.50997
 Alpha  occ. eigenvalues --   -0.50954  -0.50672  -0.50495  -0.49815  -0.49341
 Alpha  occ. eigenvalues --   -0.49159  -0.48914  -0.48226  -0.47909  -0.47856
 Alpha  occ. eigenvalues --   -0.47616  -0.47401  -0.46949  -0.46775  -0.46654
 Alpha  occ. eigenvalues --   -0.46578  -0.46177  -0.46156  -0.45894  -0.45863
 Alpha  occ. eigenvalues --   -0.45762  -0.45386  -0.45167  -0.45093  -0.44768
 Alpha  occ. eigenvalues --   -0.44669  -0.44341  -0.44254  -0.44003  -0.43836
 Alpha  occ. eigenvalues --   -0.43635  -0.43605  -0.43451  -0.43371  -0.43201
 Alpha  occ. eigenvalues --   -0.42889  -0.42813  -0.42656  -0.42443  -0.42299
 Alpha  occ. eigenvalues --   -0.42223  -0.42032  -0.41701  -0.41424  -0.41386
 Alpha  occ. eigenvalues --   -0.41359  -0.41148  -0.40823  -0.40718  -0.40632
 Alpha  occ. eigenvalues --   -0.40412  -0.40172  -0.40092  -0.40005  -0.39677
 Alpha  occ. eigenvalues --   -0.39564  -0.39387  -0.39347  -0.39126  -0.38979
 Alpha  occ. eigenvalues --   -0.38381  -0.38310  -0.38159  -0.38015  -0.37851
 Alpha  occ. eigenvalues --   -0.37709  -0.37652  -0.37562  -0.37461  -0.37356
 Alpha  occ. eigenvalues --   -0.37302  -0.37169  -0.36815  -0.36732  -0.36702
 Alpha  occ. eigenvalues --   -0.36585  -0.36471  -0.36359  -0.36297  -0.36183
 Alpha  occ. eigenvalues --   -0.35865  -0.35777  -0.35736  -0.35526  -0.35296
 Alpha  occ. eigenvalues --   -0.35003  -0.34958  -0.34855  -0.34724  -0.34618
 Alpha  occ. eigenvalues --   -0.34116  -0.34027  -0.33982  -0.33764  -0.33702
 Alpha  occ. eigenvalues --   -0.33628  -0.33325  -0.33197  -0.33032  -0.32949
 Alpha  occ. eigenvalues --   -0.32681  -0.32502  -0.32151  -0.32132  -0.31679
 Alpha  occ. eigenvalues --   -0.31347  -0.31327  -0.30987  -0.30470  -0.30319
 Alpha  occ. eigenvalues --   -0.30108  -0.29813  -0.29657  -0.29559  -0.28953
 Alpha  occ. eigenvalues --   -0.28775  -0.28183  -0.28113  -0.27932  -0.27744
 Alpha  occ. eigenvalues --   -0.27393  -0.26421  -0.26258  -0.25568  -0.25398
 Alpha  occ. eigenvalues --   -0.24938  -0.24535  -0.24409  -0.24342  -0.23675
 Alpha  occ. eigenvalues --   -0.23263  -0.23080  -0.22724  -0.22432  -0.22429
 Alpha  occ. eigenvalues --   -0.22210  -0.22030  -0.21660  -0.21384  -0.21290
 Alpha  occ. eigenvalues --   -0.20850  -0.20748  -0.20443  -0.19971  -0.19880
 Alpha  occ. eigenvalues --   -0.19695  -0.18747  -0.18123  -0.16952  -0.16779
 Alpha  occ. eigenvalues --   -0.16363  -0.14800  -0.13846
 Alpha virt. eigenvalues --   -0.11108  -0.05621  -0.05118  -0.04006  -0.02863
 Alpha virt. eigenvalues --   -0.02015  -0.01562  -0.01388  -0.01259   0.00194
 Alpha virt. eigenvalues --    0.00446   0.00628   0.02049   0.02275   0.02437
 Alpha virt. eigenvalues --    0.02628   0.03137   0.03230   0.03351   0.03556
 Alpha virt. eigenvalues --    0.03880   0.04241   0.04577   0.04631   0.04922
 Alpha virt. eigenvalues --    0.05195   0.05337   0.05383   0.05485   0.05582
 Alpha virt. eigenvalues --    0.05821   0.05850   0.05994   0.06179   0.06980
 Alpha virt. eigenvalues --    0.07228   0.07741   0.07771   0.07939   0.08056
 Alpha virt. eigenvalues --    0.08414   0.08770   0.08962   0.09273   0.09501
 Alpha virt. eigenvalues --    0.09746   0.09961   0.10142   0.10340   0.10540
 Alpha virt. eigenvalues --    0.10788   0.10887   0.11006   0.11106   0.11349
 Alpha virt. eigenvalues --    0.11423   0.11602   0.11807   0.11884   0.12033
 Alpha virt. eigenvalues --    0.12305   0.12550   0.12571   0.12794   0.13033
 Alpha virt. eigenvalues --    0.13246   0.13312   0.13421   0.13541   0.13770
 Alpha virt. eigenvalues --    0.13936   0.14170   0.14460   0.14542   0.14694
 Alpha virt. eigenvalues --    0.14895   0.14967   0.15225   0.15312   0.15460
 Alpha virt. eigenvalues --    0.15627   0.15768   0.15834   0.15990   0.16245
 Alpha virt. eigenvalues --    0.16368   0.16569   0.16783   0.16991   0.17181
 Alpha virt. eigenvalues --    0.17276   0.17450   0.17610   0.17639   0.17840
 Alpha virt. eigenvalues --    0.17901   0.18293   0.18354   0.18611   0.18686
 Alpha virt. eigenvalues --    0.18748   0.19058   0.19157   0.19360   0.19565
 Alpha virt. eigenvalues --    0.19665   0.19871   0.20143   0.20190   0.20517
 Alpha virt. eigenvalues --    0.20785   0.21023   0.21076   0.21360   0.21394
 Alpha virt. eigenvalues --    0.21926   0.21985   0.22058   0.22411   0.22749
 Alpha virt. eigenvalues --    0.23060   0.23342   0.23711   0.23907   0.24052
 Alpha virt. eigenvalues --    0.24091   0.24420   0.24529   0.24650   0.24752
 Alpha virt. eigenvalues --    0.25122   0.25257   0.25404   0.25629   0.25806
 Alpha virt. eigenvalues --    0.26176   0.26679   0.26885   0.26936   0.27052
 Alpha virt. eigenvalues --    0.27407   0.27540   0.27770   0.27976   0.28072
 Alpha virt. eigenvalues --    0.28229   0.28493   0.28656   0.28919   0.29183
 Alpha virt. eigenvalues --    0.29204   0.29324   0.29846   0.30109   0.30394
 Alpha virt. eigenvalues --    0.30540   0.30823   0.30944   0.31508   0.31594
 Alpha virt. eigenvalues --    0.31636   0.31885   0.31990   0.32500   0.32683
 Alpha virt. eigenvalues --    0.33074   0.33155   0.33325   0.33381   0.34130
 Alpha virt. eigenvalues --    0.34531   0.35043   0.35236   0.35417   0.36033
 Alpha virt. eigenvalues --    0.36175   0.36502   0.37097   0.37313   0.37320
 Alpha virt. eigenvalues --    0.37739   0.38014   0.38148   0.38319   0.38410
 Alpha virt. eigenvalues --    0.38617   0.38962   0.39114   0.39940   0.40360
 Alpha virt. eigenvalues --    0.40646   0.40805   0.40855   0.40972   0.41118
 Alpha virt. eigenvalues --    0.41223   0.41319   0.41898   0.42045   0.42343
 Alpha virt. eigenvalues --    0.42574   0.42610   0.42938   0.42992   0.43423
 Alpha virt. eigenvalues --    0.43615   0.43699   0.44058   0.44197   0.44394
 Alpha virt. eigenvalues --    0.44651   0.44900   0.45062   0.45133   0.45401
 Alpha virt. eigenvalues --    0.45519   0.45740   0.45789   0.46077   0.46175
 Alpha virt. eigenvalues --    0.46542   0.46633   0.46791   0.47072   0.47106
 Alpha virt. eigenvalues --    0.47302   0.47372   0.47396   0.47632   0.47731
 Alpha virt. eigenvalues --    0.47931   0.47942   0.48209   0.48496   0.48511
 Alpha virt. eigenvalues --    0.49224   0.49289   0.49679   0.49816   0.50029
 Alpha virt. eigenvalues --    0.50117   0.50270   0.50323   0.50678   0.50794
 Alpha virt. eigenvalues --    0.50990   0.51129   0.51336   0.52037   0.52091
 Alpha virt. eigenvalues --    0.52577   0.52657   0.52912   0.53028   0.53124
 Alpha virt. eigenvalues --    0.53215   0.53330   0.53459   0.53546   0.53699
 Alpha virt. eigenvalues --    0.53781   0.53931   0.54161   0.54255   0.54358
 Alpha virt. eigenvalues --    0.54573   0.54638   0.54957   0.55212   0.55365
 Alpha virt. eigenvalues --    0.55830   0.55939   0.56017   0.56232   0.56783
 Alpha virt. eigenvalues --    0.56928   0.57311   0.57465   0.57783   0.58004
 Alpha virt. eigenvalues --    0.58042   0.58293   0.58363   0.58538   0.58609
 Alpha virt. eigenvalues --    0.58767   0.59135   0.59219   0.59343   0.59492
 Alpha virt. eigenvalues --    0.59863   0.60124   0.60373   0.60467   0.60783
 Alpha virt. eigenvalues --    0.60815   0.60952   0.60976   0.61167   0.61342
 Alpha virt. eigenvalues --    0.61542   0.61668   0.61715   0.61884   0.61984
 Alpha virt. eigenvalues --    0.62177   0.62325   0.62544   0.62708   0.62891
 Alpha virt. eigenvalues --    0.62960   0.63218   0.63261   0.63373   0.63574
 Alpha virt. eigenvalues --    0.63771   0.63814   0.63853   0.64062   0.64114
 Alpha virt. eigenvalues --    0.64181   0.64364   0.64488   0.64735   0.64906
 Alpha virt. eigenvalues --    0.65048   0.65121   0.65294   0.65392   0.65454
 Alpha virt. eigenvalues --    0.65535   0.65632   0.65832   0.65969   0.66090
 Alpha virt. eigenvalues --    0.66189   0.66253   0.66311   0.66519   0.66547
 Alpha virt. eigenvalues --    0.66719   0.66763   0.66955   0.67040   0.67194
 Alpha virt. eigenvalues --    0.67223   0.67353   0.67427   0.67549   0.67567
 Alpha virt. eigenvalues --    0.67667   0.67764   0.67934   0.68153   0.68227
 Alpha virt. eigenvalues --    0.68329   0.68540   0.68650   0.68805   0.68965
 Alpha virt. eigenvalues --    0.69068   0.69179   0.69296   0.69366   0.69412
 Alpha virt. eigenvalues --    0.69578   0.69670   0.69718   0.69756   0.69999
 Alpha virt. eigenvalues --    0.70142   0.70312   0.70363   0.70392   0.70484
 Alpha virt. eigenvalues --    0.70512   0.70600   0.70720   0.70905   0.70998
 Alpha virt. eigenvalues --    0.71153   0.71211   0.71288   0.71391   0.71541
 Alpha virt. eigenvalues --    0.71769   0.71850   0.72007   0.72081   0.72130
 Alpha virt. eigenvalues --    0.72229   0.72364   0.72579   0.72761   0.72927
 Alpha virt. eigenvalues --    0.72948   0.72987   0.73043   0.73123   0.73279
 Alpha virt. eigenvalues --    0.73375   0.73521   0.73832   0.73940   0.74078
 Alpha virt. eigenvalues --    0.74149   0.74260   0.74499   0.74616   0.74839
 Alpha virt. eigenvalues --    0.74972   0.75032   0.75065   0.75806   0.75957
 Alpha virt. eigenvalues --    0.76071   0.76157   0.76253   0.76557   0.77290
 Alpha virt. eigenvalues --    0.77357   0.77716   0.78118   0.78294   0.78704
 Alpha virt. eigenvalues --    0.78851   0.78986   0.79325   0.79397   0.79921
 Alpha virt. eigenvalues --    0.80097   0.80335   0.80553   0.80685   0.81019
 Alpha virt. eigenvalues --    0.81158   0.81320   0.81601   0.81769   0.82058
 Alpha virt. eigenvalues --    0.82443   0.82730   0.83013   0.83330   0.83450
 Alpha virt. eigenvalues --    0.83542   0.83881   0.84219   0.84505   0.84711
 Alpha virt. eigenvalues --    0.85377   0.85618   0.85784   0.85939   0.86120
 Alpha virt. eigenvalues --    0.86603   0.86650   0.87100   0.87212   0.87441
 Alpha virt. eigenvalues --    0.87655   0.87997   0.88150   0.88559   0.88889
 Alpha virt. eigenvalues --    0.89045   0.89296   0.89542   0.90060   0.90526
 Alpha virt. eigenvalues --    0.90757   0.91186   0.91230   0.91794   0.91980
 Alpha virt. eigenvalues --    0.92321   0.92678   0.93034   0.93347   0.93404
 Alpha virt. eigenvalues --    0.93528   0.94069   0.94433   0.94494   0.94741
 Alpha virt. eigenvalues --    0.95093   0.95305   0.95508   0.95979   0.96329
 Alpha virt. eigenvalues --    0.96495   0.96599   0.97001   0.97161   0.97566
 Alpha virt. eigenvalues --    0.97853   0.97999   0.98355   0.98497   0.98948
 Alpha virt. eigenvalues --    0.99302   0.99765   1.00133   1.00390   1.00708
 Alpha virt. eigenvalues --    1.00772   1.01141   1.01250   1.01346   1.01715
 Alpha virt. eigenvalues --    1.01956   1.02145   1.02437   1.03532   1.03597
 Alpha virt. eigenvalues --    1.03719   1.04233   1.04447   1.04638   1.04815
 Alpha virt. eigenvalues --    1.05163   1.05755   1.05937   1.06158   1.06541
 Alpha virt. eigenvalues --    1.06647   1.06907   1.07074   1.07181   1.07426
 Alpha virt. eigenvalues --    1.07640   1.07938   1.08301   1.08458   1.08747
 Alpha virt. eigenvalues --    1.08948   1.09131   1.09855   1.09991   1.10400
 Alpha virt. eigenvalues --    1.10718   1.10867   1.11048   1.11397   1.11577
 Alpha virt. eigenvalues --    1.11777   1.12281   1.12406   1.12532   1.12712
 Alpha virt. eigenvalues --    1.12947   1.13108   1.13506   1.13749   1.13997
 Alpha virt. eigenvalues --    1.14282   1.14872   1.15421   1.15557   1.15734
 Alpha virt. eigenvalues --    1.16205   1.16347   1.16909   1.17147   1.17384
 Alpha virt. eigenvalues --    1.17759   1.18118   1.18250   1.18525   1.18659
 Alpha virt. eigenvalues --    1.19047   1.19277   1.19390   1.19650   1.19785
 Alpha virt. eigenvalues --    1.20365   1.20673   1.20866   1.21109   1.21377
 Alpha virt. eigenvalues --    1.21421   1.21564   1.21776   1.21980   1.22104
 Alpha virt. eigenvalues --    1.22786   1.23099   1.23594   1.23691   1.23931
 Alpha virt. eigenvalues --    1.24163   1.24350   1.24553   1.24705   1.24868
 Alpha virt. eigenvalues --    1.25344   1.25472   1.25654   1.26094   1.26164
 Alpha virt. eigenvalues --    1.26275   1.26544   1.26860   1.26964   1.27298
 Alpha virt. eigenvalues --    1.27454   1.27704   1.27926   1.28358   1.28531
 Alpha virt. eigenvalues --    1.28688   1.29072   1.29365   1.29533   1.29742
 Alpha virt. eigenvalues --    1.30206   1.30394   1.30647   1.30802   1.31090
 Alpha virt. eigenvalues --    1.31219   1.31470   1.31740   1.31834   1.32005
 Alpha virt. eigenvalues --    1.32328   1.32660   1.32943   1.33013   1.33629
 Alpha virt. eigenvalues --    1.34166   1.34287   1.34690   1.34950   1.34976
 Alpha virt. eigenvalues --    1.35368   1.35871   1.36033   1.36422   1.36705
 Alpha virt. eigenvalues --    1.36805   1.37170   1.37316   1.37676   1.37829
 Alpha virt. eigenvalues --    1.38188   1.38501   1.38583   1.38836   1.39187
 Alpha virt. eigenvalues --    1.39713   1.40036   1.40148   1.40419   1.40541
 Alpha virt. eigenvalues --    1.40750   1.40852   1.41329   1.42024   1.42411
 Alpha virt. eigenvalues --    1.42596   1.42954   1.43621   1.43757   1.44054
 Alpha virt. eigenvalues --    1.44517   1.44589   1.45060   1.45263   1.45428
 Alpha virt. eigenvalues --    1.45806   1.46048   1.46617   1.46743   1.46971
 Alpha virt. eigenvalues --    1.47464   1.48167   1.48350   1.48518   1.48654
 Alpha virt. eigenvalues --    1.48962   1.49052   1.49459   1.50474   1.50529
 Alpha virt. eigenvalues --    1.50753   1.50882   1.51659   1.52283   1.52372
 Alpha virt. eigenvalues --    1.52482   1.52638   1.53280   1.53400   1.53523
 Alpha virt. eigenvalues --    1.53898   1.54006   1.54262   1.54611   1.54778
 Alpha virt. eigenvalues --    1.54971   1.55039   1.55645   1.55678   1.55755
 Alpha virt. eigenvalues --    1.56380   1.56511   1.56697   1.57170   1.57540
 Alpha virt. eigenvalues --    1.57932   1.58185   1.58538   1.59223   1.59630
 Alpha virt. eigenvalues --    1.60315   1.60660   1.60891   1.61575   1.61804
 Alpha virt. eigenvalues --    1.61988   1.62067   1.62416   1.63018   1.63858
 Alpha virt. eigenvalues --    1.64152   1.64846   1.64885   1.65037   1.65424
 Alpha virt. eigenvalues --    1.65705   1.65996   1.66252   1.66518   1.66550
 Alpha virt. eigenvalues --    1.66857   1.67384   1.67703   1.67741   1.68130
 Alpha virt. eigenvalues --    1.68164   1.68910   1.69319   1.69786   1.70053
 Alpha virt. eigenvalues --    1.70223   1.70259   1.70540   1.70784   1.71382
 Alpha virt. eigenvalues --    1.71528   1.71766   1.71947   1.72017   1.72181
 Alpha virt. eigenvalues --    1.72328   1.72773   1.72967   1.73352   1.73752
 Alpha virt. eigenvalues --    1.73957   1.74028   1.74341   1.74411   1.74517
 Alpha virt. eigenvalues --    1.74589   1.74678   1.74912   1.74945   1.75315
 Alpha virt. eigenvalues --    1.75533   1.75974   1.76084   1.76480   1.76502
 Alpha virt. eigenvalues --    1.76778   1.76910   1.77118   1.77516   1.77630
 Alpha virt. eigenvalues --    1.78006   1.78511   1.78561   1.78621   1.78741
 Alpha virt. eigenvalues --    1.78886   1.78938   1.79147   1.79233   1.79386
 Alpha virt. eigenvalues --    1.79510   1.79625   1.80074   1.80140   1.80265
 Alpha virt. eigenvalues --    1.80408   1.80574   1.80703   1.80784   1.80910
 Alpha virt. eigenvalues --    1.81094   1.81269   1.81415   1.81684   1.81917
 Alpha virt. eigenvalues --    1.82012   1.82392   1.82412   1.82490   1.82591
 Alpha virt. eigenvalues --    1.82759   1.82785   1.82896   1.83266   1.83510
 Alpha virt. eigenvalues --    1.83751   1.83906   1.83983   1.84165   1.84303
 Alpha virt. eigenvalues --    1.84416   1.84494   1.84697   1.84730   1.84876
 Alpha virt. eigenvalues --    1.85123   1.85242   1.85354   1.86054   1.86254
 Alpha virt. eigenvalues --    1.86330   1.86553   1.86832   1.87078   1.87244
 Alpha virt. eigenvalues --    1.87270   1.87403   1.87679   1.87808   1.88026
 Alpha virt. eigenvalues --    1.88172   1.88309   1.88458   1.88763   1.88904
 Alpha virt. eigenvalues --    1.89192   1.89322   1.89517   1.89554   1.89705
 Alpha virt. eigenvalues --    1.90061   1.90189   1.90367   1.90563   1.90889
 Alpha virt. eigenvalues --    1.91063   1.91451   1.91482   1.91666   1.92060
 Alpha virt. eigenvalues --    1.92161   1.92226   1.92349   1.92836   1.93127
 Alpha virt. eigenvalues --    1.93292   1.93516   1.93629   1.93915   1.94133
 Alpha virt. eigenvalues --    1.94398   1.94542   1.94718   1.94962   1.95308
 Alpha virt. eigenvalues --    1.95469   1.95654   1.95783   1.95884   1.95938
 Alpha virt. eigenvalues --    1.96479   1.96848   1.97054   1.97299   1.97498
 Alpha virt. eigenvalues --    1.97667   1.97810   1.98275   1.98446   1.98699
 Alpha virt. eigenvalues --    1.98813   1.98923   1.99199   1.99253   1.99284
 Alpha virt. eigenvalues --    1.99542   1.99696   1.99846   2.00107   2.00723
 Alpha virt. eigenvalues --    2.00932   2.01084   2.01213   2.01935   2.02000
 Alpha virt. eigenvalues --    2.02128   2.02243   2.02448   2.02520   2.02641
 Alpha virt. eigenvalues --    2.02917   2.03089   2.03352   2.03455   2.03717
 Alpha virt. eigenvalues --    2.03869   2.04193   2.04455   2.04684   2.05126
 Alpha virt. eigenvalues --    2.05308   2.05482   2.06061   2.06290   2.06427
 Alpha virt. eigenvalues --    2.06639   2.07351   2.07933   2.08165   2.08480
 Alpha virt. eigenvalues --    2.08540   2.08936   2.09628   2.09779   2.10066
 Alpha virt. eigenvalues --    2.10397   2.10526   2.10889   2.11184   2.11467
 Alpha virt. eigenvalues --    2.11696   2.12033   2.12096   2.12420   2.12644
 Alpha virt. eigenvalues --    2.12977   2.13063   2.13181   2.13287   2.13594
 Alpha virt. eigenvalues --    2.14216   2.14490   2.14963   2.15138   2.15557
 Alpha virt. eigenvalues --    2.15652   2.15781   2.16439   2.16582   2.16843
 Alpha virt. eigenvalues --    2.16992   2.17160   2.17321   2.17660   2.17851
 Alpha virt. eigenvalues --    2.18199   2.18436   2.18448   2.18878   2.18975
 Alpha virt. eigenvalues --    2.19328   2.19389   2.19712   2.20216   2.20251
 Alpha virt. eigenvalues --    2.20704   2.20964   2.21379   2.21935   2.22068
 Alpha virt. eigenvalues --    2.22321   2.22474   2.22490   2.23371   2.23641
 Alpha virt. eigenvalues --    2.23959   2.24503   2.25270   2.25408   2.25701
 Alpha virt. eigenvalues --    2.26168   2.26280   2.26845   2.26959   2.27622
 Alpha virt. eigenvalues --    2.27765   2.27809   2.27875   2.28285   2.28485
 Alpha virt. eigenvalues --    2.28652   2.29402   2.29521   2.29949   2.30337
 Alpha virt. eigenvalues --    2.30701   2.31055   2.31278   2.31401   2.31791
 Alpha virt. eigenvalues --    2.32276   2.32686   2.32967   2.33017   2.33074
 Alpha virt. eigenvalues --    2.33302   2.33372   2.33883   2.34263   2.34614
 Alpha virt. eigenvalues --    2.34729   2.35337   2.35378   2.35794   2.35800
 Alpha virt. eigenvalues --    2.36637   2.36738   2.37168   2.37537   2.37821
 Alpha virt. eigenvalues --    2.38315   2.38522   2.38676   2.38908   2.39326
 Alpha virt. eigenvalues --    2.39723   2.39926   2.40473   2.40782   2.41004
 Alpha virt. eigenvalues --    2.41277   2.41421   2.42020   2.42298   2.42709
 Alpha virt. eigenvalues --    2.43116   2.43720   2.44068   2.44350   2.45332
 Alpha virt. eigenvalues --    2.45843   2.46343   2.46768   2.46993   2.48155
 Alpha virt. eigenvalues --    2.48201   2.48758   2.48986   2.49042   2.49374
 Alpha virt. eigenvalues --    2.49486   2.50033   2.50263   2.50530   2.51251
 Alpha virt. eigenvalues --    2.51584   2.51863   2.52027   2.52307   2.52657
 Alpha virt. eigenvalues --    2.53014   2.53050   2.54162   2.54358   2.54988
 Alpha virt. eigenvalues --    2.55391   2.55670   2.55911   2.55957   2.56439
 Alpha virt. eigenvalues --    2.56556   2.56805   2.57116   2.57500   2.57921
 Alpha virt. eigenvalues --    2.58070   2.58251   2.58576   2.58697   2.59173
 Alpha virt. eigenvalues --    2.59214   2.59377   2.59861   2.60092   2.60397
 Alpha virt. eigenvalues --    2.60704   2.60836   2.60933   2.61247   2.61949
 Alpha virt. eigenvalues --    2.62817   2.62911   2.63055   2.63383   2.63519
 Alpha virt. eigenvalues --    2.63532   2.63642   2.63728   2.63916   2.64127
 Alpha virt. eigenvalues --    2.64331   2.65051   2.66069   2.66782   2.66841
 Alpha virt. eigenvalues --    2.67011   2.67661   2.67810   2.68034   2.68267
 Alpha virt. eigenvalues --    2.68795   2.68905   2.69079   2.69172   2.69297
 Alpha virt. eigenvalues --    2.69905   2.70172   2.70246   2.70447   2.70922
 Alpha virt. eigenvalues --    2.71455   2.71606   2.71788   2.72310   2.72491
 Alpha virt. eigenvalues --    2.73034   2.73471   2.74182   2.74682   2.74800
 Alpha virt. eigenvalues --    2.75745   2.75783   2.76145   2.76425   2.76468
 Alpha virt. eigenvalues --    2.76668   2.76732   2.77058   2.77236   2.77313
 Alpha virt. eigenvalues --    2.78078   2.78583   2.78649   2.78776   2.78826
 Alpha virt. eigenvalues --    2.79103   2.79444   2.79538   2.79965   2.80076
 Alpha virt. eigenvalues --    2.80179   2.80441   2.80994   2.81215   2.81272
 Alpha virt. eigenvalues --    2.81321   2.81433   2.81499   2.81668   2.81906
 Alpha virt. eigenvalues --    2.82369   2.82399   2.82506   2.82804   2.83068
 Alpha virt. eigenvalues --    2.83607   2.83796   2.84096   2.84128   2.84385
 Alpha virt. eigenvalues --    2.85131   2.85728   2.85893   2.86009   2.86200
 Alpha virt. eigenvalues --    2.86467   2.86562   2.86990   2.87717   2.88170
 Alpha virt. eigenvalues --    2.88501   2.88725   2.88794   2.88856   2.89223
 Alpha virt. eigenvalues --    2.89515   2.89771   2.90028   2.90193   2.90509
 Alpha virt. eigenvalues --    2.90784   2.91550   2.91848   2.91971   2.92299
 Alpha virt. eigenvalues --    2.92754   2.92993   2.93169   2.93426   2.93986
 Alpha virt. eigenvalues --    2.94123   2.94308   2.94520   2.95026   2.95368
 Alpha virt. eigenvalues --    2.95675   2.95835   2.95887   2.96330   2.96988
 Alpha virt. eigenvalues --    2.97238   2.97489   2.97558   2.97962   2.98260
 Alpha virt. eigenvalues --    2.98330   2.98445   2.98708   2.99753   2.99842
 Alpha virt. eigenvalues --    3.00601   3.00631   3.00824   3.02103   3.02369
 Alpha virt. eigenvalues --    3.02469   3.02747   3.03077   3.03439   3.03747
 Alpha virt. eigenvalues --    3.04188   3.04215   3.05264   3.05467   3.05951
 Alpha virt. eigenvalues --    3.05984   3.06279   3.06475   3.07036   3.07269
 Alpha virt. eigenvalues --    3.07790   3.07860   3.08587   3.09550   3.10073
 Alpha virt. eigenvalues --    3.10492   3.10742   3.10835   3.11504   3.11953
 Alpha virt. eigenvalues --    3.12172   3.12618   3.13454   3.13481   3.13667
 Alpha virt. eigenvalues --    3.14229   3.14404   3.14833   3.15436   3.15636
 Alpha virt. eigenvalues --    3.16134   3.16544   3.16727   3.17193   3.18195
 Alpha virt. eigenvalues --    3.18478   3.18673   3.19010   3.19378   3.19736
 Alpha virt. eigenvalues --    3.19795   3.19871   3.20183   3.20311   3.20702
 Alpha virt. eigenvalues --    3.20756   3.21070   3.21365   3.21534   3.21817
 Alpha virt. eigenvalues --    3.22434   3.22833   3.22984   3.23553   3.24081
 Alpha virt. eigenvalues --    3.25177   3.25625   3.25983   3.27493   3.28548
 Alpha virt. eigenvalues --    3.28727   3.29006   3.30067   3.30603   3.31428
 Alpha virt. eigenvalues --    3.31879   3.32800   3.32893   3.33132   3.33907
 Alpha virt. eigenvalues --    3.34368   3.34907   3.34928   3.36017   3.36194
 Alpha virt. eigenvalues --    3.37516   3.39812   3.45628   3.50088   3.50653
 Alpha virt. eigenvalues --    3.51430   3.52780   3.53882   3.55058   3.56942
 Alpha virt. eigenvalues --    3.57382   3.58541   3.58578   3.59135   3.59973
 Alpha virt. eigenvalues --    3.60804   3.61701   3.62039   3.62051   3.62155
 Alpha virt. eigenvalues --    3.63305   3.63888   3.65093   3.67342   3.69227
 Alpha virt. eigenvalues --    3.69531   3.69817   3.70377   3.70611   3.70727
 Alpha virt. eigenvalues --    3.71213   3.71627   3.72006   3.72547   3.73230
 Alpha virt. eigenvalues --    3.73683   3.74297   3.74995   3.75784   3.76219
 Alpha virt. eigenvalues --    3.76642   3.78060   3.78385   3.80277
          Condensed to atoms (all electrons):
 Mulliken charges:
               1
     1  C    0.052408
     2  C    0.026997
     3  O   -0.310818
     4  H    0.000012
     5  H    0.052590
     6  H    0.018401
     7  N   -0.092437
     8  C    0.071017
     9  C    0.050484
    10  O   -0.262785
    11  C    0.127988
    12  C    0.001709
    13  O   -0.370314
    14  O   -0.400659
    15  H    0.106522
    16  H   -0.008313
    17  H   -0.013289
    18  H   -0.008305
    19  N   -0.148918
    20  C    0.144270
    21  C    0.050675
    22  O   -0.311872
    23  C    0.068304
    24  C    0.049506
    25  C   -0.121357
    26  C    0.040380
    27  N    0.091587
    28  H    0.116960
    29  H   -0.015112
    30  H   -0.004014
    31  H    0.038829
    32  H   -0.004061
    33  H    0.046219
    34  H    0.044443
    35  H    0.005699
    36  H    0.088458
    37  H    0.083765
    38  H    0.194209
    39  H    0.180705
    40  H    0.188297
    41  N   -0.115780
    42  C    0.111216
    43  C    0.161892
    44  O   -0.273903
    45  C    0.098029
    46  C    0.147455
    47  O   -0.524811
    48  O   -0.356410
    49  H    0.121720
    50  H   -0.057758
    51  H    0.024638
    52  H    0.018491
    53  N   -0.147394
    54  C    0.190321
    55  C    0.117491
    56  O   -0.358003
    57  H    0.106481
    58  H    0.030932
    59  H    0.022624
    60  N   -0.149861
    61  C    0.090145
    62  C    0.094231
    63  O   -0.261141
    64  C    0.049838
    65  C    0.058841
    66  N   -0.003515
    67  O   -0.348142
    68  H    0.135844
    69  H    0.032383
    70  H    0.082802
    71  H   -0.016435
    72  H    0.109803
    73  H    0.142730
    74  N   -0.141139
    75  C    0.204084
    76  C    0.055330
    77  O   -0.309023
    78  H    0.110447
    79  H    0.008971
    80  H    0.030134
    81  N   -0.110007
    82  C    0.069267
    83  C    0.123740
    84  O   -0.287038
    85  C    0.129435
    86  C    0.005304
    87  C    0.004819
    88  C   -0.030266
    89  C   -0.003894
    90  C   -0.030493
    91  C    0.157751
    92  O   -0.193803
    93  H    0.133441
    94  H    0.019279
    95  H    0.000134
    96  H    0.015149
    97  H   -0.041670
    98  H   -0.030749
    99  H   -0.029161
   100  H   -0.041366
   101  H    0.175188
   102  N   -0.132487
   103  C    0.194666
   104  C    0.050258
   105  O   -0.294897
   106  C   -0.095928
   107  C   -0.004907
   108  C    0.122481
   109  C    0.039326
   110  H    0.141092
   111  H   -0.009890
   112  H    0.000200
   113  H   -0.010484
   114  H   -0.012142
   115  H    0.004659
   116  H   -0.059900
   117  H    0.032379
   118  H   -0.004637
   119  H    0.018977
   120  H    0.010566
   121  N   -0.133901
   122  C    0.128738
   123  C    0.052470
   124  O   -0.291370
   125  C    0.216614
   126  O   -0.308545
   127  H    0.125629
   128  H    0.026254
   129  H   -0.014549
   130  H    0.022893
   131  H    0.169291
   132  N   -0.118035
   133  C    0.035722
   134  C    0.076929
   135  O   -0.274193
   136  C    0.096935
   137  H    0.123058
   138  H    0.022912
   139  H   -0.008889
   140  H    0.034901
   141  H    0.007418
   142  N   -0.123491
   143  C    0.085739
   144  C    0.087927
   145  O   -0.272522
   146  C    0.033171
   147  H    0.128564
   148  H   -0.021701
   149  H    0.015541
   150  H    0.015402
   151  H    0.049603
   152  N   -0.120979
   153  C    0.100154
   154  C    0.093410
   155  O   -0.262446
   156  C    0.023012
   157  C    0.099091
   158  C    0.073498
   159  O   -0.507452
   160  O   -0.368116
   161  H    0.110958
   162  H   -0.011872
   163  H    0.008362
   164  H    0.038003
   165  H   -0.047379
   166  H   -0.038665
   167  N   -0.155571
   168  C    0.127516
   169  H    0.023597
   170  H    0.002716
   171  H    0.042515
   172  H    0.105829
   173  Ca   1.413517
   174  O   -0.313914
   175  H    0.187969
   176  H    0.201609
 Sum of Mulliken charges =  -0.00000
 Mulliken charges with hydrogens summed into heavy atoms:
               1
     1  C    0.123411
     2  C    0.026997
     3  O   -0.310818
     7  N    0.014085
     8  C    0.062704
     9  C    0.050484
    10  O   -0.262785
    11  C    0.106394
    12  C    0.001709
    13  O   -0.370314
    14  O   -0.400659
    19  N   -0.031958
    20  C    0.129157
    21  C    0.050675
    22  O   -0.311872
    23  C    0.103119
    24  C    0.091664
    25  C   -0.071215
    26  C    0.212603
    27  N    0.654799
    41  N    0.005940
    42  C    0.053458
    43  C    0.161892
    44  O   -0.273903
    45  C    0.141158
    46  C    0.147455
    47  O   -0.524811
    48  O   -0.356410
    53  N   -0.040913
    54  C    0.243876
    55  C    0.117491
    56  O   -0.358003
    60  N   -0.014016
    61  C    0.122528
    62  C    0.094231
    63  O   -0.261141
    64  C    0.116205
    65  C    0.058841
    66  N    0.249017
    67  O   -0.348142
    74  N   -0.030693
    75  C    0.243189
    76  C    0.055330
    77  O   -0.309023
    81  N    0.023434
    82  C    0.088547
    83  C    0.123740
    84  O   -0.287038
    85  C    0.144717
    86  C    0.005304
    87  C   -0.036851
    88  C   -0.061015
    89  C   -0.033055
    90  C   -0.071859
    91  C    0.157751
    92  O   -0.018615
   102  N    0.008605
   103  C    0.184776
   104  C    0.050258
   105  O   -0.294897
   106  C   -0.095728
   107  C   -0.027533
   108  C    0.099619
   109  C    0.064231
   121  N   -0.008272
   122  C    0.154992
   123  C    0.052470
   124  O   -0.291370
   125  C    0.224959
   126  O   -0.139255
   132  N    0.005023
   133  C    0.058634
   134  C    0.076929
   135  O   -0.274193
   136  C    0.130364
   142  N    0.005073
   143  C    0.064037
   144  C    0.087927
   145  O   -0.272522
   146  C    0.113716
   152  N   -0.010021
   153  C    0.088282
   154  C    0.093410
   155  O   -0.262446
   156  C    0.069377
   157  C    0.013046
   158  C    0.073498
   159  O   -0.507452
   160  O   -0.368116
   167  N   -0.049741
   168  C    0.196344
   173  Ca   1.413517
   174  O    0.075663
 DipInt: DoE/N= T F RetVal/Mat= T F Init=T NMatP=  1 IDeriv=0 Min/MaxMlt=  0  4
 Entering OneElI...
 OneElI was handed  1333951383 working-precision words.
 Multipole integrals L=0 to 4 MinM= 0 MaxM= 0.
 Requested accuracy = 0.1000D-12
 ShPair: Thresh= 1.00D-13 NBox=     0 BxSize= 0.00D+00 RnKept= 3.21D+01
         NSMCal=               327645 NSMKep=              121007
 PrmmSu-InSpLW:  IPartL=    0 NPrtUS=    1 NPrtUL=    1 DoSpLW=F IThBeg=    0 IThEnd=    0 NThAct=    1.
 PrsmSu:  NPrtUS=   1 ThrOK=F IAlg=1 NPAlg=1 LenDen=           0 ISkipM=0 DoSpLW=F IThBeg=    0 IThEnd=    0.
 Prism:   IPart=     0 DynPar=F LinDyn=F Incr=         512.
 PRISM was handed  1325382315 working-precision words and121007 shell-pairs
 IPart=  0 NShTot=      121007 NBatch=         290 AvBLen=       417.3
 PrsmSu-ThDecC:  IPartSL=    0    0 NPrtUSL=    1    1 IThBeg=    0 IThEnd=    0 CPU=   -1 GPU=   -1 NThAct=    1.
 PrSmSu:  NxtVal=            513.
 Electronic moments (au):
       -716.00000000        -10.89984593         -7.61459680         -9.09647327
    -102244.81514337     -38879.94799100     -12631.27613223         14.45713412
        133.75549205          1.15351602     478605.79336657     -76814.17377244
     -19439.29340994    -193948.26950984     280916.49461864     -97368.50623656
      31620.47956035       2684.88333987     -39133.99483279     -35130.93186484
  -31216653.11075399   -5147197.16037686    -678082.17232291    -729438.54733037
      88893.28702026    1113409.20297001    -129521.51104881     313768.90748162
      54080.60720782   -4292038.97542809   -1598888.65780289    -710340.26514013
     477198.77302063    -490497.04945888     -76599.61526986
 Electronic spatial extent (au):  <R**2>=         153756.0393
 DipInt: DoE/N= F T RetVal/Mat= T F Init=T NMatP=  1 IDeriv=0 Min/MaxMlt=  0  4
 Nuclear    moments (au):
        716.00000000         -0.00000000         -0.00000000         -0.00000000
     102265.44730319      38396.41181860      12286.84279049          0.00000000
          0.00000000          0.00000000    -493280.32614842      76386.72629567
      19003.03173968     194317.77041430    -282844.21917034      94591.11164472
     -31869.32374507      -2875.80080281      39040.44829591      34953.00317296
   31285974.46848459    5001371.76911853     640552.77089913     774425.64693709
     -12218.96692150   -1112131.68674740     129555.99051460    -309091.80041751
     -56113.75005360    4205963.37589958    1544234.03688630     685613.33055068
    -468118.44852915     492930.98385574      75638.57472444
 Total      moments (au):
          0.00000000        -10.89984593         -7.61459680         -9.09647327
         20.63215982       -483.53617240       -344.43334174         14.45713412
        133.75549205          1.15351602     -14674.53278185       -427.44747677
       -436.26167026        369.50090446      -1927.72455170      -2777.39459184
       -248.84418472       -190.91746294        -93.54653688       -177.92869188
      69321.35773060    -145825.39125833     -37529.40142378      44987.09960672
      76674.32009876       1277.51622261         34.47946579       4677.10706412
      -2033.14284578     -86075.59952851     -54654.62091659     -24726.93458944
       9080.32449148       2433.93439686       -961.04054542
 Traceless Quadrup. (au):
        289.74461126       -214.42372096        -75.32089030         14.45713412
        133.75549205          1.15351602
 Charge=              0.0000 electrons
 Dipole moment (field-independent basis, Debye):
    X=            -27.7046    Y=            -19.3544    Z=            -23.1209  Tot=             40.9477
 Quadrupole moment (field-independent basis, Debye-Ang):
   XX=             27.7510   YY=           -650.3727   ZZ=           -463.2746
   XY=             19.4453   XZ=            179.9057   YZ=              1.5515
 Traceless Quadrupole moment (field-independent basis, Debye-Ang):
   XX=            389.7164   YY=           -288.4072   ZZ=           -101.3092
   XY=             19.4453   XZ=            179.9057   YZ=              1.5515
 Octapole moment (field-independent basis, Debye-Ang**2):
  XXX=         -10444.7671  YYY=           -304.2406  ZZZ=           -310.5142  XYY=            262.9965
  XXY=          -1372.0801  XXZ=          -1976.8425  XZZ=           -177.1177  YZZ=           -135.8877
  YYZ=            -66.5828  XYZ=           -126.6428
 Hexadecapole moment (field-independent basis, Debye-Ang**3):
 XXXX=          26109.7474 YYYY=         -54924.8349 ZZZZ=         -14135.3722 XXXY=          16944.2989
 XXXZ=          28879.2256 YYYX=            481.1739 YYYZ=             12.9866 ZZZX=           1761.6228
 ZZZY=           -765.7791 XXYY=         -32420.1982 XXZZ=         -20585.5510 YYZZ=          -9313.3493
 XXYZ=           3420.0856 YYXZ=            916.7364 ZZXY=           -361.9740
 N-N= 1.893345917168D+04 E-N=-5.035373737721D+04  KE= 5.290225041104D+03
 Leave Link  601 at Tue Sep 17 00:23:41 2019, MaxMem=  1342177280 cpu:              41.5 elap:               1.1
 FitSet:  NAtFit=   176 NAtPot=   176 NAtFrz=     0 MDM=   180 TotChg=   0.00000
 Merz-Kollman atomic radii used.
 Read replacement radii for each type of atom:
 Rad(20) =   1.700000000000D+00
 Atom Element Radius
    1     6    1.50
    2     6    1.50
    3     8    1.40
    4     1    1.20
    5     1    1.20
    6     1    1.20
    7     7    1.50
    8     6    1.50
    9     6    1.50
   10     8    1.40
   11     6    1.50
   12     6    1.50
   13     8    1.40
   14     8    1.40
   15     1    1.20
   16     1    1.20
   17     1    1.20
   18     1    1.20
   19     7    1.50
   20     6    1.50
   21     6    1.50
   22     8    1.40
   23     6    1.50
   24     6    1.50
   25     6    1.50
   26     6    1.50
   27     7    1.50
   28     1    1.20
   29     1    1.20
   30     1    1.20
   31     1    1.20
   32     1    1.20
   33     1    1.20
   34     1    1.20
   35     1    1.20
   36     1    1.20
   37     1    1.20
   38     1    1.20
   39     1    1.20
   40     1    1.20
   41     7    1.50
   42     6    1.50
   43     6    1.50
   44     8    1.40
   45     6    1.50
   46     6    1.50
   47     8    1.40
   48     8    1.40
   49     1    1.20
   50     1    1.20
   51     1    1.20
   52     1    1.20
   53     7    1.50
   54     6    1.50
   55     6    1.50
   56     8    1.40
   57     1    1.20
   58     1    1.20
   59     1    1.20
   60     7    1.50
   61     6    1.50
   62     6    1.50
   63     8    1.40
   64     6    1.50
   65     6    1.50
   66     7    1.50
   67     8    1.40
   68     1    1.20
   69     1    1.20
   70     1    1.20
   71     1    1.20
   72     1    1.20
   73     1    1.20
   74     7    1.50
   75     6    1.50
   76     6    1.50
   77     8    1.40
   78     1    1.20
   79     1    1.20
   80     1    1.20
   81     7    1.50
   82     6    1.50
   83     6    1.50
   84     8    1.40
   85     6    1.50
   86     6    1.50
   87     6    1.50
   88     6    1.50
   89     6    1.50
   90     6    1.50
   91     6    1.50
   92     8    1.40
   93     1    1.20
   94     1    1.20
   95     1    1.20
   96     1    1.20
   97     1    1.20
   98     1    1.20
   99     1    1.20
  100     1    1.20
  101     1    1.20
  102     7    1.50
  103     6    1.50
  104     6    1.50
  105     8    1.40
  106     6    1.50
  107     6    1.50
  108     6    1.50
  109     6    1.50
  110     1    1.20
  111     1    1.20
  112     1    1.20
  113     1    1.20
  114     1    1.20
  115     1    1.20
  116     1    1.20
  117     1    1.20
  118     1    1.20
  119     1    1.20
  120     1    1.20
  121     7    1.50
  122     6    1.50
  123     6    1.50
  124     8    1.40
  125     6    1.50
  126     8    1.40
  127     1    1.20
  128     1    1.20
  129     1    1.20
  130     1    1.20
  131     1    1.20
  132     7    1.50
  133     6    1.50
  134     6    1.50
  135     8    1.40
  136     6    1.50
  137     1    1.20
  138     1    1.20
  139     1    1.20
  140     1    1.20
  141     1    1.20
  142     7    1.50
  143     6    1.50
  144     6    1.50
  145     8    1.40
  146     6    1.50
  147     1    1.20
  148     1    1.20
  149     1    1.20
  150     1    1.20
  151     1    1.20
  152     7    1.50
  153     6    1.50
  154     6    1.50
  155     8    1.40
  156     6    1.50
  157     6    1.50
  158     6    1.50
  159     8    1.40
  160     8    1.40
  161     1    1.20
  162     1    1.20
  163     1    1.20
  164     1    1.20
  165     1    1.20
  166     1    1.20
  167     7    1.50
  168     6    1.50
  169     1    1.20
[...]
 **** Fit      -0.030692
 **** Fit      -0.031651
 **** Fit      -0.031321
 **** Fit      -0.029761
 **** Fit      -0.025268
 **** Fit      -0.027235
 **** Fit      -0.029396
 **** Fit      -0.031576
 **** Fit      -0.033488
 **** Fit      -0.034788
 **** Fit      -0.035193
 **** Fit      -0.034587
 **** Fit      -0.033057
 **** Fit      -0.026616
 **** Fit      -0.028791
 **** Fit      -0.031157
 **** Fit      -0.033604
 **** Fit      -0.035934
 **** Fit      -0.037875
 **** Fit      -0.039150
 **** Fit      -0.039552
 **** Fit      -0.039005
 **** Fit      -0.037573
 **** Fit      -0.035422
 **** Fit      -0.026849
 **** Fit      -0.029165
 **** Fit      -0.031720
 **** Fit      -0.034485
 **** Fit      -0.037342
 **** Fit      -0.040086
 **** Fit      -0.042448
 **** Fit      -0.044143
 **** Fit      -0.044947
 **** Fit      -0.044752
 **** Fit      -0.043586
 **** Fit      -0.041583
 **** Fit      -0.029748
 **** Fit      -0.032464
 **** Fit      -0.035468
 **** Fit      -0.038714
 **** Fit      -0.042071
 **** Fit      -0.045324
 **** Fit      -0.048190
 **** Fit      -0.050367
 **** Fit      -0.051602
 **** Fit      -0.051760
 **** Fit      -0.050844
 **** Fit      -0.048982
 **** Fit      -0.046358
 **** Fit      -0.032431
 **** Fit      -0.035726
 **** Fit      -0.039419
 **** Fit      -0.043459
 **** Fit      -0.047693
 **** Fit      -0.051854
 **** Fit      -0.055578
 **** Fit      -0.058460
 **** Fit      -0.060153
 **** Fit      -0.060470
 **** Fit      -0.059428
 **** Fit      -0.057221
 **** Fit      -0.054121
 **** Fit      -0.035831
 **** Fit      -0.039837
 **** Fit      -0.044394
 **** Fit      -0.049454
 **** Fit      -0.054842
 **** Fit      -0.063890
 **** Fit      -0.037177
 **** Fit      -0.041724
 **** Fit      -0.047050
 **** Fit      -0.053198
 **** Fit      -0.047944
 **** Fit      -0.024503
 **** Fit      -0.019791
 **** Fit      -0.015843
 **** Fit      -0.012850
 **** Fit      -0.010866
 **** Fit      -0.009902
 **** Fit      -0.029507
 **** Fit      -0.029004
 **** Fit      -0.022946
 **** Fit      -0.018050
 **** Fit      -0.014381
 **** Fit      -0.011880
 **** Fit      -0.010466
 **** Fit      -0.010075
 **** Fit      -0.010670
 **** Fit      -0.026020
 **** Fit      -0.020090
 **** Fit      -0.015727
 **** Fit      -0.012730
 **** Fit      -0.010923
 **** Fit      -0.010175
 **** Fit      -0.010395
 **** Fit      -0.011526
 **** Fit      -0.028119
 **** Fit      -0.021208
 **** Fit      -0.016270
 **** Fit      -0.012947
 **** Fit      -0.010963
 **** Fit      -0.010122
 **** Fit      -0.010287
 **** Fit      -0.011361
 **** Fit      -0.028652
 **** Fit      -0.021193
 **** Fit      -0.015992
 **** Fit      -0.012584
 **** Fit      -0.010624
 **** Fit      -0.009865
 **** Fit      -0.010131
 **** Fit      -0.011278
 **** Fit      -0.027392
 **** Fit      -0.020146
 **** Fit      -0.015114
 **** Fit      -0.011861
 **** Fit      -0.010043
 **** Fit      -0.009396
 **** Fit      -0.009713
 **** Fit      -0.010791
 **** Fit      -0.023747
 **** Fit      -0.017249
 **** Fit      -0.012821
 **** Fit      -0.010121
 **** Fit      -0.008817
 **** Fit      -0.008610
 **** Fit      -0.009193
 **** Fit      -0.018640
 **** Fit      -0.013463
 **** Fit      -0.009980
 **** Fit      -0.008002
 **** Fit      -0.007207
 **** Fit      -0.092574
 **** Fit      -0.090679
 **** Fit      -0.082100
 **** Fit      -0.065474
 **** Fit      -0.056766
 **** Fit      -0.051298
 **** Fit      -0.056389
 **** Fit      -0.047578
 **** Fit      -0.042099
 **** Fit      -0.039722
 **** Fit      -0.046618
 **** Fit      -0.038126
 **** Fit      -0.033037
 **** Fit      -0.030967
 **** Fit      -0.031435
 **** Fit      -0.038721
 **** Fit      -0.029896
 **** Fit      -0.024634
 **** Fit      -0.022471
 **** Fit      -0.022936
 **** Fit      -0.025364
 **** Fit      -0.042701
 **** Fit      -0.029948
 **** Fit      -0.021292
 **** Fit      -0.016101
 **** Fit      -0.013894
 **** Fit      -0.014220
 **** Fit      -0.016458
 **** Fit      -0.042276
 **** Fit      -0.027349
 **** Fit      -0.016813
 **** Fit      -0.009897
 **** Fit      -0.006054
 **** Fit      -0.004827
 **** Fit      -0.005710
 **** Fit      -0.007910
 **** Fit      -0.024131
 **** Fit      -0.012311
 **** Fit      -0.004055
 **** Fit       0.001184
 **** Fit       0.003866
 **** Fit       0.004460
 **** Fit       0.003568
 **** Fit       0.002110
 **** Fit       0.000421
 **** Fit       0.007382
 **** Fit       0.011636
 **** Fit       0.013687
 **** Fit       0.014102
 **** Fit       0.013596
 **** Fit       0.013130
 **** Fit      -0.004300
 **** Fit      -0.005678
 **** Fit      -0.009040
 **** Fit       0.022265
 **** Fit       0.023559
 **** Fit       0.023799
 **** Fit       0.023702
 **** Fit       0.024068
 **** Fit       0.005209
 **** Fit       0.004224
 **** Fit       0.002403
 **** Fit      -0.000787
 **** Fit       0.033062
 **** Fit       0.033055
 **** Fit       0.032961
 **** Fit       0.033339
 **** Fit       0.034686
 **** Fit       0.006230
 **** Fit       0.012578
 **** Fit       0.011376
 **** Fit       0.009591
 **** Fit       0.007016
 **** Fit       0.003828
 **** Fit       0.040945
 **** Fit       0.040865
 **** Fit       0.041673
 **** Fit       0.043484
 **** Fit       0.013637
 **** Fit       0.018340
 **** Fit       0.017208
 **** Fit       0.015682
 **** Fit       0.013913
 **** Fit       0.046582
 **** Fit       0.046631
 **** Fit       0.047484
 **** Fit       0.048739
 **** Fit       0.019144
 **** Fit       0.022698
 **** Fit       0.021796
 **** Fit       0.020745
 **** Fit       0.049409
 **** Fit       0.049120
 **** Fit       0.048609
 **** Fit       0.046670
 **** Fit       0.022861
 **** Fit       0.023169
 **** Fit       0.025735
 **** Fit       0.025022
 **** Fit       0.050047
 **** Fit       0.048707
 **** Fit       0.046710
 **** Fit       0.042932
 **** Fit       0.025346
 **** Fit       0.026004
 **** Fit       0.027416
 **** Fit       0.047488
 **** Fit       0.044998
 **** Fit       0.041042
 **** Fit       0.027152
 **** Fit       0.027768
 **** Fit       0.042615
 **** Fit       0.039099
 **** Fit       0.027570
 **** Fit       0.028431
 **** Fit       0.028515
 **** Fit       0.034362
 **** Fit       0.031493
 **** Fit       0.029920
 **** Fit       0.029269
 **** Fit      -0.025237
 **** Fit      -0.011825
 **** Fit      -0.037218
 **** Fit      -0.023650
 **** Fit      -0.012212
 **** Fit      -0.002326
 **** Fit       0.006520
 **** Fit       0.014895
 **** Fit      -0.025353
 **** Fit      -0.014625
 **** Fit      -0.025542
 **** Fit      -0.015992
 **** Fit      -0.013063
 **** Fit       0.046960
 **** Fit       0.000078
 **** Fit       0.048562
 **** Fit       0.020690
 **** Fit       0.046297
 **** Fit       0.047499
 **** Fit       0.026693
 **** Fit       0.023062
 **** Fit       0.020040
 **** Fit       0.042667
 **** Fit       0.042049
 **** Fit       0.040921
 **** Fit       0.039112
 **** Fit       0.027253
 **** Fit       0.025172
 **** Fit       0.022959
 **** Fit       0.020951
 **** Fit       0.019473
 **** Fit       0.039433
 **** Fit       0.037756
 **** Fit       0.035856
 **** Fit       0.033654
 **** Fit       0.031281
 **** Fit       0.028995
 **** Fit       0.026995
 **** Fit       0.025281
 **** Fit       0.023714
 **** Fit       0.022194
 **** Fit       0.020782
 **** Fit       0.019672
 **** Fit       0.019088
 **** Fit       0.019490
 **** Fit       0.035413
 **** Fit       0.032959
 **** Fit       0.030458
 **** Fit       0.027980
 **** Fit       0.025682
 **** Fit       0.023689
 **** Fit       0.022026
 **** Fit       0.020657
 **** Fit       0.019600
 **** Fit       0.018961
 **** Fit       0.018890
 **** Fit       0.019838
 **** Fit       0.034180
 **** Fit       0.031281
 **** Fit       0.028507
 **** Fit       0.025916
 **** Fit       0.023616
 **** Fit       0.021709
 **** Fit       0.020245
 **** Fit       0.019256
 **** Fit       0.018807
 **** Fit       0.018986
 **** Fit       0.020409
 **** Fit       0.021950
 **** Fit       0.031469
 **** Fit       0.028336
 **** Fit       0.025488
 **** Fit       0.023052
 **** Fit       0.021152
 **** Fit       0.019879
 **** Fit       0.019303
 **** Fit       0.019480
 **** Fit       0.021353
 **** Fit       0.022984
 **** Fit       0.024958
 **** Fit       0.026915
 **** Fit       0.028869
 **** Fit       0.030081
 **** Fit       0.026739
 **** Fit       0.023889
 **** Fit       0.021788
 **** Fit       0.020621
 **** Fit       0.020486
 **** Fit       0.022789
 **** Fit       0.024558
 **** Fit       0.026873
 **** Fit       0.029430
 **** Fit       0.028961
 **** Fit       0.025599
 **** Fit       0.023171
 **** Fit       0.022200
 **** Fit       0.024803
 **** Fit       0.027034
 **** Fit       0.029874
 **** Fit       0.028080
 **** Fit       0.025121
 **** Fit       0.027435
 **** Fit      -0.007763
 **** Fit       0.000210
 **** Fit       0.007135
 **** Fit       0.013574
 **** Fit       0.020312
 **** Fit       0.028468
 **** Fit      -0.012594
 **** Fit      -0.005127
 **** Fit       0.001398
 **** Fit       0.007065
 **** Fit       0.012075
 **** Fit       0.016732
 **** Fit       0.021480
 **** Fit       0.026950
 **** Fit       0.033966
 **** Fit      -0.008321
 **** Fit      -0.002463
 **** Fit       0.003056
 **** Fit       0.008038
 **** Fit       0.012464
 **** Fit       0.016422
 **** Fit       0.020089
 **** Fit       0.023748
 **** Fit       0.027814
 **** Fit       0.032812
 **** Fit       0.039304
 **** Fit      -0.001827
 **** Fit       0.001943
 **** Fit       0.006065
 **** Fit       0.010122
 **** Fit       0.013916
 **** Fit       0.017381
 **** Fit       0.020535
 **** Fit       0.023469
 **** Fit       0.026353
 **** Fit       0.029436
 **** Fit       0.033030
 **** Fit       0.037445
 **** Fit       0.042895
 **** Fit       0.006183
 **** Fit       0.008257
 **** Fit       0.011061
 **** Fit       0.014130
 **** Fit       0.017193
 **** Fit       0.020110
 **** Fit       0.022823
 **** Fit       0.025341
 **** Fit       0.027731
 **** Fit       0.030115
 **** Fit       0.032663
 **** Fit       0.035552
 **** Fit       0.038913
 **** Fit       0.042746
 **** Fit       0.013418
 **** Fit       0.013654
 **** Fit       0.015138
 **** Fit       0.017295
 **** Fit       0.019745
 **** Fit       0.022252
 **** Fit       0.024681
 **** Fit       0.026970
 **** Fit       0.029116
 **** Fit       0.031166
 **** Fit       0.033207
 **** Fit       0.035340
 **** Fit       0.037640
 **** Fit       0.040089
 **** Fit       0.042520
 **** Fit       0.020023
 **** Fit       0.019125
 **** Fit       0.019653
 **** Fit       0.021067
 **** Fit       0.022962
 **** Fit       0.025058
 **** Fit       0.027176
 **** Fit       0.029213
 **** Fit       0.031127
 **** Fit       0.032922
 **** Fit       0.034634
 **** Fit       0.036303
 **** Fit       0.037932
 **** Fit       0.039434
 **** Fit       0.040587
 **** Fit       0.023715
 **** Fit       0.023539
 **** Fit       0.024315
 **** Fit       0.025685
 **** Fit       0.027367
 **** Fit       0.029157
 **** Fit       0.030921
 **** Fit       0.032583
 **** Fit       0.034107
 **** Fit       0.035482
 **** Fit       0.036696
 **** Fit       0.037700
 **** Fit       0.038365
 **** Fit       0.038469
 **** Fit       0.027914
 **** Fit       0.026817
 **** Fit       0.026781
 **** Fit       0.027556
 **** Fit       0.028840
 **** Fit       0.030372
 **** Fit       0.031954
 **** Fit       0.033451
 **** Fit       0.034776
 **** Fit       0.035869
 **** Fit       0.036664
 **** Fit       0.037051
 **** Fit       0.036853
 **** Fit       0.035838
 **** Fit       0.029555
 **** Fit       0.028965
 **** Fit       0.029148
 **** Fit       0.029969
 **** Fit       0.031180
 **** Fit       0.032534
 **** Fit       0.033832
 **** Fit       0.034923
 **** Fit       0.035689
 **** Fit       0.036008
 **** Fit       0.035728
 **** Fit       0.034675
 **** Fit       0.032738
 **** Fit       0.030728
 **** Fit       0.030416
 **** Fit       0.030445
 **** Fit       0.031036
 **** Fit       0.032051
 **** Fit       0.033210
 **** Fit       0.034234
 **** Fit       0.034887
 **** Fit       0.034966
 **** Fit       0.034289
 **** Fit       0.032758
 **** Fit       0.030793
 **** Fit       0.031146
 **** Fit       0.031805
 **** Fit       0.032790
 **** Fit       0.033672
 **** Fit       0.033951
 **** Fit       0.033267
 **** Fit       0.031610
 **** Fit       0.030388
 **** Fit       0.031121
 **** Fit       0.031999
 **** Fit       0.032791
 **** Fit       0.032389
 **** Fit       0.030859
 **** Fit       0.031666
 **** Fit       0.000479
 **** Fit      -0.021704
 **** Fit       0.006579
 **** Fit       0.006384
 **** Fit       0.002672
 **** Fit      -0.000717
 **** Fit      -0.004206
 **** Fit      -0.008101
 **** Fit      -0.016861
 **** Fit      -0.020622
 **** Fit      -0.022941
 **** Fit      -0.020664
 **** Fit      -0.016223
 **** Fit      -0.009972
 **** Fit       0.016507
 **** Fit       0.010860
 **** Fit       0.010533
 **** Fit       0.007596
 **** Fit       0.004820
 **** Fit       0.002002
 **** Fit      -0.000968
 **** Fit      -0.004012
 **** Fit      -0.006822
 **** Fit      -0.008909
 **** Fit      -0.009752
 **** Fit      -0.008976
 **** Fit      -0.006433
 **** Fit      -0.002153
 **** Fit       0.003807
 **** Fit       0.017721
 **** Fit       0.013853
 **** Fit       0.013586
 **** Fit       0.011336
 **** Fit       0.009150
 **** Fit       0.006957
 **** Fit       0.004765
 **** Fit       0.002717
 **** Fit       0.001102
 **** Fit       0.000292
 **** Fit       0.000644
 **** Fit       0.002408
 **** Fit       0.005719
 **** Fit       0.010674
 **** Fit       0.018541
 **** Fit       0.015983
 **** Fit       0.015940
 **** Fit       0.014324
 **** Fit       0.012716
 **** Fit       0.011137
 **** Fit       0.009666
 **** Fit       0.008474
 **** Fit       0.007818
 **** Fit       0.007989
 **** Fit       0.009255
 **** Fit       0.011822
 **** Fit       0.015868
 **** Fit       0.019070
 **** Fit       0.017548
 **** Fit       0.017851
 **** Fit       0.016710
 **** Fit       0.015562
 **** Fit       0.014506
 **** Fit       0.013705
 **** Fit       0.013396
 **** Fit       0.013864
 **** Fit       0.015397
 **** Fit       0.018249
 **** Fit       0.022664
 **** Fit       0.018891
 **** Fit       0.019518
 **** Fit       0.018810
 **** Fit       0.018128
 **** Fit       0.017655
 **** Fit       0.017631
 **** Fit       0.018351
 **** Fit       0.020121
 **** Fit       0.023221
 **** Fit       0.027890
 **** Fit       0.020099
 **** Fit       0.021122
 **** Fit       0.020780
 **** Fit       0.020608
 **** Fit       0.020912
 **** Fit       0.022058
 **** Fit       0.024408
 **** Fit       0.028214
 **** Fit       0.021407
 **** Fit       0.022856
 **** Fit       0.022901
 **** Fit       0.023611
 **** Fit       0.025545
 **** Fit       0.029039
 **** Fit       0.025831
 -----------------------------------------------------------------
 Leave Link  602 at Tue Sep 17 00:23:43 2019, MaxMem=  1342177280 cpu:             115.0 elap:               2.5

 Test job not archived.
 1\1\GINC-C506-092\SP\RB3LYP\SVP\C54H83Ca1N15O23\PENGZHI\17-Sep-2019\0\
 \#b3lyp/svp scf=(tight,noincore) Test #IOP(5/87=12) Density=Current Po
 p=(MK,readradii) iop(6/33=2) iop(6/42=6)\\Ng-293_loop3_23.0\\0,1\C,0,3
 8.84,11.61,97.9\C,0,38.28,12.31,96.68\O,0,37.71,11.69,95.78\H,0,39.737
 ,12.13,98.236\H,0,38.096,11.617,98.697\H,0,39.091,10.58,97.646\N,0,38.
 32,13.65,96.68\C,0,37.93,14.49,95.56\C,0,36.42,14.43,95.35\O,0,35.67,1
 4.12,96.27\C,0,38.44,15.92,95.7\C,0,38.11,16.77,94.47\O,0,37.28,17.7,9
 4.54\O,0,38.57,16.42,93.36\H,0,38.85,14.08,97.42\H,0,38.38,14.1,94.64\
 H,0,39.48,15.97,95.99\H,0,37.92,16.42,96.52\N,0,36.02,14.68,94.1\C,0,3
 4.61,14.78,93.76\C,0,33.87,15.75,94.66\O,0,32.65,15.59,94.75\C,0,34.03
 ,13.39,93.52\C,0,34.71,12.48,92.5\C,0,34.78,13.01,91.07\C,0,34.86,12.0
 1,89.93\N,0,34.96,12.77,88.68\H,0,36.75,15.07,93.54\H,0,34.53,15.25,92
 .78\H,0,32.96,13.44,93.29\H,0,34.03,12.79,94.44\H,0,34.1,11.58,92.46\H
 ,0,35.74,12.24,92.78\H,0,35.62,13.7,91.\H,0,33.85,13.55,90.91\H,0,34.0
 8,11.25,89.96\H,0,35.84,11.58,90.18\H,0,35.44,13.66,88.64\H,0,35.44,12
 .23,87.97\H,0,34.04,12.87,88.27\N,0,34.53,16.76,95.23\C,0,34.02,17.66,
 96.25\C,0,34.79,18.96,96.48\O,0,35.64,19.09,97.36\C,0,33.94,16.83,97.5
 3\C,0,33.44,17.57,98.76\O,0,32.52,18.41,98.66\O,0,33.97,17.37,99.87\H,
 0,35.48,16.82,94.9\H,0,33.01,17.87,95.91\H,0,34.89,16.31,97.64\H,0,33.
 16,16.08,97.38\N,0,34.32,20.06,95.89\C,0,34.72,21.4,96.26\C,0,33.9,22.
 07,97.36\O,0,32.71,21.77,97.46\H,0,33.51,20.05,95.28\H,0,34.76,21.94,9
 5.32\H,0,35.72,21.33,96.68\N,0,34.53,22.88,98.21\C,0,33.93,23.5,99.37\
 C,0,34.35,24.92,99.71\O,0,33.94,25.57,100.67\C,0,34.15,22.55,100.55\C,
 0,33.59,21.15,100.33\N,0,34.46,20.14,100.26\O,0,32.38,20.97,100.24\H,0
 ,35.53,23.03,98.09\H,0,32.85,23.47,99.24\H,0,33.71,22.94,101.47\H,0,35
 .22,22.52,100.73\H,0,35.42,20.4,100.1\H,0,34.17,19.19,100.05\N,0,35.35
 ,25.44,98.99\C,0,36.02,26.69,99.28\C,0,36.99,26.58,100.45\O,0,37.56,25
 .5,100.59\H,0,35.56,25.01,98.09\H,0,35.27,27.45,99.49\H,0,36.56,27.07,
 98.42\N,0,36.87,27.52,101.38\C,0,37.57,27.58,102.65\C,0,37.19,26.56,10
 3.72\O,0,37.32,26.79,104.92\C,0,39.07,27.53,102.36\C,0,39.98,27.85,103
 .53\C,0,39.9,29.03,104.28\C,0,40.95,26.92,103.92\C,0,40.82,29.31,105.3
 \C,0,41.89,27.14,104.93\C,0,41.78,28.34,105.66\O,0,42.58,28.48,106.75\
 H,0,36.24,28.27,101.13\H,0,37.39,28.57,103.07\H,0,39.28,28.21,101.54\H
 ,0,39.25,26.54,101.96\H,0,39.07,29.68,104.08\H,0,40.89,25.96,103.42\H,
 0,40.76,30.19,105.91\H,0,42.61,26.37,105.16\H,0,43.16,27.72,106.86\N,0
 ,36.64,25.44,103.25\C,0,35.99,24.39,104.\C,0,34.76,24.95,104.71\O,0,33
 .73,24.32,104.46\C,0,36.94,23.68,104.96\C,0,38.06,22.97,104.21\C,0,36.
 21,22.64,105.79\C,0,39.21,22.34,105.\H,0,36.61,25.26,102.25\H,0,35.59,
 23.72,103.24\H,0,37.45,24.35,105.65\H,0,38.55,23.68,103.54\H,0,37.64,2
 2.17,103.59\H,0,36.85,22.1,106.49\H,0,35.56,23.16,106.49\H,0,35.57,22.
 02,105.17\H,0,39.62,23.07,105.69\H,0,38.85,21.49,105.59\H,0,40.01,22.0
 8,104.31\N,0,34.74,25.87,105.68\C,0,33.58,26.5,106.29\C,0,32.71,25.53,
 107.07\O,0,31.64,25.98,107.5\C,0,34.05,27.67,107.15\O,0,35.02,28.48,10
 6.52\H,0,35.58,26.38,105.88\H,0,32.96,26.85,105.47\H,0,34.56,27.41,108
 .08\H,0,33.2,28.31,107.4\H,0,35.64,28.74,107.2\N,0,33.1,24.3,107.39\C,
 0,32.33,23.21,107.96\C,0,31.,22.99,107.25\O,0,29.95,22.81,107.86\C,0,3
 2.15,23.44,109.46\H,0,34.06,24.03,107.23\H,0,32.96,22.33,107.84\H,0,33
 .05,23.76,109.98\H,0,31.35,24.18,109.53\H,0,31.71,22.52,109.84\N,0,31.
 02,22.96,105.91\C,0,30.,22.55,104.97\C,0,29.95,21.03,104.93\O,0,30.97,
 20.34,104.93\C,0,30.32,23.29,103.67\H,0,31.89,23.17,105.45\H,0,28.99,2
 2.85,105.24\H,0,29.7,23.07,102.8\H,0,30.04,24.29,103.98\H,0,31.39,23.3
 2,103.44\N,0,28.73,20.5,104.84\C,0,28.39,19.11,104.59\C,0,28.97,18.09,
 105.56\O,0,29.54,17.09,105.13\C,0,28.47,18.7,103.13\C,0,27.83,19.75,10
 2.22\C,0,27.83,19.27,100.78\O,0,28.83,19.43,100.04\O,0,26.91,18.48,100
 .47\H,0,27.95,21.13,104.85\H,0,27.31,19.07,104.72\H,0,27.95,17.75,103.
 \H,0,29.51,18.47,102.86\H,0,28.45,20.64,102.24\H,0,26.81,19.97,102.53\
 N,0,28.92,18.31,106.88\C,0,29.61,17.52,107.88\H,0,30.522,18.035,108.18
 3\H,0,28.964,17.386,108.748\H,0,29.865,16.546,107.462\H,0,28.39,19.08,
 107.27\Ca,0,30.65,19.98,98.39\O,0,28.3,20.52,97.22\H,0,27.89,20.16,96.
 43\H,0,27.57,20.75,97.79\\Version=ES64L-G16RevA.03\State=1-A\HF=-5333.
 4126817\RMSD=4.206e-09\Dipole=2.2809588,0.5718443,-15.9375272\Quadrupo
 le=-183.0010533,-35.274286,218.2753393,-0.5142655,83.8740148,194.10877
 9\PG=C01 [X(C54H83Ca1N15O23)]\\@


 A leading authority is anyone who has guessed right more than once.
 -- Frank A. Clark
 Job cpu time:       0 days  5 hours 32 minutes 51.2 seconds.
 Elapsed time:       0 days  0 hours  7 minutes  1.8 seconds.
 File lengths (MBytes):  RWF=   1517 Int=      0 D2E=      0 Chk=    171 Scr=      1
 Normal termination of Gaussian 16 at Tue Sep 17 00:23:44 2019.
