 Entering Gaussian System, Link 0=g16
 Initial command:
 /home1/apps/gaussian/16rA.03/g16/l1.exe "/scratch/01990/pengzhi/4342275/Gau-70391.inp" -scrdir="/scratch/01990/pengzhi/4342275/"
 Entering Link 1 = /home1/apps/gaussian/16rA.03/g16/l1.exe PID=     70392.
  
 Copyright (c) 1988,1990,1992,1993,1995,1998,2003,2009,2016,
            Gaussian, Inc.  All Rights Reserved.
  
 This is part of the Gaussian(R) 16 program.  It is based on
 the Gaussian(R) 09 system (copyright 2009, Gaussian, Inc.),
 the Gaussian(R) 03 system (copyright 2003, Gaussian, Inc.),
 the Gaussian(R) 98 system (copyright 1998, Gaussian, Inc.),
 the Gaussian(R) 94 system (copyright 1995, Gaussian, Inc.),
 the Gaussian 92(TM) system (copyright 1992, Gaussian, Inc.),
 the Gaussian 90(TM) system (copyright 1990, Gaussian, Inc.),
 the Gaussian 88(TM) system (copyright 1988, Gaussian, Inc.),
 the Gaussian 86(TM) system (copyright 1986, Carnegie Mellon
 University), and the Gaussian 82(TM) system (copyright 1983,
 Carnegie Mellon University). Gaussian is a federally registered
 trademark of Gaussian, Inc.
  
 This software contains proprietary and confidential information,
 including trade secrets, belonging to Gaussian, Inc.
  
 This software is provided under written license and may be
 used, copied, transmitted, or stored only in accord with that
 written license.
  
 The following legend is applicable only to US Government
 contracts under FAR:
  
                    RESTRICTED RIGHTS LEGEND
  
 Use, reproduction and disclosure by the US Government is
 subject to restrictions as set forth in subparagraphs (a)
 and (c) of the Commercial Computer Software - Restricted
 Rights clause in FAR 52.227-19.
  
 Gaussian, Inc.
 340 Quinnipiac St., Bldg. 40, Wallingford CT 06492
  
  
 ---------------------------------------------------------------
 Warning -- This program may not be used in any manner that
 competes with the business of Gaussian, Inc. or will provide
 assistance to any competitor of Gaussian, Inc.  The licensee
 of this program is prohibited from giving any competitor of
 Gaussian, Inc. access to this program.  By using this program,
 the user acknowledges that Gaussian, Inc. is engaged in the
 business of creating and licensing software in the field of
 computational chemistry and represents and warrants to the
 licensee that it is not a competitor of Gaussian, Inc. and that
 it will not use this program in any manner prohibited above.
 ---------------------------------------------------------------
  

 Cite this work as:
 Gaussian 16, Revision A.03,
 M. J. Frisch, G. W. Trucks, H. B. Schlegel, G. E. Scuseria, 
 M. A. Robb, J. R. Cheeseman, G. Scalmani, V. Barone, 
 G. A. Petersson, H. Nakatsuji, X. Li, M. Caricato, A. V. Marenich, 
 J. Bloino, B. G. Janesko, R. Gomperts, B. Mennucci, H. P. Hratchian, 
 J. V. Ortiz, A. F. Izmaylov, J. L. Sonnenberg, D. Williams-Young, 
 F. Ding, F. Lipparini, F. Egidi, J. Goings, B. Peng, A. Petrone, 
 T. Henderson, D. Ranasinghe, V. G. Zakrzewski, J. Gao, N. Rega, 
 G. Zheng, W. Liang, M. Hada, M. Ehara, K. Toyota, R. Fukuda, 
 J. Hasegawa, M. Ishida, T. Nakajima, Y. Honda, O. Kitao, H. Nakai, 
 T. Vreven, K. Throssell, J. A. Montgomery, Jr., J. E. Peralta, 
 F. Ogliaro, M. J. Bearpark, J. J. Heyd, E. N. Brothers, K. N. Kudin, 
 V. N. Staroverov, T. A. Keith, R. Kobayashi, J. Normand, 
 K. Raghavachari, A. P. Rendell, J. C. Burant, S. S. Iyengar, 
 J. Tomasi, M. Cossi, J. M. Millam, M. Klene, C. Adamo, R. Cammi, 
 J. W. Ochterski, R. L. Martin, K. Morokuma, O. Farkas, 
 J. B. Foresman, and D. J. Fox, Gaussian, Inc., Wallingford CT, 2016.
 
 ******************************************
 Gaussian 16:  ES64L-G16RevA.03 25-Dec-2016
                16-Sep-2019 
 ******************************************
 %chk=Ng-293_loop3_10.0.chk
 %nprocshared=48
 Will use up to   48 processors via shared memory.
 %mem=10GB
 %nosave
 ----------------------------------------------------------------------
 #b3lyp/svp scf=(tight,noincore) Test #IOP(5/87=12) Density=Current Pop
 =(MK,readradii) iop(6/33=2) iop(6/42=6)
 ----------------------------------------------------------------------
 1/30=1,38=1,172=1/1;
 2/12=2,17=6,18=5,40=1/2;
 3/5=18,7=101,11=2,25=1,30=1,74=-5/1,2,3;
 4//1;
 5/5=4,32=2,38=5,87=12/2;
 6/7=2,8=2,9=2,10=2,15=8,20=101,22=-1,28=1,33=2,42=6/1,2;
 99/5=1,9=1/99;
 -----------------
 Ng-293_loop3_10.0
 -----------------
 Symbolic Z-matrix:
 Charge =  0 Multiplicity = 1
 C                     54.42     54.22     44.71 
 C                     54.12     54.29     46.21 
 O                     53.       53.94     46.55 
 H                     55.463    53.939    44.561 
 H                     53.774    53.476    44.244 
 H                     54.238    55.194    44.257 
 N                     55.07     54.73     47.05 
 C                     54.88     54.94     48.47 
 C                     53.87     55.96     48.98 
 O                     54.26     57.01     49.48 
 C                     54.72     53.62     49.22 
 C                     55.84     52.64     48.91 
 O                     55.68     51.79     48.01 
 O                     56.94     52.82     49.47 
 H                     56.01     54.87     46.71 
 H                     55.83     55.3      48.85 
 H                     53.8      53.13     48.88 
 H                     54.73     53.77     50.3 
 N                     52.59     55.59     48.94 
 C                     51.54     56.53     49.28 
 C                     51.6      57.14     50.67 
 O                     51.49     58.36     50.79 
 C                     50.2      55.88     48.95 
 C                     49.61     54.88     49.94 
 C                     50.49     53.64     50.09 
 C                     49.9      52.78     51.21 
 N                     50.2      53.34     52.54 
 H                     52.32     54.79     48.4 
 H                     51.7      57.31     48.54 
 H                     50.23     55.37     47.99 
 H                     49.44     56.67     48.91 
 H                     48.7      54.6      49.42 
 H                     49.32     55.24     50.93 
 H                     51.52     53.79     50.39 
 H                     50.5      53.15     49.12 
 H                     50.28     51.76     51.25 
 H                     48.83     52.72     51.01 
 H                     49.77     52.82     53.28 
 H                     51.19     53.36     52.72 
 H                     49.94     54.31     52.67 
 N                     51.97     56.35     51.68 
 C                     52.39     56.63     53.04 
 C                     53.13     55.39     53.52 
 O                     52.91     54.31     52.98 
 C                     51.24     57.07     53.95 
 C                     50.13     56.04     54.1 
 O                     50.21     55.26     55.07 
 O                     49.25     56.01     53.21 
 H                     52.22     55.41     51.43 
 H                     53.11     57.45     53.05 
 H                     50.89     58.03     53.58 
 H                     51.68     57.25     54.93 
 N                     54.08     55.45     54.46 
 C                     55.       54.39     54.84 
 C                     54.31     53.27     55.61 
 O                     53.25     53.47     56.19 
 H                     54.26     56.36     54.87 
 H                     55.76     54.84     55.48 
 H                     55.55     54.09     53.95 
 N                     54.82     52.05     55.47 
 C                     54.29     50.81     56.01 
 C                     55.35     49.95     56.68 
 O                     54.95     48.96     57.3 
 C                     53.58     50.05     54.89 
 C                     52.35     50.83     54.44 
 N                     51.44     51.17     55.36 
 O                     52.19     51.09     53.24 
 H                     55.58     51.88     54.84 
 H                     53.58     51.1      56.78 
 H                     53.24     49.14     55.38 
 H                     54.23     49.85     54.04 
 H                     51.66     50.93     56.31 
 H                     50.63     51.74     55.19 
 N                     56.65     50.23     56.65 
 C                     57.61     49.58     57.51 
 C                     58.16     48.23     57.06 
 O                     58.66     48.13     55.95 
 H                     56.97     50.87     55.93 
 H                     57.06     49.54     58.46 
 H                     58.38     50.33     57.71 
 N                     57.82     47.17     57.8 
 C                     57.96     45.79     57.39 
 C                     57.04     45.35     56.26 
 O                     57.05     44.19     55.87 
 C                     59.42     45.36     57.26 
 C                     60.25     45.67     58.49 
 C                     59.82     45.33     59.77 
 C                     61.48     46.31     58.27 
 C                     60.55     45.79     60.87 
 C                     62.23     46.69     59.39 
 C                     61.79     46.44     60.7 
 O                     62.53     46.81     61.78 
 H                     57.13     47.31     58.53 
 H                     57.51     45.31     58.26 
 H                     59.9      45.8      56.39 
 H                     59.45     44.27     57.23 
 H                     58.88     44.84     59.97 
 H                     61.82     46.53     57.26 
 H                     60.14     45.61     61.86 
 H                     63.21     47.12     59.22 
 H                     63.32     47.29     61.52 
 N                     56.11     46.23     55.88 
 C                     54.91     46.06     55.07 
 C                     53.8      45.26     55.75 
 O                     52.73     45.79     56.04 
 C                     55.21     45.54     53.67 
 C                     56.29     46.29     52.91 
 C                     54.       45.48     52.75 
 C                     56.18     47.81     52.8 
 H                     56.3      47.12     56.33 
 H                     54.36     46.99     54.94 
 H                     55.47     44.48     53.75 
 H                     56.43     45.85     51.92 
 H                     57.16     46.04     53.52 
 H                     54.37     45.12     51.79 
 H                     53.32     44.76     53.21 
 H                     53.4      46.38     52.61 
 H                     55.16     48.04     52.49 
 H                     56.38     48.26     53.78 
 H                     56.94     48.2      52.12 
 N                     54.03     43.98     56.03 
 C                     53.05     43.12     56.66 
 C                     51.76     43.03     55.86 
 O                     50.67     43.06     56.43 
 C                     53.79     41.83     57. 
 O                     54.46     41.33     55.86 
 H                     54.93     43.63     55.73 
 H                     52.66     43.6      57.56 
 H                     53.06     41.11     57.37 
 H                     54.57     41.93     57.76 
 H                     54.18     40.42     55.94 
 N                     51.85     42.96     54.53 
 C                     50.72     43.07     53.62 
 C                     49.76     44.25     53.65 
 O                     48.86     44.26     52.82 
 C                     50.03     41.72     53.44 
 H                     52.71     42.72     54.06 
 H                     51.32     43.1      52.7 
 H                     49.28     41.52     54.2 
 H                     49.53     41.76     52.48 
 H                     50.73     40.89     53.56 
 N                     49.89     45.2      54.58 
 C                     48.96     46.29     54.76 
 C                     48.87     47.2      53.54 
 O                     49.86     47.54     52.88 
 C                     49.37     47.       56.05 
 H                     50.51     45.04     55.37 
 H                     48.       45.78     54.81 
 H                     50.44     47.2      56. 
 H                     48.82     47.92     56.26 
 H                     49.22     46.37     56.93 
 N                     47.73     47.86     53.33 
 C                     47.57     48.97     52.41 
 C                     47.9      48.68     50.96 
 O                     47.84     49.58     50.13 
 C                     48.05     50.3      52.98 
 C                     47.56     50.47     54.41 
 C                     47.64     51.93     54.84 
 O                     46.73     52.4      55.56 
 O                     48.74     52.5      54.76 
 H                     47.       47.58     53.97 
 H                     46.48     49.06     52.32 
 H                     47.62     51.09     52.36 
 H                     49.12     50.47     52.99 
 H                     48.19     49.84     55.03 
 H                     46.51     50.18     54.5 
 N                     48.06     47.43     50.5 
 C                     48.5      47.1      49.16 
 H                     49.527    46.737    49.195 
 H                     47.855    46.325    48.746 
 H                     48.451    47.989    48.531 
 H                     48.08     46.68     51.17 
 Ca                    48.6      54.13     56.72 
 O                     47.13     55.53     55.16 
 H                     47.41     56.02     54.39 
 H                     46.4      56.05     55.52 
 
 Stoichiometry    C54H83CaN15O23
 Framework group  C1[X(C54H83CaN15O23)]
 Deg. of freedom   522
 Full point group                 C1      NOp   1
 Largest Abelian subgroup         C1      NOp   1
 Largest concise Abelian subgroup C1      NOp   1
                         Standard orientation:                         
 ---------------------------------------------------------------------
 Center     Atomic      Atomic             Coordinates (Angstroms)
 Number     Number       Type             X           Y           Z
 ---------------------------------------------------------------------
      1          6           0       -7.067224   -2.550943    6.837539
      2          6           0       -6.518937   -2.480493    5.409492
      3          8           0       -6.560873   -1.384100    4.872218
      4          1           0       -6.482804   -3.267090    7.415984
      5          1           0       -6.998799   -1.567542    7.302564
      6          1           0       -8.108968   -2.868925    6.811730
      7          7           0       -6.044411   -3.595587    4.832353
      8          6           0       -5.595389   -3.684185    3.458624
      9          6           0       -6.555240   -3.421847    2.305167
     10          8           0       -6.949529   -4.354632    1.613034
     11          6           0       -4.289800   -2.923623    3.240717
     12          6           0       -3.216710   -3.319245    4.242147
     13          8           0       -3.072194   -2.647391    5.284178
     14          8           0       -2.615950   -4.396085    4.053726
     15          1           0       -5.918252   -4.429131    5.387410
     16          1           0       -5.283256   -4.712358    3.310522
     17          1           0       -4.470415   -1.855838    3.411928
     18          1           0       -3.875378   -3.116117    2.250666
     19          7           0       -6.834365   -2.143150    2.052335
     20          6           0       -7.832634   -1.788284    1.062775
     21          6           0       -7.597972   -2.296360   -0.349525
     22          8           0       -8.518775   -2.860743   -0.939859
     23          6           0       -8.064100   -0.282749    1.145164
     24          6           0       -7.068715    0.647736    0.458428
     25          6           0       -5.675073    0.547403    1.076648
     26          6           0       -4.723521    1.391214    0.225394
     27          7           0       -4.378081    0.713085   -1.036871
     28          1           0       -6.599740   -1.439920    2.726811
     29          1           0       -8.720619   -2.264111    1.471031
     30          1           0       -8.128091    0.054860    2.176922
     31          1           0       -9.009474   -0.056156    0.637007
     32          1           0       -7.493076    1.613433    0.711895
     33          1           0       -6.985688    0.605764   -0.630215
     34          1           0       -5.207400   -0.429347    1.101932
     35          1           0       -5.767687    0.892261    2.103096
     36          1           0       -3.763401    1.606655    0.692465
     37          1           0       -5.228342    2.344373    0.066831
     38          1           0       -3.803258    1.278965   -1.630385
     39          1           0       -3.886311   -0.149531   -0.872689
     40          1           0       -5.166513    0.406456   -1.593427
     41          7           0       -6.346509   -2.288215   -0.813072
     42          6           0       -5.721616   -2.922270   -1.958446
     43          6           0       -4.226943   -2.936573   -1.673230
     44          8           0       -3.757112   -2.127350   -0.878991
     45          6           0       -6.103101   -2.273821   -3.291931
     46          6           0       -5.713378   -0.807662   -3.410225
     47          8           0       -4.611906   -0.556456   -3.938765
     48          8           0       -6.495914    0.036345   -2.917590
     49          1           0       -5.643561   -1.977395   -0.166655
     50          1           0       -6.038365   -3.964058   -2.030897
     51          1           0       -7.165012   -2.450815   -3.440316
     52          1           0       -5.577962   -2.834989   -4.063760
     53          7           0       -3.413372   -3.860310   -2.197168
     54          6           0       -2.028588   -4.111895   -1.831820
     55          6           0       -1.090775   -3.012291   -2.316357
     56          8           0       -1.411039   -2.280741   -3.244939
     57          1           0       -3.833392   -4.533266   -2.829080
     58          1           0       -1.739423   -5.052718   -2.301857
     59          1           0       -1.998686   -4.330547   -0.766035
     60          7           0       -0.010162   -2.783175   -1.576167
     61          6           0        0.975414   -1.732666   -1.763705
     62          6           0        2.407592   -2.236204   -1.677595
     63          8           0        3.296056   -1.435312   -1.983708
     64          6           0        0.711127   -0.623444   -0.745924
     65          6           0       -0.625043    0.044405   -1.049943
     66          7           0       -0.823516    0.542470   -2.275765
     67          8           0       -1.474734    0.158061   -0.156462
     68          1           0        0.135728   -3.272846   -0.714576
     69          1           0        0.827029   -1.362208   -2.774567
     70          1           0        1.500698    0.097143   -0.948735
     71          1           0        0.726416   -0.983183    0.281381
     72          1           0       -0.085173    0.391888   -2.939598
     73          1           0       -1.685101    0.940215   -2.606478
     74          7           0        2.729967   -3.477357   -1.324165
     75          6           0        4.051583   -4.026120   -1.513609
     76          6           0        5.097867   -3.731891   -0.442992
     77          8           0        4.846799   -3.992881    0.723605
     78          1           0        2.026522   -4.015934   -0.828686
     79          1           0        4.310715   -3.633398   -2.506192
     80          1           0        3.901862   -5.091442   -1.708731
     81          7           0        6.123579   -2.956179   -0.807663
     82          6           0        7.038463   -2.304319    0.103471
     83          6           0        6.435724   -1.186401    0.942438
     84          8           0        7.137076   -0.543287    1.712054
     85          6           0        7.922737   -3.295012    0.858447
     86          6           0        8.635292   -4.277972   -0.049272
     87          6           0        9.334951   -3.859678   -1.178168
     88          6           0        8.560504   -5.632165    0.313316
     89          6           0        9.827299   -4.825097   -2.061379
     90          6           0        9.132194   -6.574056   -0.551156
     91          6           0        9.773403   -6.197858   -1.742595
     92          8           0       10.329060   -7.122150   -2.571949
     93          1           0        6.078883   -2.519341   -1.721870
     94          1           0        7.637411   -1.755346   -0.624327
     95          1           0        7.367078   -3.848112    1.610925
     96          1           0        8.754006   -2.740694    1.296195
     97          1           0        9.408277   -2.827384   -1.482620
     98          1           0        8.045631   -5.937273    1.222114
     99          1           0       10.272211   -4.480203   -2.990734
    100          1           0        9.136261   -7.611235   -0.237399
    101          1           0       10.170647   -8.016885   -2.261378
    102          7           0        5.184284   -0.831151    0.640122
    103          6           0        4.412009    0.348936    1.008884
    104          6           0        4.883491    1.642025    0.345464
    105          8           0        4.165827    2.235523   -0.456171
    106          6           0        4.256272    0.506879    2.515934
    107          6           0        3.771416   -0.726710    3.257334
    108          6           0        3.342226    1.647861    2.936384
    109          6           0        2.509540   -1.427520    2.756200
    110          1           0        4.803227   -1.505833   -0.015850
    111          1           0        3.404894    0.333150    0.596853
    112          1           0        5.215545    0.840767    2.923259
    113          1           0        3.685963   -0.515959    4.325782
    114          1           0        4.627661   -1.386999    3.107794
    115          1           0        3.307683    1.619483    4.025467
    116          1           0        3.827893    2.557455    2.576989
    117          1           0        2.331990    1.691068    2.527536
    118          1           0        1.750795   -0.659281    2.602853
    119          1           0        2.726589   -1.929216    1.805364
    120          1           0        2.203100   -2.208630    3.454815
    121          7           0        6.095396    2.098213    0.650223
    122          6           0        6.643538    3.318302    0.095405
    123          6           0        5.776831    4.530965    0.396186
    124          8           0        5.568930    5.378719   -0.470988
    125          6           0        8.108394    3.344026    0.520653
    126          8           0        8.220534    3.154266    1.917046
    127          1           0        6.598569    1.553763    1.337894
    128          1           0        6.548726    3.305867   -0.992416
    129          1           0        8.529135    4.304497    0.222869
    130          1           0        8.731870    2.559888    0.082012
    131          1           0        8.836292    3.864020    2.090230
    132          7           0        5.222155    4.621067    1.607018
    133          6           0        4.216936    5.603695    1.982621
    134          6           0        2.922721    5.785762    1.203673
    135          8           0        2.130292    6.619649    1.622825
    136          6           0        4.868887    6.917086    2.408016
    137          1           0        5.541684    4.068619    2.388557
    138          1           0        4.001217    5.171203    2.969392
    139          1           0        5.073217    7.581485    1.573196
    140          1           0        4.159883    7.410498    3.061512
    141          1           0        5.858282    6.754481    2.841557
    142          7           0        2.703634    5.083383    0.088790
    143          6           0        1.563818    5.273236   -0.777337
    144          6           0        0.237254    4.985916   -0.082878
    145          8           0        0.076229    4.035428    0.692973
    146          6           0        1.821789    4.426891   -2.023713
    147          1           0        3.472606    4.568780   -0.333070
    148          1           0        1.571061    6.347514   -0.950753
    149          1           0        2.098113    3.423897   -1.699603
    150          1           0        0.987543    4.383435   -2.727378
    151          1           0        2.667394    4.801353   -2.605546
    152          7           0       -0.852421    5.618116   -0.521319
    153          6           0       -2.215734    5.254907   -0.184338
    154          6           0       -2.558853    5.270717    1.291304
    155          8           0       -3.675535    4.925589    1.660636
    156          6           0       -2.751878    4.091321   -1.010666
    157          6           0       -2.394569    4.275822   -2.477700
    158          6           0       -3.267641    3.394234   -3.362826
    159          8           0       -3.662670    3.842907   -4.462846
    160          8           0       -3.275988    2.173096   -3.139098
    161          1           0       -0.636783    6.319615   -1.215798
    162          1           0       -2.790228    6.134900   -0.500358
    163          1           0       -3.839246    4.095948   -0.905741
    164          1           0       -2.423466    3.098382   -0.727614
    165          1           0       -1.344731    4.017939   -2.575355
    166          1           0       -2.574187    5.305696   -2.796756
    167          7           0       -1.759154    5.841783    2.204577
    168          6           0       -1.971623    5.775361    3.635850
    169          1           0       -1.241893    5.098249    4.079399
    170          1           0       -1.853810    6.769280    4.067466
    171          1           0       -2.977559    5.407293    3.838294
    172          1           0       -0.851829    6.156781    1.905683
    173         20           0       -3.628723    1.238700   -5.488690
    174          8           0       -6.079916    1.888451   -5.136587
    175          1           0       -6.709961    1.467805   -4.555640
    176          1           0       -6.611819    2.193828   -5.882726
 ---------------------------------------------------------------------
 Rotational constants (GHZ):           0.0196171           0.0109324           0.0092839
 Standard basis: SVP (5D, 7F)
 There are  1809 symmetry adapted cartesian basis functions of A   symmetry.
 There are  1717 symmetry adapted basis functions of A   symmetry.
  1717 basis functions,  2922 primitive gaussians,  1809 cartesian basis functions
   358 alpha electrons      358 beta electrons
       nuclear repulsion energy     20072.0925098737 Hartrees.
 NAtoms=  176 NActive=  176 NUniq=  176 SFac= 1.00D+00 NAtFMM=   60 NAOKFM=T Big=T
 Integral buffers will be    131072 words long.
 Raffenetti 2 integral format.
 Two-electron integral symmetry is turned on.
 One-electron integrals computed using PRISM.
 NBasis=  1717 RedAO= T EigKep=  2.91D-04  NBF=  1717
 NBsUse=  1717 1.00D-06 EigRej= -1.00D+00 NBFU=  1717
 ExpMin= 1.98D-02 ExpMax= 3.51D+04 ExpMxC= 5.28D+03 IAcc=3 IRadAn=         5 AccDes= 0.00D+00
 Harris functional with IExCor=  402 and IRadAn=       5 diagonalized for initial guess.
 HarFok:  IExCor=  402 AccDes= 0.00D+00 IRadAn=         5 IDoV= 1 UseB2=F ITyADJ=14
 ICtDFT=  3500011 ScaDFX=  1.000000  1.000000  1.000000  1.000000
 FoFCou: FMM=F IPFlag=           0 FMFlag=      100000 FMFlg1=        2001
         NFxFlg=           0 DoJE=T BraDBF=F KetDBF=T FulRan=T
         wScrn=  0.000000 ICntrl=       500 IOpCl=  0 I1Cent=   200000004 NGrid=           0
         NMat0=    1 NMatS0=      1 NMatT0=    0 NMatD0=    1 NMtDS0=    0 NMtDT0=    0
 Petite list used in FoFCou.
 Requested convergence on RMS density matrix=1.00D-08 within 128 cycles.
 Requested convergence on MAX density matrix=1.00D-06.
 Requested convergence on             energy=1.00D-06.
 No special actions if energy rises.
 EnCoef did     2 forward-backward iterations
 EnCoef did     2 forward-backward iterations
 EnCoef did     2 forward-backward iterations
 EnCoef did    19 forward-backward iterations
 EnCoef did   100 forward-backward iterations
 EnCoef did    65 forward-backward iterations
 Rare condition: small coef for last iteration: -0.132D-14
 EnCoef did   100 forward-backward iterations
 EnCoef did   100 forward-backward iterations
 Rare condition: small coef for last iteration:  0.000D+00
 EnCoef did   100 forward-backward iterations
 EnCoef did   100 forward-backward iterations
 Rare condition: small coef for last iteration: -0.779D-15
 EnCoef did   100 forward-backward iterations
 Restarting incremental Fock formation.
 EnCoef did   100 forward-backward iterations
 EnCoef did   100 forward-backward iterations
 EnCoef did   100 forward-backward iterations
 EnCoef did   100 forward-backward iterations
 EnCoef did   100 forward-backward iterations
 EnCoef did   100 forward-backward iterations
 EnCoef did   100 forward-backward iterations
 EnCoef did   100 forward-backward iterations
 EnCoef did   100 forward-backward iterations
 EnCoef did   100 forward-backward iterations
 EnCoef did   100 forward-backward iterations
 EnCoef did    43 forward-backward iterations
 Rare condition: small coef for last iteration: -0.134D-14
 EnCoef did   100 forward-backward iterations
 EnCoef did    80 forward-backward iterations
 Rare condition: small coef for last iteration: -0.672D-15
 EnCoef did   100 forward-backward iterations
 EnCoef did   100 forward-backward iterations
 Rare condition: small coef for last iteration:  0.000D+00
 EnCoef did   100 forward-backward iterations
 Restarting incremental Fock formation.
 EnCoef did   100 forward-backward iterations
 Rare condition: small coef for last iteration: -0.314D-14
 EnCoef did   100 forward-backward iterations
 EnCoef did   100 forward-backward iterations
 EnCoef did   100 forward-backward iterations
 EnCoef did   100 forward-backward iterations
 EnCoef did   100 forward-backward iterations
 Rare condition: small coef for last iteration:  0.000D+00
 EnCoef did   100 forward-backward iterations
 SCF Done:  E(RB3LYP) =  -5333.45757730     A.U. after   57 cycles
            NFock= 57  Conv=0.78D-09     -V/T= 2.0081
 SCF density gives NOpUse=  1 NOpAll=  1.
 Hyperfine terms turned off by default for NAtoms > 100.

 **********************************************************************

            Population analysis using the SCF density.

 **********************************************************************

 Orbital symmetries:
 BldTbl:  Degeneracy threshold= 1.00D-02
       Occupied  (A) (A) (A) (A) (A) (A) (A) (A) (A) (A) (A) (A)
                 (A) (A) (A) (A) (A) (A) (A) (A) (A) (A) (A) (A)
                 (A) (A) (A) (A) (A) (A) (A) (A) (A) (A) (A) (A)
                 (A) (A) (A) (A) (A) (A) (A) (A) (A) (A) (A) (A)
                 (A) (A) (A) (A) (A) (A) (A) (A) (A) (A) (A) (A)
                 (A) (A) (A) (A) (A) (A) (A) (A) (A) (A) (A) (A)
                 (A) (A) (A) (A) (A) (A) (A) (A) (A) (A) (A) (A)
                 (A) (A) (A) (A) (A) (A) (A) (A) (A) (A) (A) (A)
                 (A) (A) (A) (A) (A) (A) (A) (A) (A) (A) (A) (A)
                 (A) (A) (A) (A) (A) (A) (A) (A) (A) (A) (A) (A)
                 (A) (A) (A) (A) (A) (A) (A) (A) (A) (A) (A) (A)
                 (A) (A) (A) (A) (A) (A) (A) (A) (A) (A) (A) (A)
                 (A) (A) (A) (A) (A) (A) (A) (A) (A) (A) (A) (A)
                 (A) (A) (A) (A) (A) (A) (A) (A) (A) (A) (A) (A)
                 (A) (A) (A) (A) (A) (A) (A) (A) (A) (A) (A) (A)
                 (A) (A) (A) (A) (A) (A) (A) (A) (A) (A) (A) (A)
                 (A) (A) (A) (A) (A) (A) (A) (A) (A) (A) (A) (A)
                 (A) (A) (A) (A) (A) (A) (A) (A) (A) (A) (A) (A)
                 (A) (A) (A) (A) (A) (A) (A) (A) (A) (A) (A) (A)
                 (A) (A) (A) (A) (A) (A) (A) (A) (A) (A) (A) (A)
                 (A) (A) (A) (A) (A) (A) (A) (A) (A) (A) (A) (A)
                 (A) (A) (A) (A) (A) (A) (A) (A) (A) (A) (A) (A)
                 (A) (A) (A) (A) (A) (A) (A) (A) (A) (A) (A) (A)
                 (A) (A) (A) (A) (A) (A) (A) (A) (A) (A) (A) (A)
                 (A) (A) (A) (A) (A) (A) (A) (A) (A) (A) (A) (A)
                 (A) (A) (A) (A) (A) (A) (A) (A) (A) (A) (A) (A)
                 (A) (A) (A) (A) (A) (A) (A) (A) (A) (A) (A) (A)
                 (A) (A) (A) (A) (A) (A) (A) (A) (A) (A) (A) (A)
                 (A) (A) (A) (A) (A) (A) (A) (A) (A) (A) (A) (A)
                 (A) (A) (A) (A) (A) (A) (A) (A) (A) (A)
       Virtual   (A) (A) (A) (A) (A) (A) (A) (A) (A) (A) (A) (A)
                 (A) (A) (A) (A) (A) (A) (A) (A) (A) (A) (A) (A)
                 (A) (A) (A) (A) (A) (A) (A) (A) (A) (A) (A) (A)
                 (A) (A) (A) (A) (A) (A) (A) (A) (A) (A) (A) (A)
                 (A) (A) (A) (A) (A) (A) (A) (A) (A) (A) (A) (A)
                 (A) (A) (A) (A) (A) (A) (A) (A) (A) (A) (A) (A)
                 (A) (A) (A) (A) (A) (A) (A) (A) (A) (A) (A) (A)
                 (A) (A) (A) (A) (A) (A) (A) (A) (A) (A) (A) (A)
                 (A) (A) (A) (A) (A) (A) (A) (A) (A) (A) (A) (A)
                 (A) (A) (A) (A) (A) (A) (A) (A) (A) (A) (A) (A)
                 (A) (A) (A) (A) (A) (A) (A) (A) (A) (A) (A) (A)
                 (A) (A) (A) (A) (A) (A) (A) (A) (A) (A) (A) (A)
                 (A) (A) (A) (A) (A) (A) (A) (A) (A) (A) (A) (A)
                 (A) (A) (A) (A) (A) (A) (A) (A) (A) (A) (A) (A)
                 (A) (A) (A) (A) (A) (A) (A) (A) (A) (A) (A) (A)
                 (A) (A) (A) (A) (A) (A) (A) (A) (A) (A) (A) (A)
                 (A) (A) (A) (A) (A) (A) (A) (A) (A) (A) (A) (A)
                 (A) (A) (A) (A) (A) (A) (A) (A) (A) (A) (A) (A)
                 (A) (A) (A) (A) (A) (A) (A) (A) (A) (A) (A) (A)
                 (A) (A) (A) (A) (A) (A) (A) (A) (A) (A) (A) (A)
                 (A) (A) (A) (A) (A) (A) (A) (A) (A) (A) (A) (A)
                 (A) (A) (A) (A) (A) (A) (A) (A) (A) (A) (A) (A)
                 (A) (A) (A) (A) (A) (A) (A) (A) (A) (A) (A) (A)
                 (A) (A) (A) (A) (A) (A) (A) (A) (A) (A) (A) (A)
                 (A) (A) (A) (A) (A) (A) (A) (A) (A) (A) (A) (A)
                 (A) (A) (A) (A) (A) (A) (A) (A) (A) (A) (A) (A)
                 (A) (A) (A) (A) (A) (A) (A) (A) (A) (A) (A) (A)
                 (A) (A) (A) (A) (A) (A) (A) (A) (A) (A) (A) (A)
                 (A) (A) (A) (A) (A) (A) (A) (A) (A) (A) (A) (A)
                 (A) (A) (A) (A) (A) (A) (A) (A) (A) (A) (A) (A)
                 (A) (A) (A) (A) (A) (A) (A) (A) (A) (A) (A) (A)
                 (A) (A) (A) (A) (A) (A) (A) (A) (A) (A) (A) (A)
                 (A) (A) (A) (A) (A) (A) (A) (A) (A) (A) (A) (A)
                 (A) (A) (A) (A) (A) (A) (A) (A) (A) (A) (A) (A)
                 (A) (A) (A) (A) (A) (A) (A) (A) (A) (A) (A) (A)
                 (A) (A) (A) (A) (A) (A) (A) (A) (A) (A) (A) (A)
                 (A) (A) (A) (A) (A) (A) (A) (A) (A) (A) (A) (A)
                 (A) (A) (A) (A) (A) (A) (A) (A) (A) (A) (A) (A)
                 (A) (A) (A) (A) (A) (A) (A) (A) (A) (A) (A) (A)
                 (A) (A) (A) (A) (A) (A) (A) (A) (A) (A) (A) (A)
                 (A) (A) (A) (A) (A) (A) (A) (A) (A) (A) (A) (A)
                 (A) (A) (A) (A) (A) (A) (A) (A) (A) (A) (A) (A)
                 (A) (A) (A) (A) (A) (A) (A) (A) (A) (A) (A) (A)
                 (A) (A) (A) (A) (A) (A) (A) (A) (A) (A) (A) (A)
                 (A) (A) (A) (A) (A) (A) (A) (A) (A) (A) (A) (A)
                 (A) (A) (A) (A) (A) (A) (A) (A) (A) (A) (A) (A)
                 (A) (A) (A) (A) (A) (A) (A) (A) (A) (A) (A) (A)
                 (A) (A) (A) (A) (A) (A) (A) (A) (A) (A) (A) (A)
                 (A) (A) (A) (A) (A) (A) (A) (A) (A) (A) (A) (A)
                 (A) (A) (A) (A) (A) (A) (A) (A) (A) (A) (A) (A)
                 (A) (A) (A) (A) (A) (A) (A) (A) (A) (A) (A) (A)
                 (A) (A) (A) (A) (A) (A) (A) (A) (A) (A) (A) (A)
                 (A) (A) (A) (A) (A) (A) (A) (A) (A) (A) (A) (A)
                 (A) (A) (A) (A) (A) (A) (A) (A) (A) (A) (A) (A)
                 (A) (A) (A) (A) (A) (A) (A) (A) (A) (A) (A) (A)
                 (A) (A) (A) (A) (A) (A) (A) (A) (A) (A) (A) (A)
                 (A) (A) (A) (A) (A) (A) (A) (A) (A) (A) (A) (A)
                 (A) (A) (A) (A) (A) (A) (A) (A) (A) (A) (A) (A)
                 (A) (A) (A) (A) (A) (A) (A) (A) (A) (A) (A) (A)
                 (A) (A) (A) (A) (A) (A) (A) (A) (A) (A) (A) (A)
                 (A) (A) (A) (A) (A) (A) (A) (A) (A) (A) (A) (A)
                 (A) (A) (A) (A) (A) (A) (A) (A) (A) (A) (A) (A)
                 (A) (A) (A) (A) (A) (A) (A) (A) (A) (A) (A) (A)
                 (A) (A) (A) (A) (A) (A) (A) (A) (A) (A) (A) (A)
                 (A) (A) (A) (A) (A) (A) (A) (A) (A) (A) (A) (A)
                 (A) (A) (A) (A) (A) (A) (A) (A) (A) (A) (A) (A)
                 (A) (A) (A) (A) (A) (A) (A) (A) (A) (A) (A) (A)
                 (A) (A) (A) (A) (A) (A) (A) (A) (A) (A) (A) (A)
                 (A) (A) (A) (A) (A) (A) (A) (A) (A) (A) (A) (A)
                 (A) (A) (A) (A) (A) (A) (A) (A) (A) (A) (A) (A)
                 (A) (A) (A) (A) (A) (A) (A) (A) (A) (A) (A) (A)
                 (A) (A) (A) (A) (A) (A) (A) (A) (A) (A) (A) (A)
                 (A) (A) (A) (A) (A) (A) (A) (A) (A) (A) (A) (A)
                 (A) (A) (A) (A) (A) (A) (A) (A) (A) (A) (A) (A)
                 (A) (A) (A) (A) (A) (A) (A) (A) (A) (A) (A) (A)
                 (A) (A) (A) (A) (A) (A) (A) (A) (A) (A) (A) (A)
                 (A) (A) (A) (A) (A) (A) (A) (A) (A) (A) (A) (A)
                 (A) (A) (A) (A) (A) (A) (A) (A) (A) (A) (A) (A)
                 (A) (A) (A) (A) (A) (A) (A) (A) (A) (A) (A) (A)
                 (A) (A) (A) (A) (A) (A) (A) (A) (A) (A) (A) (A)
                 (A) (A) (A) (A) (A) (A) (A) (A) (A) (A) (A) (A)
                 (A) (A) (A) (A) (A) (A) (A) (A) (A) (A) (A) (A)
                 (A) (A) (A) (A) (A) (A) (A) (A) (A) (A) (A) (A)
                 (A) (A) (A) (A) (A) (A) (A) (A) (A) (A) (A) (A)
                 (A) (A) (A) (A) (A) (A) (A) (A) (A) (A) (A) (A)
                 (A) (A) (A) (A) (A) (A) (A) (A) (A) (A) (A) (A)
                 (A) (A) (A) (A) (A) (A) (A) (A) (A) (A) (A) (A)
                 (A) (A) (A) (A) (A) (A) (A) (A) (A) (A) (A) (A)
                 (A) (A) (A) (A) (A) (A) (A) (A) (A) (A) (A) (A)
                 (A) (A) (A) (A) (A) (A) (A) (A) (A) (A) (A) (A)
                 (A) (A) (A) (A) (A) (A) (A) (A) (A) (A) (A) (A)
                 (A) (A) (A) (A) (A) (A) (A) (A) (A) (A) (A) (A)
                 (A) (A) (A) (A) (A) (A) (A) (A) (A) (A) (A) (A)
                 (A) (A) (A) (A) (A) (A) (A) (A) (A) (A) (A) (A)
                 (A) (A) (A) (A) (A) (A) (A) (A) (A) (A) (A) (A)
                 (A) (A) (A) (A) (A) (A) (A) (A) (A) (A) (A) (A)
                 (A) (A) (A) (A) (A) (A) (A) (A) (A) (A) (A) (A)
                 (A) (A) (A) (A) (A) (A) (A) (A) (A) (A) (A) (A)
                 (A) (A) (A) (A) (A) (A) (A) (A) (A) (A) (A) (A)
                 (A) (A) (A) (A) (A) (A) (A) (A) (A) (A) (A) (A)
                 (A) (A) (A) (A) (A) (A) (A) (A) (A) (A) (A) (A)
                 (A) (A) (A) (A) (A) (A) (A) (A) (A) (A) (A) (A)
                 (A) (A) (A) (A) (A) (A) (A) (A) (A) (A) (A) (A)
                 (A) (A) (A) (A) (A) (A) (A) (A) (A) (A) (A) (A)
                 (A) (A) (A) (A) (A) (A) (A) (A) (A) (A) (A) (A)
                 (A) (A) (A) (A) (A) (A) (A) (A) (A) (A) (A) (A)
                 (A) (A) (A) (A) (A) (A) (A) (A) (A) (A) (A) (A)
                 (A) (A) (A) (A) (A) (A) (A) (A) (A) (A) (A) (A)
                 (A) (A) (A) (A) (A) (A) (A) (A) (A) (A) (A) (A)
                 (A) (A) (A) (A) (A) (A) (A) (A) (A) (A) (A) (A)
                 (A) (A) (A) (A) (A) (A) (A) (A) (A) (A) (A) (A)
                 (A) (A) (A) (A) (A) (A) (A) (A) (A) (A) (A) (A)
                 (A) (A) (A) (A) (A) (A) (A) (A) (A) (A) (A) (A)
                 (A) (A) (A)
 The electronic state is 1-A.
 Alpha  occ. eigenvalues -- -145.47614 -19.18706 -19.17336 -19.15974 -19.13614
 Alpha  occ. eigenvalues --  -19.12796 -19.12741 -19.12605 -19.12245 -19.11080
 Alpha  occ. eigenvalues --  -19.11052 -19.10760 -19.10387 -19.10290 -19.10172
 Alpha  occ. eigenvalues --  -19.09487 -19.08957 -19.08934 -19.07074 -19.06914
 Alpha  occ. eigenvalues --  -19.06831 -19.06715 -19.01533 -19.01418 -15.53598
 Alpha  occ. eigenvalues --  -14.40502 -14.40383 -14.39169 -14.38754 -14.38662
 Alpha  occ. eigenvalues --  -14.36647 -14.36426 -14.36120 -14.36038 -14.35920
 Alpha  occ. eigenvalues --  -14.34577 -14.33421 -14.32755 -14.32753 -14.32088
 Alpha  occ. eigenvalues --  -12.67183 -12.67145 -12.67119 -10.32402 -10.31827
 Alpha  occ. eigenvalues --  -10.31575 -10.31138 -10.29832 -10.29789 -10.29656
 Alpha  occ. eigenvalues --  -10.29328 -10.29010 -10.28615 -10.28309 -10.27940
 Alpha  occ. eigenvalues --  -10.27506 -10.26928 -10.26705 -10.26607 -10.26165
 Alpha  occ. eigenvalues --  -10.26159 -10.26156 -10.25776 -10.25590 -10.25014
 Alpha  occ. eigenvalues --  -10.24902 -10.24558 -10.24079 -10.24006 -10.23985
 Alpha  occ. eigenvalues --  -10.23776 -10.22635 -10.21736 -10.20551 -10.20240
 Alpha  occ. eigenvalues --  -10.20127 -10.19992 -10.19976 -10.19966 -10.19919
 Alpha  occ. eigenvalues --  -10.19871 -10.19700 -10.19674 -10.19418 -10.19378
 Alpha  occ. eigenvalues --  -10.18904 -10.18902 -10.18743 -10.17996 -10.17977
 Alpha  occ. eigenvalues --  -10.17665 -10.17264 -10.16999 -10.16954 -10.16941
 Alpha  occ. eigenvalues --  -10.16196 -10.12954  -1.90450  -1.17976  -1.17599
 Alpha  occ. eigenvalues --   -1.17465  -1.07321  -1.06641  -1.06568  -1.06091
 Alpha  occ. eigenvalues --   -1.06013  -1.05523  -1.05344  -1.04751  -1.04436
 Alpha  occ. eigenvalues --   -1.04022  -1.03912  -1.03424  -1.02904  -1.02329
 Alpha  occ. eigenvalues --   -1.02037  -1.00540  -1.00513  -0.99775  -0.99099
 Alpha  occ. eigenvalues --   -0.97693  -0.96850  -0.96078  -0.95717  -0.95615
 Alpha  occ. eigenvalues --   -0.95481  -0.94559  -0.94523  -0.93791  -0.93140
 Alpha  occ. eigenvalues --   -0.92577  -0.92243  -0.91782  -0.91075  -0.90935
 Alpha  occ. eigenvalues --   -0.89779  -0.89170  -0.88669  -0.86082  -0.85480
 Alpha  occ. eigenvalues --   -0.82375  -0.82131  -0.80465  -0.80425  -0.80139
 Alpha  occ. eigenvalues --   -0.79005  -0.78973  -0.77434  -0.77100  -0.75986
 Alpha  occ. eigenvalues --   -0.75957  -0.75472  -0.75263  -0.74659  -0.73565
 Alpha  occ. eigenvalues --   -0.73375  -0.73108  -0.70784  -0.70306  -0.69572
 Alpha  occ. eigenvalues --   -0.68842  -0.68302  -0.67811  -0.67336  -0.67273
 Alpha  occ. eigenvalues --   -0.66717  -0.64669  -0.64438  -0.63550  -0.63312
 Alpha  occ. eigenvalues --   -0.63269  -0.62956  -0.62666  -0.62482  -0.62184
 Alpha  occ. eigenvalues --   -0.61630  -0.61295  -0.60711  -0.60677  -0.59783
 Alpha  occ. eigenvalues --   -0.59348  -0.59317  -0.58621  -0.58391  -0.58112
 Alpha  occ. eigenvalues --   -0.58043  -0.57833  -0.57767  -0.57237  -0.56964
 Alpha  occ. eigenvalues --   -0.56303  -0.56022  -0.55672  -0.55633  -0.55593
 Alpha  occ. eigenvalues --   -0.55501  -0.55035  -0.54762  -0.54351  -0.54051
 Alpha  occ. eigenvalues --   -0.53965  -0.53505  -0.53105  -0.52708  -0.52479
 Alpha  occ. eigenvalues --   -0.51866  -0.51753  -0.51019  -0.50863  -0.50201
 Alpha  occ. eigenvalues --   -0.50074  -0.49902  -0.49667  -0.49591  -0.49236
 Alpha  occ. eigenvalues --   -0.49168  -0.48881  -0.48834  -0.48693  -0.48557
 Alpha  occ. eigenvalues --   -0.48548  -0.48036  -0.47554  -0.47164  -0.47041
 Alpha  occ. eigenvalues --   -0.46676  -0.46467  -0.46298  -0.46008  -0.45878
 Alpha  occ. eigenvalues --   -0.45718  -0.45630  -0.45604  -0.45348  -0.45263
 Alpha  occ. eigenvalues --   -0.45171  -0.44721  -0.44505  -0.44376  -0.44315
 Alpha  occ. eigenvalues --   -0.44230  -0.44152  -0.43932  -0.43794  -0.43662
 Alpha  occ. eigenvalues --   -0.43646  -0.43417  -0.43392  -0.43218  -0.43092
 Alpha  occ. eigenvalues --   -0.43055  -0.42765  -0.42471  -0.42342  -0.42310
 Alpha  occ. eigenvalues --   -0.42205  -0.42129  -0.41902  -0.41824  -0.41612
 Alpha  occ. eigenvalues --   -0.41420  -0.41244  -0.41198  -0.41102  -0.40955
 Alpha  occ. eigenvalues --   -0.40777  -0.40660  -0.40592  -0.40491  -0.40099
 Alpha  occ. eigenvalues --   -0.40028  -0.39959  -0.39950  -0.39837  -0.39508
 Alpha  occ. eigenvalues --   -0.39388  -0.39123  -0.38971  -0.38776  -0.38679
 Alpha  occ. eigenvalues --   -0.38660  -0.38436  -0.38229  -0.38160  -0.38076
 Alpha  occ. eigenvalues --   -0.37919  -0.37767  -0.37593  -0.37471  -0.37172
 Alpha  occ. eigenvalues --   -0.37158  -0.36674  -0.36594  -0.36481  -0.36479
 Alpha  occ. eigenvalues --   -0.36433  -0.36370  -0.36117  -0.35910  -0.35846
 Alpha  occ. eigenvalues --   -0.35548  -0.35466  -0.35410  -0.35363  -0.34711
 Alpha  occ. eigenvalues --   -0.34397  -0.33889  -0.33722  -0.33710  -0.33647
 Alpha  occ. eigenvalues --   -0.33538  -0.33523  -0.32453  -0.32314  -0.31576
 Alpha  occ. eigenvalues --   -0.31461  -0.31031  -0.30865  -0.30829  -0.30525
 Alpha  occ. eigenvalues --   -0.30262  -0.30061  -0.29859  -0.29581  -0.29183
 Alpha  occ. eigenvalues --   -0.28910  -0.28901  -0.28864  -0.28785  -0.28440
 Alpha  occ. eigenvalues --   -0.28011  -0.27727  -0.27604  -0.27211  -0.26961
 Alpha  occ. eigenvalues --   -0.26915  -0.26557  -0.26465  -0.26370  -0.26331
 Alpha  occ. eigenvalues --   -0.25760  -0.25660  -0.25293  -0.25082  -0.24933
 Alpha  occ. eigenvalues --   -0.24792  -0.24366  -0.23998  -0.23780  -0.23220
 Alpha  occ. eigenvalues --   -0.23046  -0.22858  -0.22808  -0.21834  -0.21276
 Alpha  occ. eigenvalues --   -0.18191  -0.17479  -0.14964
 Alpha virt. eigenvalues --   -0.14078  -0.03320  -0.03002  -0.02702  -0.02279
 Alpha virt. eigenvalues --   -0.01373  -0.01214  -0.01041  -0.00535  -0.00416
 Alpha virt. eigenvalues --    0.00001   0.00106   0.00768   0.01085   0.01251
 Alpha virt. eigenvalues --    0.01457   0.01555   0.01677   0.02224   0.02511
 Alpha virt. eigenvalues --    0.02634   0.03018   0.03494   0.03790   0.03946
 Alpha virt. eigenvalues --    0.04169   0.04315   0.04519   0.04700   0.05204
 Alpha virt. eigenvalues --    0.05265   0.05363   0.06239   0.06387   0.06664
 Alpha virt. eigenvalues --    0.06925   0.07170   0.07573   0.07899   0.08009
 Alpha virt. eigenvalues --    0.08046   0.08146   0.08428   0.08624   0.08830
 Alpha virt. eigenvalues --    0.09243   0.09350   0.09462   0.09635   0.09798
 Alpha virt. eigenvalues --    0.10048   0.10218   0.10412   0.10906   0.11126
 Alpha virt. eigenvalues --    0.11196   0.11354   0.11517   0.11748   0.11943
 Alpha virt. eigenvalues --    0.12040   0.12147   0.12222   0.12339   0.12391
 Alpha virt. eigenvalues --    0.12594   0.12693   0.12814   0.13013   0.13168
 Alpha virt. eigenvalues --    0.13409   0.13502   0.13601   0.13780   0.13964
 Alpha virt. eigenvalues --    0.14092   0.14384   0.14446   0.14592   0.14706
 Alpha virt. eigenvalues --    0.14895   0.15070   0.15205   0.15357   0.15524
 Alpha virt. eigenvalues --    0.15788   0.15837   0.15964   0.16241   0.16341
 Alpha virt. eigenvalues --    0.16523   0.16600   0.16798   0.17025   0.17148
 Alpha virt. eigenvalues --    0.17203   0.17346   0.17503   0.17579   0.17649
 Alpha virt. eigenvalues --    0.18094   0.18191   0.18238   0.18379   0.18554
 Alpha virt. eigenvalues --    0.18943   0.19061   0.19176   0.19636   0.19685
 Alpha virt. eigenvalues --    0.19870   0.20211   0.20393   0.20576   0.20750
 Alpha virt. eigenvalues --    0.20968   0.21305   0.21405   0.21427   0.21543
 Alpha virt. eigenvalues --    0.21749   0.21958   0.22357   0.22454   0.22489
 Alpha virt. eigenvalues --    0.22704   0.22819   0.22864   0.23282   0.23380
 Alpha virt. eigenvalues --    0.23511   0.23811   0.24007   0.24170   0.24286
 Alpha virt. eigenvalues --    0.24344   0.24752   0.25013   0.25196   0.25362
 Alpha virt. eigenvalues --    0.25539   0.25947   0.26163   0.26439   0.26520
 Alpha virt. eigenvalues --    0.26856   0.26901   0.27469   0.27608   0.27723
 Alpha virt. eigenvalues --    0.28011   0.28134   0.28453   0.28942   0.29043
 Alpha virt. eigenvalues --    0.29140   0.29324   0.29494   0.29978   0.30114
 Alpha virt. eigenvalues --    0.30220   0.30473   0.30604   0.30956   0.31236
 Alpha virt. eigenvalues --    0.31816   0.32012   0.32210   0.32493   0.32628
 Alpha virt. eigenvalues --    0.33078   0.33639   0.34020   0.34118   0.34584
 Alpha virt. eigenvalues --    0.34673   0.35123   0.35446   0.35733   0.35830
 Alpha virt. eigenvalues --    0.36283   0.36375   0.36826   0.37419   0.37460
 Alpha virt. eigenvalues --    0.37988   0.38190   0.38336   0.38548   0.38669
 Alpha virt. eigenvalues --    0.39475   0.39697   0.40028   0.40376   0.40463
 Alpha virt. eigenvalues --    0.40880   0.41064   0.41245   0.41498   0.41692
 Alpha virt. eigenvalues --    0.41824   0.42030   0.42090   0.42305   0.42509
 Alpha virt. eigenvalues --    0.42742   0.42763   0.43016   0.43272   0.43532
 Alpha virt. eigenvalues --    0.43764   0.43954   0.44047   0.44331   0.44572
 Alpha virt. eigenvalues --    0.44787   0.44830   0.45070   0.45508   0.45572
 Alpha virt. eigenvalues --    0.45680   0.45727   0.45837   0.46048   0.46132
 Alpha virt. eigenvalues --    0.46394   0.46586   0.46782   0.46942   0.47098
 Alpha virt. eigenvalues --    0.47487   0.47724   0.47957   0.48114   0.48272
 Alpha virt. eigenvalues --    0.48570   0.48708   0.48812   0.49151   0.49182
 Alpha virt. eigenvalues --    0.49641   0.49752   0.49883   0.50268   0.50339
 Alpha virt. eigenvalues --    0.50683   0.50994   0.51328   0.51393   0.51597
 Alpha virt. eigenvalues --    0.51641   0.51879   0.52090   0.52243   0.52490
 Alpha virt. eigenvalues --    0.52698   0.52781   0.52965   0.53010   0.53233
 Alpha virt. eigenvalues --    0.53704   0.53946   0.54111   0.54219   0.54507
 Alpha virt. eigenvalues --    0.54529   0.54911   0.55103   0.55198   0.55373
 Alpha virt. eigenvalues --    0.55508   0.55604   0.55918   0.55993   0.56209
 Alpha virt. eigenvalues --    0.56361   0.56460   0.56541   0.56998   0.57166
 Alpha virt. eigenvalues --    0.57343   0.57559   0.57706   0.57810   0.58070
 Alpha virt. eigenvalues --    0.58101   0.58251   0.58329   0.58850   0.59030
 Alpha virt. eigenvalues --    0.59224   0.59399   0.59639   0.59752   0.59938
 Alpha virt. eigenvalues --    0.59992   0.60073   0.60238   0.60309   0.60336
 Alpha virt. eigenvalues --    0.60586   0.60809   0.60916   0.61000   0.61191
 Alpha virt. eigenvalues --    0.61423   0.61487   0.61579   0.61640   0.61815
 Alpha virt. eigenvalues --    0.61962   0.62013   0.62102   0.62286   0.62367
 Alpha virt. eigenvalues --    0.62412   0.62622   0.62650   0.62833   0.63197
 Alpha virt. eigenvalues --    0.63308   0.63372   0.63528   0.63549   0.63664
 Alpha virt. eigenvalues --    0.63791   0.63986   0.64021   0.64224   0.64290
 Alpha virt. eigenvalues --    0.64467   0.64630   0.64863   0.64945   0.65103
 Alpha virt. eigenvalues --    0.65239   0.65329   0.65456   0.65572   0.65879
 Alpha virt. eigenvalues --    0.65985   0.66032   0.66109   0.66257   0.66308
 Alpha virt. eigenvalues --    0.66404   0.66500   0.66698   0.66742   0.66768
 Alpha virt. eigenvalues --    0.66923   0.67087   0.67166   0.67310   0.67351
 Alpha virt. eigenvalues --    0.67513   0.67567   0.67589   0.67705   0.67801
 Alpha virt. eigenvalues --    0.67867   0.67980   0.68099   0.68118   0.68311
 Alpha virt. eigenvalues --    0.68387   0.68601   0.68670   0.68707   0.68827
 Alpha virt. eigenvalues --    0.68914   0.69186   0.69212   0.69319   0.69410
 Alpha virt. eigenvalues --    0.69490   0.69735   0.69817   0.69962   0.70046
 Alpha virt. eigenvalues --    0.70113   0.70336   0.70554   0.70644   0.70816
 Alpha virt. eigenvalues --    0.71059   0.71212   0.71342   0.71541   0.71694
 Alpha virt. eigenvalues --    0.71815   0.71932   0.72008   0.72246   0.72305
 Alpha virt. eigenvalues --    0.72551   0.72608   0.72861   0.73080   0.73241
 Alpha virt. eigenvalues --    0.73615   0.73751   0.73944   0.74115   0.74271
 Alpha virt. eigenvalues --    0.74554   0.74681   0.74940   0.74967   0.75109
 Alpha virt. eigenvalues --    0.75228   0.75452   0.75556   0.75767   0.75956
 Alpha virt. eigenvalues --    0.76140   0.76404   0.76708   0.76953   0.77079
 Alpha virt. eigenvalues --    0.77167   0.77315   0.77558   0.77628   0.77982
 Alpha virt. eigenvalues --    0.78180   0.78307   0.78522   0.79152   0.79444
 Alpha virt. eigenvalues --    0.79766   0.80330   0.80709   0.80875   0.80968
 Alpha virt. eigenvalues --    0.81219   0.81359   0.81894   0.81918   0.82122
 Alpha virt. eigenvalues --    0.82251   0.82463   0.82479   0.83169   0.83365
 Alpha virt. eigenvalues --    0.83493   0.83685   0.83980   0.84347   0.84669
 Alpha virt. eigenvalues --    0.84939   0.85513   0.85635   0.86084   0.86240
 Alpha virt. eigenvalues --    0.86331   0.86469   0.86672   0.86917   0.87074
 Alpha virt. eigenvalues --    0.87428   0.87673   0.87837   0.88012   0.88278
 Alpha virt. eigenvalues --    0.88785   0.89032   0.89197   0.89606   0.89980
 Alpha virt. eigenvalues --    0.90196   0.90379   0.90638   0.91223   0.91842
 Alpha virt. eigenvalues --    0.92202   0.92484   0.92783   0.92973   0.93354
 Alpha virt. eigenvalues --    0.93932   0.93980   0.94245   0.94628   0.94893
 Alpha virt. eigenvalues --    0.95068   0.95196   0.95337   0.95633   0.95988
 Alpha virt. eigenvalues --    0.96087   0.96271   0.96414   0.97069   0.97448
 Alpha virt. eigenvalues --    0.97455   0.97613   0.98072   0.98176   0.98750
 Alpha virt. eigenvalues --    0.98886   0.99578   0.99638   0.99890   0.99991
 Alpha virt. eigenvalues --    1.00150   1.00268   1.00733   1.00931   1.01008
 Alpha virt. eigenvalues --    1.01459   1.01529   1.01881   1.02268   1.02351
 Alpha virt. eigenvalues --    1.02719   1.02899   1.03149   1.03430   1.03577
 Alpha virt. eigenvalues --    1.03946   1.04309   1.04777   1.05025   1.05207
 Alpha virt. eigenvalues --    1.05336   1.05610   1.05800   1.05888   1.06556
 Alpha virt. eigenvalues --    1.06815   1.07021   1.07166   1.07349   1.07489
 Alpha virt. eigenvalues --    1.07933   1.08047   1.08688   1.08794   1.09344
 Alpha virt. eigenvalues --    1.09445   1.09816   1.09873   1.09982   1.10628
 Alpha virt. eigenvalues --    1.11046   1.11571   1.11889   1.12033   1.12161
 Alpha virt. eigenvalues --    1.12704   1.13011   1.13321   1.13456   1.13615
 Alpha virt. eigenvalues --    1.14050   1.14154   1.14443   1.14773   1.14984
 Alpha virt. eigenvalues --    1.15111   1.15549   1.15780   1.16002   1.16389
 Alpha virt. eigenvalues --    1.16687   1.17042   1.17139   1.17506   1.18020
 Alpha virt. eigenvalues --    1.18318   1.18615   1.18757   1.19067   1.19219
 Alpha virt. eigenvalues --    1.19719   1.19800   1.19895   1.20135   1.20233
 Alpha virt. eigenvalues --    1.20474   1.20752   1.20999   1.21530   1.21587
 Alpha virt. eigenvalues --    1.21746   1.22008   1.22349   1.22840   1.22913
 Alpha virt. eigenvalues --    1.23203   1.23362   1.23668   1.23941   1.23960
 Alpha virt. eigenvalues --    1.24139   1.24342   1.24544   1.24705   1.25000
 Alpha virt. eigenvalues --    1.25184   1.25454   1.25633   1.25946   1.26282
 Alpha virt. eigenvalues --    1.26345   1.26691   1.26920   1.27201   1.27413
 Alpha virt. eigenvalues --    1.27910   1.27969   1.28230   1.28708   1.28929
 Alpha virt. eigenvalues --    1.29282   1.29836   1.30426   1.30488   1.30832
 Alpha virt. eigenvalues --    1.30903   1.31048   1.31320   1.31575   1.31824
 Alpha virt. eigenvalues --    1.32208   1.32506   1.32743   1.33242   1.33484
 Alpha virt. eigenvalues --    1.34061   1.34253   1.34308   1.34500   1.35115
 Alpha virt. eigenvalues --    1.35331   1.35509   1.35656   1.35988   1.36198
 Alpha virt. eigenvalues --    1.36714   1.36962   1.37143   1.37557   1.37831
 Alpha virt. eigenvalues --    1.37969   1.38279   1.38602   1.39042   1.39434
 Alpha virt. eigenvalues --    1.39782   1.40130   1.40445   1.40586   1.40941
 Alpha virt. eigenvalues --    1.41212   1.41575   1.42132   1.42327   1.42533
 Alpha virt. eigenvalues --    1.42708   1.42866   1.43047   1.43289   1.43576
 Alpha virt. eigenvalues --    1.43992   1.44162   1.44858   1.44960   1.45083
 Alpha virt. eigenvalues --    1.45168   1.45491   1.45859   1.46462   1.46604
 Alpha virt. eigenvalues --    1.47056   1.47292   1.47393   1.47583   1.48450
 Alpha virt. eigenvalues --    1.48647   1.49099   1.49378   1.49486   1.49753
 Alpha virt. eigenvalues --    1.50499   1.50580   1.50728   1.51236   1.52042
 Alpha virt. eigenvalues --    1.52133   1.52353   1.52431   1.53145   1.53464
 Alpha virt. eigenvalues --    1.53787   1.53845   1.54230   1.54360   1.54649
 Alpha virt. eigenvalues --    1.54840   1.55136   1.55201   1.55490   1.55617
 Alpha virt. eigenvalues --    1.56001   1.56657   1.57466   1.58037   1.58336
 Alpha virt. eigenvalues --    1.58949   1.59140   1.59326   1.59493   1.59728
 Alpha virt. eigenvalues --    1.60102   1.60847   1.61174   1.61765   1.61932
 Alpha virt. eigenvalues --    1.62635   1.62731   1.62966   1.63256   1.63667
 Alpha virt. eigenvalues --    1.63763   1.63951   1.64599   1.65218   1.65460
 Alpha virt. eigenvalues --    1.65570   1.65881   1.65917   1.66172   1.66427
 Alpha virt. eigenvalues --    1.66547   1.66771   1.67075   1.67561   1.68051
 Alpha virt. eigenvalues --    1.68325   1.68420   1.68806   1.68839   1.69525
 Alpha virt. eigenvalues --    1.69907   1.70089   1.70217   1.70483   1.70765
 Alpha virt. eigenvalues --    1.70832   1.71345   1.71673   1.71736   1.71914
 Alpha virt. eigenvalues --    1.72054   1.72261   1.72302   1.72640   1.72913
 Alpha virt. eigenvalues --    1.73204   1.73493   1.74054   1.74118   1.74267
 Alpha virt. eigenvalues --    1.74557   1.74850   1.75205   1.75411   1.75533
 Alpha virt. eigenvalues --    1.75654   1.75766   1.75859   1.76013   1.76097
 Alpha virt. eigenvalues --    1.76183   1.76520   1.76646   1.76938   1.76973
 Alpha virt. eigenvalues --    1.77214   1.77258   1.77429   1.77624   1.77740
 Alpha virt. eigenvalues --    1.77842   1.77998   1.78103   1.78318   1.78489
 Alpha virt. eigenvalues --    1.78665   1.79020   1.79078   1.79306   1.79452
 Alpha virt. eigenvalues --    1.79625   1.80061   1.80137   1.80191   1.80400
 Alpha virt. eigenvalues --    1.80531   1.80656   1.80878   1.80937   1.81030
 Alpha virt. eigenvalues --    1.81358   1.81548   1.81634   1.81823   1.81898
 Alpha virt. eigenvalues --    1.82058   1.82319   1.82520   1.82534   1.82650
 Alpha virt. eigenvalues --    1.82764   1.82889   1.83124   1.83213   1.83612
 Alpha virt. eigenvalues --    1.83774   1.84101   1.84226   1.84539   1.84713
 Alpha virt. eigenvalues --    1.84983   1.85175   1.85348   1.85494   1.85641
 Alpha virt. eigenvalues --    1.85769   1.85898   1.86090   1.86401   1.86524
 Alpha virt. eigenvalues --    1.86602   1.86728   1.86797   1.86882   1.87159
 Alpha virt. eigenvalues --    1.87316   1.87452   1.87586   1.87871   1.87936
 Alpha virt. eigenvalues --    1.87987   1.88434   1.88619   1.88737   1.88916
 Alpha virt. eigenvalues --    1.89407   1.89633   1.89695   1.89896   1.90196
 Alpha virt. eigenvalues --    1.90219   1.90521   1.90599   1.91119   1.91484
 Alpha virt. eigenvalues --    1.91598   1.91950   1.92072   1.92367   1.92617
 Alpha virt. eigenvalues --    1.92654   1.92860   1.93133   1.93564   1.93786
 Alpha virt. eigenvalues --    1.93806   1.94054   1.94262   1.94459   1.94641
 Alpha virt. eigenvalues --    1.94922   1.95128   1.95367   1.95509   1.95676
 Alpha virt. eigenvalues --    1.96051   1.96424   1.96686   1.96768   1.96876
 Alpha virt. eigenvalues --    1.97102   1.97332   1.97468   1.97605   1.98092
 Alpha virt. eigenvalues --    1.98107   1.98330   1.98701   1.98799   1.99068
 Alpha virt. eigenvalues --    1.99575   1.99806   1.99922   2.00042   2.00328
 Alpha virt. eigenvalues --    2.00710   2.00741   2.00886   2.01093   2.01643
 Alpha virt. eigenvalues --    2.01717   2.02014   2.02153   2.02608   2.02883
 Alpha virt. eigenvalues --    2.02991   2.03130   2.03551   2.03760   2.04037
 Alpha virt. eigenvalues --    2.04195   2.04603   2.04729   2.05120   2.05512
 Alpha virt. eigenvalues --    2.05573   2.06232   2.06284   2.06640   2.06839
 Alpha virt. eigenvalues --    2.06966   2.07086   2.07228   2.07795   2.08082
 Alpha virt. eigenvalues --    2.08664   2.08727   2.09052   2.09261   2.09529
 Alpha virt. eigenvalues --    2.09961   2.10117   2.10193   2.10529   2.10672
 Alpha virt. eigenvalues --    2.10860   2.11176   2.11355   2.11465   2.11754
 Alpha virt. eigenvalues --    2.11936   2.12229   2.12341   2.12665   2.12781
 Alpha virt. eigenvalues --    2.13307   2.13542   2.13745   2.14112   2.14194
 Alpha virt. eigenvalues --    2.14755   2.14771   2.14922   2.15382   2.15949
 Alpha virt. eigenvalues --    2.16150   2.16406   2.16434   2.16485   2.16639
 Alpha virt. eigenvalues --    2.17042   2.17665   2.17974   2.18247   2.18431
 Alpha virt. eigenvalues --    2.18596   2.19042   2.19449   2.19641   2.19829
 Alpha virt. eigenvalues --    2.20035   2.20617   2.20751   2.20885   2.21057
 Alpha virt. eigenvalues --    2.21110   2.21953   2.22061   2.22538   2.22873
 Alpha virt. eigenvalues --    2.23058   2.23206   2.23771   2.23969   2.24090
 Alpha virt. eigenvalues --    2.24346   2.24718   2.25347   2.25734   2.26046
 Alpha virt. eigenvalues --    2.26178   2.26433   2.27023   2.27218   2.27458
 Alpha virt. eigenvalues --    2.27610   2.27926   2.28736   2.28833   2.29375
 Alpha virt. eigenvalues --    2.29397   2.29707   2.30034   2.30364   2.30780
 Alpha virt. eigenvalues --    2.31284   2.31599   2.31949   2.32198   2.32925
 Alpha virt. eigenvalues --    2.33115   2.33269   2.33800   2.34141   2.34236
 Alpha virt. eigenvalues --    2.34416   2.34730   2.34823   2.35490   2.35905
 Alpha virt. eigenvalues --    2.36133   2.36246   2.36454   2.36572   2.37406
 Alpha virt. eigenvalues --    2.37571   2.37898   2.38284   2.38593   2.38959
 Alpha virt. eigenvalues --    2.39193   2.39381   2.40297   2.40592   2.40865
 Alpha virt. eigenvalues --    2.41442   2.41775   2.42088   2.42662   2.42814
 Alpha virt. eigenvalues --    2.42992   2.43262   2.43715   2.43866   2.44466
 Alpha virt. eigenvalues --    2.44924   2.45399   2.45875   2.46190   2.46855
 Alpha virt. eigenvalues --    2.47510   2.47554   2.47681   2.47845   2.48522
 Alpha virt. eigenvalues --    2.48552   2.49610   2.49720   2.49774   2.50173
 Alpha virt. eigenvalues --    2.50656   2.51063   2.51278   2.51704   2.52049
 Alpha virt. eigenvalues --    2.52372   2.52563   2.53459   2.53665   2.53794
 Alpha virt. eigenvalues --    2.54456   2.54629   2.55055   2.55208   2.55471
 Alpha virt. eigenvalues --    2.55797   2.56060   2.56267   2.56709   2.56763
 Alpha virt. eigenvalues --    2.57495   2.57893   2.57979   2.58207   2.58408
 Alpha virt. eigenvalues --    2.58514   2.58649   2.59053   2.59408   2.59527
 Alpha virt. eigenvalues --    2.59702   2.59749   2.59842   2.60719   2.60927
 Alpha virt. eigenvalues --    2.60941   2.60986   2.61417   2.61666   2.61841
 Alpha virt. eigenvalues --    2.61966   2.62578   2.62797   2.63245   2.63798
 Alpha virt. eigenvalues --    2.64551   2.65105   2.65110   2.65261   2.65685
 Alpha virt. eigenvalues --    2.65722   2.66170   2.66261   2.66782   2.66884
 Alpha virt. eigenvalues --    2.66933   2.67109   2.67268   2.67698   2.68086
 Alpha virt. eigenvalues --    2.68452   2.68686   2.69007   2.69205   2.69366
 Alpha virt. eigenvalues --    2.69771   2.70748   2.70834   2.71023   2.71077
 Alpha virt. eigenvalues --    2.71532   2.71654   2.71941   2.72202   2.72265
 Alpha virt. eigenvalues --    2.72471   2.72879   2.72963   2.73156   2.73396
 Alpha virt. eigenvalues --    2.73510   2.73799   2.74177   2.74243   2.74531
 Alpha virt. eigenvalues --    2.74695   2.74875   2.75431   2.75647   2.76206
 Alpha virt. eigenvalues --    2.76271   2.76413   2.77133   2.77273   2.77597
 Alpha virt. eigenvalues --    2.77998   2.78227   2.78272   2.78749   2.78808
 Alpha virt. eigenvalues --    2.79165   2.79313   2.79866   2.80205   2.80721
 Alpha virt. eigenvalues --    2.80934   2.81282   2.81460   2.81782   2.82522
 Alpha virt. eigenvalues --    2.82708   2.82860   2.83231   2.83763   2.83851
 Alpha virt. eigenvalues --    2.84312   2.84476   2.84906   2.85068   2.85365
 Alpha virt. eigenvalues --    2.85465   2.86224   2.86483   2.86667   2.87180
 Alpha virt. eigenvalues --    2.87726   2.88259   2.88661   2.88871   2.89472
 Alpha virt. eigenvalues --    2.89502   2.89736   2.90168   2.90450   2.90697
 Alpha virt. eigenvalues --    2.90860   2.91359   2.91795   2.92124   2.92269
 Alpha virt. eigenvalues --    2.93021   2.93585   2.93921   2.93966   2.94089
 Alpha virt. eigenvalues --    2.94276   2.94447   2.94779   2.95237   2.95272
 Alpha virt. eigenvalues --    2.95619   2.95786   2.95871   2.96062   2.96180
 Alpha virt. eigenvalues --    2.96680   2.97173   2.97329   2.97486   2.97749
 Alpha virt. eigenvalues --    2.98066   2.98629   2.98829   2.99239   2.99511
 Alpha virt. eigenvalues --    2.99640   2.99930   3.00782   3.00831   3.01209
 Alpha virt. eigenvalues --    3.01716   3.02127   3.02345   3.02855   3.03249
 Alpha virt. eigenvalues --    3.03641   3.04020   3.04612   3.04947   3.05225
 Alpha virt. eigenvalues --    3.05390   3.05886   3.06434   3.06703   3.06859
 Alpha virt. eigenvalues --    3.07023   3.07571   3.08578   3.08923   3.09354
 Alpha virt. eigenvalues --    3.10164   3.10473   3.10567   3.11157   3.11324
 Alpha virt. eigenvalues --    3.11530   3.11621   3.12170   3.12603   3.12904
 Alpha virt. eigenvalues --    3.13165   3.13361   3.13706   3.13775   3.14271
 Alpha virt. eigenvalues --    3.14507   3.15928   3.16045   3.16273   3.16559
 Alpha virt. eigenvalues --    3.17017   3.17222   3.17471   3.17732   3.18088
 Alpha virt. eigenvalues --    3.18560   3.18832   3.19111   3.19283   3.19519
 Alpha virt. eigenvalues --    3.19764   3.19834   3.20775   3.21533   3.21809
 Alpha virt. eigenvalues --    3.22095   3.22520   3.22739   3.23179   3.23637
 Alpha virt. eigenvalues --    3.23784   3.24432   3.24449   3.24674   3.25286
 Alpha virt. eigenvalues --    3.26302   3.27324   3.27535   3.28417   3.29293
 Alpha virt. eigenvalues --    3.30834   3.31136   3.32396   3.32795   3.33475
 Alpha virt. eigenvalues --    3.33820   3.34493   3.36717   3.36810   3.40120
 Alpha virt. eigenvalues --    3.41599   3.43432   3.44673   3.46969   3.48574
 Alpha virt. eigenvalues --    3.49316   3.51423   3.53000   3.53544   3.53892
 Alpha virt. eigenvalues --    3.54248   3.55860   3.56758   3.58020   3.58056
 Alpha virt. eigenvalues --    3.58819   3.58980   3.59929   3.59999   3.60895
 Alpha virt. eigenvalues --    3.61937   3.63089   3.64756   3.64990   3.66145
 Alpha virt. eigenvalues --    3.66589   3.67028   3.67930   3.68283   3.69221
 Alpha virt. eigenvalues --    3.69253   3.69591   3.69945   3.70450   3.70781
 Alpha virt. eigenvalues --    3.71263   3.71705   3.71766   3.73160   3.73700
 Alpha virt. eigenvalues --    3.76702   3.78688   3.78718   3.79846
          Condensed to atoms (all electrons):
 Mulliken charges:
               1
     1  C    0.050285
     2  C    0.057334
     3  O   -0.302346
     4  H    0.013898
     5  H    0.032926
     6  H    0.029135
     7  N   -0.104448
     8  C    0.085251
     9  C    0.070990
    10  O   -0.263840
    11  C    0.067530
    12  C    0.037486
    13  O   -0.298203
    14  O   -0.323083
    15  H    0.130134
    16  H   -0.013235
    17  H    0.006278
    18  H   -0.020027
    19  N   -0.150961
    20  C    0.117284
    21  C    0.092409
    22  O   -0.267798
    23  C    0.049873
    24  C   -0.040723
    25  C   -0.050916
    26  C    0.075366
    27  N    0.041840
    28  H    0.140862
    29  H    0.004139
    30  H    0.013515
    31  H    0.008508
    32  H   -0.001238
    33  H    0.030814
    34  H    0.034913
    35  H    0.035082
    36  H    0.064259
    37  H    0.039806
    38  H    0.145047
    39  H    0.164516
    40  H    0.136281
    41  N   -0.143541
    42  C    0.050495
    43  C    0.105156
    44  O   -0.319850
    45  C    0.187465
    46  C    0.116985
    47  O   -0.470397
    48  O   -0.384967
    49  H    0.137114
    50  H    0.015979
    51  H    0.031714
    52  H   -0.033248
    53  N   -0.103222
    54  C    0.168253
    55  C    0.076130
    56  O   -0.277805
    57  H    0.124310
    58  H    0.026448
    59  H    0.053973
    60  N   -0.146308
    61  C    0.051422
    62  C    0.085218
    63  O   -0.307868
    64  C    0.098461
    65  C    0.042410
    66  N   -0.043994
    67  O   -0.267043
    68  H    0.123626
    69  H    0.020715
    70  H    0.072702
    71  H    0.023349
    72  H    0.097628
    73  H    0.106052
    74  N   -0.120220
    75  C    0.186585
    76  C    0.074978
    77  O   -0.251703
    78  H    0.117756
    79  H    0.008586
    80  H    0.032827
    81  N   -0.158871
    82  C    0.066281
    83  C    0.077291
    84  O   -0.285624
    85  C    0.202173
    86  C   -0.043732
    87  C   -0.005908
    88  C    0.000119
    89  C   -0.049345
    90  C   -0.060929
    91  C    0.190480
    92  O   -0.192264
    93  H    0.137356
    94  H    0.014830
    95  H    0.011833
    96  H    0.024080
    97  H   -0.038349
    98  H   -0.015696
    99  H   -0.024648
   100  H   -0.040274
   101  H    0.174942
   102  N   -0.115200
   103  C    0.214417
   104  C    0.029339
   105  O   -0.277946
   106  C   -0.138473
   107  C    0.034777
   108  C    0.054842
   109  C    0.005894
   110  H    0.130438
   111  H   -0.006124
   112  H   -0.005208
   113  H    0.003659
   114  H   -0.004388
   115  H    0.009825
   116  H   -0.033281
   117  H    0.038060
   118  H    0.032235
   119  H   -0.020071
   120  H    0.035693
   121  N   -0.145197
   122  C    0.158052
   123  C    0.029296
   124  O   -0.283348
   125  C    0.199582
   126  O   -0.297894
   127  H    0.150541
   128  H    0.010731
   129  H    0.010141
   130  H    0.016630
   131  H    0.163750
   132  N   -0.128704
   133  C    0.051571
   134  C    0.107013
   135  O   -0.292869
   136  C    0.068959
   137  H    0.127456
   138  H    0.017729
   139  H    0.013521
   140  H    0.033822
   141  H   -0.010258
   142  N   -0.109517
   143  C    0.097704
   144  C    0.047881
   145  O   -0.282033
   146  C    0.030997
   147  H    0.152399
   148  H   -0.011552
   149  H    0.050884
   150  H    0.002494
   151  H    0.033360
   152  N   -0.148852
   153  C    0.149091
   154  C    0.066199
   155  O   -0.295305
   156  C   -0.017653
   157  C    0.080427
   158  C    0.126225
   159  O   -0.379476
   160  O   -0.474307
   161  H    0.114629
   162  H    0.017208
   163  H    0.023375
   164  H    0.031642
   165  H    0.015573
   166  H   -0.009890
   167  N   -0.138422
   168  C    0.125834
   169  H    0.028421
   170  H    0.013155
   171  H    0.044803
   172  H    0.116124
   173  Ca   1.171777
   174  O   -0.311347
   175  H    0.185691
   176  H    0.174594
 Sum of Mulliken charges =  -0.00000
 Mulliken charges with hydrogens summed into heavy atoms:
               1
     1  C    0.126244
     2  C    0.057334
     3  O   -0.302346
     7  N    0.025686
     8  C    0.072016
     9  C    0.070990
    10  O   -0.263840
    11  C    0.053781
    12  C    0.037486
    13  O   -0.298203
    14  O   -0.323083
    19  N   -0.010099
    20  C    0.121422
    21  C    0.092409
    22  O   -0.267798
    23  C    0.071896
    24  C   -0.011147
    25  C    0.019080
    26  C    0.179430
    27  N    0.487683
    41  N   -0.006428
    42  C    0.066474
    43  C    0.105156
    44  O   -0.319850
    45  C    0.185930
    46  C    0.116985
    47  O   -0.470397
    48  O   -0.384967
    53  N    0.021089
    54  C    0.248674
    55  C    0.076130
    56  O   -0.277805
    60  N   -0.022682
    61  C    0.072137
    62  C    0.085218
    63  O   -0.307868
    64  C    0.194512
    65  C    0.042410
    66  N    0.159687
    67  O   -0.267043
    74  N   -0.002464
    75  C    0.227998
    76  C    0.074978
    77  O   -0.251703
    81  N   -0.021515
    82  C    0.081112
    83  C    0.077291
    84  O   -0.285624
    85  C    0.238085
    86  C   -0.043732
    87  C   -0.044257
    88  C   -0.015578
    89  C   -0.073993
    90  C   -0.101203
    91  C    0.190480
    92  O   -0.017322
   102  N    0.015239
   103  C    0.208294
   104  C    0.029339
   105  O   -0.277946
   106  C   -0.143681
   107  C    0.034048
   108  C    0.069446
   109  C    0.053751
   121  N    0.005344
   122  C    0.168783
   123  C    0.029296
   124  O   -0.283348
   125  C    0.226353
   126  O   -0.134143
   132  N   -0.001247
   133  C    0.069300
   134  C    0.107013
   135  O   -0.292869
   136  C    0.106044
   142  N    0.042881
   143  C    0.086152
   144  C    0.047881
   145  O   -0.282033
   146  C    0.117735
   152  N   -0.034224
   153  C    0.166299
   154  C    0.066199
   155  O   -0.295305
   156  C    0.037364
   157  C    0.086110
   158  C    0.126225
   159  O   -0.379476
   160  O   -0.474307
   167  N   -0.022298
   168  C    0.212212
   173  Ca   1.171777
   174  O    0.048938
 DipInt: DoE/N= T F RetVal/Mat= T F Init=T NMatP=  1 IDeriv=0 Min/MaxMlt=  0  4
 Entering OneElI...
 OneElI was handed  1333951383 working-precision words.
 Multipole integrals L=0 to 4 MinM= 0 MaxM= 0.
 Requested accuracy = 0.1000D-12
 ShPair: Thresh= 1.00D-13 NBox=     0 BxSize= 0.00D+00 RnKept= 3.20D+01
         NSMCal=               327645 NSMKep=              142056
 PrmmSu-InSpLW:  IPartL=    0 NPrtUS=    1 NPrtUL=    1 DoSpLW=F IThBeg=    0 IThEnd=    0 NThAct=    1.
 PrsmSu:  NPrtUS=   1 ThrOK=F IAlg=1 NPAlg=1 LenDen=           0 ISkipM=0 DoSpLW=F IThBeg=    0 IThEnd=    0.
 Prism:   IPart=     0 DynPar=F LinDyn=F Incr=         512.
 PRISM was handed  1324599351 working-precision words and142056 shell-pairs
 IPart=  0 NShTot=      142056 NBatch=         328 AvBLen=       433.1
 PrsmSu-ThDecC:  IPartSL=    0    0 NPrtUSL=    1    1 IThBeg=    0 IThEnd=    0 CPU=   -1 GPU=   -1 NThAct=    1.
 PrSmSu:  NxtVal=            513.
 Electronic moments (au):
       -716.00000000          4.65992025          0.77830962         -9.66470552
     -71587.78242980     -32815.04117761     -17148.06527732        -31.79258156
         46.74804006         25.53572331    -169732.29251271     -50539.19248707
     -15359.13159439    -115456.21810865     198357.83989757     -18899.55019140
      93773.97466499      15190.71088651     -16422.21861899     -74969.28495280
  -13275223.37148321   -3063221.82188652   -1220518.24211829    1494470.51877919
     756714.47963861     570597.58930183    -353592.83633559     212957.99132186
     324354.48289179   -3642333.29384645   -1599828.22369323    -596824.53598186
    -189483.22546434     280123.98164466    -175224.50442278
 Electronic spatial extent (au):  <R**2>=         121550.8889
 DipInt: DoE/N= F T RetVal/Mat= T F Init=T NMatP=  1 IDeriv=0 Min/MaxMlt=  0  4
 Nuclear    moments (au):
        716.00000000          0.00000000          0.00000000         -0.00000000
      71164.73164146      32408.31467086      16772.66598698          0.00000000
         -0.00000000         -0.00000000     170805.06668536      50068.32561278
      14260.05791068     116035.80989675    -197821.64300035      18717.66016125
     -94298.07933296     -14902.90652348      16166.29127943      75177.73537921
   13019240.15564800    2955401.70532157    1171264.91700572   -1497291.74745155
    -754648.15168983    -578299.40328927     356648.74802748    -205208.45174304
    -324893.39475219    3585489.67775478    1554058.57216978     567942.27633659
     188800.63478303    -278895.38718660     176256.78273551
 Total      moments (au):
         -0.00000000          4.65992025          0.77830962         -9.66470552
       -423.05078835       -406.72650675       -375.39929034        -31.79258156
         46.74804006         25.53572331       1072.77417265       -470.86687429
      -1099.07368372        579.59178810        536.19689722       -181.89003015
       -524.10466797        287.80436303       -255.92733956        208.45042641
    -255983.21583522    -107820.11656496     -49253.32511257      -2821.22867236
       2066.32794877      -7701.81398745       3055.91169189       7749.53957883
       -538.91186040     -56843.61609167     -45769.65152344     -28882.25964527
       -682.59068131       1228.59445807       1032.27831273
 Traceless Quadrup. (au):
        -21.32525987         -5.00097827         26.32623814        -31.79258156
         46.74804006         25.53572331
 Charge=             -0.0000 electrons
 Dipole moment (field-independent basis, Debye):
    X=             11.8443    Y=              1.9783    Z=            -24.5652  Tot=             27.3432
 Quadrupole moment (field-independent basis, Debye-Ang):
   XX=           -569.0178   YY=           -547.0611   ZZ=           -504.9249
   XY=            -42.7621   XZ=             62.8777   YZ=             34.3464
 Traceless Quadrupole moment (field-independent basis, Debye-Ang):
   XX=            -28.6832   YY=             -6.7265   ZZ=             35.4097
   XY=            -42.7621   XZ=             62.8777   YZ=             34.3464
 Octapole moment (field-independent basis, Debye-Ang**2):
  XXX=            763.5593  YYY=           -335.1449  ZZZ=           -782.2783  XYY=            412.5311
  XXY=            381.6443  XXZ=           -129.4623  XZZ=           -373.0375  YZZ=            204.8481
  YYZ=           -182.1592  XYZ=            148.3670
 Hexadecapole moment (field-independent basis, Debye-Ang**3):
 XXXX=         -96415.5539 YYYY=         -40610.2260 ZZZZ=         -18551.1640 XXXY=          -1062.6100
 XXXZ=            778.2782 YYYX=          -2900.8725 YYYZ=           1151.0029 ZZZX=           2918.8482
 ZZZY=           -202.9800 XXYY=         -21410.0316 XXZZ=         -17239.0455 YYZZ=         -10878.4439
 XXYZ=           -257.0964 YYXZ=            462.7476 ZZXY=            388.8055
 N-N= 2.007209250987D+04 E-N=-5.261871858610D+04  KE= 5.290671470349D+03
 Leave Link  601 at Mon Sep 16 23:56:41 2019, MaxMem=  1342177280 cpu:              39.3 elap:               1.0
 FitSet:  NAtFit=   176 NAtPot=   176 NAtFrz=     0 MDM=   180 TotChg=   0.00000
 Merz-Kollman atomic radii used.
 Read replacement radii for each type of atom:
 Rad(20) =   1.700000000000D+00
 Atom Element Radius
    1     6    1.50
    2     6    1.50
    3     8    1.40
    4     1    1.20
    5     1    1.20
    6     1    1.20
    7     7    1.50
    8     6    1.50
    9     6    1.50
   10     8    1.40
   11     6    1.50
   12     6    1.50
   13     8    1.40
   14     8    1.40
   15     1    1.20
   16     1    1.20
   17     1    1.20
   18     1    1.20
   19     7    1.50
   20     6    1.50
   21     6    1.50
   22     8    1.40
   23     6    1.50
   24     6    1.50
   25     6    1.50
   26     6    1.50
   27     7    1.50
   28     1    1.20
   29     1    1.20
   30     1    1.20
   31     1    1.20
   32     1    1.20
   33     1    1.20
   34     1    1.20
   35     1    1.20
   36     1    1.20
   37     1    1.20
   38     1    1.20
   39     1    1.20
   40     1    1.20
   41     7    1.50
   42     6    1.50
   43     6    1.50
   44     8    1.40
   45     6    1.50
   46     6    1.50
   47     8    1.40
   48     8    1.40
   49     1    1.20
   50     1    1.20
   51     1    1.20
   52     1    1.20
   53     7    1.50
   54     6    1.50
   55     6    1.50
   56     8    1.40
   57     1    1.20
   58     1    1.20
   59     1    1.20
   60     7    1.50
   61     6    1.50
   62     6    1.50
   63     8    1.40
   64     6    1.50
   65     6    1.50
   66     7    1.50
   67     8    1.40
   68     1    1.20
[...]
 **** Fit      -0.023165
 **** Fit      -0.024708
 **** Fit      -0.026053
 **** Fit      -0.027038
 **** Fit      -0.027463
 **** Fit      -0.027127
 **** Fit      -0.016872
 **** Fit      -0.018514
 **** Fit      -0.020190
 **** Fit      -0.021887
 **** Fit      -0.023575
 **** Fit      -0.025217
 **** Fit      -0.026770
 **** Fit      -0.028175
 **** Fit      -0.029342
 **** Fit      -0.030140
 **** Fit      -0.030409
 **** Fit      -0.029985
 **** Fit      -0.018796
 **** Fit      -0.020699
 **** Fit      -0.022631
 **** Fit      -0.024550
 **** Fit      -0.026402
 **** Fit      -0.028132
 **** Fit      -0.029694
 **** Fit      -0.031055
 **** Fit      -0.032171
 **** Fit      -0.032972
 **** Fit      -0.033344
 **** Fit      -0.033147
 **** Fit      -0.019258
 **** Fit      -0.021464
 **** Fit      -0.023736
 **** Fit      -0.026028
 **** Fit      -0.028261
 **** Fit      -0.030339
 **** Fit      -0.032175
 **** Fit      -0.033703
 **** Fit      -0.034896
 **** Fit      -0.035759
 **** Fit      -0.036299
 **** Fit      -0.036495
 **** Fit      -0.036276
 **** Fit      -0.035538
 **** Fit      -0.023488
 **** Fit      -0.026322
 **** Fit      -0.029232
 **** Fit      -0.032102
 **** Fit      -0.034782
 **** Fit      -0.040252
 **** Fit      -0.039359
 **** Fit      -0.028908
 **** Fit      -0.017356
 **** Fit      -0.014598
 **** Fit      -0.015681
 **** Fit      -0.010498
 **** Fit      -0.012918
 **** Fit      -0.008148
 **** Fit      -0.007799
 **** Fit       0.056973
 **** Fit       0.066892
 **** Fit       0.063166
 **** Fit       0.058864
 **** Fit       0.053872
 **** Fit       0.068452
 **** Fit       0.066638
 **** Fit       0.063851
 **** Fit       0.060284
 **** Fit       0.055869
 **** Fit       0.050297
 **** Fit       0.050330
 **** Fit       0.057867
 **** Fit       0.063712
 **** Fit       0.067397
 **** Fit       0.068870
 **** Fit       0.067888
 **** Fit       0.066521
 **** Fit       0.064220
 **** Fit       0.061074
 **** Fit       0.057012
 **** Fit       0.051808
 **** Fit       0.045109
 **** Fit       0.029888
 **** Fit       0.031468
 **** Fit       0.033189
 **** Fit       0.043649
 **** Fit       0.049168
 **** Fit       0.054901
 **** Fit       0.060125
 **** Fit       0.064253
 **** Fit       0.066941
 **** Fit       0.068108
 **** Fit       0.067724
 **** Fit       0.066598
 **** Fit       0.064630
 **** Fit       0.061852
 **** Fit       0.058203
 **** Fit       0.053534
 **** Fit       0.047643
 **** Fit       0.040334
 **** Fit       0.038185
 **** Fit       0.039573
 **** Fit       0.041066
 **** Fit       0.042737
 **** Fit       0.044801
 **** Fit       0.047478
 **** Fit       0.050826
 **** Fit       0.054665
 **** Fit       0.058620
 **** Fit       0.062243
 **** Fit       0.065144
 **** Fit       0.067066
 **** Fit       0.067914
 **** Fit       0.067776
 **** Fit       0.066763
 **** Fit       0.064994
 **** Fit       0.062471
 **** Fit       0.059147
 **** Fit       0.054937
 **** Fit       0.049751
 **** Fit       0.043570
 **** Fit       0.048089
 **** Fit       0.046679
 **** Fit       0.045592
 **** Fit       0.044897
 **** Fit       0.044701
 **** Fit       0.045025
 **** Fit       0.045784
 **** Fit       0.046845
 **** Fit       0.048102
 **** Fit       0.049541
 **** Fit       0.051233
 **** Fit       0.053282
 **** Fit       0.055723
 **** Fit       0.058464
 **** Fit       0.061281
 **** Fit       0.063883
 **** Fit       0.065990
 **** Fit       0.067397
 **** Fit       0.067998
 **** Fit       0.067934
 **** Fit       0.066999
 **** Fit       0.065404
 **** Fit       0.063145
 **** Fit       0.060196
 **** Fit       0.056530
 **** Fit       0.052156
 **** Fit       0.047171
 **** Fit       0.041835
 **** Fit       0.036626
 **** Fit       0.039098
 **** Fit       0.055173
 **** Fit       0.053583
 **** Fit       0.052488
 **** Fit       0.051769
 **** Fit       0.051427
 **** Fit       0.051477
 **** Fit       0.051898
 **** Fit       0.052623
 **** Fit       0.053580
 **** Fit       0.054727
 **** Fit       0.056069
 **** Fit       0.057638
 **** Fit       0.059443
 **** Fit       0.061424
 **** Fit       0.063443
 **** Fit       0.065309
 **** Fit       0.066823
 **** Fit       0.067822
 **** Fit       0.068207
 **** Fit       0.068140
 **** Fit       0.067219
 **** Fit       0.065687
 **** Fit       0.063542
 **** Fit       0.060787
 **** Fit       0.057453
 **** Fit       0.053646
 **** Fit       0.049588
 **** Fit       0.045660
 **** Fit       0.042381
 **** Fit       0.040307
 **** Fit       0.039874
 **** Fit       0.041286
 **** Fit       0.044535
 **** Fit       0.049545
 **** Fit       0.061186
 **** Fit       0.059247
 **** Fit       0.057994
 **** Fit       0.057203
 **** Fit       0.056793
 **** Fit       0.056737
 **** Fit       0.057010
 **** Fit       0.057567
 **** Fit       0.058355
 **** Fit       0.059338
 **** Fit       0.060503
 **** Fit       0.061841
 **** Fit       0.063316
 **** Fit       0.064838
 **** Fit       0.066266
 **** Fit       0.067438
 **** Fit       0.068206
 **** Fit       0.068461
 **** Fit       0.068368
 **** Fit       0.067467
 **** Fit       0.066016
 **** Fit       0.064024
 **** Fit       0.061534
 **** Fit       0.058648
 **** Fit       0.055559
 **** Fit       0.052582
 **** Fit       0.050135
 **** Fit       0.048668
 **** Fit       0.048541
 **** Fit       0.049941
 **** Fit       0.052872
 **** Fit       0.057219
 **** Fit       0.062741
 **** Fit       0.066189
 **** Fit       0.064007
 **** Fit       0.062549
 **** Fit       0.061617
 **** Fit       0.061089
 **** Fit       0.060906
 **** Fit       0.061031
 **** Fit       0.061425
 **** Fit       0.062044
 **** Fit       0.062850
 **** Fit       0.063813
 **** Fit       0.064896
 **** Fit       0.066031
 **** Fit       0.067114
 **** Fit       0.068010
 **** Fit       0.068585
 **** Fit       0.068728
 **** Fit       0.068610
 **** Fit       0.067745
 **** Fit       0.066399
 **** Fit       0.064608
 **** Fit       0.062463
 **** Fit       0.060133
 **** Fit       0.057883
 **** Fit       0.056064
 **** Fit       0.055048
 **** Fit       0.055139
 **** Fit       0.056484
 **** Fit       0.059045
 **** Fit       0.062597
 **** Fit       0.066663
 **** Fit       0.070414
 **** Fit       0.071715
 **** Fit       0.069647
 **** Fit       0.067700
 **** Fit       0.066195
 **** Fit       0.065151
 **** Fit       0.064503
 **** Fit       0.064191
 **** Fit       0.064174
 **** Fit       0.064413
 **** Fit       0.064866
 **** Fit       0.065492
 **** Fit       0.066245
 **** Fit       0.067064
 **** Fit       0.067863
 **** Fit       0.068531
 **** Fit       0.068944
 **** Fit       0.068996
 **** Fit       0.068865
 **** Fit       0.068022
 **** Fit       0.066755
 **** Fit       0.065145
 **** Fit       0.063358
 **** Fit       0.061657
 **** Fit       0.060377
 **** Fit       0.059865
 **** Fit       0.060363
 **** Fit       0.061927
 **** Fit       0.064367
 **** Fit       0.067225
 **** Fit       0.069788
 **** Fit       0.071308
 **** Fit       0.071463
 **** Fit       0.070601
 **** Fit       0.069367
 **** Fit       0.068228
 **** Fit       0.067375
 **** Fit       0.066842
 **** Fit       0.066609
 **** Fit       0.066642
 **** Fit       0.066901
 **** Fit       0.067335
 **** Fit       0.067882
 **** Fit       0.068460
 **** Fit       0.068965
 **** Fit       0.069273
 **** Fit       0.069268
 **** Fit       0.069132
 **** Fit       0.068333
 **** Fit       0.067191
 **** Fit       0.065858
 **** Fit       0.064592
 **** Fit       0.063731
 **** Fit       0.063596
 **** Fit       0.064360
 **** Fit       0.065937
 **** Fit       0.067935
 **** Fit       0.069738
 **** Fit       0.070766
 **** Fit       0.070852
 **** Fit       0.070301
 **** Fit       0.069558
 **** Fit       0.068922
 **** Fit       0.068515
 **** Fit       0.068360
 **** Fit       0.068435
 **** Fit       0.068686
 **** Fit       0.069035
 **** Fit       0.069378
 **** Fit       0.069588
 **** Fit       0.069539
 **** Fit       0.069410
 **** Fit       0.068639
 **** Fit       0.067635
 **** Fit       0.066704
 **** Fit       0.066252
 **** Fit       0.066593
 **** Fit       0.067714
 **** Fit       0.069174
 **** Fit       0.070308
 **** Fit       0.070706
 **** Fit       0.070487
 **** Fit       0.070049
 **** Fit       0.069693
 **** Fit       0.069544
 **** Fit       0.069594
 **** Fit       0.069756
 **** Fit       0.069886
 **** Fit       0.069816
 **** Fit       0.069689
 **** Fit       0.068986
 **** Fit       0.068319
 **** Fit       0.068234
 **** Fit       0.068954
 **** Fit       0.069986
 **** Fit       0.070574
 **** Fit       0.070562
 **** Fit       0.070337
 **** Fit       0.070205
 **** Fit       0.070184
 **** Fit       0.070084
 **** Fit       0.069959
 **** Fit       0.069479
 **** Fit       0.069759
 **** Fit       0.070411
 **** Fit       0.070495
 **** Fit       0.070336
 **** Fit       0.070204
 **** Fit      -0.006386
 **** Fit      -0.006382
 **** Fit      -0.006310
 **** Fit      -0.004690
 **** Fit      -0.007882
 **** Fit      -0.004999
 **** Fit      -0.002249
 **** Fit      -0.009253
 **** Fit      -0.005061
 **** Fit      -0.001310
 **** Fit       0.001964
 **** Fit      -0.010166
 **** Fit      -0.004812
 **** Fit      -0.000306
 **** Fit       0.003589
 **** Fit       0.006943
 **** Fit      -0.008062
 **** Fit      -0.002155
 **** Fit       0.002703
 **** Fit       0.006861
 **** Fit       0.010455
 **** Fit       0.013504
 **** Fit      -0.007361
 **** Fit      -0.000517
 **** Fit       0.004961
 **** Fit       0.009576
 **** Fit       0.013545
 **** Fit       0.016937
 **** Fit       0.019734
 **** Fit       0.002287
 **** Fit       0.008091
 **** Fit       0.012976
 **** Fit       0.017180
 **** Fit       0.001546
 **** Fit       0.008288
 **** Fit       0.013891
 **** Fit       0.011275
 **** Fit       0.035860
 **** Fit       0.034340
 **** Fit       0.033564
 **** Fit       0.033803
 **** Fit       0.022798
 **** Fit       0.039507
 **** Fit       0.038859
 **** Fit       0.039412
 **** Fit       0.041563
 **** Fit       0.045938
 **** Fit       0.044621
 **** Fit       0.046914
 **** Fit       0.051907
 **** Fit       0.051934
 **** Fit       0.057010
 **** Fit       0.059608
 **** Fit      -0.004268
 **** Fit      -0.003880
 **** Fit       0.000177
 **** Fit       0.000850
 **** Fit      -0.000113
 **** Fit      -0.002980
 **** Fit       0.005150
 **** Fit       0.005804
 **** Fit       0.005013
 **** Fit       0.002699
 **** Fit      -0.001285
 **** Fit       0.010153
 **** Fit       0.010961
 **** Fit       0.010420
 **** Fit       0.008571
 **** Fit       0.005399
 **** Fit       0.000835
 **** Fit       0.016399
 **** Fit       0.015909
 **** Fit       0.014346
 **** Fit       0.011780
 **** Fit       0.008253
 **** Fit       0.003817
 **** Fit       0.022137
 **** Fit       0.021093
 **** Fit       0.019236
 **** Fit       0.016672
 **** Fit       0.013503
 **** Fit       0.009880
 **** Fit       0.006053
 **** Fit       0.028217
 **** Fit       0.026587
 **** Fit       0.024381
 **** Fit       0.021738
 **** Fit       0.018811
 **** Fit       0.015818
 **** Fit       0.013089
 **** Fit       0.031051
 **** Fit       0.028301
 **** Fit       0.025525
 **** Fit       0.022933
 **** Fit       0.020822
 **** Fit       0.019565
 **** Fit       0.032272
 **** Fit       0.029822
 **** Fit       0.028040
 **** Fit       0.027176
 **** Fit       0.027438
 **** Fit       0.017857
 **** Fit       0.021183
 **** Fit       0.023896
 **** Fit       0.026127
 **** Fit       0.027965
 **** Fit       0.015779
 **** Fit       0.019605
 **** Fit       0.022690
 **** Fit       0.025207
 **** Fit       0.027271
 **** Fit       0.028958
 **** Fit       0.030324
 **** Fit       0.031406
 **** Fit       0.032234
 **** Fit       0.016005
 **** Fit       0.019820
 **** Fit       0.022959
 **** Fit       0.025553
 **** Fit       0.027704
 **** Fit       0.029486
 **** Fit       0.030950
 **** Fit       0.032135
 **** Fit       0.033072
 **** Fit       0.033787
 **** Fit       0.034307
 **** Fit       0.034661
 **** Fit       0.034888
 **** Fit       0.017533
 **** Fit       0.020334
 **** Fit       0.023153
 **** Fit       0.025714
 **** Fit       0.027954
 **** Fit       0.029876
 **** Fit       0.031504
 **** Fit       0.032863
 **** Fit       0.033977
 **** Fit       0.034868
 **** Fit       0.035560
 **** Fit       0.036081
 **** Fit       0.036467
 **** Fit       0.036771
 **** Fit       0.037061
 **** Fit       0.037437
 **** Fit       0.027286
 **** Fit       0.027184
 **** Fit       0.028280
 **** Fit       0.029795
 **** Fit       0.031372
 **** Fit       0.032857
 **** Fit       0.034184
 **** Fit       0.035329
 **** Fit       0.036288
 **** Fit       0.037069
 **** Fit       0.037691
 **** Fit       0.038186
 **** Fit       0.038600
 **** Fit       0.039003
 **** Fit       0.039496
 **** Fit       0.040219
 **** Fit       0.041380
 **** Fit       0.038951
 **** Fit       0.035467
 **** Fit       0.034346
 **** Fit       0.034444
 **** Fit       0.035111
 **** Fit       0.036002
 **** Fit       0.036934
 **** Fit       0.037814
 **** Fit       0.038597
 **** Fit       0.039269
 **** Fit       0.039842
 **** Fit       0.040346
 **** Fit       0.040838
 **** Fit       0.041405
 **** Fit       0.042176
 **** Fit       0.043338
 **** Fit       0.045177
 **** Fit       0.048637
 **** Fit       0.043055
 **** Fit       0.040361
 **** Fit       0.039365
 **** Fit       0.039286
 **** Fit       0.039659
 **** Fit       0.040222
 **** Fit       0.040835
 **** Fit       0.041433
 **** Fit       0.042004
 **** Fit       0.042581
 **** Fit       0.043241
 **** Fit       0.044116
 **** Fit       0.045406
 **** Fit       0.047417
 **** Fit       0.050622
 **** Fit       0.055760
 **** Fit       0.056392
 **** Fit       0.049555
 **** Fit       0.045649
 **** Fit       0.043734
 **** Fit       0.043016
 **** Fit       0.042956
 **** Fit       0.043234
 **** Fit       0.043681
 **** Fit       0.044233
 **** Fit       0.044912
 **** Fit       0.045822
 **** Fit       0.047151
 **** Fit       0.049199
 **** Fit       0.052407
 **** Fit       0.057386
 **** Fit       0.064815
 **** Fit       0.060744
 **** Fit       0.053791
 **** Fit       0.049416
 **** Fit       0.047118
 **** Fit       0.046167
 **** Fit       0.046004
 **** Fit       0.046307
 **** Fit       0.046963
 **** Fit       0.048031
 **** Fit       0.049735
 **** Fit       0.052457
 **** Fit       0.056692
 **** Fit       0.062838
 **** Fit       0.070555
 **** Fit       0.068092
 **** Fit       0.062165
 **** Fit       0.055734
 **** Fit       0.051454
 **** Fit       0.049452
 **** Fit       0.049010
 **** Fit       0.049633
 **** Fit       0.051297
 **** Fit       0.054365
 **** Fit       0.059213
 **** Fit       0.065186
 **** Fit       0.069327
 **** Fit       0.061430
 **** Fit       0.056578
 **** Fit       0.052869
 **** Fit       0.052735
 **** Fit       0.055755
 **** Fit       0.060581
 **** Fit       0.056532
 -----------------------------------------------------------------
 Leave Link  602 at Mon Sep 16 23:56:44 2019, MaxMem=  1342177280 cpu:             116.1 elap:               2.5

 Test job not archived.
 1\1\GINC-C506-123\SP\RB3LYP\SVP\C54H83Ca1N15O23\PENGZHI\16-Sep-2019\0\
 \#b3lyp/svp scf=(tight,noincore) Test #IOP(5/87=12) Density=Current Po
 p=(MK,readradii) iop(6/33=2) iop(6/42=6)\\Ng-293_loop3_10.0\\0,1\C,0,5
 4.42,54.22,44.71\C,0,54.12,54.29,46.21\O,0,53.,53.94,46.55\H,0,55.463,
 53.939,44.561\H,0,53.774,53.476,44.244\H,0,54.238,55.194,44.257\N,0,55
 .07,54.73,47.05\C,0,54.88,54.94,48.47\C,0,53.87,55.96,48.98\O,0,54.26,
 57.01,49.48\C,0,54.72,53.62,49.22\C,0,55.84,52.64,48.91\O,0,55.68,51.7
 9,48.01\O,0,56.94,52.82,49.47\H,0,56.01,54.87,46.71\H,0,55.83,55.3,48.
 85\H,0,53.8,53.13,48.88\H,0,54.73,53.77,50.3\N,0,52.59,55.59,48.94\C,0
 ,51.54,56.53,49.28\C,0,51.6,57.14,50.67\O,0,51.49,58.36,50.79\C,0,50.2
 ,55.88,48.95\C,0,49.61,54.88,49.94\C,0,50.49,53.64,50.09\C,0,49.9,52.7
 8,51.21\N,0,50.2,53.34,52.54\H,0,52.32,54.79,48.4\H,0,51.7,57.31,48.54
 \H,0,50.23,55.37,47.99\H,0,49.44,56.67,48.91\H,0,48.7,54.6,49.42\H,0,4
 9.32,55.24,50.93\H,0,51.52,53.79,50.39\H,0,50.5,53.15,49.12\H,0,50.28,
 51.76,51.25\H,0,48.83,52.72,51.01\H,0,49.77,52.82,53.28\H,0,51.19,53.3
 6,52.72\H,0,49.94,54.31,52.67\N,0,51.97,56.35,51.68\C,0,52.39,56.63,53
 .04\C,0,53.13,55.39,53.52\O,0,52.91,54.31,52.98\C,0,51.24,57.07,53.95\
 C,0,50.13,56.04,54.1\O,0,50.21,55.26,55.07\O,0,49.25,56.01,53.21\H,0,5
 2.22,55.41,51.43\H,0,53.11,57.45,53.05\H,0,50.89,58.03,53.58\H,0,51.68
 ,57.25,54.93\N,0,54.08,55.45,54.46\C,0,55.,54.39,54.84\C,0,54.31,53.27
 ,55.61\O,0,53.25,53.47,56.19\H,0,54.26,56.36,54.87\H,0,55.76,54.84,55.
 48\H,0,55.55,54.09,53.95\N,0,54.82,52.05,55.47\C,0,54.29,50.81,56.01\C
 ,0,55.35,49.95,56.68\O,0,54.95,48.96,57.3\C,0,53.58,50.05,54.89\C,0,52
 .35,50.83,54.44\N,0,51.44,51.17,55.36\O,0,52.19,51.09,53.24\H,0,55.58,
 51.88,54.84\H,0,53.58,51.1,56.78\H,0,53.24,49.14,55.38\H,0,54.23,49.85
 ,54.04\H,0,51.66,50.93,56.31\H,0,50.63,51.74,55.19\N,0,56.65,50.23,56.
 65\C,0,57.61,49.58,57.51\C,0,58.16,48.23,57.06\O,0,58.66,48.13,55.95\H
 ,0,56.97,50.87,55.93\H,0,57.06,49.54,58.46\H,0,58.38,50.33,57.71\N,0,5
 7.82,47.17,57.8\C,0,57.96,45.79,57.39\C,0,57.04,45.35,56.26\O,0,57.05,
 44.19,55.87\C,0,59.42,45.36,57.26\C,0,60.25,45.67,58.49\C,0,59.82,45.3
 3,59.77\C,0,61.48,46.31,58.27\C,0,60.55,45.79,60.87\C,0,62.23,46.69,59
 .39\C,0,61.79,46.44,60.7\O,0,62.53,46.81,61.78\H,0,57.13,47.31,58.53\H
 ,0,57.51,45.31,58.26\H,0,59.9,45.8,56.39\H,0,59.45,44.27,57.23\H,0,58.
 88,44.84,59.97\H,0,61.82,46.53,57.26\H,0,60.14,45.61,61.86\H,0,63.21,4
 7.12,59.22\H,0,63.32,47.29,61.52\N,0,56.11,46.23,55.88\C,0,54.91,46.06
 ,55.07\C,0,53.8,45.26,55.75\O,0,52.73,45.79,56.04\C,0,55.21,45.54,53.6
 7\C,0,56.29,46.29,52.91\C,0,54.,45.48,52.75\C,0,56.18,47.81,52.8\H,0,5
 6.3,47.12,56.33\H,0,54.36,46.99,54.94\H,0,55.47,44.48,53.75\H,0,56.43,
 45.85,51.92\H,0,57.16,46.04,53.52\H,0,54.37,45.12,51.79\H,0,53.32,44.7
 6,53.21\H,0,53.4,46.38,52.61\H,0,55.16,48.04,52.49\H,0,56.38,48.26,53.
 78\H,0,56.94,48.2,52.12\N,0,54.03,43.98,56.03\C,0,53.05,43.12,56.66\C,
 0,51.76,43.03,55.86\O,0,50.67,43.06,56.43\C,0,53.79,41.83,57.\O,0,54.4
 6,41.33,55.86\H,0,54.93,43.63,55.73\H,0,52.66,43.6,57.56\H,0,53.06,41.
 11,57.37\H,0,54.57,41.93,57.76\H,0,54.18,40.42,55.94\N,0,51.85,42.96,5
 4.53\C,0,50.72,43.07,53.62\C,0,49.76,44.25,53.65\O,0,48.86,44.26,52.82
 \C,0,50.03,41.72,53.44\H,0,52.71,42.72,54.06\H,0,51.32,43.1,52.7\H,0,4
 9.28,41.52,54.2\H,0,49.53,41.76,52.48\H,0,50.73,40.89,53.56\N,0,49.89,
 45.2,54.58\C,0,48.96,46.29,54.76\C,0,48.87,47.2,53.54\O,0,49.86,47.54,
 52.88\C,0,49.37,47.,56.05\H,0,50.51,45.04,55.37\H,0,48.,45.78,54.81\H,
 0,50.44,47.2,56.\H,0,48.82,47.92,56.26\H,0,49.22,46.37,56.93\N,0,47.73
 ,47.86,53.33\C,0,47.57,48.97,52.41\C,0,47.9,48.68,50.96\O,0,47.84,49.5
 8,50.13\C,0,48.05,50.3,52.98\C,0,47.56,50.47,54.41\C,0,47.64,51.93,54.
 84\O,0,46.73,52.4,55.56\O,0,48.74,52.5,54.76\H,0,47.,47.58,53.97\H,0,4
 6.48,49.06,52.32\H,0,47.62,51.09,52.36\H,0,49.12,50.47,52.99\H,0,48.19
 ,49.84,55.03\H,0,46.51,50.18,54.5\N,0,48.06,47.43,50.5\C,0,48.5,47.1,4
 9.16\H,0,49.527,46.737,49.195\H,0,47.855,46.325,48.746\H,0,48.451,47.9
 89,48.531\H,0,48.08,46.68,51.17\Ca,0,48.6,54.13,56.72\O,0,47.13,55.53,
 55.16\H,0,47.41,56.02,54.39\H,0,46.4,56.05,55.52\\Version=ES64L-G16Rev
 A.03\State=1-A\HF=-5333.4575773\RMSD=7.790e-10\Dipole=-1.8822097,-0.41
 13274,10.5837258\Quadrupole=17.086185,0.303537,-17.389722,-27.5704625,
 10.1494139,57.2213873\PG=C01 [X(C54H83Ca1N15O23)]\\@


 IF THERE IS ONE WAY BETTER THAN ANOTHER IT IS THE WAY OF NATURE.

                          -- ARISTOTLE
 Job cpu time:       0 days 21 hours 18 minutes 38.1 seconds.
 Elapsed time:       0 days  0 hours 26 minutes 57.8 seconds.
 File lengths (MBytes):  RWF=   1517 Int=      0 D2E=      0 Chk=    171 Scr=      1
 Normal termination of Gaussian 16 at Mon Sep 16 23:56:45 2019.
