 Entering Gaussian System, Link 0=g16
 Initial command:
 /home1/apps/gaussian/16rA.03/g16/l1.exe "/scratch/01990/pengzhi/4342296/Gau-214254.inp" -scrdir="/scratch/01990/pengzhi/4342296/"
 Entering Link 1 = /home1/apps/gaussian/16rA.03/g16/l1.exe PID=    214255.
  
 Copyright (c) 1988,1990,1992,1993,1995,1998,2003,2009,2016,
            Gaussian, Inc.  All Rights Reserved.
  
 This is part of the Gaussian(R) 16 program.  It is based on
 the Gaussian(R) 09 system (copyright 2009, Gaussian, Inc.),
 the Gaussian(R) 03 system (copyright 2003, Gaussian, Inc.),
 the Gaussian(R) 98 system (copyright 1998, Gaussian, Inc.),
 the Gaussian(R) 94 system (copyright 1995, Gaussian, Inc.),
 the Gaussian 92(TM) system (copyright 1992, Gaussian, Inc.),
 the Gaussian 90(TM) system (copyright 1990, Gaussian, Inc.),
 the Gaussian 88(TM) system (copyright 1988, Gaussian, Inc.),
 the Gaussian 86(TM) system (copyright 1986, Carnegie Mellon
 University), and the Gaussian 82(TM) system (copyright 1983,
 Carnegie Mellon University). Gaussian is a federally registered
 trademark of Gaussian, Inc.
  
 This software contains proprietary and confidential information,
 including trade secrets, belonging to Gaussian, Inc.
  
 This software is provided under written license and may be
 used, copied, transmitted, or stored only in accord with that
 written license.
  
 The following legend is applicable only to US Government
 contracts under FAR:
  
                    RESTRICTED RIGHTS LEGEND
  
 Use, reproduction and disclosure by the US Government is
 subject to restrictions as set forth in subparagraphs (a)
 and (c) of the Commercial Computer Software - Restricted
 Rights clause in FAR 52.227-19.
  
 Gaussian, Inc.
 340 Quinnipiac St., Bldg. 40, Wallingford CT 06492
  
  
 ---------------------------------------------------------------
 Warning -- This program may not be used in any manner that
 competes with the business of Gaussian, Inc. or will provide
 assistance to any competitor of Gaussian, Inc.  The licensee
 of this program is prohibited from giving any competitor of
 Gaussian, Inc. access to this program.  By using this program,
 the user acknowledges that Gaussian, Inc. is engaged in the
 business of creating and licensing software in the field of
 computational chemistry and represents and warrants to the
 licensee that it is not a competitor of Gaussian, Inc. and that
 it will not use this program in any manner prohibited above.
 ---------------------------------------------------------------
  

 Cite this work as:
 Gaussian 16, Revision A.03,
 M. J. Frisch, G. W. Trucks, H. B. Schlegel, G. E. Scuseria, 
 M. A. Robb, J. R. Cheeseman, G. Scalmani, V. Barone, 
 G. A. Petersson, H. Nakatsuji, X. Li, M. Caricato, A. V. Marenich, 
 J. Bloino, B. G. Janesko, R. Gomperts, B. Mennucci, H. P. Hratchian, 
 J. V. Ortiz, A. F. Izmaylov, J. L. Sonnenberg, D. Williams-Young, 
 F. Ding, F. Lipparini, F. Egidi, J. Goings, B. Peng, A. Petrone, 
 T. Henderson, D. Ranasinghe, V. G. Zakrzewski, J. Gao, N. Rega, 
 G. Zheng, W. Liang, M. Hada, M. Ehara, K. Toyota, R. Fukuda, 
 J. Hasegawa, M. Ishida, T. Nakajima, Y. Honda, O. Kitao, H. Nakai, 
 T. Vreven, K. Throssell, J. A. Montgomery, Jr., J. E. Peralta, 
 F. Ogliaro, M. J. Bearpark, J. J. Heyd, E. N. Brothers, K. N. Kudin, 
 V. N. Staroverov, T. A. Keith, R. Kobayashi, J. Normand, 
 K. Raghavachari, A. P. Rendell, J. C. Burant, S. S. Iyengar, 
 J. Tomasi, M. Cossi, J. M. Millam, M. Klene, C. Adamo, R. Cammi, 
 J. W. Ochterski, R. L. Martin, K. Morokuma, O. Farkas, 
 J. B. Foresman, and D. J. Fox, Gaussian, Inc., Wallingford CT, 2016.
 
 ******************************************
 Gaussian 16:  ES64L-G16RevA.03 25-Dec-2016
                17-Sep-2019 
 ******************************************
 %chk=Ng-293_loop3_29.0.chk
 %nprocshared=48
 Will use up to   48 processors via shared memory.
 %mem=10GB
 %nosave
 ----------------------------------------------------------------------
 #b3lyp/svp scf=(tight,noincore) Test #IOP(5/87=12) Density=Current Pop
 =(MK,readradii) iop(6/33=2) iop(6/42=6)
 ----------------------------------------------------------------------
 1/30=1,38=1,172=1/1;
 2/12=2,17=6,18=5,40=1/2;
 3/5=18,7=101,11=2,25=1,30=1,74=-5/1,2,3;
 4//1;
 5/5=4,32=2,38=5,87=12/2;
 6/7=2,8=2,9=2,10=2,15=8,20=101,22=-1,28=1,33=2,42=6/1,2;
 99/5=1,9=1/99;
 -----------------
 Ng-293_loop3_29.0
 -----------------
 Symbolic Z-matrix:
 Charge =  0 Multiplicity = 1
 C                     69.05     62.84     56.96 
 C                     67.85     63.06     57.87 
 O                     66.92     63.84     57.64 
 H                     69.912    62.549    57.56 
 H                     68.824    62.05     56.244 
 H                     69.275    63.763    56.425 
 N                     67.85     62.32     58.98 
 C                     67.02     62.51     60.15 
 C                     66.93     63.99     60.53 
 O                     67.98     64.55     60.85 
 C                     65.65     61.9      59.89 
 C                     65.89     60.42     59.59 
 O                     65.96     59.68     60.6 
 O                     65.93     60.08     58.39 
 H                     68.55     61.6      59.05 
 H                     67.47     61.96     60.98 
 H                     65.15     62.33     59.03 
 H                     65.       62.01     60.76 
 N                     65.81     64.69     60.41 
 C                     65.59     66.09     60.71 
 C                     65.76     66.64     62.11 
 O                     66.28     67.75     62.25 
 C                     64.25     66.54     60.12 
 C                     63.05     65.99     60.89 
 C                     62.94     64.51     61.23 
 C                     61.76     64.07     62.09 
 N                     61.84     64.58     63.47 
 H                     65.01     64.15     60.09 
 H                     66.42     66.54     60.16 
 H                     64.17     66.22     59.08 
 H                     64.2      67.62     60.2 
 H                     62.15     66.22     60.33 
 H                     62.96     66.57     61.82 
 H                     63.82     64.23     61.81 
 H                     63.03     63.88     60.34 
 H                     61.66     62.99     62.08 
 H                     60.82     64.36     61.63 
 H                     61.98     65.58     63.49 
 H                     61.01     64.34     64. 
 H                     62.62     64.11     63.9 
 N                     65.41     65.85     63.13 
 C                     65.56     66.17     64.53 
 C                     65.16     64.94     65.33 
 O                     64.39     64.15     64.79 
 C                     64.8      67.42     64.97 
 C                     63.28     67.3      65.05 
 O                     62.53     67.14     64.06 
 O                     62.72     67.37     66.16 
 H                     65.13     64.89     62.97 
 H                     66.62     66.38     64.63 
 H                     65.01     68.23     64.27 
 H                     65.12     67.75     65.95 
 N                     65.81     64.62     66.46 
 C                     65.52     63.54     67.38 
 C                     64.05     63.55     67.78 
 O                     63.49     64.58     68.14 
 H                     66.59     65.16     66.79 
 H                     66.11     63.63     68.28 
 H                     65.78     62.56     66.96 
 N                     63.55     62.31     67.88 
 C                     62.25     62.       68.44 
 C                     62.34     60.85     69.43 
 O                     61.36     60.11     69.6 
 C                     61.11     61.77     67.45 
 C                     60.88     62.98     66.55 
 N                     60.41     64.08     67.13 
 O                     60.95     62.84     65.33 
 H                     64.2      61.57     67.65 
 H                     61.92     62.86     69.02 
 H                     60.21     61.63     68.05 
 H                     61.3      60.86     66.88 
 H                     60.34     64.12     68.14 
 H                     60.31     64.91     66.56 
 N                     63.48     60.77     70.12 
 C                     63.79     59.56     70.85 
 C                     63.69     58.34     69.94 
 O                     63.95     58.42     68.74 
 H                     64.22     61.45     69.99 
 H                     63.12     59.44     71.7 
 H                     64.69     59.75     71.43 
 N                     63.28     57.18     70.45 
 C                     62.83     55.97     69.79 
 C                     61.55     56.2      68.98 
 O                     60.6      55.45     69.18 
 C                     63.95     55.25     69.06 
 C                     63.78     53.75     69.02 
 C                     62.91     53.23     68.05 
 C                     64.45     52.94     69.95 
 C                     62.7      51.85     68.05 
 C                     64.25     51.56     69.94 
 C                     63.5      51.03     68.87 
 O                     63.46     49.68     68.68 
 H                     63.53     57.13     71.43 
 H                     62.47     55.34     70.6 
 H                     64.95     55.43     69.46 
 H                     64.14     55.62     68.05 
 H                     62.44     53.94     67.38 
 H                     65.03     53.41     70.73 
 H                     62.       51.41     67.35 
 H                     64.69     51.       70.76 
 H                     64.08     49.25     69.28 
 N                     61.48     57.24     68.15 
 C                     60.36     57.64     67.32 
 C                     59.14     58.02     68.15 
 O                     58.66     59.14     67.98 
 C                     60.01     56.61     66.25 
 C                     61.2      56.15     65.42 
 C                     58.87     57.02     65.31 
 C                     61.94     57.32     64.76 
 H                     62.38     57.65     67.92 
 H                     60.7      58.56     66.85 
 H                     59.65     55.8      66.89 
 H                     60.96     55.43     64.65 
 H                     62.06     55.78     65.98 
 H                     57.91     57.11     65.82 
 H                     59.14     58.01     64.93 
 H                     58.72     56.31     64.5 
 H                     61.22     57.98     64.26 
 H                     62.5      57.92     65.48 
 H                     62.64     56.93     64.03 
 N                     58.52     57.11     68.9 
 C                     57.33     57.32     69.7 
 C                     56.18     57.89     68.89 
 O                     55.52     58.82     69.35 
 C                     56.97     56.04     70.45 
 O                     56.57     55.11     69.47 
 H                     58.92     56.19     68.94 
 H                     57.53     58.1      70.43 
 H                     56.23     56.18     71.24 
 H                     57.85     55.69     70.99 
 H                     56.02     54.41     69.85 
 N                     56.05     57.38     67.66 
 C                     55.26     57.8      66.52 
 C                     55.14     59.28     66.17 
 O                     54.15     59.76     65.64 
 C                     53.88     57.14     66.44 
 H                     56.67     56.62     67.4 
 H                     55.82     57.41     65.68 
 H                     53.21     57.56     67.19 
 H                     53.46     57.36     65.46 
 H                     53.88     56.06     66.55 
 N                     56.15     60.1      66.49 
 C                     56.15     61.54     66.32 
 C                     56.55     61.81     64.87 
 O                     57.42     61.21     64.24 
 C                     57.03     62.3      67.31 
 H                     56.97     59.68     66.9 
 H                     55.14     61.86     66.56 
 H                     57.88     61.68     67.59 
 H                     57.37     63.28     66.99 
 H                     56.39     62.41     68.19 
 N                     55.97     62.9      64.34 
 C                     56.33     63.56     63.11 
 C                     56.19     62.71     61.85 
 O                     56.75     63.01     60.8 
 C                     57.69     64.23     63.28 
 C                     57.74     65.23     64.43 
 C                     59.06     65.99     64.45 
 O                     59.47     66.63     63.45 
 O                     59.65     66.16     65.54 
 H                     55.4      63.4      65.01 
 H                     55.57     64.34     63.03 
 H                     58.07     64.76     62.41 
 H                     58.49     63.52     63.49 
 H                     57.6      64.63     65.33 
 H                     56.94     65.97     64.45 
 N                     55.67     61.49     61.92 
 C                     55.77     60.5      60.87 
 H                     56.819    60.262    60.694 
 H                     55.238    59.597    61.17 
 H                     55.329    60.895    59.954 
 H                     55.26     61.19     62.8 
 Ca                    60.33     68.62     64.85 
 O                     59.5      71.13     65.28 
 H                     59.64     71.74     64.55 
 H                     58.88     71.57     65.86 
 
 Stoichiometry    C54H83CaN15O23
 Framework group  C1[X(C54H83CaN15O23)]
 Deg. of freedom   522
 Full point group                 C1      NOp   1
 Largest Abelian subgroup         C1      NOp   1
 Largest concise Abelian subgroup C1      NOp   1
                         Standard orientation:                         
 ---------------------------------------------------------------------
 Center     Atomic      Atomic             Coordinates (Angstroms)
 Number     Number       Type             X           Y           Z
 ---------------------------------------------------------------------
      1          6           0        8.254017    6.691586    4.127447
      2          6           0        7.527211    5.455042    3.618318
      3          8           0        7.931500    4.294288    3.742419
      4          1           0        8.008810    7.543474    3.493503
      5          1           0        7.943539    6.900795    5.151003
      6          1           0        9.330051    6.517629    4.101576
      7          7           0        6.365993    5.702773    3.010124
      8          6           0        5.606124    4.789007    2.184575
      9          6           0        6.519686    4.014002    1.231857
     10          8           0        7.146838    4.671837    0.399731
     11          6           0        4.797806    3.864324    3.083566
     12          6           0        3.893720    4.766662    3.924050
     13          8           0        2.809697    5.084351    3.379469
     14          8           0        4.280156    5.047260    5.076930
     15          1           0        6.013417    6.644155    3.062946
     16          1           0        4.896013    5.373160    1.594315
     17          1           0        5.413601    3.291963    3.767451
     18          1           0        4.197202    3.169725    2.493390
     19          7           0        6.738037    2.711734    1.355231
     20          6           0        7.587090    1.863180    0.544389
     21          6           0        7.329904    1.659631   -0.933387
     22          8           0        8.295065    1.612262   -1.700407
     23          6           0        7.784832    0.513672    1.241473
     24          6           0        6.535958   -0.365751    1.193225
     25          6           0        5.171705    0.176057    1.597401
     26          6           0        3.967235   -0.741958    1.418236
     27          7           0        3.658551   -1.006061    0.001951
     28          1           0        6.212820    2.267355    2.104012
     29          1           0        8.514006    2.441482    0.561508
     30          1           0        8.060476    0.666222    2.286054
     31          1           0        8.561455   -0.022788    0.708212
     32          1           0        6.699594   -1.227080    1.831845
     33          1           0        6.461152   -0.778089    0.176474
     34          1           0        4.951838    1.040548    0.970094
     35          1           0        5.186598    0.607818    2.602618
     36          1           0        3.101650   -0.344339    1.937044
     37          1           0        4.110510   -1.673541    1.957610
     38          1           0        4.470721   -1.332867   -0.501615
     39          1           0        2.904848   -1.677296   -0.091723
     40          1           0        3.336463   -0.133573   -0.384344
     41          7           0        6.056631    1.625326   -1.339097
     42          6           0        5.614427    1.507446   -2.708572
     43          6           0        4.099728    1.643460   -2.717792
     44          8           0        3.507874    1.355113   -1.680890
     45          6           0        6.086412    0.235133   -3.410105
     46          6           0        5.425492   -1.069528   -2.971648
     47          8           0        5.566857   -1.588959   -1.840981
     48          8           0        4.697859   -1.684463   -3.773524
     49          1           0        5.301212    1.820306   -0.693401
     50          1           0        6.090592    2.348501   -3.202123
     51          1           0        7.157191    0.111318   -3.241871
     52          1           0        5.933297    0.296241   -4.479928
     53          7           0        3.477906    2.279096   -3.723329
     54          6           0        2.053808    2.436306   -3.933403
     55          6           0        1.341275    1.093107   -3.837948
     56          8           0        1.754452    0.103858   -4.433575
     57          1           0        3.990908    2.704912   -4.474601
     58          1           0        1.850603    2.851762   -4.909264
     59          1           0        1.607405    3.140724   -3.220017
     60          7           0        0.155186    1.198340   -3.221735
     61          6           0       -0.831142    0.138083   -3.169640
     62          6           0       -2.215137    0.659539   -3.520842
     63          8           0       -3.217121    0.107372   -3.043307
     64          6           0       -0.878842   -0.696883   -1.891690
     65          6           0        0.455512   -1.376807   -1.601511
     66          7           0        0.837437   -2.334339   -2.440894
     67          8           0        1.017792   -1.157949   -0.529670
     68          1           0       -0.071195    2.127243   -2.891749
     69          1           0       -0.586652   -0.586914   -3.943916
     70          1           0       -1.616408   -1.480759   -2.068138
     71          1           0       -1.215759   -0.074734   -1.061921
     72          1           0        0.309002   -2.492102   -3.290875
     73          1           0        1.747620   -2.752963   -2.299043
     74          7           0       -2.248516    1.656972   -4.407472
     75          6           0       -3.465123    2.421121   -4.577895
     76          6           0       -3.962203    2.950762   -3.236668
     77          8           0       -3.174463    3.238182   -2.336193
     78          1           0       -1.397180    2.019507   -4.820624
     79          1           0       -4.240146    1.813725   -5.042878
     80          1           0       -3.314126    3.091981   -5.420301
     81          7           0       -5.272483    3.068637   -3.029131
     82          6           0       -6.015324    3.263168   -1.799275
     83          6           0       -5.850614    2.082892   -0.836354
     84          8           0       -6.865865    1.559616   -0.388640
     85          6           0       -5.798743    4.639641   -1.195856
     86          6           0       -6.997866    5.166210   -0.443973
     87          6           0       -7.187363    4.700412    0.865730
     88          6           0       -7.886225    6.055408   -1.068507
     89          6           0       -8.328591    5.134338    1.542344
     90          6           0       -9.018697    6.499000   -0.386426
     91          6           0       -9.121452    6.152149    0.976452
     92          8           0      -10.079983    6.738423    1.749563
     93          1           0       -5.744060    3.238399   -3.909015
     94          1           0       -7.056877    3.164101   -2.095844
     95          1           0       -5.525528    5.417789   -1.911566
     96          1           0       -4.911326    4.719744   -0.564053
     97          1           0       -6.445056    4.014212    1.255616
     98          1           0       -7.735044    6.300231   -2.109135
     99          1           0       -8.540430    4.763106    2.537789
    100          1           0       -9.734710    7.079521   -0.960813
    101          1           0      -10.516508    7.437506    1.249535
    102          7           0       -4.629667    1.616441   -0.577292
    103          6           0       -4.267391    0.503594    0.279229
    104          6           0       -4.834824   -0.816584   -0.227575
    105          8           0       -4.043441   -1.734475   -0.439446
    106          6           0       -4.619007    0.737587    1.745487
    107          6           0       -4.123897    2.067058    2.296823
    108          6           0       -4.197614   -0.389115    2.696417
    109          6           0       -2.612276    2.249829    2.113256
    110          1           0       -3.879089    2.250474   -0.833485
    111          1           0       -3.188358    0.428327    0.165550
    112          1           0       -5.709861    0.732533    1.672594
    113          1           0       -4.356397    2.236464    3.339006
    114          1           0       -4.409774    2.955773    1.732412
    115          1           0       -4.730134   -1.322940    2.511502
    116          1           0       -3.136273   -0.565062    2.496422
    117          1           0       -4.370053   -0.141057    3.741134
    118          1           0       -2.085219    1.350629    2.456258
    119          1           0       -2.335550    2.422978    1.071411
    120          1           0       -2.285389    3.104134    2.694898
    121          7           0       -6.151308   -1.016442   -0.271450
    122          6           0       -6.824111   -2.231150   -0.686203
    123          6           0       -6.351166   -3.448699    0.086712
    124          8           0       -6.102994   -4.489616   -0.519096
    125          6           0       -8.337201   -2.033216   -0.642856
    126          8           0       -8.676363   -1.895602    0.717780
    127          1           0       -6.746595   -0.249731   -0.014959
    128          1           0       -6.537785   -2.460070   -1.709391
    129          1           0       -8.903303   -2.815256   -1.152015
    130          1           0       -8.590077   -1.134167   -1.205231
    131          1           0       -9.609962   -2.099256    0.872108
    132          7           0       -6.139257   -3.240593    1.391199
    133          6           0       -5.483112   -4.045019    2.402373
    134          6           0       -4.193093   -4.790716    2.075132
    135          8           0       -3.882886   -5.846890    2.603968
    136          6           0       -6.428989   -4.969917    3.174566
    137          1           0       -6.375602   -2.327086    1.764355
    138          1           0       -5.146347   -3.306848    3.118608
    139          1           0       -6.732869   -5.812558    2.553750
    140          1           0       -5.884556   -5.367420    4.029425
    141          1           0       -7.323583   -4.492523    3.562246
    142          7           0       -3.378439   -4.285433    1.139221
    143          6           0       -2.173282   -4.920168    0.642021
    144          6           0       -1.057526   -4.574466    1.627404
    145          8           0       -0.887461   -3.482098    2.167412
    146          6           0       -1.805080   -4.554969   -0.794349
    147          1           0       -3.637380   -3.398311    0.735657
    148          1           0       -2.401916   -5.981234    0.597684
    149          1           0       -2.139630   -3.541210   -1.008053
    150          1           0       -0.759071   -4.668734   -1.061414
    151          1           0       -2.407524   -5.241437   -1.395948
    152          7           0       -0.133188   -5.540225    1.762710
    153          6           0        1.154156   -5.422433    2.400652
    154          6           0        1.115223   -5.067976    3.884750
    155          8           0        2.097574   -4.624087    4.471306
    156          6           0        2.053169   -4.526734    1.553953
    157          6           0        2.235424   -5.020311    0.122812
    158          6           0        3.269784   -4.189184   -0.625338
    159          8           0        4.437052   -4.035548   -0.187638
    160          8           0        3.027845   -3.824291   -1.797268
    161          1           0       -0.298148   -6.323736    1.144083
    162          1           0        1.537744   -6.443427    2.347443
    163          1           0        3.055997   -4.360283    1.939739
    164          1           0        1.668730   -3.511610    1.454306
    165          1           0        1.245485   -4.944021   -0.328630
    166          1           0        2.521216   -6.066575    0.014855
    167          7           0       -0.046398   -4.987235    4.523356
    168          6           0       -0.222031   -4.372357    5.820923
    169          1           0        0.049671   -3.318386    5.763104
    170          1           0       -1.264209   -4.462539    6.127789
    171          1           0        0.416738   -4.872179    6.550110
    172          1           0       -0.886796   -5.284611    4.035711
    173         20           0        5.533536   -4.272908   -2.511661
    174          8           0        6.962304   -6.173544   -3.744586
    175          1           0        7.869903   -6.267374   -3.441173
    176          1           0        6.781284   -6.967650   -4.245612
 ---------------------------------------------------------------------
 Rotational constants (GHZ):           0.0190526           0.0111238           0.0092317
 Standard basis: SVP (5D, 7F)
 There are  1809 symmetry adapted cartesian basis functions of A   symmetry.
 There are  1717 symmetry adapted basis functions of A   symmetry.
  1717 basis functions,  2922 primitive gaussians,  1809 cartesian basis functions
   358 alpha electrons      358 beta electrons
       nuclear repulsion energy     20032.3459530759 Hartrees.
 NAtoms=  176 NActive=  176 NUniq=  176 SFac= 1.00D+00 NAtFMM=   60 NAOKFM=T Big=T
 Integral buffers will be    131072 words long.
 Raffenetti 2 integral format.
 Two-electron integral symmetry is turned on.
 One-electron integrals computed using PRISM.
 NBasis=  1717 RedAO= T EigKep=  3.72D-04  NBF=  1717
 NBsUse=  1717 1.00D-06 EigRej= -1.00D+00 NBFU=  1717
 ExpMin= 1.98D-02 ExpMax= 3.51D+04 ExpMxC= 5.28D+03 IAcc=3 IRadAn=         5 AccDes= 0.00D+00
 Harris functional with IExCor=  402 and IRadAn=       5 diagonalized for initial guess.
 HarFok:  IExCor=  402 AccDes= 0.00D+00 IRadAn=         5 IDoV= 1 UseB2=F ITyADJ=14
 ICtDFT=  3500011 ScaDFX=  1.000000  1.000000  1.000000  1.000000
 FoFCou: FMM=F IPFlag=           0 FMFlag=      100000 FMFlg1=        2001
         NFxFlg=           0 DoJE=T BraDBF=F KetDBF=T FulRan=T
         wScrn=  0.000000 ICntrl=       500 IOpCl=  0 I1Cent=   200000004 NGrid=           0
         NMat0=    1 NMatS0=      1 NMatT0=    0 NMatD0=    1 NMtDS0=    0 NMtDT0=    0
 Petite list used in FoFCou.
 Requested convergence on RMS density matrix=1.00D-08 within 128 cycles.
 Requested convergence on MAX density matrix=1.00D-06.
 Requested convergence on             energy=1.00D-06.
 No special actions if energy rises.
 EnCoef did     2 forward-backward iterations
 EnCoef did     1 forward-backward iterations
 EnCoef did     4 forward-backward iterations
 EnCoef did     2 forward-backward iterations
 EnCoef did    10 forward-backward iterations
 EnCoef did    44 forward-backward iterations
 EnCoef did    62 forward-backward iterations
 EnCoef did    48 forward-backward iterations
 EnCoef did    12 forward-backward iterations
 Restarting incremental Fock formation.
 SCF Done:  E(RB3LYP) =  -5333.43975422     A.U. after   28 cycles
            NFock= 28  Conv=0.23D-08     -V/T= 2.0081
 SCF density gives NOpUse=  1 NOpAll=  1.
 Hyperfine terms turned off by default for NAtoms > 100.

 **********************************************************************

            Population analysis using the SCF density.

 **********************************************************************

 Orbital symmetries:
 BldTbl:  Degeneracy threshold= 1.00D-02
       Occupied  (A) (A) (A) (A) (A) (A) (A) (A) (A) (A) (A) (A)
                 (A) (A) (A) (A) (A) (A) (A) (A) (A) (A) (A) (A)
                 (A) (A) (A) (A) (A) (A) (A) (A) (A) (A) (A) (A)
                 (A) (A) (A) (A) (A) (A) (A) (A) (A) (A) (A) (A)
                 (A) (A) (A) (A) (A) (A) (A) (A) (A) (A) (A) (A)
                 (A) (A) (A) (A) (A) (A) (A) (A) (A) (A) (A) (A)
                 (A) (A) (A) (A) (A) (A) (A) (A) (A) (A) (A) (A)
                 (A) (A) (A) (A) (A) (A) (A) (A) (A) (A) (A) (A)
                 (A) (A) (A) (A) (A) (A) (A) (A) (A) (A) (A) (A)
                 (A) (A) (A) (A) (A) (A) (A) (A) (A) (A) (A) (A)
                 (A) (A) (A) (A) (A) (A) (A) (A) (A) (A) (A) (A)
                 (A) (A) (A) (A) (A) (A) (A) (A) (A) (A) (A) (A)
                 (A) (A) (A) (A) (A) (A) (A) (A) (A) (A) (A) (A)
                 (A) (A) (A) (A) (A) (A) (A) (A) (A) (A) (A) (A)
                 (A) (A) (A) (A) (A) (A) (A) (A) (A) (A) (A) (A)
                 (A) (A) (A) (A) (A) (A) (A) (A) (A) (A) (A) (A)
                 (A) (A) (A) (A) (A) (A) (A) (A) (A) (A) (A) (A)
                 (A) (A) (A) (A) (A) (A) (A) (A) (A) (A) (A) (A)
                 (A) (A) (A) (A) (A) (A) (A) (A) (A) (A) (A) (A)
                 (A) (A) (A) (A) (A) (A) (A) (A) (A) (A) (A) (A)
                 (A) (A) (A) (A) (A) (A) (A) (A) (A) (A) (A) (A)
                 (A) (A) (A) (A) (A) (A) (A) (A) (A) (A) (A) (A)
                 (A) (A) (A) (A) (A) (A) (A) (A) (A) (A) (A) (A)
                 (A) (A) (A) (A) (A) (A) (A) (A) (A) (A) (A) (A)
                 (A) (A) (A) (A) (A) (A) (A) (A) (A) (A) (A) (A)
                 (A) (A) (A) (A) (A) (A) (A) (A) (A) (A) (A) (A)
                 (A) (A) (A) (A) (A) (A) (A) (A) (A) (A) (A) (A)
                 (A) (A) (A) (A) (A) (A) (A) (A) (A) (A) (A) (A)
                 (A) (A) (A) (A) (A) (A) (A) (A) (A) (A) (A) (A)
                 (A) (A) (A) (A) (A) (A) (A) (A) (A) (A)
       Virtual   (A) (A) (A) (A) (A) (A) (A) (A) (A) (A) (A) (A)
                 (A) (A) (A) (A) (A) (A) (A) (A) (A) (A) (A) (A)
                 (A) (A) (A) (A) (A) (A) (A) (A) (A) (A) (A) (A)
                 (A) (A) (A) (A) (A) (A) (A) (A) (A) (A) (A) (A)
                 (A) (A) (A) (A) (A) (A) (A) (A) (A) (A) (A) (A)
                 (A) (A) (A) (A) (A) (A) (A) (A) (A) (A) (A) (A)
                 (A) (A) (A) (A) (A) (A) (A) (A) (A) (A) (A) (A)
                 (A) (A) (A) (A) (A) (A) (A) (A) (A) (A) (A) (A)
                 (A) (A) (A) (A) (A) (A) (A) (A) (A) (A) (A) (A)
                 (A) (A) (A) (A) (A) (A) (A) (A) (A) (A) (A) (A)
                 (A) (A) (A) (A) (A) (A) (A) (A) (A) (A) (A) (A)
                 (A) (A) (A) (A) (A) (A) (A) (A) (A) (A) (A) (A)
                 (A) (A) (A) (A) (A) (A) (A) (A) (A) (A) (A) (A)
                 (A) (A) (A) (A) (A) (A) (A) (A) (A) (A) (A) (A)
                 (A) (A) (A) (A) (A) (A) (A) (A) (A) (A) (A) (A)
                 (A) (A) (A) (A) (A) (A) (A) (A) (A) (A) (A) (A)
                 (A) (A) (A) (A) (A) (A) (A) (A) (A) (A) (A) (A)
                 (A) (A) (A) (A) (A) (A) (A) (A) (A) (A) (A) (A)
                 (A) (A) (A) (A) (A) (A) (A) (A) (A) (A) (A) (A)
                 (A) (A) (A) (A) (A) (A) (A) (A) (A) (A) (A) (A)
                 (A) (A) (A) (A) (A) (A) (A) (A) (A) (A) (A) (A)
                 (A) (A) (A) (A) (A) (A) (A) (A) (A) (A) (A) (A)
                 (A) (A) (A) (A) (A) (A) (A) (A) (A) (A) (A) (A)
                 (A) (A) (A) (A) (A) (A) (A) (A) (A) (A) (A) (A)
                 (A) (A) (A) (A) (A) (A) (A) (A) (A) (A) (A) (A)
                 (A) (A) (A) (A) (A) (A) (A) (A) (A) (A) (A) (A)
                 (A) (A) (A) (A) (A) (A) (A) (A) (A) (A) (A) (A)
                 (A) (A) (A) (A) (A) (A) (A) (A) (A) (A) (A) (A)
                 (A) (A) (A) (A) (A) (A) (A) (A) (A) (A) (A) (A)
                 (A) (A) (A) (A) (A) (A) (A) (A) (A) (A) (A) (A)
                 (A) (A) (A) (A) (A) (A) (A) (A) (A) (A) (A) (A)
                 (A) (A) (A) (A) (A) (A) (A) (A) (A) (A) (A) (A)
                 (A) (A) (A) (A) (A) (A) (A) (A) (A) (A) (A) (A)
                 (A) (A) (A) (A) (A) (A) (A) (A) (A) (A) (A) (A)
                 (A) (A) (A) (A) (A) (A) (A) (A) (A) (A) (A) (A)
                 (A) (A) (A) (A) (A) (A) (A) (A) (A) (A) (A) (A)
                 (A) (A) (A) (A) (A) (A) (A) (A) (A) (A) (A) (A)
                 (A) (A) (A) (A) (A) (A) (A) (A) (A) (A) (A) (A)
                 (A) (A) (A) (A) (A) (A) (A) (A) (A) (A) (A) (A)
                 (A) (A) (A) (A) (A) (A) (A) (A) (A) (A) (A) (A)
                 (A) (A) (A) (A) (A) (A) (A) (A) (A) (A) (A) (A)
                 (A) (A) (A) (A) (A) (A) (A) (A) (A) (A) (A) (A)
                 (A) (A) (A) (A) (A) (A) (A) (A) (A) (A) (A) (A)
                 (A) (A) (A) (A) (A) (A) (A) (A) (A) (A) (A) (A)
                 (A) (A) (A) (A) (A) (A) (A) (A) (A) (A) (A) (A)
                 (A) (A) (A) (A) (A) (A) (A) (A) (A) (A) (A) (A)
                 (A) (A) (A) (A) (A) (A) (A) (A) (A) (A) (A) (A)
                 (A) (A) (A) (A) (A) (A) (A) (A) (A) (A) (A) (A)
                 (A) (A) (A) (A) (A) (A) (A) (A) (A) (A) (A) (A)
                 (A) (A) (A) (A) (A) (A) (A) (A) (A) (A) (A) (A)
                 (A) (A) (A) (A) (A) (A) (A) (A) (A) (A) (A) (A)
                 (A) (A) (A) (A) (A) (A) (A) (A) (A) (A) (A) (A)
                 (A) (A) (A) (A) (A) (A) (A) (A) (A) (A) (A) (A)
                 (A) (A) (A) (A) (A) (A) (A) (A) (A) (A) (A) (A)
                 (A) (A) (A) (A) (A) (A) (A) (A) (A) (A) (A) (A)
                 (A) (A) (A) (A) (A) (A) (A) (A) (A) (A) (A) (A)
                 (A) (A) (A) (A) (A) (A) (A) (A) (A) (A) (A) (A)
                 (A) (A) (A) (A) (A) (A) (A) (A) (A) (A) (A) (A)
                 (A) (A) (A) (A) (A) (A) (A) (A) (A) (A) (A) (A)
                 (A) (A) (A) (A) (A) (A) (A) (A) (A) (A) (A) (A)
                 (A) (A) (A) (A) (A) (A) (A) (A) (A) (A) (A) (A)
                 (A) (A) (A) (A) (A) (A) (A) (A) (A) (A) (A) (A)
                 (A) (A) (A) (A) (A) (A) (A) (A) (A) (A) (A) (A)
                 (A) (A) (A) (A) (A) (A) (A) (A) (A) (A) (A) (A)
                 (A) (A) (A) (A) (A) (A) (A) (A) (A) (A) (A) (A)
                 (A) (A) (A) (A) (A) (A) (A) (A) (A) (A) (A) (A)
                 (A) (A) (A) (A) (A) (A) (A) (A) (A) (A) (A) (A)
                 (A) (A) (A) (A) (A) (A) (A) (A) (A) (A) (A) (A)
                 (A) (A) (A) (A) (A) (A) (A) (A) (A) (A) (A) (A)
                 (A) (A) (A) (A) (A) (A) (A) (A) (A) (A) (A) (A)
                 (A) (A) (A) (A) (A) (A) (A) (A) (A) (A) (A) (A)
                 (A) (A) (A) (A) (A) (A) (A) (A) (A) (A) (A) (A)
                 (A) (A) (A) (A) (A) (A) (A) (A) (A) (A) (A) (A)
                 (A) (A) (A) (A) (A) (A) (A) (A) (A) (A) (A) (A)
                 (A) (A) (A) (A) (A) (A) (A) (A) (A) (A) (A) (A)
                 (A) (A) (A) (A) (A) (A) (A) (A) (A) (A) (A) (A)
                 (A) (A) (A) (A) (A) (A) (A) (A) (A) (A) (A) (A)
                 (A) (A) (A) (A) (A) (A) (A) (A) (A) (A) (A) (A)
                 (A) (A) (A) (A) (A) (A) (A) (A) (A) (A) (A) (A)
                 (A) (A) (A) (A) (A) (A) (A) (A) (A) (A) (A) (A)
                 (A) (A) (A) (A) (A) (A) (A) (A) (A) (A) (A) (A)
                 (A) (A) (A) (A) (A) (A) (A) (A) (A) (A) (A) (A)
                 (A) (A) (A) (A) (A) (A) (A) (A) (A) (A) (A) (A)
                 (A) (A) (A) (A) (A) (A) (A) (A) (A) (A) (A) (A)
                 (A) (A) (A) (A) (A) (A) (A) (A) (A) (A) (A) (A)
                 (A) (A) (A) (A) (A) (A) (A) (A) (A) (A) (A) (A)
                 (A) (A) (A) (A) (A) (A) (A) (A) (A) (A) (A) (A)
                 (A) (A) (A) (A) (A) (A) (A) (A) (A) (A) (A) (A)
                 (A) (A) (A) (A) (A) (A) (A) (A) (A) (A) (A) (A)
                 (A) (A) (A) (A) (A) (A) (A) (A) (A) (A) (A) (A)
                 (A) (A) (A) (A) (A) (A) (A) (A) (A) (A) (A) (A)
                 (A) (A) (A) (A) (A) (A) (A) (A) (A) (A) (A) (A)
                 (A) (A) (A) (A) (A) (A) (A) (A) (A) (A) (A) (A)
                 (A) (A) (A) (A) (A) (A) (A) (A) (A) (A) (A) (A)
                 (A) (A) (A) (A) (A) (A) (A) (A) (A) (A) (A) (A)
                 (A) (A) (A) (A) (A) (A) (A) (A) (A) (A) (A) (A)
                 (A) (A) (A) (A) (A) (A) (A) (A) (A) (A) (A) (A)
                 (A) (A) (A) (A) (A) (A) (A) (A) (A) (A) (A) (A)
                 (A) (A) (A) (A) (A) (A) (A) (A) (A) (A) (A) (A)
                 (A) (A) (A) (A) (A) (A) (A) (A) (A) (A) (A) (A)
                 (A) (A) (A) (A) (A) (A) (A) (A) (A) (A) (A) (A)
                 (A) (A) (A) (A) (A) (A) (A) (A) (A) (A) (A) (A)
                 (A) (A) (A) (A) (A) (A) (A) (A) (A) (A) (A) (A)
                 (A) (A) (A) (A) (A) (A) (A) (A) (A) (A) (A) (A)
                 (A) (A) (A) (A) (A) (A) (A) (A) (A) (A) (A) (A)
                 (A) (A) (A) (A) (A) (A) (A) (A) (A) (A) (A) (A)
                 (A) (A) (A) (A) (A) (A) (A) (A) (A) (A) (A) (A)
                 (A) (A) (A) (A) (A) (A) (A) (A) (A) (A) (A) (A)
                 (A) (A) (A) (A) (A) (A) (A) (A) (A) (A) (A) (A)
                 (A) (A) (A) (A) (A) (A) (A) (A) (A) (A) (A) (A)
                 (A) (A) (A) (A) (A) (A) (A) (A) (A) (A) (A) (A)
                 (A) (A) (A) (A) (A) (A) (A) (A) (A) (A) (A) (A)
                 (A) (A) (A) (A) (A) (A) (A) (A) (A) (A) (A) (A)
                 (A) (A) (A)
 The electronic state is 1-A.
 Alpha  occ. eigenvalues -- -145.49205 -19.26243 -19.16697 -19.14970 -19.13650
 Alpha  occ. eigenvalues --  -19.13523 -19.12691 -19.12118 -19.11736 -19.11169
 Alpha  occ. eigenvalues --  -19.11156 -19.10063 -19.09946 -19.09214 -19.09202
 Alpha  occ. eigenvalues --  -19.08676 -19.08362 -19.08156 -19.07981 -19.06990
 Alpha  occ. eigenvalues --  -19.04667 -19.03916 -18.98645 -18.98521 -15.55118
 Alpha  occ. eigenvalues --  -14.40834 -14.39454 -14.39235 -14.38793 -14.38730
 Alpha  occ. eigenvalues --  -14.36219 -14.35511 -14.34965 -14.34923 -14.34652
 Alpha  occ. eigenvalues --  -14.33818 -14.33081 -14.32854 -14.32098 -14.29771
 Alpha  occ. eigenvalues --  -12.68729 -12.68702 -12.68616 -10.32362 -10.32097
 Alpha  occ. eigenvalues --  -10.31269 -10.30967 -10.30327 -10.30220 -10.28635
 Alpha  occ. eigenvalues --  -10.28597 -10.27906 -10.27584 -10.27529 -10.27302
 Alpha  occ. eigenvalues --  -10.26997 -10.26995 -10.26605 -10.26249 -10.26066
 Alpha  occ. eigenvalues --  -10.25946 -10.25811 -10.25242 -10.24949 -10.23790
 Alpha  occ. eigenvalues --  -10.23693 -10.23604 -10.23603 -10.23159 -10.23153
 Alpha  occ. eigenvalues --  -10.23089 -10.22855 -10.20742 -10.20375 -10.20192
 Alpha  occ. eigenvalues --  -10.19924 -10.19876 -10.19871 -10.19690 -10.19596
 Alpha  occ. eigenvalues --  -10.19425 -10.19351 -10.19349 -10.19341 -10.19335
 Alpha  occ. eigenvalues --  -10.18712 -10.18521 -10.18372 -10.18132 -10.17979
 Alpha  occ. eigenvalues --  -10.17969 -10.17611 -10.17379 -10.16958 -10.16797
 Alpha  occ. eigenvalues --  -10.14864 -10.10991  -1.91774  -1.19343  -1.19123
 Alpha  occ. eigenvalues --   -1.18563  -1.11893  -1.07142  -1.06832  -1.06537
 Alpha  occ. eigenvalues --   -1.05399  -1.05330  -1.04978  -1.04480  -1.04256
 Alpha  occ. eigenvalues --   -1.03524  -1.02670  -1.02602  -1.02518  -1.01612
 Alpha  occ. eigenvalues --   -1.01101  -1.00864  -1.00491  -0.98407  -0.97810
 Alpha  occ. eigenvalues --   -0.96387  -0.96354  -0.95704  -0.95538  -0.95390
 Alpha  occ. eigenvalues --   -0.94765  -0.93560  -0.92732  -0.92647  -0.92470
 Alpha  occ. eigenvalues --   -0.92264  -0.91822  -0.91440  -0.89869  -0.89712
 Alpha  occ. eigenvalues --   -0.88883  -0.88830  -0.86556  -0.85821  -0.83235
 Alpha  occ. eigenvalues --   -0.82338  -0.81550  -0.80587  -0.80176  -0.80002
 Alpha  occ. eigenvalues --   -0.79009  -0.78261  -0.77004  -0.76895  -0.75986
 Alpha  occ. eigenvalues --   -0.75344  -0.75274  -0.75222  -0.74357  -0.73227
 Alpha  occ. eigenvalues --   -0.73167  -0.72863  -0.70846  -0.69910  -0.69284
 Alpha  occ. eigenvalues --   -0.68671  -0.67936  -0.67303  -0.67082  -0.66588
 Alpha  occ. eigenvalues --   -0.65697  -0.65315  -0.64447  -0.63925  -0.63663
 Alpha  occ. eigenvalues --   -0.63470  -0.63196  -0.62763  -0.62602  -0.61799
 Alpha  occ. eigenvalues --   -0.61652  -0.60607  -0.60141  -0.59688  -0.59392
 Alpha  occ. eigenvalues --   -0.59281  -0.58856  -0.58845  -0.58509  -0.58206
 Alpha  occ. eigenvalues --   -0.58052  -0.57598  -0.57217  -0.56878  -0.56388
 Alpha  occ. eigenvalues --   -0.56345  -0.56141  -0.55885  -0.55563  -0.55401
 Alpha  occ. eigenvalues --   -0.55321  -0.54978  -0.54499  -0.53982  -0.53483
 Alpha  occ. eigenvalues --   -0.53393  -0.53311  -0.53126  -0.52833  -0.52722
 Alpha  occ. eigenvalues --   -0.51900  -0.51788  -0.51480  -0.51236  -0.50553
 Alpha  occ. eigenvalues --   -0.50247  -0.50093  -0.49421  -0.49125  -0.48965
 Alpha  occ. eigenvalues --   -0.48807  -0.48609  -0.48540  -0.48154  -0.48070
 Alpha  occ. eigenvalues --   -0.47894  -0.47687  -0.47569  -0.47464  -0.46979
 Alpha  occ. eigenvalues --   -0.46754  -0.46420  -0.46207  -0.45999  -0.45909
 Alpha  occ. eigenvalues --   -0.45854  -0.45681  -0.45212  -0.45096  -0.45068
 Alpha  occ. eigenvalues --   -0.44983  -0.44827  -0.44362  -0.44195  -0.44028
 Alpha  occ. eigenvalues --   -0.43818  -0.43690  -0.43649  -0.43638  -0.43585
 Alpha  occ. eigenvalues --   -0.43490  -0.43288  -0.43207  -0.42816  -0.42646
 Alpha  occ. eigenvalues --   -0.42484  -0.42389  -0.42128  -0.41968  -0.41812
 Alpha  occ. eigenvalues --   -0.41761  -0.41601  -0.41581  -0.41216  -0.41137
 Alpha  occ. eigenvalues --   -0.41038  -0.40893  -0.40750  -0.40692  -0.40671
 Alpha  occ. eigenvalues --   -0.40571  -0.40458  -0.40254  -0.40026  -0.39969
 Alpha  occ. eigenvalues --   -0.39896  -0.39865  -0.39732  -0.39490  -0.39258
 Alpha  occ. eigenvalues --   -0.39248  -0.39027  -0.38675  -0.38285  -0.38157
 Alpha  occ. eigenvalues --   -0.38020  -0.37964  -0.37838  -0.37687  -0.37577
 Alpha  occ. eigenvalues --   -0.37466  -0.37240  -0.37192  -0.36899  -0.36862
 Alpha  occ. eigenvalues --   -0.36796  -0.36651  -0.36172  -0.36156  -0.36133
 Alpha  occ. eigenvalues --   -0.35937  -0.35806  -0.35635  -0.35376  -0.35147
 Alpha  occ. eigenvalues --   -0.34962  -0.34785  -0.34358  -0.34327  -0.34183
 Alpha  occ. eigenvalues --   -0.34036  -0.33908  -0.33776  -0.33647  -0.33275
 Alpha  occ. eigenvalues --   -0.33244  -0.32816  -0.32440  -0.31301  -0.31230
 Alpha  occ. eigenvalues --   -0.30706  -0.30505  -0.30374  -0.30079  -0.29951
 Alpha  occ. eigenvalues --   -0.29729  -0.29588  -0.29489  -0.29385  -0.29249
 Alpha  occ. eigenvalues --   -0.29141  -0.28127  -0.28050  -0.27969  -0.27728
 Alpha  occ. eigenvalues --   -0.27233  -0.27164  -0.27055  -0.26926  -0.26832
 Alpha  occ. eigenvalues --   -0.26633  -0.26446  -0.26140  -0.26032  -0.25695
 Alpha  occ. eigenvalues --   -0.25345  -0.24975  -0.24665  -0.24577  -0.24153
 Alpha  occ. eigenvalues --   -0.23776  -0.23569  -0.23114  -0.23051  -0.22730
 Alpha  occ. eigenvalues --   -0.22499  -0.22050  -0.21203  -0.19963  -0.19645
 Alpha  occ. eigenvalues --   -0.15645  -0.14315  -0.13207
 Alpha virt. eigenvalues --   -0.12370  -0.03891  -0.03422  -0.02659  -0.02321
 Alpha virt. eigenvalues --   -0.02043  -0.01529  -0.01194  -0.00675  -0.00569
 Alpha virt. eigenvalues --   -0.00019   0.00516   0.00851   0.00998   0.01409
 Alpha virt. eigenvalues --    0.01617   0.01858   0.02003   0.02055   0.02770
 Alpha virt. eigenvalues --    0.02823   0.02984   0.03261   0.03482   0.03726
 Alpha virt. eigenvalues --    0.04015   0.04204   0.04434   0.04586   0.04823
 Alpha virt. eigenvalues --    0.05260   0.05301   0.05598   0.05852   0.06060
 Alpha virt. eigenvalues --    0.06993   0.07215   0.07467   0.07741   0.07955
 Alpha virt. eigenvalues --    0.08110   0.08442   0.08526   0.08938   0.09004
 Alpha virt. eigenvalues --    0.09119   0.09235   0.09544   0.09867   0.09987
 Alpha virt. eigenvalues --    0.10226   0.10449   0.10548   0.10625   0.10885
 Alpha virt. eigenvalues --    0.11210   0.11421   0.11547   0.11632   0.11772
 Alpha virt. eigenvalues --    0.11948   0.12016   0.12324   0.12454   0.12678
 Alpha virt. eigenvalues --    0.12814   0.13086   0.13141   0.13205   0.13366
 Alpha virt. eigenvalues --    0.13456   0.13610   0.14061   0.14135   0.14166
 Alpha virt. eigenvalues --    0.14311   0.14814   0.14926   0.14986   0.15039
 Alpha virt. eigenvalues --    0.15134   0.15545   0.15620   0.15916   0.16034
 Alpha virt. eigenvalues --    0.16195   0.16281   0.16436   0.16594   0.16641
 Alpha virt. eigenvalues --    0.16877   0.16947   0.17165   0.17274   0.17360
 Alpha virt. eigenvalues --    0.17416   0.17825   0.17926   0.18098   0.18210
 Alpha virt. eigenvalues --    0.18607   0.18700   0.18767   0.18960   0.19047
 Alpha virt. eigenvalues --    0.19422   0.19593   0.20164   0.20274   0.20540
 Alpha virt. eigenvalues --    0.20668   0.20975   0.21023   0.21085   0.21181
 Alpha virt. eigenvalues --    0.21549   0.21664   0.21852   0.21932   0.22096
 Alpha virt. eigenvalues --    0.22276   0.22334   0.22657   0.22863   0.22956
 Alpha virt. eigenvalues --    0.23164   0.23349   0.23535   0.23803   0.24072
 Alpha virt. eigenvalues --    0.24134   0.24253   0.24744   0.24883   0.25013
 Alpha virt. eigenvalues --    0.25148   0.25392   0.25555   0.25637   0.25814
 Alpha virt. eigenvalues --    0.26016   0.26269   0.26566   0.26921   0.27129
 Alpha virt. eigenvalues --    0.27387   0.27577   0.27736   0.28026   0.28325
 Alpha virt. eigenvalues --    0.28494   0.28696   0.28738   0.28843   0.29100
 Alpha virt. eigenvalues --    0.29438   0.29733   0.29916   0.30112   0.30257
 Alpha virt. eigenvalues --    0.30760   0.30914   0.31068   0.31518   0.31789
 Alpha virt. eigenvalues --    0.32037   0.32280   0.32495   0.33020   0.33234
 Alpha virt. eigenvalues --    0.33865   0.33996   0.34154   0.34290   0.34998
 Alpha virt. eigenvalues --    0.35196   0.35467   0.35866   0.35934   0.36539
 Alpha virt. eigenvalues --    0.36740   0.37068   0.37354   0.37827   0.38043
 Alpha virt. eigenvalues --    0.38522   0.38886   0.38994   0.39134   0.39234
 Alpha virt. eigenvalues --    0.39362   0.39920   0.40214   0.40364   0.40519
 Alpha virt. eigenvalues --    0.40978   0.41108   0.41333   0.41780   0.41840
 Alpha virt. eigenvalues --    0.42022   0.42338   0.42434   0.42724   0.42809
 Alpha virt. eigenvalues --    0.43063   0.43369   0.43662   0.43797   0.43876
 Alpha virt. eigenvalues --    0.44029   0.44337   0.44477   0.44864   0.45077
 Alpha virt. eigenvalues --    0.45380   0.45451   0.45670   0.45792   0.45967
 Alpha virt. eigenvalues --    0.46129   0.46196   0.46286   0.46515   0.46859
 Alpha virt. eigenvalues --    0.46965   0.47059   0.47279   0.47481   0.47706
 Alpha virt. eigenvalues --    0.47841   0.47871   0.48032   0.48309   0.48505
 Alpha virt. eigenvalues --    0.48745   0.48871   0.49051   0.49244   0.49365
 Alpha virt. eigenvalues --    0.49679   0.49953   0.50182   0.50293   0.50325
 Alpha virt. eigenvalues --    0.50694   0.50922   0.50970   0.51461   0.51654
 Alpha virt. eigenvalues --    0.51827   0.51868   0.52016   0.52267   0.52293
 Alpha virt. eigenvalues --    0.52697   0.52737   0.53023   0.53157   0.53396
 Alpha virt. eigenvalues --    0.53521   0.53714   0.53837   0.53967   0.54071
 Alpha virt. eigenvalues --    0.54217   0.54714   0.54887   0.54978   0.55162
 Alpha virt. eigenvalues --    0.55582   0.55738   0.56034   0.56316   0.56441
 Alpha virt. eigenvalues --    0.56752   0.57037   0.57168   0.57331   0.57524
 Alpha virt. eigenvalues --    0.57653   0.57977   0.58195   0.58264   0.58448
 Alpha virt. eigenvalues --    0.58648   0.58732   0.58891   0.58931   0.59062
 Alpha virt. eigenvalues --    0.59497   0.59687   0.59935   0.60093   0.60167
 Alpha virt. eigenvalues --    0.60378   0.60499   0.60596   0.60880   0.60966
 Alpha virt. eigenvalues --    0.61057   0.61152   0.61240   0.61512   0.61546
 Alpha virt. eigenvalues --    0.61666   0.61699   0.61971   0.62116   0.62193
 Alpha virt. eigenvalues --    0.62359   0.62549   0.62764   0.62938   0.63000
 Alpha virt. eigenvalues --    0.63073   0.63294   0.63412   0.63503   0.63633
 Alpha virt. eigenvalues --    0.63694   0.63848   0.63875   0.63967   0.64121
 Alpha virt. eigenvalues --    0.64216   0.64422   0.64501   0.64618   0.64693
 Alpha virt. eigenvalues --    0.64767   0.65041   0.65152   0.65327   0.65364
 Alpha virt. eigenvalues --    0.65468   0.65674   0.65750   0.65917   0.65992
 Alpha virt. eigenvalues --    0.66072   0.66210   0.66399   0.66515   0.66583
 Alpha virt. eigenvalues --    0.66732   0.66850   0.66908   0.67006   0.67114
 Alpha virt. eigenvalues --    0.67291   0.67330   0.67455   0.67498   0.67776
 Alpha virt. eigenvalues --    0.67818   0.67873   0.68062   0.68150   0.68238
 Alpha virt. eigenvalues --    0.68442   0.68506   0.68605   0.68693   0.68796
 Alpha virt. eigenvalues --    0.68936   0.69060   0.69166   0.69227   0.69329
 Alpha virt. eigenvalues --    0.69391   0.69653   0.69724   0.69922   0.70045
 Alpha virt. eigenvalues --    0.70294   0.70312   0.70446   0.70552   0.70708
 Alpha virt. eigenvalues --    0.70810   0.71053   0.71098   0.71209   0.71328
 Alpha virt. eigenvalues --    0.71500   0.71537   0.71637   0.71830   0.72004
 Alpha virt. eigenvalues --    0.72240   0.72375   0.72628   0.72688   0.72935
 Alpha virt. eigenvalues --    0.73260   0.73456   0.73658   0.73846   0.74035
 Alpha virt. eigenvalues --    0.74299   0.74429   0.74528   0.74729   0.74953
 Alpha virt. eigenvalues --    0.75090   0.75191   0.75369   0.75544   0.75719
 Alpha virt. eigenvalues --    0.75804   0.76048   0.76412   0.76474   0.76653
 Alpha virt. eigenvalues --    0.76769   0.76787   0.77007   0.77064   0.77717
 Alpha virt. eigenvalues --    0.77980   0.78296   0.78464   0.78755   0.78954
 Alpha virt. eigenvalues --    0.79147   0.79181   0.79578   0.79678   0.80046
 Alpha virt. eigenvalues --    0.80173   0.80507   0.80621   0.80894   0.81161
 Alpha virt. eigenvalues --    0.81311   0.81495   0.81607   0.81904   0.82008
 Alpha virt. eigenvalues --    0.82401   0.82619   0.82871   0.83102   0.83233
 Alpha virt. eigenvalues --    0.83454   0.83624   0.83997   0.84137   0.84428
 Alpha virt. eigenvalues --    0.84603   0.85261   0.85443   0.85715   0.85871
 Alpha virt. eigenvalues --    0.86338   0.86775   0.86864   0.87034   0.87342
 Alpha virt. eigenvalues --    0.87774   0.87907   0.88378   0.88875   0.88908
 Alpha virt. eigenvalues --    0.89239   0.89298   0.89828   0.90133   0.90295
 Alpha virt. eigenvalues --    0.90522   0.90944   0.91030   0.91350   0.91482
 Alpha virt. eigenvalues --    0.91831   0.92134   0.92292   0.92509   0.92824
 Alpha virt. eigenvalues --    0.93114   0.93480   0.93860   0.94261   0.94377
 Alpha virt. eigenvalues --    0.94630   0.94990   0.95356   0.95571   0.96221
 Alpha virt. eigenvalues --    0.96267   0.96293   0.96574   0.97151   0.97499
 Alpha virt. eigenvalues --    0.97624   0.98015   0.98462   0.98745   0.98887
 Alpha virt. eigenvalues --    0.98931   0.99196   0.99395   0.99454   0.99990
 Alpha virt. eigenvalues --    1.00335   1.00731   1.01268   1.01453   1.01863
 Alpha virt. eigenvalues --    1.02009   1.02251   1.02511   1.02742   1.03076
 Alpha virt. eigenvalues --    1.03227   1.03437   1.03592   1.03898   1.04176
 Alpha virt. eigenvalues --    1.04362   1.04673   1.05439   1.05675   1.05812
 Alpha virt. eigenvalues --    1.06106   1.06316   1.06623   1.06947   1.07345
 Alpha virt. eigenvalues --    1.07530   1.07731   1.07873   1.07971   1.08257
 Alpha virt. eigenvalues --    1.08378   1.09090   1.09382   1.09527   1.10124
 Alpha virt. eigenvalues --    1.10436   1.10608   1.10897   1.11114   1.11449
 Alpha virt. eigenvalues --    1.11733   1.12069   1.12322   1.12591   1.12680
 Alpha virt. eigenvalues --    1.12970   1.13171   1.13378   1.13712   1.13892
 Alpha virt. eigenvalues --    1.14076   1.14600   1.14984   1.15223   1.15444
 Alpha virt. eigenvalues --    1.15608   1.16066   1.16239   1.16363   1.16526
 Alpha virt. eigenvalues --    1.16813   1.17109   1.17219   1.17453   1.17978
 Alpha virt. eigenvalues --    1.18055   1.18763   1.18956   1.19318   1.19438
 Alpha virt. eigenvalues --    1.19605   1.20300   1.20590   1.20947   1.21216
 Alpha virt. eigenvalues --    1.21507   1.21702   1.21974   1.22369   1.22541
 Alpha virt. eigenvalues --    1.22865   1.23168   1.23212   1.23307   1.23470
 Alpha virt. eigenvalues --    1.23960   1.23994   1.24118   1.24400   1.24475
 Alpha virt. eigenvalues --    1.24869   1.25026   1.25221   1.25756   1.26013
 Alpha virt. eigenvalues --    1.26189   1.26503   1.26869   1.26994   1.27406
 Alpha virt. eigenvalues --    1.27580   1.27649   1.27986   1.28392   1.28727
 Alpha virt. eigenvalues --    1.28990   1.29162   1.29510   1.29887   1.29985
 Alpha virt. eigenvalues --    1.30212   1.30427   1.30761   1.30820   1.30966
 Alpha virt. eigenvalues --    1.31582   1.31805   1.31954   1.32153   1.32433
 Alpha virt. eigenvalues --    1.32605   1.32757   1.33224   1.33434   1.33891
 Alpha virt. eigenvalues --    1.34124   1.34474   1.34804   1.35165   1.35529
 Alpha virt. eigenvalues --    1.35562   1.36050   1.36264   1.36522   1.36790
 Alpha virt. eigenvalues --    1.36925   1.37306   1.37446   1.37871   1.38349
 Alpha virt. eigenvalues --    1.38583   1.38947   1.39176   1.39428   1.39517
 Alpha virt. eigenvalues --    1.39736   1.40230   1.40999   1.41250   1.41626
 Alpha virt. eigenvalues --    1.41840   1.42308   1.42637   1.43013   1.43399
 Alpha virt. eigenvalues --    1.43522   1.43833   1.44201   1.44283   1.44405
 Alpha virt. eigenvalues --    1.44628   1.44873   1.45212   1.45558   1.45607
 Alpha virt. eigenvalues --    1.45907   1.46197   1.46677   1.46743   1.47101
 Alpha virt. eigenvalues --    1.47444   1.47694   1.47743   1.48175   1.48377
 Alpha virt. eigenvalues --    1.48838   1.48951   1.49251   1.49426   1.49770
 Alpha virt. eigenvalues --    1.50319   1.50729   1.50916   1.51170   1.51551
 Alpha virt. eigenvalues --    1.52077   1.52399   1.52683   1.52832   1.53224
 Alpha virt. eigenvalues --    1.53264   1.53646   1.53886   1.53912   1.54665
 Alpha virt. eigenvalues --    1.55006   1.55129   1.55460   1.55731   1.56116
 Alpha virt. eigenvalues --    1.56403   1.56844   1.56873   1.57344   1.57638
 Alpha virt. eigenvalues --    1.58311   1.58644   1.59101   1.59306   1.59659
 Alpha virt. eigenvalues --    1.60174   1.60427   1.60574   1.61380   1.61595
 Alpha virt. eigenvalues --    1.61859   1.62084   1.63064   1.63703   1.64126
 Alpha virt. eigenvalues --    1.64479   1.64581   1.65113   1.65562   1.66040
 Alpha virt. eigenvalues --    1.66406   1.66494   1.66705   1.66853   1.67836
 Alpha virt. eigenvalues --    1.67890   1.67959   1.68087   1.68665   1.68818
 Alpha virt. eigenvalues --    1.69079   1.69234   1.69332   1.69554   1.69911
 Alpha virt. eigenvalues --    1.69981   1.70305   1.70718   1.70980   1.71232
 Alpha virt. eigenvalues --    1.71605   1.71706   1.72043   1.72216   1.72377
 Alpha virt. eigenvalues --    1.72559   1.72803   1.72918   1.73080   1.73439
 Alpha virt. eigenvalues --    1.73734   1.73761   1.73826   1.74117   1.74325
 Alpha virt. eigenvalues --    1.74512   1.74614   1.74826   1.75213   1.75733
 Alpha virt. eigenvalues --    1.76057   1.76317   1.76414   1.76572   1.76746
 Alpha virt. eigenvalues --    1.77092   1.77133   1.77351   1.77414   1.77637
 Alpha virt. eigenvalues --    1.77964   1.78058   1.78451   1.78476   1.78675
 Alpha virt. eigenvalues --    1.79024   1.79095   1.79143   1.79271   1.79362
 Alpha virt. eigenvalues --    1.79583   1.79681   1.79757   1.79888   1.80073
 Alpha virt. eigenvalues --    1.80273   1.80322   1.80625   1.80857   1.80994
 Alpha virt. eigenvalues --    1.81186   1.81306   1.81516   1.81552   1.81725
 Alpha virt. eigenvalues --    1.81884   1.82205   1.82321   1.82542   1.82680
 Alpha virt. eigenvalues --    1.82999   1.83047   1.83338   1.83466   1.83734
 Alpha virt. eigenvalues --    1.83840   1.84050   1.84083   1.84462   1.84728
 Alpha virt. eigenvalues --    1.84759   1.84868   1.84986   1.85056   1.85208
 Alpha virt. eigenvalues --    1.85585   1.85819   1.85992   1.86034   1.86317
 Alpha virt. eigenvalues --    1.86437   1.86455   1.86896   1.87015   1.87187
 Alpha virt. eigenvalues --    1.87308   1.87626   1.87922   1.88011   1.88101
 Alpha virt. eigenvalues --    1.88251   1.88457   1.88725   1.88987   1.89192
 Alpha virt. eigenvalues --    1.89364   1.89428   1.89507   1.89712   1.89944
 Alpha virt. eigenvalues --    1.90014   1.90314   1.90591   1.90686   1.90945
 Alpha virt. eigenvalues --    1.91268   1.91401   1.91541   1.91728   1.91927
 Alpha virt. eigenvalues --    1.92212   1.92389   1.92497   1.92653   1.92807
 Alpha virt. eigenvalues --    1.93124   1.93232   1.93371   1.93729   1.93780
 Alpha virt. eigenvalues --    1.94056   1.94233   1.94355   1.94764   1.94920
 Alpha virt. eigenvalues --    1.95040   1.95586   1.95793   1.95875   1.96050
 Alpha virt. eigenvalues --    1.96143   1.96474   1.96493   1.96765   1.97051
 Alpha virt. eigenvalues --    1.97207   1.97463   1.97578   1.97930   1.98152
 Alpha virt. eigenvalues --    1.98287   1.98686   1.99193   1.99668   1.99771
 Alpha virt. eigenvalues --    1.99897   2.00027   2.00239   2.00347   2.00632
 Alpha virt. eigenvalues --    2.00908   2.01029   2.01135   2.01574   2.01794
 Alpha virt. eigenvalues --    2.01872   2.02396   2.02518   2.02692   2.02942
 Alpha virt. eigenvalues --    2.03231   2.03265   2.03647   2.03888   2.04374
 Alpha virt. eigenvalues --    2.04528   2.04739   2.04825   2.05048   2.05375
 Alpha virt. eigenvalues --    2.05572   2.05889   2.06162   2.06347   2.06664
 Alpha virt. eigenvalues --    2.06807   2.07090   2.07447   2.07967   2.08293
 Alpha virt. eigenvalues --    2.08409   2.08613   2.08727   2.08897   2.09111
 Alpha virt. eigenvalues --    2.09404   2.09768   2.09877   2.10008   2.10067
 Alpha virt. eigenvalues --    2.10781   2.10992   2.11626   2.11799   2.11998
 Alpha virt. eigenvalues --    2.12294   2.12488   2.12845   2.13031   2.13291
 Alpha virt. eigenvalues --    2.13457   2.13686   2.13971   2.14359   2.14478
 Alpha virt. eigenvalues --    2.14603   2.14673   2.15379   2.15492   2.15603
 Alpha virt. eigenvalues --    2.15814   2.16074   2.16855   2.17081   2.17389
 Alpha virt. eigenvalues --    2.17630   2.17832   2.18198   2.18437   2.18568
 Alpha virt. eigenvalues --    2.18753   2.18997   2.19485   2.19973   2.20177
 Alpha virt. eigenvalues --    2.20247   2.20559   2.21035   2.21052   2.21199
 Alpha virt. eigenvalues --    2.21662   2.21910   2.22462   2.22831   2.23876
 Alpha virt. eigenvalues --    2.24289   2.24509   2.24793   2.25192   2.25331
 Alpha virt. eigenvalues --    2.25403   2.25990   2.26100   2.26269   2.26374
 Alpha virt. eigenvalues --    2.26687   2.27247   2.27366   2.27863   2.28103
 Alpha virt. eigenvalues --    2.28373   2.28411   2.28692   2.28860   2.29736
 Alpha virt. eigenvalues --    2.29911   2.30361   2.30639   2.30923   2.31176
 Alpha virt. eigenvalues --    2.31490   2.32036   2.32669   2.32885   2.33251
 Alpha virt. eigenvalues --    2.33568   2.34172   2.34307   2.34570   2.34825
 Alpha virt. eigenvalues --    2.35094   2.35367   2.35583   2.35704   2.35986
 Alpha virt. eigenvalues --    2.36092   2.36505   2.36650   2.36967   2.37183
 Alpha virt. eigenvalues --    2.37765   2.37866   2.38373   2.38879   2.39196
 Alpha virt. eigenvalues --    2.39315   2.39862   2.39922   2.41200   2.41896
 Alpha virt. eigenvalues --    2.42407   2.42724   2.43269   2.43485   2.43759
 Alpha virt. eigenvalues --    2.44112   2.44336   2.44479   2.44671   2.44948
 Alpha virt. eigenvalues --    2.45139   2.45343   2.45800   2.46107   2.46306
 Alpha virt. eigenvalues --    2.46598   2.47393   2.47886   2.48119   2.48615
 Alpha virt. eigenvalues --    2.48901   2.49300   2.49799   2.50255   2.50690
 Alpha virt. eigenvalues --    2.51066   2.51161   2.51548   2.51699   2.51787
 Alpha virt. eigenvalues --    2.51946   2.52123   2.52502   2.53029   2.53138
 Alpha virt. eigenvalues --    2.54153   2.55067   2.55492   2.55942   2.56165
 Alpha virt. eigenvalues --    2.56594   2.56676   2.57024   2.57115   2.57483
 Alpha virt. eigenvalues --    2.57959   2.58174   2.58450   2.58860   2.59061
 Alpha virt. eigenvalues --    2.59145   2.59544   2.59756   2.59870   2.59907
 Alpha virt. eigenvalues --    2.60351   2.60782   2.60986   2.61023   2.61594
 Alpha virt. eigenvalues --    2.61686   2.61935   2.62357   2.62764   2.63175
 Alpha virt. eigenvalues --    2.63267   2.63493   2.63579   2.63732   2.64249
 Alpha virt. eigenvalues --    2.64724   2.64953   2.65156   2.65602   2.65773
 Alpha virt. eigenvalues --    2.65992   2.66189   2.66385   2.66959   2.67036
 Alpha virt. eigenvalues --    2.67879   2.68037   2.68144   2.68469   2.68501
 Alpha virt. eigenvalues --    2.69111   2.69529   2.69692   2.70031   2.70341
 Alpha virt. eigenvalues --    2.70516   2.70586   2.70702   2.71023   2.71253
 Alpha virt. eigenvalues --    2.71363   2.71980   2.72287   2.72501   2.72945
 Alpha virt. eigenvalues --    2.73242   2.73349   2.73781   2.73907   2.74214
 Alpha virt. eigenvalues --    2.74631   2.74822   2.75195   2.75417   2.75670
 Alpha virt. eigenvalues --    2.76058   2.76226   2.76450   2.76676   2.76850
 Alpha virt. eigenvalues --    2.76940   2.77374   2.77653   2.78240   2.78599
 Alpha virt. eigenvalues --    2.78643   2.79166   2.79377   2.79506   2.79843
 Alpha virt. eigenvalues --    2.79883   2.80100   2.80204   2.80591   2.80812
 Alpha virt. eigenvalues --    2.81065   2.81350   2.81437   2.81885   2.82103
 Alpha virt. eigenvalues --    2.82283   2.82597   2.82655   2.83124   2.83757
 Alpha virt. eigenvalues --    2.84014   2.84240   2.85131   2.85235   2.85386
 Alpha virt. eigenvalues --    2.86116   2.86360   2.86573   2.87039   2.87115
 Alpha virt. eigenvalues --    2.87666   2.87822   2.88270   2.88486   2.89036
 Alpha virt. eigenvalues --    2.89279   2.89410   2.90395   2.90779   2.90996
 Alpha virt. eigenvalues --    2.91065   2.91215   2.91492   2.91614   2.92053
 Alpha virt. eigenvalues --    2.92249   2.92760   2.93215   2.93290   2.93520
 Alpha virt. eigenvalues --    2.93612   2.94124   2.94565   2.94925   2.95170
 Alpha virt. eigenvalues --    2.95493   2.95826   2.96125   2.96258   2.96325
 Alpha virt. eigenvalues --    2.96564   2.96787   2.97719   2.97764   2.97989
 Alpha virt. eigenvalues --    2.98133   2.98802   2.98956   2.99215   2.99516
 Alpha virt. eigenvalues --    2.99619   3.00214   3.01124   3.01522   3.02131
 Alpha virt. eigenvalues --    3.02315   3.02645   3.03245   3.03765   3.03951
 Alpha virt. eigenvalues --    3.04281   3.04508   3.04887   3.04937   3.05786
 Alpha virt. eigenvalues --    3.05894   3.06285   3.06331   3.07078   3.07544
 Alpha virt. eigenvalues --    3.07896   3.08082   3.08307   3.08331   3.08657
 Alpha virt. eigenvalues --    3.09106   3.09775   3.10750   3.11132   3.11633
 Alpha virt. eigenvalues --    3.11854   3.11954   3.12368   3.13208   3.13324
 Alpha virt. eigenvalues --    3.13808   3.14207   3.15137   3.15220   3.15270
 Alpha virt. eigenvalues --    3.15816   3.16088   3.16420   3.16603   3.16931
 Alpha virt. eigenvalues --    3.17365   3.17432   3.17750   3.17817   3.17847
 Alpha virt. eigenvalues --    3.18206   3.18526   3.19665   3.19747   3.19932
 Alpha virt. eigenvalues --    3.20598   3.20655   3.21086   3.21547   3.22153
 Alpha virt. eigenvalues --    3.22489   3.22540   3.22613   3.22871   3.23018
 Alpha virt. eigenvalues --    3.23890   3.25644   3.25855   3.27028   3.27312
 Alpha virt. eigenvalues --    3.27661   3.28180   3.28471   3.29170   3.30141
 Alpha virt. eigenvalues --    3.30417   3.31345   3.31762   3.32370   3.32844
 Alpha virt. eigenvalues --    3.34848   3.36702   3.37683   3.38205   3.39102
 Alpha virt. eigenvalues --    3.39798   3.40878   3.44693   3.46729   3.48001
 Alpha virt. eigenvalues --    3.48557   3.49114   3.51541   3.53375   3.53632
 Alpha virt. eigenvalues --    3.54620   3.56233   3.56783   3.57168   3.57205
 Alpha virt. eigenvalues --    3.59275   3.59499   3.61121   3.61178   3.62443
 Alpha virt. eigenvalues --    3.62825   3.64390   3.64787   3.65136   3.66241
 Alpha virt. eigenvalues --    3.66495   3.66931   3.67685   3.68037   3.68224
 Alpha virt. eigenvalues --    3.68605   3.69047   3.69272   3.69871   3.70146
 Alpha virt. eigenvalues --    3.70171   3.71409   3.72394   3.72427   3.72598
 Alpha virt. eigenvalues --    3.73378   3.75083   3.79971   3.81056
          Condensed to atoms (all electrons):
 Mulliken charges:
               1
     1  C    0.048154
     2  C    0.049271
     3  O   -0.311325
     4  H    0.002611
     5  H    0.045994
     6  H    0.022727
     7  N   -0.094660
     8  C    0.077853
     9  C    0.051541
    10  O   -0.300708
    11  C    0.059842
    12  C    0.048673
    13  O   -0.355426
    14  O   -0.328906
    15  H    0.113289
    16  H    0.006185
    17  H    0.006865
    18  H   -0.036123
    19  N   -0.112392
    20  C    0.122855
    21  C    0.081094
    22  O   -0.282944
    23  C    0.087786
    24  C   -0.043984
    25  C   -0.047476
    26  C    0.075946
    27  N    0.043960
    28  H    0.124500
    29  H    0.022989
    30  H    0.028853
    31  H    0.002768
    32  H   -0.008316
    33  H    0.010935
    34  H   -0.013113
    35  H    0.039931
    36  H    0.049443
    37  H    0.038339
    38  H    0.174894
    39  H    0.180143
    40  H    0.159254
    41  N   -0.145896
    42  C    0.074487
    43  C    0.140277
    44  O   -0.322882
    45  C    0.162006
    46  C    0.024512
    47  O   -0.428349
    48  O   -0.355046
    49  H    0.143121
    50  H    0.013984
    51  H    0.034647
    52  H   -0.006431
    53  N   -0.104026
    54  C    0.188662
    55  C    0.036721
    56  O   -0.251079
    57  H    0.128354
    58  H    0.028829
    59  H    0.019845
    60  N   -0.156813
    61  C    0.062757
    62  C    0.061859
    63  O   -0.259930
    64  C    0.134349
    65  C    0.019430
    66  N   -0.031591
    67  O   -0.301701
    68  H    0.129886
    69  H    0.017794
    70  H    0.050845
    71  H    0.015140
    72  H    0.111648
    73  H    0.138981
    74  N   -0.121241
    75  C    0.199821
    76  C    0.062845
    77  O   -0.311655
    78  H    0.117778
    79  H    0.015375
    80  H    0.028484
    81  N   -0.109727
    82  C    0.159564
    83  C    0.064352
    84  O   -0.296625
    85  C    0.141164
    86  C   -0.080313
    87  C    0.034289
    88  C   -0.003739
    89  C    0.000777
    90  C   -0.050185
    91  C    0.167303
    92  O   -0.196269
    93  H    0.121297
    94  H    0.004696
    95  H   -0.021061
    96  H    0.015525
    97  H   -0.022964
    98  H   -0.042544
    99  H   -0.015032
   100  H   -0.029483
   101  H    0.173680
   102  N   -0.114911
   103  C    0.156330
   104  C    0.088945
   105  O   -0.293492
   106  C   -0.104602
   107  C    0.032390
   108  C    0.094141
   109  C   -0.025738
   110  H    0.146659
   111  H   -0.007593
   112  H   -0.009070
   113  H    0.007186
   114  H   -0.001187
   115  H   -0.044850
   116  H    0.038685
   117  H    0.012769
   118  H    0.017650
   119  H    0.003785
   120  H    0.028278
   121  N   -0.125788
   122  C    0.106791
   123  C    0.048945
   124  O   -0.263076
   125  C    0.222072
   126  O   -0.315883
   127  H    0.145113
   128  H    0.010553
   129  H    0.011119
   130  H    0.002278
   131  H    0.174090
   132  N   -0.121674
   133  C    0.046789
   134  C    0.052551
   135  O   -0.284695
   136  C    0.096526
   137  H    0.131909
   138  H    0.027667
   139  H    0.020772
   140  H    0.015850
   141  H   -0.011478
   142  N   -0.121763
   143  C    0.065962
   144  C    0.059698
   145  O   -0.264444
   146  C    0.054439
   147  H    0.140776
   148  H    0.001109
   149  H    0.050819
   150  H    0.011126
   151  H    0.022797
   152  N   -0.155210
   153  C    0.160542
   154  C    0.059036
   155  O   -0.286237
   156  C   -0.012352
   157  C    0.127832
   158  C    0.051002
   159  O   -0.432670
   160  O   -0.423185
   161  H    0.112250
   162  H   -0.005517
   163  H    0.033459
   164  H    0.026337
   165  H   -0.030270
   166  H   -0.015703
   167  N   -0.131488
   168  C    0.144970
   169  H    0.032118
   170  H    0.010471
   171  H    0.024094
   172  H    0.124063
   173  Ca   1.261092
   174  O   -0.310428
   175  H    0.184866
   176  H    0.192777
 Sum of Mulliken charges =  -0.00000
 Mulliken charges with hydrogens summed into heavy atoms:
               1
     1  C    0.119487
     2  C    0.049271
     3  O   -0.311325
     7  N    0.018629
     8  C    0.084038
     9  C    0.051541
    10  O   -0.300708
    11  C    0.030584
    12  C    0.048673
    13  O   -0.355426
    14  O   -0.328906
    19  N    0.012108
    20  C    0.145844
    21  C    0.081094
    22  O   -0.282944
    23  C    0.119407
    24  C   -0.041365
    25  C   -0.020657
    26  C    0.163727
    27  N    0.558252
    41  N   -0.002774
    42  C    0.088471
    43  C    0.140277
    44  O   -0.322882
    45  C    0.190222
    46  C    0.024512
    47  O   -0.428349
    48  O   -0.355046
    53  N    0.024327
    54  C    0.237336
    55  C    0.036721
    56  O   -0.251079
    60  N   -0.026928
    61  C    0.080550
    62  C    0.061859
    63  O   -0.259930
    64  C    0.200335
    65  C    0.019430
    66  N    0.219037
    67  O   -0.301701
    74  N   -0.003462
    75  C    0.243679
    76  C    0.062845
    77  O   -0.311655
    81  N    0.011569
    82  C    0.164260
    83  C    0.064352
    84  O   -0.296625
    85  C    0.135627
    86  C   -0.080313
    87  C    0.011325
    88  C   -0.046283
    89  C   -0.014255
    90  C   -0.079667
    91  C    0.167303
    92  O   -0.022589
   102  N    0.031747
   103  C    0.148737
   104  C    0.088945
   105  O   -0.293492
   106  C   -0.113671
   107  C    0.038390
   108  C    0.100745
   109  C    0.023975
   121  N    0.019325
   122  C    0.117344
   123  C    0.048945
   124  O   -0.263076
   125  C    0.235469
   126  O   -0.141793
   132  N    0.010235
   133  C    0.074456
   134  C    0.052551
   135  O   -0.284695
   136  C    0.121671
   142  N    0.019013
   143  C    0.067071
   144  C    0.059698
   145  O   -0.264444
   146  C    0.139181
   152  N   -0.042960
   153  C    0.155025
   154  C    0.059036
   155  O   -0.286237
   156  C    0.047444
   157  C    0.081859
   158  C    0.051002
   159  O   -0.432670
   160  O   -0.423185
   167  N   -0.007425
   168  C    0.211653
   173  Ca   1.261092
   174  O    0.067215
 DipInt: DoE/N= T F RetVal/Mat= T F Init=T NMatP=  1 IDeriv=0 Min/MaxMlt=  0  4
 Entering OneElI...
 OneElI was handed  1333951383 working-precision words.
 Multipole integrals L=0 to 4 MinM= 0 MaxM= 0.
 Requested accuracy = 0.1000D-12
 ShPair: Thresh= 1.00D-13 NBox=     0 BxSize= 0.00D+00 RnKept= 3.82D+01
         NSMCal=               327645 NSMKep=              141202
 PrmmSu-InSpLW:  IPartL=    0 NPrtUS=    1 NPrtUL=    1 DoSpLW=F IThBeg=    0 IThEnd=    0 NThAct=    1.
 PrsmSu:  NPrtUS=   1 ThrOK=F IAlg=1 NPAlg=1 LenDen=           0 ISkipM=0 DoSpLW=F IThBeg=    0 IThEnd=    0.
 Prism:   IPart=     0 DynPar=F LinDyn=F Incr=         512.
 PRISM was handed  1324627323 working-precision words and141202 shell-pairs
 IPart=  0 NShTot=      141202 NBatch=         323 AvBLen=       437.2
 PrsmSu-ThDecC:  IPartSL=    0    0 NPrtUSL=    1    1 IThBeg=    0 IThEnd=    0 CPU=   -1 GPU=   -1 NThAct=    1.
 PrSmSu:  NxtVal=            513.
 Electronic moments (au):
       -716.00000000         -3.19262889         -6.99820801        -11.35695884
     -70315.31369970     -34505.56033551     -16964.47734465       -161.80637132
        -58.93640265        -23.91909063      70893.16692056     -16095.56291488
      -8920.65111413      25650.69396554    -188021.09052588     -32984.50640797
     -42748.13323693      -5465.01706087     -68740.13300987     -82866.48094919
  -12219643.31137358   -3206933.44769361    -906732.24974845     592630.55634359
     -14339.84408958     389074.66381975    -228880.42665188    -115122.02653672
      52776.24057999   -4210338.72866749   -1237064.54818282    -916199.78627187
    -772088.35718147    -163498.05526673    -206669.15316725
 Electronic spatial extent (au):  <R**2>=         121785.3514
 DipInt: DoE/N= F T RetVal/Mat= T F Init=T NMatP=  1 IDeriv=0 Min/MaxMlt=  0  4
 Nuclear    moments (au):
        716.00000000         -0.00000000         -0.00000000          0.00000000
      69947.96218973      34127.81810896      16551.88950191         -0.00000000
          0.00000000         -0.00000000     -72131.60108053      15174.07059350
       7995.11080888     -25160.19666434     186847.27891198      31970.66603035
      42414.50752394       5121.94195657      67528.49773839      83368.23977962
   11993533.40797199    3099641.16384395     848489.21007720    -622628.20726006
       8315.59108583    -410616.79654974     232792.89331286     110077.57236513
     -56873.07167748    4164902.62961838    1188503.17559935     887138.70239131
     774984.01394410     156576.99046080     201099.82255413
 Total      moments (au):
         -0.00000000         -3.19262889         -6.99820801        -11.35695884
       -367.35150997       -377.74222655       -412.58784274       -161.80637132
        -58.93640265        -23.91909063      -1238.43415997       -921.49232139
       -925.54030525        490.49730120      -1173.81161390      -1013.84037761
       -333.62571299       -343.07510430      -1211.63527148        501.75883043
    -226109.90340159    -107292.28384966     -58243.03967125     -29997.65091647
      -6024.25300375     -21542.13272999       3912.46666098      -5044.45417159
      -4096.83109749     -45436.09904912     -48561.37258347     -29061.08388056
       2895.65676262      -6921.06480593      -5569.33061313
 Traceless Quadrup. (au):
         18.54234978          8.15163321        -26.69398299       -161.80637132
        -58.93640265        -23.91909063
 Charge=             -0.0000 electrons
 Dipole moment (field-independent basis, Debye):
    X=             -8.1149    Y=            -17.7877    Z=            -28.8665  Tot=             34.8644
 Quadrupole moment (field-independent basis, Debye-Ang):
   XX=           -494.1004   YY=           -508.0762   ZZ=           -554.9448
   XY=           -217.6351   XZ=            -79.2715   YZ=            -32.1720
 Traceless Quadrupole moment (field-independent basis, Debye-Ang):
   XX=             24.9401   YY=             10.9642   ZZ=            -35.9043
   XY=           -217.6351   XZ=            -79.2715   YZ=            -32.1720
 Octapole moment (field-independent basis, Debye-Ang**2):
  XXX=           -881.4697  YYY=           -655.8827  ZZZ=           -658.7639  XYY=            349.1171
  XXY=           -835.4739  XXZ=           -721.6125  XZZ=           -237.4619  YZZ=           -244.1876
  YYZ=           -862.3953  XYZ=            357.1326
 Hexadecapole moment (field-independent basis, Debye-Ang**3):
 XXXX=         -85163.8320 YYYY=         -40411.4189 ZZZZ=         -21937.1216 XXXY=         -11298.5538
 XXXZ=          -2269.0226 YYYX=          -8113.8002 YYYZ=           1473.6226 ZZZX=          -1899.9833
 ZZZY=          -1543.0630 XXYY=         -17113.4136 XXZZ=         -18290.5415 YYZZ=         -10945.7977
 XXYZ=           1090.6432 YYXZ=          -2606.8049 ZZXY=          -2097.6770
 N-N= 2.003234595308D+04 E-N=-5.254153944245D+04  KE= 5.290577633618D+03
 Leave Link  601 at Tue Sep 17 00:43:01 2019, MaxMem=  1342177280 cpu:              40.8 elap:               1.1
 FitSet:  NAtFit=   176 NAtPot=   176 NAtFrz=     0 MDM=   180 TotChg=   0.00000
 Merz-Kollman atomic radii used.
 Read replacement radii for each type of atom:
 Rad(20) =   1.700000000000D+00
 Atom Element Radius
    1     6    1.50
    2     6    1.50
    3     8    1.40
    4     1    1.20
    5     1    1.20
    6     1    1.20
    7     7    1.50
    8     6    1.50
    9     6    1.50
   10     8    1.40
   11     6    1.50
   12     6    1.50
   13     8    1.40
   14     8    1.40
   15     1    1.20
   16     1    1.20
   17     1    1.20
   18     1    1.20
   19     7    1.50
   20     6    1.50
   21     6    1.50
   22     8    1.40
   23     6    1.50
   24     6    1.50
   25     6    1.50
   26     6    1.50
   27     7    1.50
   28     1    1.20
   29     1    1.20
   30     1    1.20
   31     1    1.20
   32     1    1.20
   33     1    1.20
   34     1    1.20
   35     1    1.20
   36     1    1.20
   37     1    1.20
   38     1    1.20
   39     1    1.20
   40     1    1.20
   41     7    1.50
   42     6    1.50
   43     6    1.50
   44     8    1.40
   45     6    1.50
   46     6    1.50
   47     8    1.40
   48     8    1.40
   49     1    1.20
   50     1    1.20
   51     1    1.20
   52     1    1.20
   53     7    1.50
   54     6    1.50
   55     6    1.50
   56     8    1.40
   57     1    1.20
   58     1    1.20
   59     1    1.20
   60     7    1.50
   61     6    1.50
   62     6    1.50
   63     8    1.40
   64     6    1.50
   65     6    1.50
   66     7    1.50
   67     8    1.40
   68     1    1.20
   69     1    1.20
   70     1    1.20
   71     1    1.20
   72     1    1.20
   73     1    1.20
   74     7    1.50
   75     6    1.50
   76     6    1.50
   77     8    1.40
   78     1    1.20
   79     1    1.20
   80     1    1.20
   81     7    1.50
   82     6    1.50
   83     6    1.50
   84     8    1.40
   85     6    1.50
   86     6    1.50
   87     6    1.50
   88     6    1.50
   89     6    1.50
   90     6    1.50
   91     6    1.50
   92     8    1.40
   93     1    1.20
   94     1    1.20
   95     1    1.20
   96     1    1.20
   97     1    1.20
   98     1    1.20
   99     1    1.20
  100     1    1.20
  101     1    1.20
  102     7    1.50
  103     6    1.50
  104     6    1.50
  105     8    1.40
  106     6    1.50
  107     6    1.50
  108     6    1.50
  109     6    1.50
  110     1    1.20
  111     1    1.20
  112     1    1.20
  113     1    1.20
  114     1    1.20
  115     1    1.20
  116     1    1.20
  117     1    1.20
  118     1    1.20
  119     1    1.20
  120     1    1.20
  121     7    1.50
  122     6    1.50
  123     6    1.50
  124     8    1.40
  125     6    1.50
  126     8    1.40
  127     1    1.20
  128     1    1.20
  129     1    1.20
  130     1    1.20
  131     1    1.20
  132     7    1.50
  133     6    1.50
  134     6    1.50
  135     8    1.40
  136     6    1.50
  137     1    1.20
  138     1    1.20
  139     1    1.20
  140     1    1.20
  141     1    1.20
  142     7    1.50
  143     6    1.50
  144     6    1.50
  145     8    1.40
  146     6    1.50
  147     1    1.20
  148     1    1.20
  149     1    1.20
  150     1    1.20
  151     1    1.20
  152     7    1.50
  153     6    1.50
  154     6    1.50
[...]
 **** Fit       0.056110
 **** Fit       0.057554
 **** Fit       0.051744
 **** Fit       0.044750
 **** Fit       0.036350
 **** Fit       0.026208
 **** Fit       0.055890
 **** Fit       0.058308
 **** Fit       0.060572
 **** Fit       0.062709
 **** Fit       0.064780
 **** Fit       0.066769
 **** Fit       0.068488
 **** Fit       0.069574
 **** Fit       0.069635
 **** Fit       0.068433
 **** Fit       0.065949
 **** Fit       0.062291
 **** Fit       0.062863
 **** Fit       0.056977
 **** Fit       0.050125
 **** Fit       0.042061
 **** Fit       0.032403
 **** Fit       0.060408
 **** Fit       0.062458
 **** Fit       0.064340
 **** Fit       0.066080
 **** Fit       0.067803
 **** Fit       0.069684
 **** Fit       0.071835
 **** Fit       0.074146
 **** Fit       0.076182
 **** Fit       0.077312
 **** Fit       0.077032
 **** Fit       0.075221
 **** Fit       0.072083
 **** Fit       0.067904
 **** Fit       0.067690
 **** Fit       0.061423
 **** Fit       0.054398
 **** Fit       0.046319
 **** Fit       0.036770
 **** Fit       0.064332
 **** Fit       0.066446
 **** Fit       0.068203
 **** Fit       0.069683
 **** Fit       0.071060
 **** Fit       0.078489
 **** Fit       0.073379
 **** Fit       0.072102
 **** Fit       0.065419
 **** Fit       0.058306
 **** Fit       0.050406
 **** Fit       0.041311
 **** Fit       0.066919
 **** Fit       0.069385
 **** Fit       0.071270
 **** Fit       0.072686
 **** Fit       0.078649
 **** Fit       0.076031
 **** Fit       0.068785
 **** Fit       0.061527
 **** Fit       0.053791
 **** Fit       0.045172
 **** Fit       0.035297
 **** Fit       0.062938
 **** Fit       0.067349
 **** Fit       0.070663
 **** Fit       0.073158
 **** Fit       0.074995
 **** Fit       0.079236
 **** Fit       0.071507
 **** Fit       0.064258
 **** Fit       0.056881
 **** Fit       0.048979
 **** Fit       0.040324
 **** Fit       0.060949
 **** Fit       0.066554
 **** Fit       0.070841
 **** Fit       0.074171
 **** Fit       0.076783
 **** Fit       0.073057
 **** Fit       0.065788
 **** Fit       0.058663
 **** Fit       0.051278
 **** Fit       0.043530
 **** Fit       0.052136
 **** Fit       0.060266
 **** Fit       0.066580
 **** Fit       0.071563
 **** Fit       0.075612
 **** Fit       0.079057
 **** Fit       0.073466
 **** Fit       0.066530
 **** Fit       0.059890
 **** Fit       0.053166
 **** Fit       0.046348
 **** Fit       0.051337
 **** Fit       0.059610
 **** Fit       0.066310
 **** Fit       0.071816
 **** Fit       0.076537
 **** Fit       0.072451
 **** Fit       0.066136
 **** Fit       0.060046
 **** Fit       0.053874
 **** Fit       0.047669
 **** Fit       0.047420
 **** Fit       0.056075
 **** Fit       0.063420
 **** Fit       0.069652
 **** Fit       0.075126
 **** Fit       0.080368
 **** Fit       0.070260
 **** Fit       0.064911
 **** Fit       0.059489
 **** Fit       0.053802
 **** Fit       0.044157
 **** Fit       0.052560
 **** Fit       0.060085
 **** Fit       0.066704
 **** Fit       0.072621
 **** Fit       0.078282
 **** Fit       0.062578
 **** Fit       0.057523
 **** Fit       0.051810
 **** Fit       0.041984
 **** Fit       0.050254
 **** Fit       0.057865
 **** Fit       0.064725
 **** Fit       0.070953
 **** Fit       0.076957
 **** Fit       0.059856
 **** Fit       0.054932
 **** Fit       0.048790
 **** Fit       0.017757
 **** Fit       0.028949
 **** Fit       0.038523
 **** Fit       0.047115
 **** Fit       0.054931
 **** Fit       0.062002
 **** Fit       0.068423
 **** Fit       0.074511
 **** Fit       0.056952
 **** Fit       0.051808
 **** Fit       0.044805
 **** Fit       0.021573
 **** Fit       0.033002
 **** Fit       0.042640
 **** Fit       0.051028
 **** Fit       0.058447
 **** Fit       0.065065
 **** Fit       0.071119
 **** Fit       0.057492
 **** Fit       0.053700
 **** Fit       0.047633
 **** Fit       0.038968
 **** Fit       0.031188
 **** Fit       0.041645
 **** Fit       0.050526
 **** Fit       0.058155
 **** Fit       0.064767
 **** Fit       0.070620
 **** Fit       0.055000
 **** Fit       0.050344
 **** Fit       0.043049
 **** Fit       0.029311
 **** Fit       0.040063
 **** Fit       0.049322
 **** Fit       0.057139
 **** Fit       0.063650
 **** Fit       0.068987
 **** Fit       0.052481
 **** Fit       0.046253
 **** Fit       0.037395
 **** Fit       0.033328
 **** Fit       0.043335
 **** Fit       0.052273
 **** Fit       0.059559
 **** Fit       0.064950
 **** Fit       0.054946
 **** Fit       0.049736
 **** Fit       0.042176
 **** Fit       0.034889
 **** Fit       0.032832
 **** Fit       0.037817
 **** Fit       0.046420
 **** Fit       0.054737
 **** Fit       0.060625
 **** Fit       0.053526
 **** Fit       0.046953
 **** Fit       0.043656
 **** Fit       0.049220
 **** Fit       0.056169
 **** Fit       0.057372
 **** Fit       0.051618
 **** Fit       0.074093
 **** Fit       0.077373
 **** Fit       0.070074
 **** Fit       0.069479
 **** Fit       0.070989
 **** Fit       0.070675
 **** Fit       0.067791
 **** Fit       0.067055
 **** Fit       0.067877
 **** Fit       0.070047
 **** Fit       0.067187
 **** Fit       0.066104
 **** Fit       0.066305
 **** Fit       0.067524
 **** Fit       0.071481
 **** Fit       0.068197
 **** Fit       0.066619
 **** Fit       0.066204
 **** Fit       0.066657
 **** Fit       0.067847
 **** Fit       0.073230
 **** Fit       0.069920
 **** Fit       0.068193
 **** Fit       0.067494
 **** Fit       0.067486
 **** Fit       0.068003
 **** Fit       0.069007
 **** Fit       0.070539
 **** Fit       0.076628
 **** Fit       0.072837
 **** Fit       0.070790
 **** Fit       0.070710
 **** Fit       0.071696
 **** Fit       0.078690
 **** Fit       0.075005
 **** Fit       0.080066
 **** Fit       0.070656
 **** Fit       0.063887
 **** Fit       0.065006
 **** Fit       0.060153
 **** Fit       0.059367
 **** Fit       0.059923
 **** Fit       0.062113
 **** Fit       0.078386
 **** Fit       0.057833
 **** Fit       0.056179
 **** Fit       0.055458
 **** Fit       0.055917
 **** Fit       0.057684
 **** Fit       0.074838
 **** Fit       0.061781
 **** Fit       0.059097
 **** Fit       0.056529
 **** Fit       0.054354
 **** Fit       0.052871
 **** Fit       0.052324
 **** Fit       0.052844
 **** Fit       0.054408
 **** Fit       0.070704
 **** Fit       0.070830
 **** Fit       0.069446
 **** Fit       0.066919
 **** Fit       0.064399
 **** Fit       0.059184
 **** Fit       0.056366
 **** Fit       0.053817
 **** Fit       0.051784
 **** Fit       0.050512
 **** Fit       0.050162
 **** Fit       0.050757
 **** Fit       0.052190
 **** Fit       0.054274
 **** Fit       0.063621
 **** Fit       0.064906
 **** Fit       0.066098
 **** Fit       0.065089
 **** Fit       0.062104
 **** Fit       0.057371
 **** Fit       0.054388
 **** Fit       0.051870
 **** Fit       0.050065
 **** Fit       0.049178
 **** Fit       0.049281
 **** Fit       0.050301
 **** Fit       0.052067
 **** Fit       0.054335
 **** Fit       0.056785
 **** Fit       0.059144
 **** Fit       0.061399
 **** Fit       0.063797
 **** Fit       0.060626
 **** Fit       0.056300
 **** Fit       0.053108
 **** Fit       0.050722
 **** Fit       0.049446
 **** Fit       0.049424
 **** Fit       0.050579
 **** Fit       0.052655
 **** Fit       0.055294
 **** Fit       0.058218
 **** Fit       0.061397
 **** Fit       0.059979
 **** Fit       0.055903
 **** Fit       0.052641
 **** Fit       0.050871
 **** Fit       0.050967
 **** Fit       0.052787
 **** Fit       0.055804
 **** Fit       0.059469
 **** Fit       0.056098
 **** Fit       0.053359
 **** Fit       0.054277
 **** Fit       0.057939
 **** Fit       0.056801
 **** Fit       0.079451
 **** Fit       0.074608
 **** Fit       0.073129
 **** Fit       0.071243
 **** Fit       0.075419
 **** Fit       0.071039
 **** Fit       0.069549
 **** Fit       0.069576
 **** Fit       0.068880
 **** Fit       0.071382
 **** Fit       0.076127
 **** Fit       0.068512
 **** Fit       0.067663
 **** Fit       0.067386
 **** Fit       0.067715
 **** Fit       0.067197
 **** Fit       0.068776
 **** Fit       0.071762
 **** Fit       0.077112
 **** Fit       0.068900
 **** Fit       0.067761
 **** Fit       0.066970
 **** Fit       0.066474
 **** Fit       0.066284
 **** Fit       0.066471
 **** Fit       0.065980
 **** Fit       0.066949
 **** Fit       0.068884
 **** Fit       0.072420
 **** Fit       0.078661
 **** Fit       0.068154
 **** Fit       0.067196
 **** Fit       0.066452
 **** Fit       0.065924
 **** Fit       0.065627
 **** Fit       0.065609
 **** Fit       0.065081
 **** Fit       0.065581
 **** Fit       0.066737
 **** Fit       0.068946
 **** Fit       0.072876
 **** Fit       0.079693
 **** Fit       0.069352
 **** Fit       0.068103
 **** Fit       0.067072
 **** Fit       0.066253
 **** Fit       0.065632
 **** Fit       0.065207
 **** Fit       0.065000
 **** Fit       0.064396
 **** Fit       0.064569
 **** Fit       0.065257
 **** Fit       0.066764
 **** Fit       0.069599
 **** Fit       0.074632
 **** Fit       0.070300
 **** Fit       0.068700
 **** Fit       0.067408
 **** Fit       0.066380
 **** Fit       0.065575
 **** Fit       0.064968
 **** Fit       0.064561
 **** Fit       0.063856
 **** Fit       0.063755
 **** Fit       0.064053
 **** Fit       0.064970
 **** Fit       0.066868
 **** Fit       0.070347
 **** Fit       0.076431
 **** Fit       0.073765
 **** Fit       0.071312
 **** Fit       0.069353
 **** Fit       0.067801
 **** Fit       0.066570
 **** Fit       0.065590
 **** Fit       0.064815
 **** Fit       0.064231
 **** Fit       0.063417
 **** Fit       0.063086
 **** Fit       0.063085
 **** Fit       0.063581
 **** Fit       0.064847
 **** Fit       0.067325
 **** Fit       0.071739
 **** Fit       0.072748
 **** Fit       0.070308
 **** Fit       0.068409
 **** Fit       0.066912
 **** Fit       0.065716
 **** Fit       0.064752
 **** Fit       0.063986
 **** Fit       0.063053
 **** Fit       0.062501
 **** Fit       0.062260
 **** Fit       0.062474
 **** Fit       0.063383
 **** Fit       0.065376
 **** Fit       0.069064
 **** Fit       0.075512
 **** Fit       0.072139
 **** Fit       0.069592
 **** Fit       0.067631
 **** Fit       0.066086
 **** Fit       0.064845
 **** Fit       0.063841
 **** Fit       0.062758
 **** Fit       0.061971
 **** Fit       0.061495
 **** Fit       0.061456
 **** Fit       0.062070
 **** Fit       0.063677
 **** Fit       0.074972
 **** Fit       0.071406
 **** Fit       0.068749
 **** Fit       0.066710
 **** Fit       0.065099
 **** Fit       0.063800
 **** Fit       0.062546
 **** Fit       0.061513
 **** Fit       0.060788
 **** Fit       0.060464
 **** Fit       0.060706
 **** Fit       0.073645
 **** Fit       0.070140
 **** Fit       0.067516
 **** Fit       0.065482
 **** Fit       0.063858
 **** Fit       0.062449
 **** Fit       0.061079
 **** Fit       0.060058
 **** Fit       0.059451
 **** Fit       0.072936
 **** Fit       0.069152
 **** Fit       0.066344
 **** Fit       0.064174
 **** Fit       0.062523
 **** Fit       0.060758
 **** Fit       0.067621
 **** Fit       0.064750
 **** Fit       0.069064
 **** Fit       0.068401
 **** Fit       0.068700
 **** Fit       0.069930
 **** Fit       0.071091
 **** Fit       0.069047
 **** Fit       0.068006
 **** Fit       0.067710
 **** Fit       0.068050
 **** Fit       0.069025
 **** Fit       0.070743
 **** Fit       0.073433
 **** Fit       0.073654
 **** Fit       0.070574
 **** Fit       0.068730
 **** Fit       0.067716
 **** Fit       0.067309
 **** Fit       0.067400
 **** Fit       0.067960
 **** Fit       0.069033
 **** Fit       0.070739
 **** Fit       0.073293
 **** Fit       0.076496
 **** Fit       0.072506
 **** Fit       0.069986
 **** Fit       0.068420
 **** Fit       0.067508
 **** Fit       0.067073
 **** Fit       0.067021
 **** Fit       0.067313
 **** Fit       0.067957
 **** Fit       0.069008
 **** Fit       0.070575
 **** Fit       0.072828
 **** Fit       0.076095
 **** Fit       0.072408
 **** Fit       0.070010
 **** Fit       0.068467
 **** Fit       0.067511
 **** Fit       0.066978
 **** Fit       0.066768
 **** Fit       0.066830
 **** Fit       0.067144
 **** Fit       0.067728
 **** Fit       0.068626
 **** Fit       0.069918
 **** Fit       0.071722
 **** Fit       0.074196
 **** Fit       0.074722
 **** Fit       0.071553
 **** Fit       0.069453
 **** Fit       0.068085
 **** Fit       0.067229
 **** Fit       0.066739
 **** Fit       0.066525
 **** Fit       0.066535
 **** Fit       0.066747
 **** Fit       0.067165
 **** Fit       0.067818
 **** Fit       0.068756
 **** Fit       0.070053
 **** Fit       0.071797
 **** Fit       0.074077
 **** Fit       0.074317
 **** Fit       0.071370
 **** Fit       0.069317
 **** Fit       0.067941
 **** Fit       0.067056
 **** Fit       0.066526
 **** Fit       0.066255
 **** Fit       0.066185
 **** Fit       0.066281
 **** Fit       0.066534
 **** Fit       0.066955
 **** Fit       0.067571
 **** Fit       0.068421
 **** Fit       0.069547
 **** Fit       0.070974
 **** Fit       0.072669
 **** Fit       0.070180
 **** Fit       0.068597
 **** Fit       0.067435
 **** Fit       0.066644
 **** Fit       0.066147
 **** Fit       0.065873
 **** Fit       0.065767
 **** Fit       0.065793
 **** Fit       0.065932
 **** Fit       0.066181
 **** Fit       0.066550
 **** Fit       0.067053
 **** Fit       0.067700
 **** Fit       0.068477
 **** Fit       0.069311
 **** Fit       0.067555
 **** Fit       0.066952
 **** Fit       0.066307
 **** Fit       0.065792
 **** Fit       0.065450
 **** Fit       0.065266
 **** Fit       0.065206
 **** Fit       0.065241
 **** Fit       0.065352
 **** Fit       0.065530
 **** Fit       0.065774
 **** Fit       0.066076
 **** Fit       0.066407
 **** Fit       0.066686
 **** Fit       0.066741
 **** Fit       0.063554
 **** Fit       0.064101
 **** Fit       0.064434
 **** Fit       0.064482
 **** Fit       0.064454
 **** Fit       0.064445
 **** Fit       0.064477
 **** Fit       0.064545
 **** Fit       0.064634
 **** Fit       0.064733
 **** Fit       0.064822
 **** Fit       0.064865
 **** Fit       0.064779
 **** Fit       0.064414
 **** Fit       0.061773
 **** Fit       0.060859
 **** Fit       0.062101
 **** Fit       0.062825
 **** Fit       0.063230
 **** Fit       0.063479
 **** Fit       0.063648
 **** Fit       0.063754
 **** Fit       0.063786
 **** Fit       0.063707
 **** Fit       0.063442
 **** Fit       0.062855
 **** Fit       0.060738
 **** Fit       0.059099
 **** Fit       0.058896
 **** Fit       0.060440
 **** Fit       0.061601
 **** Fit       0.062297
 **** Fit       0.062660
 **** Fit       0.062756
 **** Fit       0.062553
 **** Fit       0.061928
 **** Fit       0.060291
 **** Fit       0.059039
 **** Fit       0.059422
 **** Fit       0.060769
 **** Fit       0.061544
 **** Fit       0.061403
 **** Fit       0.060323
 -----------------------------------------------------------------
 Leave Link  602 at Tue Sep 17 00:43:04 2019, MaxMem=  1342177280 cpu:             123.1 elap:               2.6

 Test job not archived.
 1\1\GINC-C506-101\SP\RB3LYP\SVP\C54H83Ca1N15O23\PENGZHI\17-Sep-2019\0\
 \#b3lyp/svp scf=(tight,noincore) Test #IOP(5/87=12) Density=Current Po
 p=(MK,readradii) iop(6/33=2) iop(6/42=6)\\Ng-293_loop3_29.0\\0,1\C,0,6
 9.05,62.84,56.96\C,0,67.85,63.06,57.87\O,0,66.92,63.84,57.64\H,0,69.91
 2,62.549,57.56\H,0,68.824,62.05,56.244\H,0,69.275,63.763,56.425\N,0,67
 .85,62.32,58.98\C,0,67.02,62.51,60.15\C,0,66.93,63.99,60.53\O,0,67.98,
 64.55,60.85\C,0,65.65,61.9,59.89\C,0,65.89,60.42,59.59\O,0,65.96,59.68
 ,60.6\O,0,65.93,60.08,58.39\H,0,68.55,61.6,59.05\H,0,67.47,61.96,60.98
 \H,0,65.15,62.33,59.03\H,0,65.,62.01,60.76\N,0,65.81,64.69,60.41\C,0,6
 5.59,66.09,60.71\C,0,65.76,66.64,62.11\O,0,66.28,67.75,62.25\C,0,64.25
 ,66.54,60.12\C,0,63.05,65.99,60.89\C,0,62.94,64.51,61.23\C,0,61.76,64.
 07,62.09\N,0,61.84,64.58,63.47\H,0,65.01,64.15,60.09\H,0,66.42,66.54,6
 0.16\H,0,64.17,66.22,59.08\H,0,64.2,67.62,60.2\H,0,62.15,66.22,60.33\H
 ,0,62.96,66.57,61.82\H,0,63.82,64.23,61.81\H,0,63.03,63.88,60.34\H,0,6
 1.66,62.99,62.08\H,0,60.82,64.36,61.63\H,0,61.98,65.58,63.49\H,0,61.01
 ,64.34,64.\H,0,62.62,64.11,63.9\N,0,65.41,65.85,63.13\C,0,65.56,66.17,
 64.53\C,0,65.16,64.94,65.33\O,0,64.39,64.15,64.79\C,0,64.8,67.42,64.97
 \C,0,63.28,67.3,65.05\O,0,62.53,67.14,64.06\O,0,62.72,67.37,66.16\H,0,
 65.13,64.89,62.97\H,0,66.62,66.38,64.63\H,0,65.01,68.23,64.27\H,0,65.1
 2,67.75,65.95\N,0,65.81,64.62,66.46\C,0,65.52,63.54,67.38\C,0,64.05,63
 .55,67.78\O,0,63.49,64.58,68.14\H,0,66.59,65.16,66.79\H,0,66.11,63.63,
 68.28\H,0,65.78,62.56,66.96\N,0,63.55,62.31,67.88\C,0,62.25,62.,68.44\
 C,0,62.34,60.85,69.43\O,0,61.36,60.11,69.6\C,0,61.11,61.77,67.45\C,0,6
 0.88,62.98,66.55\N,0,60.41,64.08,67.13\O,0,60.95,62.84,65.33\H,0,64.2,
 61.57,67.65\H,0,61.92,62.86,69.02\H,0,60.21,61.63,68.05\H,0,61.3,60.86
 ,66.88\H,0,60.34,64.12,68.14\H,0,60.31,64.91,66.56\N,0,63.48,60.77,70.
 12\C,0,63.79,59.56,70.85\C,0,63.69,58.34,69.94\O,0,63.95,58.42,68.74\H
 ,0,64.22,61.45,69.99\H,0,63.12,59.44,71.7\H,0,64.69,59.75,71.43\N,0,63
 .28,57.18,70.45\C,0,62.83,55.97,69.79\C,0,61.55,56.2,68.98\O,0,60.6,55
 .45,69.18\C,0,63.95,55.25,69.06\C,0,63.78,53.75,69.02\C,0,62.91,53.23,
 68.05\C,0,64.45,52.94,69.95\C,0,62.7,51.85,68.05\C,0,64.25,51.56,69.94
 \C,0,63.5,51.03,68.87\O,0,63.46,49.68,68.68\H,0,63.53,57.13,71.43\H,0,
 62.47,55.34,70.6\H,0,64.95,55.43,69.46\H,0,64.14,55.62,68.05\H,0,62.44
 ,53.94,67.38\H,0,65.03,53.41,70.73\H,0,62.,51.41,67.35\H,0,64.69,51.,7
 0.76\H,0,64.08,49.25,69.28\N,0,61.48,57.24,68.15\C,0,60.36,57.64,67.32
 \C,0,59.14,58.02,68.15\O,0,58.66,59.14,67.98\C,0,60.01,56.61,66.25\C,0
 ,61.2,56.15,65.42\C,0,58.87,57.02,65.31\C,0,61.94,57.32,64.76\H,0,62.3
 8,57.65,67.92\H,0,60.7,58.56,66.85\H,0,59.65,55.8,66.89\H,0,60.96,55.4
 3,64.65\H,0,62.06,55.78,65.98\H,0,57.91,57.11,65.82\H,0,59.14,58.01,64
 .93\H,0,58.72,56.31,64.5\H,0,61.22,57.98,64.26\H,0,62.5,57.92,65.48\H,
 0,62.64,56.93,64.03\N,0,58.52,57.11,68.9\C,0,57.33,57.32,69.7\C,0,56.1
 8,57.89,68.89\O,0,55.52,58.82,69.35\C,0,56.97,56.04,70.45\O,0,56.57,55
 .11,69.47\H,0,58.92,56.19,68.94\H,0,57.53,58.1,70.43\H,0,56.23,56.18,7
 1.24\H,0,57.85,55.69,70.99\H,0,56.02,54.41,69.85\N,0,56.05,57.38,67.66
 \C,0,55.26,57.8,66.52\C,0,55.14,59.28,66.17\O,0,54.15,59.76,65.64\C,0,
 53.88,57.14,66.44\H,0,56.67,56.62,67.4\H,0,55.82,57.41,65.68\H,0,53.21
 ,57.56,67.19\H,0,53.46,57.36,65.46\H,0,53.88,56.06,66.55\N,0,56.15,60.
 1,66.49\C,0,56.15,61.54,66.32\C,0,56.55,61.81,64.87\O,0,57.42,61.21,64
 .24\C,0,57.03,62.3,67.31\H,0,56.97,59.68,66.9\H,0,55.14,61.86,66.56\H,
 0,57.88,61.68,67.59\H,0,57.37,63.28,66.99\H,0,56.39,62.41,68.19\N,0,55
 .97,62.9,64.34\C,0,56.33,63.56,63.11\C,0,56.19,62.71,61.85\O,0,56.75,6
 3.01,60.8\C,0,57.69,64.23,63.28\C,0,57.74,65.23,64.43\C,0,59.06,65.99,
 64.45\O,0,59.47,66.63,63.45\O,0,59.65,66.16,65.54\H,0,55.4,63.4,65.01\
 H,0,55.57,64.34,63.03\H,0,58.07,64.76,62.41\H,0,58.49,63.52,63.49\H,0,
 57.6,64.63,65.33\H,0,56.94,65.97,64.45\N,0,55.67,61.49,61.92\C,0,55.77
 ,60.5,60.87\H,0,56.819,60.262,60.694\H,0,55.238,59.597,61.17\H,0,55.32
 9,60.895,59.954\H,0,55.26,61.19,62.8\Ca,0,60.33,68.62,64.85\O,0,59.5,7
 1.13,65.28\H,0,59.64,71.74,64.55\H,0,58.88,71.57,65.86\\Version=ES64L-
 G16RevA.03\State=1-A\HF=-5333.4397542\RMSD=2.269e-09\Dipole=-3.9491592
 ,5.7295503,11.8205205\Quadrupole=-68.4547517,151.249973,-82.7952213,-5
 9.2291198,95.2600292,-31.5745586\PG=C01 [X(C54H83Ca1N15O23)]\\@


 A people that values its privileges above its principles soon loses both.
 -- Dwight D. Eisenhower
 Job cpu time:       0 days 10 hours 52 minutes 33.4 seconds.
 Elapsed time:       0 days  0 hours 13 minutes 45.6 seconds.
 File lengths (MBytes):  RWF=   1517 Int=      0 D2E=      0 Chk=    171 Scr=      1
 Normal termination of Gaussian 16 at Tue Sep 17 00:43:05 2019.
