 Entering Gaussian System, Link 0=g16
 Initial command:
 /home1/apps/gaussian/16rA.03/g16/l1.exe "/scratch/01990/pengzhi/4353679/Gau-227533.inp" -scrdir="/scratch/01990/pengzhi/4353679/"
 Entering Link 1 = /home1/apps/gaussian/16rA.03/g16/l1.exe PID=    227534.
  
 Copyright (c) 1988,1990,1992,1993,1995,1998,2003,2009,2016,
            Gaussian, Inc.  All Rights Reserved.
  
 This is part of the Gaussian(R) 16 program.  It is based on
 the Gaussian(R) 09 system (copyright 2009, Gaussian, Inc.),
 the Gaussian(R) 03 system (copyright 2003, Gaussian, Inc.),
 the Gaussian(R) 98 system (copyright 1998, Gaussian, Inc.),
 the Gaussian(R) 94 system (copyright 1995, Gaussian, Inc.),
 the Gaussian 92(TM) system (copyright 1992, Gaussian, Inc.),
 the Gaussian 90(TM) system (copyright 1990, Gaussian, Inc.),
 the Gaussian 88(TM) system (copyright 1988, Gaussian, Inc.),
 the Gaussian 86(TM) system (copyright 1986, Carnegie Mellon
 University), and the Gaussian 82(TM) system (copyright 1983,
 Carnegie Mellon University). Gaussian is a federally registered
 trademark of Gaussian, Inc.
  
 This software contains proprietary and confidential information,
 including trade secrets, belonging to Gaussian, Inc.
  
 This software is provided under written license and may be
 used, copied, transmitted, or stored only in accord with that
 written license.
  
 The following legend is applicable only to US Government
 contracts under FAR:
  
                    RESTRICTED RIGHTS LEGEND
  
 Use, reproduction and disclosure by the US Government is
 subject to restrictions as set forth in subparagraphs (a)
 and (c) of the Commercial Computer Software - Restricted
 Rights clause in FAR 52.227-19.
  
 Gaussian, Inc.
 340 Quinnipiac St., Bldg. 40, Wallingford CT 06492
  
  
 ---------------------------------------------------------------
 Warning -- This program may not be used in any manner that
 competes with the business of Gaussian, Inc. or will provide
 assistance to any competitor of Gaussian, Inc.  The licensee
 of this program is prohibited from giving any competitor of
 Gaussian, Inc. access to this program.  By using this program,
 the user acknowledges that Gaussian, Inc. is engaged in the
 business of creating and licensing software in the field of
 computational chemistry and represents and warrants to the
 licensee that it is not a competitor of Gaussian, Inc. and that
 it will not use this program in any manner prohibited above.
 ---------------------------------------------------------------
  

 Cite this work as:
 Gaussian 16, Revision A.03,
 M. J. Frisch, G. W. Trucks, H. B. Schlegel, G. E. Scuseria, 
 M. A. Robb, J. R. Cheeseman, G. Scalmani, V. Barone, 
 G. A. Petersson, H. Nakatsuji, X. Li, M. Caricato, A. V. Marenich, 
 J. Bloino, B. G. Janesko, R. Gomperts, B. Mennucci, H. P. Hratchian, 
 J. V. Ortiz, A. F. Izmaylov, J. L. Sonnenberg, D. Williams-Young, 
 F. Ding, F. Lipparini, F. Egidi, J. Goings, B. Peng, A. Petrone, 
 T. Henderson, D. Ranasinghe, V. G. Zakrzewski, J. Gao, N. Rega, 
 G. Zheng, W. Liang, M. Hada, M. Ehara, K. Toyota, R. Fukuda, 
 J. Hasegawa, M. Ishida, T. Nakajima, Y. Honda, O. Kitao, H. Nakai, 
 T. Vreven, K. Throssell, J. A. Montgomery, Jr., J. E. Peralta, 
 F. Ogliaro, M. J. Bearpark, J. J. Heyd, E. N. Brothers, K. N. Kudin, 
 V. N. Staroverov, T. A. Keith, R. Kobayashi, J. Normand, 
 K. Raghavachari, A. P. Rendell, J. C. Burant, S. S. Iyengar, 
 J. Tomasi, M. Cossi, J. M. Millam, M. Klene, C. Adamo, R. Cammi, 
 J. W. Ochterski, R. L. Martin, K. Morokuma, O. Farkas, 
 J. B. Foresman, and D. J. Fox, Gaussian, Inc., Wallingford CT, 2016.
 
 ******************************************
 Gaussian 16:  ES64L-G16RevA.03 25-Dec-2016
                18-Sep-2019 
 ******************************************
 %chk=Ng-295_loop3_3.0.chk
 %nprocshared=48
 Will use up to   48 processors via shared memory.
 %mem=10GB
 %nosave
 ----------------------------------------------------------------------
 #b3lyp/svp scf=(tight,noincore) Test #IOP(5/87=12) Density=Current Pop
 =(MK,readradii) iop(6/33=2) iop(6/42=6)
 ----------------------------------------------------------------------
 1/30=1,38=1,172=1/1;
 2/12=2,17=6,18=5,40=1/2;
 3/5=18,7=101,11=2,25=1,30=1,74=-5/1,2,3;
 4//1;
 5/5=4,32=2,38=5,87=12/2;
 6/7=2,8=2,9=2,10=2,15=8,20=101,22=-1,28=1,33=2,42=6/1,2;
 99/5=1,9=1/99;
 ----------------
 Ng-295_loop3_3.0
 ----------------
 Symbolic Z-matrix:
 Charge =  0 Multiplicity = 1
 C                     91.92     33.22     67.07 
 C                     92.5      33.51     68.44 
 O                     91.73     33.93     69.31 
 H                     91.03     33.831    66.916 
 H                     92.659    33.456    66.304 
 H                     91.652    32.166    67.004 
 N                     93.82     33.51     68.66 
 C                     94.37     34.08     69.87 
 C                     95.7      34.69     69.48 
 O                     96.45     34.06     68.74 
 C                     94.49     32.92     70.86 
 C                     95.13     33.4      72.16 
 O                     94.5      33.42     73.24 
 O                     96.27     33.89     72.09 
 H                     94.39     33.02     67.99 
 H                     93.66     34.77     70.33 
 H                     95.08     32.15     70.36 
 H                     93.54     32.44     71.08 
 N                     96.       35.92     69.92 
 C                     97.23     36.67     69.8 
 C                     98.63     36.11     70.01 
 O                     99.57     36.46     69.3 
 C                     97.04     37.82     70.79 
 C                     97.82     39.01     70.25 
 C                     97.56     40.43     70.75 
 C                     97.79     40.58     72.26 
 N                     97.5      41.92     72.77 
 H                     95.29     36.35     70.49 
 H                     97.27     37.       68.77 
 H                     97.36     37.57     71.8 
 H                     96.02     38.19     70.91 
 H                     97.83     39.03     69.16 
 H                     98.89     38.88     70.43 
 H                     96.51     40.63     70.53 
 H                     98.16     41.18     70.24 
 H                     98.79     40.22     72.49 
 H                     97.06     39.9      72.71 
 H                     96.54     42.21     72.61 
 H                     97.75     42.09     73.73 
 H                     97.98     42.65     72.27 
 N                     98.72     35.12     70.9 
 C                     99.89     34.27     71.02 
 C                     99.68     32.81     70.62 
 O                     100.63    32.11     70.29 
 C                     100.42    34.29     72.45 
 C                     99.37     34.06     73.52 
 O                     98.69     33.01     73.51 
 O                     99.28     34.81     74.52 
 H                     97.84     34.95     71.38 
 H                     100.65    34.74     70.4 
 H                     100.87    35.27     72.62 
 H                     101.25    33.58     72.55 
 N                     98.44     32.31     70.61 
 C                     98.04     30.96     70.29 
 C                     97.97     29.97     71.45 
 O                     97.61     28.83     71.17 
 H                     97.67     32.9      70.88 
 H                     98.78     30.59     69.59 
 H                     97.09     31.03     69.76 
 N                     98.14     30.4      72.7 
 C                     97.9      29.67     73.94 
 C                     96.56     30.2      74.41 
 O                     96.45     31.38     74.76 
 C                     99.17     29.7      74.79 
 C                     99.24     28.51     75.74 
 N                     99.64     28.75     76.99 
 O                     98.89     27.38     75.42 
 H                     98.45     31.35     72.83 
 H                     97.72     28.65     73.59 
 H                     99.35     30.63     75.33 
 H                     99.96     29.57     74.06 
 H                     99.85     29.72     77.2 
 H                     99.82     27.97     77.6 
 N                     95.56     29.32     74.53 
 C                     94.18     29.62     74.85 
 C                     93.73     30.48     76.02 
 O                     92.54     30.65     76.28 
 H                     95.74     28.41     74.13 
 H                     93.74     28.63     74.97 
 H                     93.78     30.1      73.95 
 N                     94.7      30.97     76.8 
 C                     94.55     31.73     78.02 
 C                     94.5      33.23     77.76 
 O                     95.14     33.78     76.87 
 C                     95.7      31.49     79. 
 C                     95.84     30.07     79.5 
 C                     96.69     29.11     78.92 
 C                     95.11     29.63     80.61 
 C                     96.72     27.79     79.37 
 C                     95.13     28.33     81.11 
 C                     96.02     27.4      80.53 
 O                     96.2      26.15     81.07 
 H                     95.6      30.83     76.37 
 H                     93.61     31.47     78.5 
 H                     95.57     32.21     79.81 
 H                     96.66     31.8      78.6 
 H                     97.39     29.31     78.12 
 H                     94.53     30.31     81.22 
 H                     97.34     27.12     78.8 
 H                     94.45     28.09     81.92 
 H                     95.7      26.1      81.89 
 N                     93.61     33.84     78.55 
 C                     93.01     35.15     78.4 
 C                     93.94     36.34     78.58 
 O                     95.16     36.26     78.77 
 C                     92.23     35.37     77.11 
 C                     91.2      34.27     76.86 
 C                     93.06     35.59     75.85 
 C                     90.11     34.64     75.86 
 H                     93.19     33.35     79.32 
 H                     92.2      35.27     79.12 
 H                     91.62     36.25     77.32 
 H                     90.65     33.92     77.74 
 H                     91.68     33.41     76.4 
 H                     94.04     36.04     75.96 
 H                     93.28     34.68     75.29 
 H                     92.41     36.2      75.21 
 H                     89.44     35.36     76.33 
 H                     90.43     35.16     74.96 
 H                     89.47     33.78     75.63 
 N                     93.45     37.58     78.51 
 C                     94.16     38.78     78.9 
 C                     94.26     38.94     80.41 
 O                     95.26     39.34     81. 
 C                     93.5      40.04     78.35 
 O                     92.17     40.2      78.79 
 H                     92.45     37.68     78.48 
 H                     95.17     38.77     78.48 
 H                     93.45     40.14     77.26 
 H                     94.13     40.91     78.53 
 H                     91.85     41.04     78.48 
 N                     93.23     38.54     81.15 
 C                     93.08     38.68     82.58 
 C                     93.67     39.94     83.19 
 O                     94.52     39.81     84.06 
 C                     93.53     37.39     83.26 
 H                     92.46     38.13     80.63 
 H                     92.03     38.7      82.88 
 H                     94.57     37.24     82.97 
 H                     93.37     37.48     84.34 
 H                     92.93     36.57     82.87 
 N                     93.39     41.18     82.75 
 C                     92.26     41.6      81.94 
 C                     90.98     41.85     82.73 
 O                     90.99     42.23     83.9 
 C                     92.79     42.86     81.26 
 H                     93.87     41.84     83.34 
 H                     92.02     40.86     81.19 
 H                     92.09     43.3      80.56 
 H                     92.81     43.59     82.07 
 H                     93.76     42.7      80.78 
 N                     89.8      41.63     82.15 
 C                     89.4      41.19     80.83 
 C                     88.27     40.19     81.02 
 O                     88.35     39.12     80.43 
 C                     89.04     42.37     79.93 
 C                     87.86     43.28     80.23 
 C                     87.99     44.04     81.55 
 O                     87.29     43.59     82.48 
 O                     88.73     45.02     81.75 
 H                     89.03     41.61     82.8 
 H                     90.13     40.66     80.21 
 H                     88.9      41.88     78.96 
 H                     89.93     43.       79.85 
 H                     86.88     42.8      80.19 
 H                     87.85     43.98     79.4 
 N                     87.26     40.46     81.84 
 C                     86.14     39.58     82.12 
 H                     85.284    39.878    81.514 
 H                     86.415    38.553    81.88 
 H                     85.878    39.649    83.176 
 H                     87.33     41.35     82.32 
 Ca                    96.64     34.03     74.75 
 O                     95.76     36.51     73.9 
 H                     94.87     36.64     73.57 
 H                     96.03     37.38     74.19 
 
 Stoichiometry    C54H83CaN15O23
 Framework group  C1[X(C54H83CaN15O23)]
 Deg. of freedom   522
 Full point group                 C1      NOp   1
 Largest Abelian subgroup         C1      NOp   1
 Largest concise Abelian subgroup C1      NOp   1
                         Standard orientation:                         
 ---------------------------------------------------------------------
 Center     Atomic      Atomic             Coordinates (Angstroms)
 Number     Number       Type             X           Y           Z
 ---------------------------------------------------------------------
      1          6           0        5.660584   -4.808508    6.201765
      2          6           0        4.888647   -4.063237    5.131212
      3          8           0        3.720965   -3.747893    5.382758
      4          1           0        4.962583   -5.344613    6.845599
      5          1           0        6.340524   -5.519750    5.732309
      6          1           0        6.232416   -4.098749    6.798713
      7          7           0        5.365781   -3.921747    3.888986
      8          6           0        4.506461   -3.488223    2.809576
      9          6           0        4.992882   -4.209408    1.570064
     10          8           0        6.199989   -4.283552    1.359363
     11          6           0        4.660611   -1.967903    2.739104
     12          6           0        3.842580   -1.407955    1.578379
     13          8           0        2.856719   -0.661154    1.762948
     14          8           0        4.113628   -1.817822    0.436826
     15          1           0        6.357857   -4.045332    3.768933
     16          1           0        3.456906   -3.653135    3.060648
     17          1           0        5.729113   -1.772655    2.633362
     18          1           0        4.377559   -1.462073    3.658516
     19          7           0        4.091199   -4.783747    0.761607
     20          6           0        4.274038   -5.415268   -0.525852
     21          6           0        5.142929   -4.881229   -1.656132
     22          8           0        5.810489   -5.636681   -2.358881
     23          6           0        2.847475   -5.543245   -1.061800
     24          6           0        2.811208   -6.778760   -1.949656
     25          6           0        1.492490   -7.441717   -2.343953
     26          6           0        0.556271   -6.495203   -3.107566
     27          7           0       -0.732993   -7.093703   -3.453101
     28          1           0        3.134066   -4.685891    1.058627
     29          1           0        4.735693   -6.371768   -0.317567
     30          1           0        2.516554   -4.661282   -1.607358
     31          1           0        2.066256   -5.714268   -0.318734
     32          1           0        3.489359   -7.555345   -1.595219
     33          1           0        3.277748   -6.569978   -2.915549
     34          1           0        1.016928   -7.728693   -1.404599
     35          1           0        1.626952   -8.340057   -2.941871
     36          1           0        1.101696   -6.086398   -3.954850
     37          1           0        0.355421   -5.687639   -2.396721
     38          1           0       -1.260295   -7.403897   -2.642526
     39          1           0       -1.326212   -6.546266   -4.054271
     40          1           0       -0.648351   -7.969631   -3.941860
     41          7           0        5.240326   -3.552072   -1.720586
     42          6           0        6.238887   -2.871523   -2.524033
     43          6           0        7.300362   -2.105650   -1.735103
     44          8           0        8.386251   -1.844931   -2.239357
     45          6           0        5.573737   -1.890831   -3.484251
     46          6           0        4.553731   -0.968393   -2.844725
     47          8           0        4.895701   -0.218480   -1.903616
     48          8           0        3.416193   -0.804391   -3.344436
     49          1           0        4.633574   -3.086677   -1.050541
     50          1           0        6.691265   -3.648133   -3.136512
     51          1           0        5.067341   -2.476674   -4.253765
     52          1           0        6.339288   -1.321159   -4.024997
     53          7           0        7.039240   -1.743640   -0.474760
     54          6           0        7.893379   -0.998678    0.419878
     55          6           0        7.746253    0.520778    0.405378
     56          8           0        8.463315    1.143228    1.183824
     57          1           0        6.143439   -1.969370   -0.074153
     58          1           0        8.909007   -1.230607    0.121200
     59          1           0        7.740352   -1.410436    1.417544
     60          7           0        6.771590    1.085900   -0.306639
     61          6           0        6.333199    2.477037   -0.281152
     62          6           0        5.083025    2.439380    0.575031
     63          8           0        4.077862    1.841683    0.175775
     64          6           0        6.371913    3.038086   -1.702429
     65          6           0        6.546568    4.552347   -1.705499
     66          7           0        5.797289    5.251130   -2.560124
     67          8           0        7.287248    5.139585   -0.925535
     68          1           0        6.243728    0.494841   -0.929142
     69          1           0        7.103648    2.963079    0.323389
     70          1           0        5.537853    2.749236   -2.342592
     71          1           0        7.280528    2.613158   -2.112010
     72          1           0        5.160015    4.702651   -3.127709
     73          1           0        5.982298    6.233543   -2.676467
     74          7           0        5.088268    3.161674    1.700670
     75          6           0        4.056827    3.183907    2.716758
     76          6           0        2.576038    3.391522    2.442606
     77          8           0        1.751781    3.462946    3.352606
     78          1           0        5.989679    3.530756    1.968508
     79          1           0        4.391611    3.979590    3.382271
     80          1           0        4.138226    2.215206    3.222123
     81          7           0        2.232913    3.577619    1.163140
     82          6           0        0.922734    3.888872    0.638685
     83          6           0        0.130470    2.635326    0.290777
     84          8           0        0.647057    1.613853   -0.149599
     85          6           0        0.991542    4.734944   -0.634079
     86          6           0        1.625012    6.098287   -0.472797
     87          6           0        2.983231    6.370975   -0.720551
     88          6           0        0.859623    7.195811   -0.062650
     89          6           0        3.534697    7.628903   -0.477031
     90          6           0        1.362527    8.474500    0.166353
     91          6           0        2.720749    8.725369   -0.126389
     92          8           0        3.242011    9.994792   -0.068492
     93          1           0        3.010257    3.368589    0.557711
     94          1           0        0.343956    4.419161    1.390622
     95          1           0       -0.026435    4.787904   -1.024361
     96          1           0        1.498219    4.224669   -1.446851
     97          1           0        3.688761    5.662055   -1.132451
     98          1           0       -0.217483    7.141721    0.025758
     99          1           0        4.599069    7.703442   -0.617590
    100          1           0        0.684899    9.218817    0.569978
    101          1           0        2.523909   10.608605    0.111683
    102          7           0       -1.160956    2.760039    0.614763
    103          6           0       -2.160807    1.724370    0.776892
    104          6           0       -2.580209    0.990921   -0.487843
    105          8           0       -2.081095    1.169552   -1.605822
    106          6           0       -1.849554    0.672361    1.833915
    107          6           0       -1.488690    1.293465    3.182028
    108          6           0       -0.806362   -0.373731    1.456634
    109          6           0       -1.597753    0.339922    4.366874
    110          1           0       -1.536734    3.652654    0.882024
    111          1           0       -3.066238    2.149640    1.210758
    112          1           0       -2.813277    0.195885    2.020483
    113          1           0       -2.081354    2.164142    3.482143
    114          1           0       -0.440704    1.582045    3.188839
    115          1           0       -0.698332   -0.627642    0.408369
    116          1           0        0.214389   -0.116905    1.743355
    117          1           0       -1.085985   -1.251209    2.053328
    118          1           0       -2.653598    0.160184    4.569566
    119          1           0       -1.205452   -0.664106    4.222553
    120          1           0       -1.216810    0.799810    5.286377
    121          7           0       -3.535586    0.060200   -0.427733
    122          6           0       -4.195951   -0.531494   -1.572292
    123          6           0       -5.199012    0.409088   -2.224116
    124          8           0       -5.352628    0.526377   -3.436859
    125          6           0       -4.940984   -1.810567   -1.205415
    126          8           0       -5.937583   -1.604818   -0.229424
    127          1           0       -4.045224   -0.022904    0.434974
    128          1           0       -3.454425   -0.827485   -2.320041
    129          1           0       -4.340550   -2.643776   -0.823522
    130          1           0       -5.301343   -2.312473   -2.102316
    131          1           0       -6.413969   -2.419031   -0.110205
    132          7           0       -5.896337    1.222099   -1.435921
    133          6           0       -6.953207    2.123376   -1.833069
    134          6           0       -7.845279    1.643754   -2.965311
    135          8           0       -7.915542    2.337085   -3.970624
    136          6           0       -6.369263    3.516761   -2.048676
    137          1           0       -5.673294    1.158756   -0.447165
    138          1           0       -7.644090    2.328681   -1.012442
    139          1           0       -5.608514    3.411467   -2.822222
    140          1           0       -7.179461    4.209129   -2.302261
    141          1           0       -5.893849    3.835801   -1.123097
    142          7           0       -8.469888    0.452341   -2.965467
    143          6           0       -8.748254   -0.403708   -1.825690
    144          6           0       -9.997740   -0.018017   -1.041453
    145          8           0      -10.965590    0.528401   -1.568798
    146          6           0       -8.856528   -1.784817   -2.467339
    147          1           0       -9.027647    0.388645   -3.801497
    148          1           0       -7.928149   -0.396955   -1.122069
    149          1           0       -9.016021   -2.582266   -1.751632
    150          1           0       -9.810769   -1.740408   -2.993506
    151          1           0       -8.002641   -2.015169   -3.111324
    152          7           0      -10.046266   -0.255294    0.269480
    153          6           0       -9.128596   -0.860065    1.211888
    154          6           0       -9.153423   -0.001831    2.467204
    155          8           0       -8.079609    0.349696    2.939171
    156          6           0       -9.463738   -2.329502    1.457723
    157          6           0      -10.768566   -2.759156    2.108355
    158          6           0      -12.011096   -2.380596    1.302309
    159          8           0      -12.643006   -1.402072    1.750171
    160          8           0      -12.401131   -2.948174    0.266100
    161          1           0      -10.801954    0.220726    0.736535
    162          1           0       -8.068501   -0.921591    0.946157
    163          1           0       -8.613982   -2.656223    2.067451
    164          1           0       -9.390023   -2.844095    0.495871
    165          1           0      -10.901993   -2.434853    3.142485
    166          1           0      -10.686117   -3.839813    2.174557
    167          7           0      -10.308308    0.388016    2.996032
    168          6           0      -10.459713    1.223314    4.173552
    169          1           0      -10.662827    0.594558    5.040839
    170          1           0       -9.541946    1.787022    4.340556
    171          1           0      -11.289320    1.914865    4.025056
    172          1           0      -11.131041    0.086832    2.486328
    173         20           0        2.525236   -0.061317   -0.837458
    174          8           0        1.107910   -2.420171   -0.564888
    175          1           0        0.819704   -2.735526    0.292660
    176          1           0        0.510444   -2.841790   -1.180659
 ---------------------------------------------------------------------
 Rotational constants (GHZ):           0.0210022           0.0091798           0.0076615
 Standard basis: SVP (5D, 7F)
 There are  1809 symmetry adapted cartesian basis functions of A   symmetry.
 There are  1717 symmetry adapted basis functions of A   symmetry.
  1717 basis functions,  2922 primitive gaussians,  1809 cartesian basis functions
   358 alpha electrons      358 beta electrons
       nuclear repulsion energy     19655.5923099929 Hartrees.
 NAtoms=  176 NActive=  176 NUniq=  176 SFac= 1.00D+00 NAtFMM=   60 NAOKFM=T Big=T
 Integral buffers will be    131072 words long.
 Raffenetti 2 integral format.
 Two-electron integral symmetry is turned on.
 One-electron integrals computed using PRISM.
 NBasis=  1717 RedAO= T EigKep=  2.92D-04  NBF=  1717
 NBsUse=  1717 1.00D-06 EigRej= -1.00D+00 NBFU=  1717
 ExpMin= 1.98D-02 ExpMax= 3.51D+04 ExpMxC= 5.28D+03 IAcc=3 IRadAn=         5 AccDes= 0.00D+00
 Harris functional with IExCor=  402 and IRadAn=       5 diagonalized for initial guess.
 HarFok:  IExCor=  402 AccDes= 0.00D+00 IRadAn=         5 IDoV= 1 UseB2=F ITyADJ=14
 ICtDFT=  3500011 ScaDFX=  1.000000  1.000000  1.000000  1.000000
 FoFCou: FMM=F IPFlag=           0 FMFlag=      100000 FMFlg1=        2001
         NFxFlg=           0 DoJE=T BraDBF=F KetDBF=T FulRan=T
         wScrn=  0.000000 ICntrl=       500 IOpCl=  0 I1Cent=   200000004 NGrid=           0
         NMat0=    1 NMatS0=      1 NMatT0=    0 NMatD0=    1 NMtDS0=    0 NMtDT0=    0
 Petite list used in FoFCou.
 Requested convergence on RMS density matrix=1.00D-08 within 128 cycles.
 Requested convergence on MAX density matrix=1.00D-06.
 Requested convergence on             energy=1.00D-06.
 No special actions if energy rises.
 EnCoef did     2 forward-backward iterations
 EnCoef did     3 forward-backward iterations
 EnCoef did     4 forward-backward iterations
 EnCoef did     1 forward-backward iterations
 EnCoef did     8 forward-backward iterations
 EnCoef did   100 forward-backward iterations
 Rare condition: small coef for last iteration:  0.000D+00
 EnCoef did   100 forward-backward iterations
 EnCoef did   100 forward-backward iterations
 EnCoef did   100 forward-backward iterations
 EnCoef did   100 forward-backward iterations
 Rare condition: small coef for last iteration:  0.116D-14
 EnCoef did   100 forward-backward iterations
 EnCoef did   100 forward-backward iterations
 Restarting incremental Fock formation.
 Rare condition: small coef for last iteration:  0.000D+00
 Rare condition: small coef for last iteration:  0.000D+00
 Rare condition: small coef for last iteration:  0.000D+00
 Rare condition: small coef for last iteration:  0.000D+00
 Rare condition: small coef for last iteration:  0.000D+00
 Rare condition: small coef for last iteration:  0.000D+00
 EnCoef did   100 forward-backward iterations
 Rare condition: small coef for last iteration:  0.000D+00
 Rare condition: small coef for last iteration:  0.000D+00
 Restarting incremental Fock formation.
 SCF Done:  E(RB3LYP) =  -5333.42854951     A.U. after   49 cycles
            NFock= 49  Conv=0.94D-09     -V/T= 2.0081
 SCF density gives NOpUse=  1 NOpAll=  1.
 Hyperfine terms turned off by default for NAtoms > 100.

 **********************************************************************

            Population analysis using the SCF density.

 **********************************************************************

 Orbital symmetries:
 BldTbl:  Degeneracy threshold= 1.00D-02
       Occupied  (A) (A) (A) (A) (A) (A) (A) (A) (A) (A) (A) (A)
                 (A) (A) (A) (A) (A) (A) (A) (A) (A) (A) (A) (A)
                 (A) (A) (A) (A) (A) (A) (A) (A) (A) (A) (A) (A)
                 (A) (A) (A) (A) (A) (A) (A) (A) (A) (A) (A) (A)
                 (A) (A) (A) (A) (A) (A) (A) (A) (A) (A) (A) (A)
                 (A) (A) (A) (A) (A) (A) (A) (A) (A) (A) (A) (A)
                 (A) (A) (A) (A) (A) (A) (A) (A) (A) (A) (A) (A)
                 (A) (A) (A) (A) (A) (A) (A) (A) (A) (A) (A) (A)
                 (A) (A) (A) (A) (A) (A) (A) (A) (A) (A) (A) (A)
                 (A) (A) (A) (A) (A) (A) (A) (A) (A) (A) (A) (A)
                 (A) (A) (A) (A) (A) (A) (A) (A) (A) (A) (A) (A)
                 (A) (A) (A) (A) (A) (A) (A) (A) (A) (A) (A) (A)
                 (A) (A) (A) (A) (A) (A) (A) (A) (A) (A) (A) (A)
                 (A) (A) (A) (A) (A) (A) (A) (A) (A) (A) (A) (A)
                 (A) (A) (A) (A) (A) (A) (A) (A) (A) (A) (A) (A)
                 (A) (A) (A) (A) (A) (A) (A) (A) (A) (A) (A) (A)
                 (A) (A) (A) (A) (A) (A) (A) (A) (A) (A) (A) (A)
                 (A) (A) (A) (A) (A) (A) (A) (A) (A) (A) (A) (A)
                 (A) (A) (A) (A) (A) (A) (A) (A) (A) (A) (A) (A)
                 (A) (A) (A) (A) (A) (A) (A) (A) (A) (A) (A) (A)
                 (A) (A) (A) (A) (A) (A) (A) (A) (A) (A) (A) (A)
                 (A) (A) (A) (A) (A) (A) (A) (A) (A) (A) (A) (A)
                 (A) (A) (A) (A) (A) (A) (A) (A) (A) (A) (A) (A)
                 (A) (A) (A) (A) (A) (A) (A) (A) (A) (A) (A) (A)
                 (A) (A) (A) (A) (A) (A) (A) (A) (A) (A) (A) (A)
                 (A) (A) (A) (A) (A) (A) (A) (A) (A) (A) (A) (A)
                 (A) (A) (A) (A) (A) (A) (A) (A) (A) (A) (A) (A)
                 (A) (A) (A) (A) (A) (A) (A) (A) (A) (A) (A) (A)
                 (A) (A) (A) (A) (A) (A) (A) (A) (A) (A) (A) (A)
                 (A) (A) (A) (A) (A) (A) (A) (A) (A) (A)
       Virtual   (A) (A) (A) (A) (A) (A) (A) (A) (A) (A) (A) (A)
                 (A) (A) (A) (A) (A) (A) (A) (A) (A) (A) (A) (A)
                 (A) (A) (A) (A) (A) (A) (A) (A) (A) (A) (A) (A)
                 (A) (A) (A) (A) (A) (A) (A) (A) (A) (A) (A) (A)
                 (A) (A) (A) (A) (A) (A) (A) (A) (A) (A) (A) (A)
                 (A) (A) (A) (A) (A) (A) (A) (A) (A) (A) (A) (A)
                 (A) (A) (A) (A) (A) (A) (A) (A) (A) (A) (A) (A)
                 (A) (A) (A) (A) (A) (A) (A) (A) (A) (A) (A) (A)
                 (A) (A) (A) (A) (A) (A) (A) (A) (A) (A) (A) (A)
                 (A) (A) (A) (A) (A) (A) (A) (A) (A) (A) (A) (A)
                 (A) (A) (A) (A) (A) (A) (A) (A) (A) (A) (A) (A)
                 (A) (A) (A) (A) (A) (A) (A) (A) (A) (A) (A) (A)
                 (A) (A) (A) (A) (A) (A) (A) (A) (A) (A) (A) (A)
                 (A) (A) (A) (A) (A) (A) (A) (A) (A) (A) (A) (A)
                 (A) (A) (A) (A) (A) (A) (A) (A) (A) (A) (A) (A)
                 (A) (A) (A) (A) (A) (A) (A) (A) (A) (A) (A) (A)
                 (A) (A) (A) (A) (A) (A) (A) (A) (A) (A) (A) (A)
                 (A) (A) (A) (A) (A) (A) (A) (A) (A) (A) (A) (A)
                 (A) (A) (A) (A) (A) (A) (A) (A) (A) (A) (A) (A)
                 (A) (A) (A) (A) (A) (A) (A) (A) (A) (A) (A) (A)
                 (A) (A) (A) (A) (A) (A) (A) (A) (A) (A) (A) (A)
                 (A) (A) (A) (A) (A) (A) (A) (A) (A) (A) (A) (A)
                 (A) (A) (A) (A) (A) (A) (A) (A) (A) (A) (A) (A)
                 (A) (A) (A) (A) (A) (A) (A) (A) (A) (A) (A) (A)
                 (A) (A) (A) (A) (A) (A) (A) (A) (A) (A) (A) (A)
                 (A) (A) (A) (A) (A) (A) (A) (A) (A) (A) (A) (A)
                 (A) (A) (A) (A) (A) (A) (A) (A) (A) (A) (A) (A)
                 (A) (A) (A) (A) (A) (A) (A) (A) (A) (A) (A) (A)
                 (A) (A) (A) (A) (A) (A) (A) (A) (A) (A) (A) (A)
                 (A) (A) (A) (A) (A) (A) (A) (A) (A) (A) (A) (A)
                 (A) (A) (A) (A) (A) (A) (A) (A) (A) (A) (A) (A)
                 (A) (A) (A) (A) (A) (A) (A) (A) (A) (A) (A) (A)
                 (A) (A) (A) (A) (A) (A) (A) (A) (A) (A) (A) (A)
                 (A) (A) (A) (A) (A) (A) (A) (A) (A) (A) (A) (A)
                 (A) (A) (A) (A) (A) (A) (A) (A) (A) (A) (A) (A)
                 (A) (A) (A) (A) (A) (A) (A) (A) (A) (A) (A) (A)
                 (A) (A) (A) (A) (A) (A) (A) (A) (A) (A) (A) (A)
                 (A) (A) (A) (A) (A) (A) (A) (A) (A) (A) (A) (A)
                 (A) (A) (A) (A) (A) (A) (A) (A) (A) (A) (A) (A)
                 (A) (A) (A) (A) (A) (A) (A) (A) (A) (A) (A) (A)
                 (A) (A) (A) (A) (A) (A) (A) (A) (A) (A) (A) (A)
                 (A) (A) (A) (A) (A) (A) (A) (A) (A) (A) (A) (A)
                 (A) (A) (A) (A) (A) (A) (A) (A) (A) (A) (A) (A)
                 (A) (A) (A) (A) (A) (A) (A) (A) (A) (A) (A) (A)
                 (A) (A) (A) (A) (A) (A) (A) (A) (A) (A) (A) (A)
                 (A) (A) (A) (A) (A) (A) (A) (A) (A) (A) (A) (A)
                 (A) (A) (A) (A) (A) (A) (A) (A) (A) (A) (A) (A)
                 (A) (A) (A) (A) (A) (A) (A) (A) (A) (A) (A) (A)
                 (A) (A) (A) (A) (A) (A) (A) (A) (A) (A) (A) (A)
                 (A) (A) (A) (A) (A) (A) (A) (A) (A) (A) (A) (A)
                 (A) (A) (A) (A) (A) (A) (A) (A) (A) (A) (A) (A)
                 (A) (A) (A) (A) (A) (A) (A) (A) (A) (A) (A) (A)
                 (A) (A) (A) (A) (A) (A) (A) (A) (A) (A) (A) (A)
                 (A) (A) (A) (A) (A) (A) (A) (A) (A) (A) (A) (A)
                 (A) (A) (A) (A) (A) (A) (A) (A) (A) (A) (A) (A)
                 (A) (A) (A) (A) (A) (A) (A) (A) (A) (A) (A) (A)
                 (A) (A) (A) (A) (A) (A) (A) (A) (A) (A) (A) (A)
                 (A) (A) (A) (A) (A) (A) (A) (A) (A) (A) (A) (A)
                 (A) (A) (A) (A) (A) (A) (A) (A) (A) (A) (A) (A)
                 (A) (A) (A) (A) (A) (A) (A) (A) (A) (A) (A) (A)
                 (A) (A) (A) (A) (A) (A) (A) (A) (A) (A) (A) (A)
                 (A) (A) (A) (A) (A) (A) (A) (A) (A) (A) (A) (A)
                 (A) (A) (A) (A) (A) (A) (A) (A) (A) (A) (A) (A)
                 (A) (A) (A) (A) (A) (A) (A) (A) (A) (A) (A) (A)
                 (A) (A) (A) (A) (A) (A) (A) (A) (A) (A) (A) (A)
                 (A) (A) (A) (A) (A) (A) (A) (A) (A) (A) (A) (A)
                 (A) (A) (A) (A) (A) (A) (A) (A) (A) (A) (A) (A)
                 (A) (A) (A) (A) (A) (A) (A) (A) (A) (A) (A) (A)
                 (A) (A) (A) (A) (A) (A) (A) (A) (A) (A) (A) (A)
                 (A) (A) (A) (A) (A) (A) (A) (A) (A) (A) (A) (A)
                 (A) (A) (A) (A) (A) (A) (A) (A) (A) (A) (A) (A)
                 (A) (A) (A) (A) (A) (A) (A) (A) (A) (A) (A) (A)
                 (A) (A) (A) (A) (A) (A) (A) (A) (A) (A) (A) (A)
                 (A) (A) (A) (A) (A) (A) (A) (A) (A) (A) (A) (A)
                 (A) (A) (A) (A) (A) (A) (A) (A) (A) (A) (A) (A)
                 (A) (A) (A) (A) (A) (A) (A) (A) (A) (A) (A) (A)
                 (A) (A) (A) (A) (A) (A) (A) (A) (A) (A) (A) (A)
                 (A) (A) (A) (A) (A) (A) (A) (A) (A) (A) (A) (A)
                 (A) (A) (A) (A) (A) (A) (A) (A) (A) (A) (A) (A)
                 (A) (A) (A) (A) (A) (A) (A) (A) (A) (A) (A) (A)
                 (A) (A) (A) (A) (A) (A) (A) (A) (A) (A) (A) (A)
                 (A) (A) (A) (A) (A) (A) (A) (A) (A) (A) (A) (A)
                 (A) (A) (A) (A) (A) (A) (A) (A) (A) (A) (A) (A)
                 (A) (A) (A) (A) (A) (A) (A) (A) (A) (A) (A) (A)
                 (A) (A) (A) (A) (A) (A) (A) (A) (A) (A) (A) (A)
                 (A) (A) (A) (A) (A) (A) (A) (A) (A) (A) (A) (A)
                 (A) (A) (A) (A) (A) (A) (A) (A) (A) (A) (A) (A)
                 (A) (A) (A) (A) (A) (A) (A) (A) (A) (A) (A) (A)
                 (A) (A) (A) (A) (A) (A) (A) (A) (A) (A) (A) (A)
                 (A) (A) (A) (A) (A) (A) (A) (A) (A) (A) (A) (A)
                 (A) (A) (A) (A) (A) (A) (A) (A) (A) (A) (A) (A)
                 (A) (A) (A) (A) (A) (A) (A) (A) (A) (A) (A) (A)
                 (A) (A) (A) (A) (A) (A) (A) (A) (A) (A) (A) (A)
                 (A) (A) (A) (A) (A) (A) (A) (A) (A) (A) (A) (A)
                 (A) (A) (A) (A) (A) (A) (A) (A) (A) (A) (A) (A)
                 (A) (A) (A) (A) (A) (A) (A) (A) (A) (A) (A) (A)
                 (A) (A) (A) (A) (A) (A) (A) (A) (A) (A) (A) (A)
                 (A) (A) (A) (A) (A) (A) (A) (A) (A) (A) (A) (A)
                 (A) (A) (A) (A) (A) (A) (A) (A) (A) (A) (A) (A)
                 (A) (A) (A) (A) (A) (A) (A) (A) (A) (A) (A) (A)
                 (A) (A) (A) (A) (A) (A) (A) (A) (A) (A) (A) (A)
                 (A) (A) (A) (A) (A) (A) (A) (A) (A) (A) (A) (A)
                 (A) (A) (A) (A) (A) (A) (A) (A) (A) (A) (A) (A)
                 (A) (A) (A) (A) (A) (A) (A) (A) (A) (A) (A) (A)
                 (A) (A) (A) (A) (A) (A) (A) (A) (A) (A) (A) (A)
                 (A) (A) (A) (A) (A) (A) (A) (A) (A) (A) (A) (A)
                 (A) (A) (A) (A) (A) (A) (A) (A) (A) (A) (A) (A)
                 (A) (A) (A) (A) (A) (A) (A) (A) (A) (A) (A) (A)
                 (A) (A) (A) (A) (A) (A) (A) (A) (A) (A) (A) (A)
                 (A) (A) (A) (A) (A) (A) (A) (A) (A) (A) (A) (A)
                 (A) (A) (A) (A) (A) (A) (A) (A) (A) (A) (A) (A)
                 (A) (A) (A) (A) (A) (A) (A) (A) (A) (A) (A) (A)
                 (A) (A) (A) (A) (A) (A) (A) (A) (A) (A) (A) (A)
                 (A) (A) (A)
 The electronic state is 1-A.
 Alpha  occ. eigenvalues -- -145.43658 -19.24510 -19.18456 -19.17851 -19.17270
 Alpha  occ. eigenvalues --  -19.15454 -19.12733 -19.12502 -19.12039 -19.11993
 Alpha  occ. eigenvalues --  -19.11224 -19.11210 -19.10472 -19.09813 -19.09803
 Alpha  occ. eigenvalues --  -19.09746 -19.09500 -19.08519 -19.08120 -19.06535
 Alpha  occ. eigenvalues --  -19.06233 -19.05441 -18.98746 -18.98641 -15.49418
 Alpha  occ. eigenvalues --  -14.59166 -14.41307 -14.40811 -14.39401 -14.39230
 Alpha  occ. eigenvalues --  -14.37938 -14.37761 -14.36783 -14.36532 -14.36302
 Alpha  occ. eigenvalues --  -14.34411 -14.33479 -14.32434 -14.32035 -14.31724
 Alpha  occ. eigenvalues --  -12.63023 -12.63008 -12.62970 -10.36815 -10.34735
 Alpha  occ. eigenvalues --  -10.33491 -10.31977 -10.31439 -10.31278 -10.30691
 Alpha  occ. eigenvalues --  -10.30534 -10.29944 -10.29599 -10.29102 -10.28929
 Alpha  occ. eigenvalues --  -10.28851 -10.28237 -10.28208 -10.27792 -10.27697
 Alpha  occ. eigenvalues --  -10.27677 -10.27613 -10.27233 -10.27150 -10.26654
 Alpha  occ. eigenvalues --  -10.26652 -10.26120 -10.25943 -10.25795 -10.25629
 Alpha  occ. eigenvalues --  -10.24961 -10.24731 -10.23868 -10.23428 -10.23350
 Alpha  occ. eigenvalues --  -10.22909 -10.22530 -10.21991 -10.21963 -10.21590
 Alpha  occ. eigenvalues --  -10.21532 -10.21420 -10.21357 -10.20881 -10.20851
 Alpha  occ. eigenvalues --  -10.20581 -10.20325 -10.20269 -10.20240 -10.19710
 Alpha  occ. eigenvalues --  -10.19621 -10.19129 -10.17961 -10.17445 -10.17109
 Alpha  occ. eigenvalues --  -10.16202 -10.12688  -1.86139  -1.14870  -1.13693
 Alpha  occ. eigenvalues --   -1.13561  -1.13365  -1.10327  -1.09315  -1.08297
 Alpha  occ. eigenvalues --   -1.06740  -1.06716  -1.06378  -1.05873  -1.05745
 Alpha  occ. eigenvalues --   -1.05046  -1.04817  -1.04675  -1.04434  -1.03453
 Alpha  occ. eigenvalues --   -1.02847  -1.01941  -1.01195  -1.00245  -0.99895
 Alpha  occ. eigenvalues --   -0.98642  -0.98361  -0.97130  -0.96669  -0.95616
 Alpha  occ. eigenvalues --   -0.95447  -0.95034  -0.94135  -0.93766  -0.93428
 Alpha  occ. eigenvalues --   -0.93106  -0.92561  -0.92348  -0.92336  -0.91228
 Alpha  occ. eigenvalues --   -0.90171  -0.89659  -0.89330  -0.87792  -0.87496
 Alpha  occ. eigenvalues --   -0.86109  -0.85459  -0.82954  -0.82745  -0.81003
 Alpha  occ. eigenvalues --   -0.80866  -0.80412  -0.79541  -0.78383  -0.78041
 Alpha  occ. eigenvalues --   -0.77560  -0.76759  -0.76470  -0.76014  -0.75297
 Alpha  occ. eigenvalues --   -0.74793  -0.74584  -0.73830  -0.73809  -0.72897
 Alpha  occ. eigenvalues --   -0.72775  -0.71495  -0.70041  -0.69751  -0.69527
 Alpha  occ. eigenvalues --   -0.68821  -0.68498  -0.67325  -0.66966  -0.66486
 Alpha  occ. eigenvalues --   -0.66441  -0.65921  -0.64716  -0.64617  -0.64270
 Alpha  occ. eigenvalues --   -0.63940  -0.63917  -0.63369  -0.63046  -0.63019
 Alpha  occ. eigenvalues --   -0.61869  -0.61395  -0.61179  -0.60860  -0.60286
 Alpha  occ. eigenvalues --   -0.60117  -0.60075  -0.59656  -0.59140  -0.58728
 Alpha  occ. eigenvalues --   -0.58624  -0.58059  -0.57798  -0.57548  -0.57336
 Alpha  occ. eigenvalues --   -0.57091  -0.56904  -0.56837  -0.56432  -0.56218
 Alpha  occ. eigenvalues --   -0.55322  -0.54782  -0.54449  -0.53967  -0.53729
 Alpha  occ. eigenvalues --   -0.53437  -0.53237  -0.52936  -0.52694  -0.52349
 Alpha  occ. eigenvalues --   -0.52321  -0.52089  -0.51687  -0.51645  -0.51269
 Alpha  occ. eigenvalues --   -0.51144  -0.50907  -0.50610  -0.50543  -0.50353
 Alpha  occ. eigenvalues --   -0.49923  -0.49673  -0.49453  -0.49262  -0.49082
 Alpha  occ. eigenvalues --   -0.48685  -0.48487  -0.48115  -0.47998  -0.47791
 Alpha  occ. eigenvalues --   -0.47746  -0.47626  -0.47259  -0.47177  -0.47128
 Alpha  occ. eigenvalues --   -0.46781  -0.46571  -0.46257  -0.45914  -0.45869
 Alpha  occ. eigenvalues --   -0.45722  -0.45497  -0.45303  -0.45140  -0.44982
 Alpha  occ. eigenvalues --   -0.44931  -0.44802  -0.44558  -0.44420  -0.44308
 Alpha  occ. eigenvalues --   -0.44178  -0.44002  -0.43715  -0.43609  -0.43439
 Alpha  occ. eigenvalues --   -0.43362  -0.43350  -0.43211  -0.43205  -0.42927
 Alpha  occ. eigenvalues --   -0.42845  -0.42764  -0.42589  -0.42277  -0.42019
 Alpha  occ. eigenvalues --   -0.41971  -0.41902  -0.41863  -0.41696  -0.41638
 Alpha  occ. eigenvalues --   -0.41524  -0.41252  -0.41197  -0.41080  -0.40956
 Alpha  occ. eigenvalues --   -0.40786  -0.40593  -0.40399  -0.40285  -0.40045
 Alpha  occ. eigenvalues --   -0.39938  -0.39918  -0.39728  -0.39551  -0.39478
 Alpha  occ. eigenvalues --   -0.39309  -0.39062  -0.38873  -0.38607  -0.38498
 Alpha  occ. eigenvalues --   -0.38376  -0.38317  -0.38283  -0.38056  -0.37826
 Alpha  occ. eigenvalues --   -0.37472  -0.37191  -0.37052  -0.36798  -0.36791
 Alpha  occ. eigenvalues --   -0.36541  -0.36349  -0.36112  -0.36068  -0.35820
 Alpha  occ. eigenvalues --   -0.35659  -0.35644  -0.35561  -0.35318  -0.34721
 Alpha  occ. eigenvalues --   -0.34638  -0.34017  -0.33634  -0.33216  -0.33060
 Alpha  occ. eigenvalues --   -0.32719  -0.32402  -0.32335  -0.31739  -0.31600
 Alpha  occ. eigenvalues --   -0.31544  -0.30729  -0.30523  -0.30150  -0.29492
 Alpha  occ. eigenvalues --   -0.29202  -0.29190  -0.28956  -0.28662  -0.28443
 Alpha  occ. eigenvalues --   -0.28361  -0.28215  -0.28128  -0.28053  -0.27697
 Alpha  occ. eigenvalues --   -0.27582  -0.27468  -0.27211  -0.26949  -0.26753
 Alpha  occ. eigenvalues --   -0.26032  -0.25990  -0.25651  -0.25303  -0.25267
 Alpha  occ. eigenvalues --   -0.24869  -0.24799  -0.24000  -0.23699  -0.23638
 Alpha  occ. eigenvalues --   -0.23006  -0.22839  -0.22521  -0.21145  -0.20371
 Alpha  occ. eigenvalues --   -0.16028  -0.15906  -0.12985
 Alpha virt. eigenvalues --   -0.12182  -0.08305  -0.06002  -0.05315  -0.04777
 Alpha virt. eigenvalues --   -0.03858  -0.03730  -0.03589  -0.02726  -0.02419
 Alpha virt. eigenvalues --   -0.02260  -0.02044  -0.01271  -0.01192  -0.00645
 Alpha virt. eigenvalues --   -0.00473  -0.00018   0.00101   0.00493   0.00870
 Alpha virt. eigenvalues --    0.01169   0.01369   0.01607   0.01882   0.01974
 Alpha virt. eigenvalues --    0.02039   0.02327   0.03199   0.03270   0.03333
 Alpha virt. eigenvalues --    0.03476   0.03744   0.03824   0.04227   0.04399
 Alpha virt. eigenvalues --    0.04580   0.04968   0.05073   0.05340   0.05585
 Alpha virt. eigenvalues --    0.05675   0.05693   0.06060   0.06510   0.06628
 Alpha virt. eigenvalues --    0.06903   0.07223   0.07277   0.07554   0.07748
 Alpha virt. eigenvalues --    0.07847   0.08255   0.08427   0.08607   0.08860
 Alpha virt. eigenvalues --    0.09185   0.09235   0.09408   0.09684   0.09863
 Alpha virt. eigenvalues --    0.10108   0.10325   0.10503   0.10610   0.10636
 Alpha virt. eigenvalues --    0.10762   0.10852   0.11007   0.11193   0.11418
 Alpha virt. eigenvalues --    0.11521   0.11860   0.11922   0.12059   0.12250
 Alpha virt. eigenvalues --    0.12403   0.12616   0.12764   0.12866   0.12929
 Alpha virt. eigenvalues --    0.13189   0.13213   0.13481   0.13598   0.13826
 Alpha virt. eigenvalues --    0.13915   0.14038   0.14177   0.14302   0.14548
 Alpha virt. eigenvalues --    0.14825   0.14885   0.15192   0.15238   0.15334
 Alpha virt. eigenvalues --    0.15544   0.15768   0.15844   0.15919   0.16125
 Alpha virt. eigenvalues --    0.16189   0.16391   0.16586   0.16640   0.16720
 Alpha virt. eigenvalues --    0.16975   0.17064   0.17229   0.17625   0.17834
 Alpha virt. eigenvalues --    0.17862   0.18193   0.18280   0.18414   0.18550
 Alpha virt. eigenvalues --    0.18914   0.19189   0.19413   0.19550   0.19636
 Alpha virt. eigenvalues --    0.19849   0.20255   0.20431   0.20645   0.20689
 Alpha virt. eigenvalues --    0.20783   0.20897   0.21033   0.21397   0.21447
 Alpha virt. eigenvalues --    0.21588   0.21706   0.21893   0.22107   0.22352
 Alpha virt. eigenvalues --    0.22763   0.23131   0.23408   0.23640   0.23995
 Alpha virt. eigenvalues --    0.24328   0.24387   0.24797   0.24841   0.24953
 Alpha virt. eigenvalues --    0.25435   0.25597   0.25924   0.26107   0.26444
 Alpha virt. eigenvalues --    0.26496   0.26662   0.26897   0.27005   0.27169
 Alpha virt. eigenvalues --    0.27500   0.28053   0.28189   0.28420   0.28603
 Alpha virt. eigenvalues --    0.28638   0.28887   0.29204   0.29324   0.29624
 Alpha virt. eigenvalues --    0.29864   0.30222   0.30376   0.30764   0.31012
 Alpha virt. eigenvalues --    0.31085   0.31401   0.31884   0.32201   0.32593
 Alpha virt. eigenvalues --    0.33149   0.33187   0.33749   0.33823   0.34194
 Alpha virt. eigenvalues --    0.34254   0.34619   0.34866   0.35129   0.35483
 Alpha virt. eigenvalues --    0.35602   0.36036   0.36140   0.36215   0.36313
 Alpha virt. eigenvalues --    0.36851   0.37122   0.37227   0.37291   0.37557
 Alpha virt. eigenvalues --    0.37759   0.37826   0.38265   0.38741   0.38959
 Alpha virt. eigenvalues --    0.39219   0.39527   0.40087   0.40240   0.40418
 Alpha virt. eigenvalues --    0.40529   0.40592   0.40916   0.41286   0.41532
 Alpha virt. eigenvalues --    0.41809   0.41979   0.42194   0.42346   0.42604
 Alpha virt. eigenvalues --    0.42990   0.43093   0.43450   0.43546   0.43936
 Alpha virt. eigenvalues --    0.44085   0.44394   0.44538   0.44670   0.44898
 Alpha virt. eigenvalues --    0.45022   0.45156   0.45309   0.45543   0.45670
 Alpha virt. eigenvalues --    0.45956   0.46280   0.46463   0.46731   0.46839
 Alpha virt. eigenvalues --    0.47037   0.47261   0.47437   0.47582   0.47823
 Alpha virt. eigenvalues --    0.47911   0.48044   0.48363   0.48445   0.48767
 Alpha virt. eigenvalues --    0.49085   0.49304   0.49486   0.49723   0.49969
 Alpha virt. eigenvalues --    0.49990   0.50083   0.50414   0.50513   0.51028
 Alpha virt. eigenvalues --    0.51132   0.51208   0.51257   0.51350   0.51605
 Alpha virt. eigenvalues --    0.51699   0.51796   0.52205   0.52300   0.52328
 Alpha virt. eigenvalues --    0.52591   0.52742   0.52803   0.53181   0.53403
 Alpha virt. eigenvalues --    0.53647   0.53780   0.53810   0.54131   0.54199
 Alpha virt. eigenvalues --    0.54254   0.54483   0.54774   0.54842   0.55115
 Alpha virt. eigenvalues --    0.55524   0.55621   0.55739   0.55933   0.56011
 Alpha virt. eigenvalues --    0.56294   0.56422   0.56757   0.56892   0.56967
 Alpha virt. eigenvalues --    0.57166   0.57516   0.57726   0.57820   0.57978
 Alpha virt. eigenvalues --    0.58084   0.58121   0.58308   0.58621   0.58789
 Alpha virt. eigenvalues --    0.58879   0.58915   0.58991   0.59174   0.59552
 Alpha virt. eigenvalues --    0.59634   0.59706   0.60014   0.60029   0.60159
 Alpha virt. eigenvalues --    0.60200   0.60459   0.60639   0.60817   0.60947
 Alpha virt. eigenvalues --    0.61033   0.61139   0.61235   0.61420   0.61535
 Alpha virt. eigenvalues --    0.61603   0.61757   0.61905   0.61972   0.62104
 Alpha virt. eigenvalues --    0.62189   0.62289   0.62476   0.62536   0.62782
 Alpha virt. eigenvalues --    0.63004   0.63185   0.63218   0.63303   0.63380
 Alpha virt. eigenvalues --    0.63465   0.63550   0.63623   0.63824   0.63864
 Alpha virt. eigenvalues --    0.64159   0.64222   0.64332   0.64472   0.64538
 Alpha virt. eigenvalues --    0.64578   0.64681   0.64815   0.64972   0.65195
 Alpha virt. eigenvalues --    0.65310   0.65363   0.65484   0.65509   0.65652
 Alpha virt. eigenvalues --    0.65804   0.65898   0.66112   0.66255   0.66341
 Alpha virt. eigenvalues --    0.66347   0.66371   0.66543   0.66571   0.66699
 Alpha virt. eigenvalues --    0.66887   0.67015   0.67254   0.67282   0.67342
 Alpha virt. eigenvalues --    0.67477   0.67584   0.67729   0.67935   0.67993
 Alpha virt. eigenvalues --    0.68032   0.68089   0.68240   0.68438   0.68611
 Alpha virt. eigenvalues --    0.68694   0.68861   0.69100   0.69268   0.69390
 Alpha virt. eigenvalues --    0.69426   0.69548   0.69591   0.69705   0.69994
 Alpha virt. eigenvalues --    0.70188   0.70232   0.70423   0.70513   0.70632
 Alpha virt. eigenvalues --    0.70726   0.70877   0.71030   0.71165   0.71270
 Alpha virt. eigenvalues --    0.71374   0.71471   0.71751   0.71822   0.71941
 Alpha virt. eigenvalues --    0.72245   0.72373   0.72571   0.72734   0.72774
 Alpha virt. eigenvalues --    0.72984   0.73281   0.73407   0.73538   0.73647
 Alpha virt. eigenvalues --    0.73806   0.73982   0.74146   0.74343   0.74675
 Alpha virt. eigenvalues --    0.74723   0.74727   0.74973   0.75367   0.75534
 Alpha virt. eigenvalues --    0.75839   0.76173   0.76475   0.76705   0.76834
 Alpha virt. eigenvalues --    0.77063   0.77287   0.77450   0.78012   0.78282
 Alpha virt. eigenvalues --    0.78551   0.78917   0.79118   0.79195   0.79480
 Alpha virt. eigenvalues --    0.79572   0.79695   0.80093   0.80161   0.80492
 Alpha virt. eigenvalues --    0.80757   0.81047   0.81360   0.81400   0.82036
 Alpha virt. eigenvalues --    0.82545   0.82770   0.82999   0.83026   0.83377
 Alpha virt. eigenvalues --    0.83757   0.84012   0.84128   0.84174   0.84700
 Alpha virt. eigenvalues --    0.84885   0.85111   0.85738   0.85902   0.86238
 Alpha virt. eigenvalues --    0.86630   0.87029   0.87242   0.87613   0.87731
 Alpha virt. eigenvalues --    0.87875   0.88486   0.88907   0.89019   0.89455
 Alpha virt. eigenvalues --    0.89656   0.90112   0.90210   0.90305   0.90440
 Alpha virt. eigenvalues --    0.90801   0.91158   0.91655   0.91910   0.92323
 Alpha virt. eigenvalues --    0.92581   0.92672   0.92855   0.93165   0.93507
 Alpha virt. eigenvalues --    0.93851   0.94022   0.94090   0.94639   0.94827
 Alpha virt. eigenvalues --    0.94969   0.95352   0.95525   0.96259   0.96383
 Alpha virt. eigenvalues --    0.96601   0.96695   0.97093   0.97471   0.97692
 Alpha virt. eigenvalues --    0.97873   0.98600   0.98829   0.99080   0.99293
 Alpha virt. eigenvalues --    0.99414   0.99654   1.00066   1.00237   1.00598
 Alpha virt. eigenvalues --    1.00682   1.01247   1.01413   1.01943   1.02270
 Alpha virt. eigenvalues --    1.02644   1.02915   1.03007   1.03490   1.03783
 Alpha virt. eigenvalues --    1.03958   1.04173   1.04231   1.04626   1.04803
 Alpha virt. eigenvalues --    1.04912   1.05147   1.05380   1.05482   1.05877
 Alpha virt. eigenvalues --    1.06019   1.06227   1.06450   1.06794   1.06966
 Alpha virt. eigenvalues --    1.07476   1.07700   1.08159   1.08506   1.08849
 Alpha virt. eigenvalues --    1.09114   1.09363   1.09655   1.09926   1.10604
 Alpha virt. eigenvalues --    1.10692   1.10927   1.11078   1.11136   1.11728
 Alpha virt. eigenvalues --    1.12076   1.12181   1.12444   1.12564   1.13076
 Alpha virt. eigenvalues --    1.13363   1.13408   1.13716   1.14443   1.15208
 Alpha virt. eigenvalues --    1.15388   1.15446   1.15650   1.15894   1.15935
 Alpha virt. eigenvalues --    1.16205   1.16419   1.16626   1.16990   1.17153
 Alpha virt. eigenvalues --    1.17487   1.17789   1.18279   1.18520   1.18771
 Alpha virt. eigenvalues --    1.19104   1.19415   1.19782   1.19980   1.20079
 Alpha virt. eigenvalues --    1.20464   1.20728   1.20825   1.21089   1.21545
 Alpha virt. eigenvalues --    1.21721   1.22127   1.22212   1.22350   1.22589
 Alpha virt. eigenvalues --    1.22873   1.23209   1.23313   1.23409   1.23841
 Alpha virt. eigenvalues --    1.24050   1.24592   1.24686   1.25211   1.25545
 Alpha virt. eigenvalues --    1.25945   1.26176   1.26271   1.26341   1.26450
 Alpha virt. eigenvalues --    1.26753   1.26886   1.26988   1.27112   1.27567
 Alpha virt. eigenvalues --    1.27737   1.28133   1.28543   1.28611   1.29026
 Alpha virt. eigenvalues --    1.29043   1.29373   1.29560   1.29911   1.30177
 Alpha virt. eigenvalues --    1.30514   1.30761   1.31381   1.31776   1.32119
 Alpha virt. eigenvalues --    1.32327   1.32614   1.32980   1.33285   1.33384
 Alpha virt. eigenvalues --    1.33713   1.33793   1.34311   1.34349   1.34918
 Alpha virt. eigenvalues --    1.35006   1.35329   1.35510   1.36133   1.36555
 Alpha virt. eigenvalues --    1.36891   1.37115   1.37442   1.37615   1.38375
 Alpha virt. eigenvalues --    1.38504   1.38635   1.38935   1.39228   1.39360
 Alpha virt. eigenvalues --    1.39770   1.40147   1.40333   1.40627   1.41008
 Alpha virt. eigenvalues --    1.41377   1.41452   1.41810   1.41953   1.42522
 Alpha virt. eigenvalues --    1.42641   1.42967   1.43215   1.43338   1.43646
 Alpha virt. eigenvalues --    1.43929   1.44043   1.44395   1.44475   1.44640
 Alpha virt. eigenvalues --    1.45203   1.45402   1.45654   1.46012   1.46488
 Alpha virt. eigenvalues --    1.47104   1.47476   1.47900   1.48082   1.48469
 Alpha virt. eigenvalues --    1.48487   1.48841   1.49357   1.49502   1.49704
 Alpha virt. eigenvalues --    1.49822   1.50032   1.50726   1.50808   1.51270
 Alpha virt. eigenvalues --    1.51528   1.51821   1.52214   1.52635   1.52657
 Alpha virt. eigenvalues --    1.53096   1.53203   1.53491   1.53737   1.53997
 Alpha virt. eigenvalues --    1.54254   1.54417   1.54619   1.54822   1.54875
 Alpha virt. eigenvalues --    1.55133   1.55571   1.55701   1.56665   1.56835
 Alpha virt. eigenvalues --    1.57303   1.57741   1.57969   1.57993   1.58482
 Alpha virt. eigenvalues --    1.58725   1.58909   1.59422   1.59830   1.60207
 Alpha virt. eigenvalues --    1.60657   1.61202   1.61419   1.61824   1.62222
 Alpha virt. eigenvalues --    1.62392   1.62498   1.62999   1.63396   1.63926
 Alpha virt. eigenvalues --    1.64412   1.64451   1.64806   1.65125   1.65291
 Alpha virt. eigenvalues --    1.65553   1.65667   1.65994   1.66270   1.66759
 Alpha virt. eigenvalues --    1.67848   1.67946   1.68090   1.68220   1.68741
 Alpha virt. eigenvalues --    1.69059   1.69371   1.69470   1.69592   1.69739
 Alpha virt. eigenvalues --    1.69865   1.70020   1.70234   1.70406   1.70667
 Alpha virt. eigenvalues --    1.70826   1.70939   1.71451   1.71541   1.71640
 Alpha virt. eigenvalues --    1.71692   1.71947   1.72450   1.72612   1.72803
 Alpha virt. eigenvalues --    1.72996   1.73251   1.73510   1.73632   1.73804
 Alpha virt. eigenvalues --    1.73910   1.74134   1.74262   1.74616   1.74676
 Alpha virt. eigenvalues --    1.74924   1.75089   1.75234   1.75391   1.75570
 Alpha virt. eigenvalues --    1.75807   1.75909   1.76084   1.76396   1.76791
 Alpha virt. eigenvalues --    1.76918   1.77085   1.77188   1.77220   1.77484
 Alpha virt. eigenvalues --    1.77596   1.77855   1.77959   1.78142   1.78213
 Alpha virt. eigenvalues --    1.78250   1.78341   1.78568   1.78896   1.79018
 Alpha virt. eigenvalues --    1.79197   1.79368   1.79561   1.79694   1.79722
 Alpha virt. eigenvalues --    1.79914   1.80234   1.80262   1.80371   1.80560
 Alpha virt. eigenvalues --    1.80808   1.80898   1.81356   1.81398   1.81606
 Alpha virt. eigenvalues --    1.81719   1.82172   1.82320   1.82480   1.82679
 Alpha virt. eigenvalues --    1.82880   1.82957   1.83090   1.83240   1.83525
 Alpha virt. eigenvalues --    1.83694   1.83853   1.84038   1.84303   1.84539
 Alpha virt. eigenvalues --    1.84714   1.84790   1.84849   1.85049   1.85375
 Alpha virt. eigenvalues --    1.85456   1.85644   1.85692   1.86089   1.86125
 Alpha virt. eigenvalues --    1.86509   1.86647   1.86670   1.87054   1.87286
 Alpha virt. eigenvalues --    1.87486   1.87620   1.87768   1.87870   1.88088
 Alpha virt. eigenvalues --    1.88154   1.88304   1.88473   1.88686   1.88909
 Alpha virt. eigenvalues --    1.89041   1.89314   1.89645   1.89748   1.89903
 Alpha virt. eigenvalues --    1.89977   1.90185   1.90389   1.90881   1.91130
 Alpha virt. eigenvalues --    1.91585   1.92032   1.92261   1.92572   1.92734
 Alpha virt. eigenvalues --    1.92905   1.92950   1.93131   1.93480   1.93764
 Alpha virt. eigenvalues --    1.93870   1.94086   1.94207   1.94611   1.94724
 Alpha virt. eigenvalues --    1.95274   1.95362   1.95684   1.95961   1.96132
 Alpha virt. eigenvalues --    1.96276   1.96371   1.96541   1.96712   1.96724
 Alpha virt. eigenvalues --    1.96958   1.97103   1.97289   1.97787   1.97907
 Alpha virt. eigenvalues --    1.98272   1.98428   1.98587   1.98767   1.99227
 Alpha virt. eigenvalues --    1.99378   1.99481   1.99543   2.00079   2.00439
 Alpha virt. eigenvalues --    2.00908   2.00932   2.01211   2.01346   2.01641
 Alpha virt. eigenvalues --    2.01796   2.01936   2.02034   2.02594   2.03235
 Alpha virt. eigenvalues --    2.03435   2.03517   2.03623   2.03804   2.04298
 Alpha virt. eigenvalues --    2.04643   2.04903   2.05108   2.05477   2.05754
 Alpha virt. eigenvalues --    2.05865   2.06226   2.06736   2.06934   2.07317
 Alpha virt. eigenvalues --    2.07532   2.07879   2.07972   2.08365   2.08732
 Alpha virt. eigenvalues --    2.08798   2.09068   2.09682   2.09925   2.10099
 Alpha virt. eigenvalues --    2.10328   2.10628   2.10809   2.10936   2.11076
 Alpha virt. eigenvalues --    2.11632   2.11852   2.11909   2.12183   2.12315
 Alpha virt. eigenvalues --    2.12410   2.12849   2.12947   2.13160   2.13205
 Alpha virt. eigenvalues --    2.13551   2.13663   2.13892   2.14031   2.14660
 Alpha virt. eigenvalues --    2.14798   2.14899   2.15099   2.15151   2.15273
 Alpha virt. eigenvalues --    2.15858   2.15942   2.16705   2.16860   2.17439
 Alpha virt. eigenvalues --    2.17566   2.17666   2.18230   2.18329   2.18547
 Alpha virt. eigenvalues --    2.19342   2.19801   2.20236   2.20518   2.21376
 Alpha virt. eigenvalues --    2.21817   2.22092   2.22419   2.23155   2.23347
 Alpha virt. eigenvalues --    2.23876   2.23972   2.24343   2.24683   2.25073
 Alpha virt. eigenvalues --    2.25201   2.25428   2.26001   2.26370   2.26682
 Alpha virt. eigenvalues --    2.26762   2.26871   2.27267   2.27702   2.27747
 Alpha virt. eigenvalues --    2.27877   2.28081   2.28874   2.29285   2.29609
 Alpha virt. eigenvalues --    2.30192   2.30440   2.30662   2.30789   2.31075
 Alpha virt. eigenvalues --    2.31316   2.31563   2.31749   2.31831   2.32290
 Alpha virt. eigenvalues --    2.32518   2.33123   2.33260   2.33443   2.33940
 Alpha virt. eigenvalues --    2.34261   2.34501   2.34966   2.35375   2.35785
 Alpha virt. eigenvalues --    2.35896   2.36132   2.36373   2.36603   2.37092
 Alpha virt. eigenvalues --    2.37429   2.37598   2.38242   2.38357   2.38720
 Alpha virt. eigenvalues --    2.39082   2.39416   2.39605   2.40011   2.40301
 Alpha virt. eigenvalues --    2.40620   2.41430   2.41738   2.42664   2.42851
 Alpha virt. eigenvalues --    2.42914   2.43097   2.43563   2.44032   2.44079
 Alpha virt. eigenvalues --    2.44386   2.44711   2.45130   2.45195   2.46021
 Alpha virt. eigenvalues --    2.46324   2.46701   2.47177   2.47333   2.47723
 Alpha virt. eigenvalues --    2.48100   2.49042   2.49211   2.49566   2.49596
 Alpha virt. eigenvalues --    2.50065   2.50167   2.50752   2.51074   2.51723
 Alpha virt. eigenvalues --    2.51868   2.51972   2.52487   2.52848   2.53192
 Alpha virt. eigenvalues --    2.53722   2.53924   2.54122   2.54181   2.54253
 Alpha virt. eigenvalues --    2.54832   2.55144   2.55260   2.55407   2.55767
 Alpha virt. eigenvalues --    2.56058   2.56241   2.56370   2.56504   2.57124
 Alpha virt. eigenvalues --    2.57265   2.57501   2.57574   2.58503   2.58568
 Alpha virt. eigenvalues --    2.59348   2.60035   2.60067   2.60364   2.60374
 Alpha virt. eigenvalues --    2.60995   2.61144   2.61238   2.61448   2.61665
 Alpha virt. eigenvalues --    2.61799   2.62530   2.62611   2.63801   2.64146
 Alpha virt. eigenvalues --    2.64239   2.64789   2.65257   2.65474   2.65642
 Alpha virt. eigenvalues --    2.65807   2.66038   2.66323   2.66525   2.66756
 Alpha virt. eigenvalues --    2.66944   2.67047   2.67512   2.67864   2.68161
 Alpha virt. eigenvalues --    2.68398   2.68903   2.69119   2.69278   2.69670
 Alpha virt. eigenvalues --    2.69921   2.70140   2.70308   2.70696   2.70982
 Alpha virt. eigenvalues --    2.71018   2.71465   2.71744   2.72167   2.72297
 Alpha virt. eigenvalues --    2.72584   2.72681   2.73321   2.73882   2.73991
 Alpha virt. eigenvalues --    2.74512   2.74563   2.74897   2.75368   2.75644
 Alpha virt. eigenvalues --    2.75953   2.76213   2.76334   2.76533   2.76861
 Alpha virt. eigenvalues --    2.76958   2.77056   2.77261   2.77526   2.77757
 Alpha virt. eigenvalues --    2.77936   2.78100   2.78418   2.78509   2.79040
 Alpha virt. eigenvalues --    2.79278   2.79512   2.79780   2.79789   2.80415
 Alpha virt. eigenvalues --    2.80619   2.80827   2.81159   2.81218   2.81522
 Alpha virt. eigenvalues --    2.81938   2.82423   2.82825   2.83811   2.84016
 Alpha virt. eigenvalues --    2.84411   2.84561   2.84882   2.84983   2.85353
 Alpha virt. eigenvalues --    2.85521   2.86339   2.86634   2.86751   2.87016
 Alpha virt. eigenvalues --    2.87191   2.87453   2.87819   2.88273   2.88409
 Alpha virt. eigenvalues --    2.88669   2.89195   2.89492   2.89502   2.89684
 Alpha virt. eigenvalues --    2.89949   2.90159   2.90439   2.90996   2.91130
 Alpha virt. eigenvalues --    2.91412   2.92111   2.92225   2.92299   2.92456
 Alpha virt. eigenvalues --    2.93161   2.93495   2.93595   2.93887   2.94060
 Alpha virt. eigenvalues --    2.94331   2.94497   2.95002   2.95101   2.95391
 Alpha virt. eigenvalues --    2.95834   2.95884   2.96306   2.96659   2.96698
 Alpha virt. eigenvalues --    2.96842   2.97377   2.97538   2.98145   2.98243
 Alpha virt. eigenvalues --    2.98627   2.99103   2.99172   2.99687   3.00101
 Alpha virt. eigenvalues --    3.00488   3.00761   3.01457   3.01641   3.02277
 Alpha virt. eigenvalues --    3.02665   3.03476   3.04311   3.04329   3.04396
 Alpha virt. eigenvalues --    3.04647   3.05149   3.05285   3.05647   3.05781
 Alpha virt. eigenvalues --    3.07315   3.07757   3.08313   3.08861   3.09079
 Alpha virt. eigenvalues --    3.10032   3.10159   3.10736   3.10890   3.11549
 Alpha virt. eigenvalues --    3.11697   3.12594   3.12835   3.13082   3.13871
 Alpha virt. eigenvalues --    3.14099   3.14246   3.15562   3.15668   3.15978
 Alpha virt. eigenvalues --    3.16141   3.16346   3.16573   3.16611   3.17144
 Alpha virt. eigenvalues --    3.17474   3.17609   3.17682   3.18281   3.18517
 Alpha virt. eigenvalues --    3.19186   3.19663   3.20154   3.20580   3.20666
 Alpha virt. eigenvalues --    3.20907   3.21150   3.21302   3.21604   3.21703
 Alpha virt. eigenvalues --    3.22167   3.22469   3.23343   3.23581   3.23968
 Alpha virt. eigenvalues --    3.24354   3.24612   3.25151   3.25162   3.25522
 Alpha virt. eigenvalues --    3.26439   3.27891   3.29097   3.29365   3.31822
 Alpha virt. eigenvalues --    3.33366   3.34883   3.34956   3.36408   3.37087
 Alpha virt. eigenvalues --    3.42390   3.42983   3.45231   3.46102   3.48689
 Alpha virt. eigenvalues --    3.49811   3.50888   3.52521   3.53041   3.53564
 Alpha virt. eigenvalues --    3.54104   3.55232   3.55293   3.56285   3.56300
 Alpha virt. eigenvalues --    3.56649   3.56952   3.57776   3.59027   3.60851
 Alpha virt. eigenvalues --    3.62046   3.62800   3.64236   3.64787   3.65034
 Alpha virt. eigenvalues --    3.65726   3.66105   3.66189   3.67026   3.67325
 Alpha virt. eigenvalues --    3.67351   3.67924   3.68395   3.69149   3.69361
 Alpha virt. eigenvalues --    3.70104   3.70325   3.71216   3.72268   3.74476
 Alpha virt. eigenvalues --    3.74655   3.77384   3.78392   3.78600
          Condensed to atoms (all electrons):
 Mulliken charges:
               1
     1  C    0.072398
     2  C    0.008155
     3  O   -0.307287
     4  H    0.041064
     5  H    0.008981
     6  H    0.039532
     7  N   -0.129577
     8  C    0.067942
     9  C    0.088853
    10  O   -0.274971
    11  C    0.157771
    12  C    0.086992
    13  O   -0.396350
    14  O   -0.435112
    15  H    0.127469
    16  H    0.002886
    17  H   -0.003238
    18  H    0.016764
    19  N   -0.081472
    20  C    0.118177
    21  C    0.041933
    22  O   -0.264704
    23  C    0.013157
    24  C   -0.010342
    25  C   -0.010863
    26  C    0.028359
    27  N    0.156316
    28  H    0.104192
    29  H    0.032228
    30  H    0.008677
    31  H   -0.022958
    32  H    0.033542
    33  H    0.026462
    34  H    0.013085
    35  H    0.027884
    36  H    0.082320
    37  H    0.034199
    38  H    0.116996
    39  H    0.130769
    40  H    0.127494
    41  N   -0.151610
    42  C    0.107778
    43  C    0.084490
    44  O   -0.277332
    45  C    0.130276
    46  C    0.052834
    47  O   -0.416594
    48  O   -0.404197
    49  H    0.156909
    50  H    0.028932
    51  H   -0.016628
    52  H    0.036351
    53  N   -0.170256
    54  C    0.197524
    55  C    0.029268
    56  O   -0.298263
    57  H    0.133131
    58  H    0.033821
    59  H    0.036290
    60  N   -0.178158
    61  C    0.130007
    62  C    0.135807
    63  O   -0.394365
    64  C    0.138829
    65  C   -0.021101
    66  N   -0.042348
    67  O   -0.250389
    68  H    0.151482
    69  H    0.008965
    70  H   -0.001400
    71  H    0.047824
    72  H    0.124426
    73  H    0.138734
    74  N   -0.132693
    75  C    0.173130
    76  C    0.049865
    77  O   -0.277489
    78  H    0.156832
    79  H    0.050247
    80  H    0.064991
    81  N   -0.105646
    82  C    0.098575
    83  C    0.202507
    84  O   -0.374264
    85  C    0.123461
    86  C    0.054998
    87  C   -0.029420
    88  C   -0.029760
    89  C   -0.023369
    90  C   -0.045297
    91  C    0.182916
    92  O   -0.193264
    93  H    0.119416
    94  H    0.002758
    95  H    0.001417
    96  H   -0.008539
    97  H   -0.065405
    98  H   -0.034023
    99  H   -0.020755
   100  H   -0.029028
   101  H    0.177619
   102  N   -0.087970
   103  C    0.132778
   104  C    0.075751
   105  O   -0.258197
   106  C   -0.143109
   107  C    0.021810
   108  C    0.052141
   109  C    0.005608
   110  H    0.139911
   111  H    0.013600
   112  H   -0.009013
   113  H   -0.007757
   114  H    0.030197
   115  H   -0.029295
   116  H    0.045295
   117  H   -0.004469
   118  H   -0.000023
   119  H    0.006513
   120  H    0.029172
   121  N   -0.145910
   122  C    0.147199
   123  C    0.054908
   124  O   -0.248608
   125  C    0.211707
   126  O   -0.291095
   127  H    0.124738
   128  H    0.008581
   129  H   -0.036056
   130  H    0.005166
   131  H    0.186701
   132  N   -0.119700
   133  C    0.032368
   134  C    0.060821
   135  O   -0.256255
   136  C    0.094674
   137  H    0.106581
   138  H    0.022615
   139  H    0.028739
   140  H    0.030496
   141  H   -0.033778
   142  N   -0.099779
   143  C    0.034372
   144  C    0.070318
   145  O   -0.264727
   146  C    0.041665
   147  H    0.125712
   148  H   -0.000520
   149  H    0.000832
   150  H    0.030807
   151  H    0.016958
   152  N   -0.089542
   153  C    0.104719
   154  C    0.006908
   155  O   -0.295654
   156  C    0.040115
   157  C    0.079631
   158  C    0.041961
   159  O   -0.361950
   160  O   -0.322191
   161  H    0.129478
   162  H   -0.022983
   163  H   -0.030289
   164  H   -0.016014
   165  H   -0.017446
   166  H   -0.034679
   167  N   -0.164058
   168  C    0.141469
   169  H    0.023937
   170  H    0.024251
   171  H    0.023138
   172  H    0.117396
   173  Ca   1.318957
   174  O   -0.261887
   175  H    0.190411
   176  H    0.173301
 Sum of Mulliken charges =  -0.00000
 Mulliken charges with hydrogens summed into heavy atoms:
               1
     1  C    0.161974
     2  C    0.008155
     3  O   -0.307287
     7  N   -0.002108
     8  C    0.070828
     9  C    0.088853
    10  O   -0.274971
    11  C    0.171296
    12  C    0.086992
    13  O   -0.396350
    14  O   -0.435112
    19  N    0.022720
    20  C    0.150406
    21  C    0.041933
    22  O   -0.264704
    23  C   -0.001124
    24  C    0.049662
    25  C    0.030106
    26  C    0.144878
    27  N    0.531575
    41  N    0.005299
    42  C    0.136710
    43  C    0.084490
    44  O   -0.277332
    45  C    0.149999
    46  C    0.052834
    47  O   -0.416594
    48  O   -0.404197
    53  N   -0.037125
    54  C    0.267635
    55  C    0.029268
    56  O   -0.298263
    60  N   -0.026676
    61  C    0.138972
    62  C    0.135807
    63  O   -0.394365
    64  C    0.185253
    65  C   -0.021101
    66  N    0.220813
    67  O   -0.250389
    74  N    0.024139
    75  C    0.288369
    76  C    0.049865
    77  O   -0.277489
    81  N    0.013770
    82  C    0.101334
    83  C    0.202507
    84  O   -0.374264
    85  C    0.116338
    86  C    0.054998
    87  C   -0.094825
    88  C   -0.063784
    89  C   -0.044123
    90  C   -0.074324
    91  C    0.182916
    92  O   -0.015644
   102  N    0.051941
   103  C    0.146378
   104  C    0.075751
   105  O   -0.258197
   106  C   -0.152122
   107  C    0.044249
   108  C    0.063672
   109  C    0.041270
   121  N   -0.021172
   122  C    0.155780
   123  C    0.054908
   124  O   -0.248608
   125  C    0.180817
   126  O   -0.104393
   132  N   -0.013119
   133  C    0.054983
   134  C    0.060821
   135  O   -0.256255
   136  C    0.120131
   142  N    0.025933
   143  C    0.033852
   144  C    0.070318
   145  O   -0.264727
   146  C    0.090262
   152  N    0.039936
   153  C    0.081736
   154  C    0.006908
   155  O   -0.295654
   156  C   -0.006188
   157  C    0.027506
   158  C    0.041961
   159  O   -0.361950
   160  O   -0.322191
   167  N   -0.046662
   168  C    0.212795
   173  Ca   1.318957
   174  O    0.101825
 DipInt: DoE/N= T F RetVal/Mat= T F Init=T NMatP=  1 IDeriv=0 Min/MaxMlt=  0  4
 Entering OneElI...
 OneElI was handed  1333951383 working-precision words.
 Multipole integrals L=0 to 4 MinM= 0 MaxM= 0.
 Requested accuracy = 0.1000D-12
 ShPair: Thresh= 1.00D-13 NBox=     0 BxSize= 0.00D+00 RnKept= 2.92D+01
         NSMCal=               327645 NSMKep=              132126
 PrmmSu-InSpLW:  IPartL=    0 NPrtUS=    1 NPrtUL=    1 DoSpLW=F IThBeg=    0 IThEnd=    0 NThAct=    1.
 PrsmSu:  NPrtUS=   1 ThrOK=F IAlg=1 NPAlg=1 LenDen=           0 ISkipM=0 DoSpLW=F IThBeg=    0 IThEnd=    0.
 Prism:   IPart=     0 DynPar=F LinDyn=F Incr=         512.
 PRISM was handed  1324959549 working-precision words and132126 shell-pairs
 IPart=  0 NShTot=      132126 NBatch=         311 AvBLen=       424.8
 PrsmSu-ThDecC:  IPartSL=    0    0 NPrtUSL=    1    1 IThBeg=    0 IThEnd=    0 CPU=   -1 GPU=   -1 NThAct=    1.
 PrSmSu:  NxtVal=            513.
 Electronic moments (au):
       -716.00000000          8.92026697         -5.93551132         -2.27667486
     -92294.56756472     -34003.96711592     -13267.95750068         -3.82583792
         -1.09600158         64.58069610     638855.12228588     -73798.49018306
     -28837.44821450    -148182.29470544      79948.20321530     -24327.95406431
       -218.22256740      33625.78214264      23138.24584322       3457.44418918
  -25014857.98158190   -5084707.95830559    -716054.94957445   -1109461.13690765
    1079659.83099597    -472890.56869437    -198443.36486523    -204998.00391615
     167361.59139123   -2272137.01115564   -1713506.19813825    -578011.24426876
     400153.19221562     -15460.49844435     341423.17938928
 Electronic spatial extent (au):  <R**2>=         139566.4922
 DipInt: DoE/N= F T RetVal/Mat= T F Init=T NMatP=  1 IDeriv=0 Min/MaxMlt=  0  4
 Nuclear    moments (au):
        716.00000000         -0.00000000          0.00000000          0.00000000
      91408.21543175      33753.70940350      12841.66162924          0.00000000
         -0.00000000          0.00000000    -631638.35289794      72663.39932617
      28714.09418891     147981.91318032     -78767.49966977      24913.77073690
        566.05433932     -34074.08212608     -23903.08195171      -4117.87870671
   24447268.64951608    5005515.57599826     669895.19629977    1081345.56449013
   -1076569.55414814     474247.76685353     209889.17218810     204060.60825902
    -164054.72642349    2188380.88616785    1650291.04573420     556458.93120527
    -399364.94888071      17139.27010227    -338832.72563463
 Total      moments (au):
         -0.00000000          8.92026697         -5.93551132         -2.27667486
       -886.35213297       -250.25771241       -426.29587144         -3.82583792
         -1.09600158         64.58069610       7216.76938793      -1135.09085689
       -123.35402559       -200.38152512       1180.70354553        585.81667259
        347.83177192       -448.29998344       -764.83610850       -660.43451753
    -567589.33206582     -79192.38230733     -46159.75327469     -28115.57241752
       3090.27684783       1357.19815916      11445.80732287       -937.39565713
       3306.86496774     -83756.12498779     -63215.15240405     -21552.31306349
        788.24333491       1678.77165792       2590.45375465
 Traceless Quadrup. (au):
       -365.38356070        270.71085986         94.67270083         -3.82583792
         -1.09600158         64.58069610
 Charge=             -0.0000 electrons
 Dipole moment (field-independent basis, Debye):
    X=             22.6731    Y=            -15.0866    Z=             -5.7867  Tot=             27.8417
 Quadrupole moment (field-independent basis, Debye-Ang):
   XX=          -1192.1740   YY=           -336.6052   ZZ=           -573.3825
   XY=             -5.1459   XZ=             -1.4742   YZ=             86.8632
 Traceless Quadrupole moment (field-independent basis, Debye-Ang):
   XX=           -491.4534   YY=            364.1154   ZZ=            127.3380
   XY=             -5.1459   XZ=             -1.4742   YZ=             86.8632
 Octapole moment (field-independent basis, Debye-Ang**2):
  XXX=           5136.6184  YYY=           -807.9139  ZZZ=            -87.7986  XYY=           -142.6238
  XXY=            840.3793  XXZ=            416.9617  XZZ=            247.5733  YZZ=           -319.0827
  YYZ=           -544.3809  XYZ=           -470.0718
 Hexadecapole moment (field-independent basis, Debye-Ang**3):
 XXXX=        -213781.3593 YYYY=         -29827.6486 ZZZZ=         -17385.9765 XXXY=         -10589.6728
 XXXZ=           1163.9464 YYYX=            511.1859 YYYZ=           4311.0399 ZZZX=           -353.0682
 ZZZY=           1245.5239 XXYY=         -31546.5729 XXZZ=         -23809.8577 YYZZ=          -8117.6346
 XXYZ=            296.8902 YYXZ=            632.3059 ZZXY=            975.6891
 N-N= 1.965559230999D+04 E-N=-5.177670326844D+04  KE= 5.290613211948D+03
 Leave Link  601 at Wed Sep 18 11:25:41 2019, MaxMem=  1342177280 cpu:              60.2 elap:               1.4
 FitSet:  NAtFit=   176 NAtPot=   176 NAtFrz=     0 MDM=   180 TotChg=   0.00000
 Merz-Kollman atomic radii used.
 Read replacement radii for each type of atom:
 Rad(20) =   1.700000000000D+00
 Atom Element Radius
    1     6    1.50
    2     6    1.50
    3     8    1.40
    4     1    1.20
    5     1    1.20
    6     1    1.20
    7     7    1.50
    8     6    1.50
    9     6    1.50
   10     8    1.40
   11     6    1.50
   12     6    1.50
   13     8    1.40
   14     8    1.40
   15     1    1.20
   16     1    1.20
   17     1    1.20
   18     1    1.20
   19     7    1.50
   20     6    1.50
   21     6    1.50
   22     8    1.40
   23     6    1.50
   24     6    1.50
   25     6    1.50
   26     6    1.50
   27     7    1.50
   28     1    1.20
   29     1    1.20
   30     1    1.20
   31     1    1.20
   32     1    1.20
   33     1    1.20
   34     1    1.20
   35     1    1.20
   36     1    1.20
   37     1    1.20
   38     1    1.20
   39     1    1.20
   40     1    1.20
   41     7    1.50
   42     6    1.50
   43     6    1.50
   44     8    1.40
   45     6    1.50
   46     6    1.50
   47     8    1.40
   48     8    1.40
   49     1    1.20
   50     1    1.20
   51     1    1.20
   52     1    1.20
   53     7    1.50
   54     6    1.50
   55     6    1.50
   56     8    1.40
   57     1    1.20
   58     1    1.20
   59     1    1.20
   60     7    1.50
   61     6    1.50
   62     6    1.50
   63     8    1.40
   64     6    1.50
   65     6    1.50
   66     7    1.50
   67     8    1.40
   68     1    1.20
   69     1    1.20
   70     1    1.20
   71     1    1.20
   72     1    1.20
   73     1    1.20
   74     7    1.50
   75     6    1.50
   76     6    1.50
   77     8    1.40
   78     1    1.20
   79     1    1.20
   80     1    1.20
   81     7    1.50
   82     6    1.50
   83     6    1.50
   84     8    1.40
   85     6    1.50
   86     6    1.50
   87     6    1.50
   88     6    1.50
   89     6    1.50
   90     6    1.50
   91     6    1.50
   92     8    1.40
   93     1    1.20
   94     1    1.20
   95     1    1.20
   96     1    1.20
   97     1    1.20
   98     1    1.20
   99     1    1.20
  100     1    1.20
  101     1    1.20
  102     7    1.50
  103     6    1.50
  104     6    1.50
  105     8    1.40
  106     6    1.50
  107     6    1.50
  108     6    1.50
  109     6    1.50
  110     1    1.20
  111     1    1.20
  112     1    1.20
  113     1    1.20
[...]
 **** Fit      -0.016802
 **** Fit      -0.043141
 **** Fit      -0.033517
 **** Fit      -0.025804
 **** Fit      -0.041654
 **** Fit      -0.024418
 **** Fit      -0.018410
 **** Fit      -0.017824
 **** Fit      -0.039338
 **** Fit      -0.018134
 **** Fit      -0.018849
 **** Fit      -0.019977
 **** Fit      -0.021358
 **** Fit      -0.022988
 **** Fit      -0.025006
 **** Fit      -0.027678
 **** Fit      -0.031378
 **** Fit      -0.036637
 **** Fit      -0.019182
 **** Fit      -0.020943
 **** Fit      -0.022857
 **** Fit      -0.024921
 **** Fit      -0.027276
 **** Fit      -0.030200
 **** Fit      -0.010674
 **** Fit      -0.010104
 **** Fit      -0.009996
 **** Fit      -0.010356
 **** Fit      -0.012240
 **** Fit      -0.011297
 **** Fit      -0.010365
 **** Fit      -0.009748
 **** Fit      -0.009551
 **** Fit      -0.009747
 **** Fit      -0.010269
 **** Fit      -0.011019
 **** Fit      -0.013503
 **** Fit      -0.012213
 **** Fit      -0.010892
 **** Fit      -0.009875
 **** Fit      -0.009298
 **** Fit      -0.009133
 **** Fit      -0.009305
 **** Fit      -0.009762
 **** Fit      -0.010475
 **** Fit      -0.011402
 **** Fit      -0.012439
 **** Fit      -0.014369
 **** Fit      -0.015303
 **** Fit      -0.008918
 **** Fit      -0.008761
 **** Fit      -0.008874
 **** Fit      -0.009197
 **** Fit      -0.009717
 **** Fit      -0.010446
 **** Fit      -0.011392
 **** Fit      -0.012528
 **** Fit      -0.013761
 **** Fit      -0.016972
 **** Fit      -0.016492
 **** Fit      -0.008485
 **** Fit      -0.008675
 **** Fit      -0.009013
 **** Fit      -0.009498
 **** Fit      -0.010165
 **** Fit      -0.011064
 **** Fit      -0.012222
 **** Fit      -0.013618
 **** Fit      -0.015156
 **** Fit      -0.016687
 **** Fit      -0.020068
 **** Fit      -0.020293
 **** Fit      -0.019569
 **** Fit      -0.008365
 **** Fit      -0.008613
 **** Fit      -0.008946
 **** Fit      -0.009369
 **** Fit      -0.009929
 **** Fit      -0.016727
 **** Fit      -0.018650
 **** Fit      -0.020450
 **** Fit      -0.023501
 **** Fit      -0.024794
 **** Fit      -0.025094
 **** Fit      -0.008485
 **** Fit      -0.008779
 **** Fit      -0.009101
 **** Fit      -0.022003
 **** Fit      -0.024265
 **** Fit      -0.026764
 **** Fit      -0.008810
 **** Fit      -0.009097
 **** Fit      -0.009368
 **** Fit      -0.026191
 **** Fit      -0.029030
 **** Fit      -0.031557
 **** Fit      -0.009104
 **** Fit      -0.009378
 **** Fit      -0.009616
 **** Fit      -0.029629
 **** Fit      -0.033364
 **** Fit      -0.036927
 **** Fit      -0.040014
 **** Fit      -0.042188
 **** Fit      -0.009727
 **** Fit      -0.009977
 **** Fit      -0.038595
 **** Fit      -0.043684
 **** Fit      -0.048441
 **** Fit      -0.010546
 **** Fit      -0.010764
 **** Fit      -0.044538
 **** Fit      -0.051704
 **** Fit      -0.011550
 **** Fit      -0.011746
 **** Fit      -0.012697
 **** Fit      -0.012805
 **** Fit      -0.013062
 **** Fit      -0.014101
 **** Fit      -0.014091
 **** Fit      -0.014386
 **** Fit      -0.016787
 **** Fit      -0.015712
 **** Fit      -0.015534
 **** Fit      -0.015847
 **** Fit      -0.016428
 **** Fit      -0.017317
 **** Fit      -0.017112
 **** Fit      -0.017536
 **** Fit      -0.018326
 **** Fit      -0.011493
 **** Fit      -0.011371
 **** Fit      -0.010992
 **** Fit      -0.011276
 **** Fit      -0.011991
 **** Fit      -0.012228
 **** Fit      -0.011876
 **** Fit      -0.011658
 **** Fit      -0.011098
 **** Fit      -0.010660
 **** Fit      -0.010661
 **** Fit      -0.011184
 **** Fit      -0.012033
 **** Fit      -0.012852
 **** Fit      -0.013304
 **** Fit      -0.013262
 **** Fit      -0.012888
 **** Fit      -0.012463
 **** Fit      -0.012096
 **** Fit      -0.012421
 **** Fit      -0.011758
 **** Fit      -0.011003
 **** Fit      -0.010426
 **** Fit      -0.010498
 **** Fit      -0.011170
 **** Fit      -0.012117
 **** Fit      -0.013154
 **** Fit      -0.014071
 **** Fit      -0.014682
 **** Fit      -0.014875
 **** Fit      -0.014662
 **** Fit      -0.014191
 **** Fit      -0.013679
 **** Fit      -0.013292
 **** Fit      -0.013056
 **** Fit      -0.012831
 **** Fit      -0.013773
 **** Fit      -0.012941
 **** Fit      -0.012684
 **** Fit      -0.013941
 **** Fit      -0.015133
 **** Fit      -0.016106
 **** Fit      -0.016723
 **** Fit      -0.016903
 **** Fit      -0.016657
 **** Fit      -0.016098
 **** Fit      -0.015419
 **** Fit      -0.014817
 **** Fit      -0.014435
 **** Fit      -0.014302
 **** Fit      -0.014300
 **** Fit      -0.014201
 **** Fit      -0.015487
 **** Fit      -0.016959
 **** Fit      -0.018203
 **** Fit      -0.019084
 **** Fit      -0.019493
 **** Fit      -0.019393
 **** Fit      -0.018846
 **** Fit      -0.018015
 **** Fit      -0.017116
 **** Fit      -0.016360
 **** Fit      -0.015903
 **** Fit      -0.015811
 **** Fit      -0.016025
 **** Fit      -0.016329
 **** Fit      -0.016395
 **** Fit      -0.017339
 **** Fit      -0.019144
 **** Fit      -0.020722
 **** Fit      -0.021936
 **** Fit      -0.022655
 **** Fit      -0.022793
 **** Fit      -0.022356
 **** Fit      -0.021460
 **** Fit      -0.020317
 **** Fit      -0.019171
 **** Fit      -0.018236
 **** Fit      -0.017673
 **** Fit      -0.017582
 **** Fit      -0.017972
 **** Fit      -0.018703
 **** Fit      -0.019451
 **** Fit      -0.021623
 **** Fit      -0.023737
 **** Fit      -0.025445
 **** Fit      -0.026567
 **** Fit      -0.026949
 **** Fit      -0.026542
 **** Fit      -0.025452
 **** Fit      -0.023940
 **** Fit      -0.022340
 **** Fit      -0.020954
 **** Fit      -0.019992
 **** Fit      -0.019602
 **** Fit      -0.019905
 **** Fit      -0.020932
 **** Fit      -0.022488
 **** Fit      -0.029585
 **** Fit      -0.031289
 **** Fit      -0.032078
 **** Fit      -0.031803
 **** Fit      -0.030523
 **** Fit      -0.028535
 **** Fit      -0.026315
 **** Fit      -0.024333
 **** Fit      -0.022872
 **** Fit      -0.022046
 **** Fit      -0.021997
 **** Fit      -0.022943
 **** Fit      -0.037888
 **** Fit      -0.038536
 **** Fit      -0.037619
 **** Fit      -0.012528
 **** Fit      -0.010998
 **** Fit      -0.009865
 **** Fit      -0.013803
 **** Fit      -0.011946
 **** Fit      -0.010396
 **** Fit      -0.009377
 **** Fit      -0.008884
 **** Fit      -0.015484
 **** Fit      -0.015613
 **** Fit      -0.013254
 **** Fit      -0.011237
 **** Fit      -0.009771
 **** Fit      -0.008884
 **** Fit      -0.008482
 **** Fit      -0.008418
 **** Fit      -0.019490
 **** Fit      -0.017881
 **** Fit      -0.018175
 **** Fit      -0.015077
 **** Fit      -0.012444
 **** Fit      -0.010472
 **** Fit      -0.009176
 **** Fit      -0.008469
 **** Fit      -0.008212
 **** Fit      -0.008248
 **** Fit      -0.023781
 **** Fit      -0.021295
 **** Fit      -0.021767
 **** Fit      -0.017702
 **** Fit      -0.014295
 **** Fit      -0.011706
 **** Fit      -0.009920
 **** Fit      -0.008829
 **** Fit      -0.008291
 **** Fit      -0.008155
 **** Fit      -0.008270
 **** Fit      -0.026056
 **** Fit      -0.021079
 **** Fit      -0.016508
 **** Fit      -0.013111
 **** Fit      -0.010781
 **** Fit      -0.009334
 **** Fit      -0.008574
 **** Fit      -0.008314
 **** Fit      -0.008386
 **** Fit      -0.008627
 **** Fit      -0.019579
 **** Fit      -0.015166
 **** Fit      -0.012157
 **** Fit      -0.010257
 **** Fit      -0.009197
 **** Fit      -0.008748
 **** Fit      -0.008717
 **** Fit      -0.008930
 **** Fit      -0.017617
 **** Fit      -0.013824
 **** Fit      -0.011442
 **** Fit      -0.010087
 **** Fit      -0.009463
 **** Fit      -0.009337
 **** Fit      -0.009516
 **** Fit      -0.019819
 **** Fit      -0.015269
 **** Fit      -0.012522
 **** Fit      -0.011020
 **** Fit      -0.010366
 **** Fit      -0.010263
 **** Fit      -0.010477
 **** Fit      -0.016539
 **** Fit      -0.013591
 **** Fit      -0.012082
 **** Fit      -0.011502
 **** Fit      -0.011490
 **** Fit      -0.017904
 **** Fit      -0.014879
 **** Fit      -0.013415
 **** Fit      -0.012918
 **** Fit      -0.018190
 **** Fit      -0.015693
 **** Fit      -0.014709
 **** Fit      -0.018541
 **** Fit      -0.010400
 **** Fit      -0.011425
 **** Fit      -0.012695
 **** Fit      -0.014171
 **** Fit      -0.015750
 **** Fit      -0.009631
 **** Fit      -0.010351
 **** Fit      -0.011302
 **** Fit      -0.012509
 **** Fit      -0.013976
 **** Fit      -0.015673
 **** Fit      -0.017527
 **** Fit      -0.019392
 **** Fit      -0.009804
 **** Fit      -0.010463
 **** Fit      -0.011339
 **** Fit      -0.012460
 **** Fit      -0.013845
 **** Fit      -0.015500
 **** Fit      -0.017410
 **** Fit      -0.019528
 **** Fit      -0.021752
 **** Fit      -0.023904
 **** Fit      -0.009909
 **** Fit      -0.010466
 **** Fit      -0.011233
 **** Fit      -0.012243
 **** Fit      -0.013524
 **** Fit      -0.015103
 **** Fit      -0.016994
 **** Fit      -0.019201
 **** Fit      -0.021700
 **** Fit      -0.024423
 **** Fit      -0.027222
 **** Fit      -0.010263
 **** Fit      -0.010723
 **** Fit      -0.011385
 **** Fit      -0.012276
 **** Fit      -0.013428
 **** Fit      -0.014871
 **** Fit      -0.016636
 **** Fit      -0.018753
 **** Fit      -0.021242
 **** Fit      -0.024109
 **** Fit      -0.027325
 **** Fit      -0.030795
 **** Fit      -0.010946
 **** Fit      -0.011375
 **** Fit      -0.012015
 **** Fit      -0.012888
 **** Fit      -0.014024
 **** Fit      -0.015457
 **** Fit      -0.017225
 **** Fit      -0.019370
 **** Fit      -0.021936
 **** Fit      -0.024965
 **** Fit      -0.028487
 **** Fit      -0.032500
 **** Fit      -0.036922
 **** Fit      -0.012029
 **** Fit      -0.012566
 **** Fit      -0.013354
 **** Fit      -0.014416
 **** Fit      -0.015788
 **** Fit      -0.017515
 **** Fit      -0.019649
 **** Fit      -0.022256
 **** Fit      -0.025408
 **** Fit      -0.029185
 **** Fit      -0.033664
 **** Fit      -0.038886
 **** Fit      -0.044762
 **** Fit      -0.013067
 **** Fit      -0.013544
 **** Fit      -0.014316
 **** Fit      -0.015398
 **** Fit      -0.016823
 **** Fit      -0.018643
 **** Fit      -0.020927
 **** Fit      -0.023759
 **** Fit      -0.027242
 **** Fit      -0.031502
 **** Fit      -0.036681
 **** Fit      -0.042895
 **** Fit      -0.014769
 **** Fit      -0.015498
 **** Fit      -0.016572
 **** Fit      -0.018016
 **** Fit      -0.019882
 **** Fit      -0.022245
 **** Fit      -0.025200
 **** Fit      -0.028865
 **** Fit      -0.033385
 **** Fit      -0.038920
 **** Fit      -0.045576
 **** Fit      -0.016487
 **** Fit      -0.017379
 **** Fit      -0.018711
 **** Fit      -0.020517
 **** Fit      -0.022868
 **** Fit      -0.025865
 **** Fit      -0.029627
 **** Fit      -0.034286
 **** Fit      -0.039923
 **** Fit      -0.018384
 **** Fit      -0.019447
 **** Fit      -0.021062
 **** Fit      -0.023258
 **** Fit      -0.026106
 **** Fit      -0.029676
 **** Fit      -0.033975
 **** Fit      -0.021954
 **** Fit      -0.024108
 **** Fit      -0.026943
 **** Fit      -0.030330
 **** Fit      -0.048542
 **** Fit      -0.049424
 **** Fit      -0.047798
 **** Fit      -0.039918
 **** Fit      -0.049946
 **** Fit       0.046469
 **** Fit       0.052667
 **** Fit       0.040065
 **** Fit       0.042008
 **** Fit       0.042293
 **** Fit       0.040955
 **** Fit       0.038053
 **** Fit       0.033909
 **** Fit       0.029099
 **** Fit       0.024520
 **** Fit       0.032421
 **** Fit       0.041159
 **** Fit       0.049941
 **** Fit       0.057670
 **** Fit       0.031371
 **** Fit       0.034686
 **** Fit       0.035999
 **** Fit       0.035605
 **** Fit       0.033806
 **** Fit       0.031082
 **** Fit       0.028172
 **** Fit       0.026075
 **** Fit       0.025871
 **** Fit       0.028210
 **** Fit       0.032807
 **** Fit       0.038524
 **** Fit       0.043935
 **** Fit       0.047710
 **** Fit       0.026339
 **** Fit       0.028624
 **** Fit       0.029034
 **** Fit       0.028161
 **** Fit       0.026784
 **** Fit       0.025845
 **** Fit       0.026191
 **** Fit       0.028104
 **** Fit       0.030981
 **** Fit       0.084582
 **** Fit       0.040923
 **** Fit       0.049225
 **** Fit       0.046955
 **** Fit       0.056596
 **** Fit       0.056905
 **** Fit       0.061402
 **** Fit       0.063440
 **** Fit       0.064591
 **** Fit       0.065025
 **** Fit       0.067040
 **** Fit       0.069376
 **** Fit       0.071094
 **** Fit       0.072509
 **** Fit       0.071358
 **** Fit       0.074261
 **** Fit       0.076506
 **** Fit       0.078288
 **** Fit       0.080102
 **** Fit       0.075527
 **** Fit       0.078971
 **** Fit       0.081699
 **** Fit       0.083785
 **** Fit       0.085483
 **** Fit       0.087387
 **** Fit       0.080495
 **** Fit       0.084544
 **** Fit       0.087759
 **** Fit       0.090159
 **** Fit       0.091882
 **** Fit       0.080402
 **** Fit       0.085927
 **** Fit       0.090541
 **** Fit       0.094255
 **** Fit       0.097016
 **** Fit       0.098826
 **** Fit       0.082864
 **** Fit       0.089461
 **** Fit       0.095100
 **** Fit       0.099801
 **** Fit       0.103473
 **** Fit       0.105960
 **** Fit       0.085104
 **** Fit       0.092199
 **** Fit       0.098580
 **** Fit       0.104223
 **** Fit       0.085806
 **** Fit       0.093156
 **** Fit       0.100023
 **** Fit       0.106414
 **** Fit       0.112104
 **** Fit       0.116618
 **** Fit       0.079643
 **** Fit       0.087428
 **** Fit       0.094920
 **** Fit       0.102216
 **** Fit       0.109369
 **** Fit       0.116199
 **** Fit       0.077891
 **** Fit       0.085667
 **** Fit       0.093361
 **** Fit       0.101104
 **** Fit       0.109030
 **** Fit       0.117123
 **** Fit       0.083653
 **** Fit       0.091630
 **** Fit       0.099873
 **** Fit       0.108588
 **** Fit       0.117844
 **** Fit       0.084764
 **** Fit       0.093228
 **** Fit       0.102218
 **** Fit       0.111963
 **** Fit       0.054931
 **** Fit       0.059961
 **** Fit       0.076487
 **** Fit       0.085088
 **** Fit       0.093972
 **** Fit       0.103516
 **** Fit       0.113868
 **** Fit       0.058138
 **** Fit       0.060765
 **** Fit       0.067191
 **** Fit       0.075505
 **** Fit       0.084538
 **** Fit       0.094148
 **** Fit       0.104486
 **** Fit       0.060340
 **** Fit       0.062115
 **** Fit       0.067108
 **** Fit       0.074633
 **** Fit       0.083598
 **** Fit       0.093437
 **** Fit       0.103832
 **** Fit       0.056290
 **** Fit       0.060281
 **** Fit       0.063928
 **** Fit       0.069529
 **** Fit       0.077440
 **** Fit       0.086891
 **** Fit       0.096926
 **** Fit       0.062323
 **** Fit       0.055979
 **** Fit       0.061092
 **** Fit       0.066999
 **** Fit       0.074763
 **** Fit       0.084450
 **** Fit       0.094006
 **** Fit       0.075788
 **** Fit       0.069740
 **** Fit       0.065236
 **** Fit       0.070918
 **** Fit       0.080878
 **** Fit       0.087648
 **** Fit       0.082273
 **** Fit       0.075996
 -----------------------------------------------------------------
 Leave Link  602 at Wed Sep 18 11:25:44 2019, MaxMem=  1342177280 cpu:             132.3 elap:               2.8

 Test job not archived.
 1\1\GINC-C481-084\SP\RB3LYP\SVP\C54H83Ca1N15O23\PENGZHI\18-Sep-2019\0\
 \#b3lyp/svp scf=(tight,noincore) Test #IOP(5/87=12) Density=Current Po
 p=(MK,readradii) iop(6/33=2) iop(6/42=6)\\Ng-295_loop3_3.0\\0,1\C,0,91
 .92,33.22,67.07\C,0,92.5,33.51,68.44\O,0,91.73,33.93,69.31\H,0,91.03,3
 3.831,66.916\H,0,92.659,33.456,66.304\H,0,91.652,32.166,67.004\N,0,93.
 82,33.51,68.66\C,0,94.37,34.08,69.87\C,0,95.7,34.69,69.48\O,0,96.45,34
 .06,68.74\C,0,94.49,32.92,70.86\C,0,95.13,33.4,72.16\O,0,94.5,33.42,73
 .24\O,0,96.27,33.89,72.09\H,0,94.39,33.02,67.99\H,0,93.66,34.77,70.33\
 H,0,95.08,32.15,70.36\H,0,93.54,32.44,71.08\N,0,96.,35.92,69.92\C,0,97
 .23,36.67,69.8\C,0,98.63,36.11,70.01\O,0,99.57,36.46,69.3\C,0,97.04,37
 .82,70.79\C,0,97.82,39.01,70.25\C,0,97.56,40.43,70.75\C,0,97.79,40.58,
 72.26\N,0,97.5,41.92,72.77\H,0,95.29,36.35,70.49\H,0,97.27,37.,68.77\H
 ,0,97.36,37.57,71.8\H,0,96.02,38.19,70.91\H,0,97.83,39.03,69.16\H,0,98
 .89,38.88,70.43\H,0,96.51,40.63,70.53\H,0,98.16,41.18,70.24\H,0,98.79,
 40.22,72.49\H,0,97.06,39.9,72.71\H,0,96.54,42.21,72.61\H,0,97.75,42.09
 ,73.73\H,0,97.98,42.65,72.27\N,0,98.72,35.12,70.9\C,0,99.89,34.27,71.0
 2\C,0,99.68,32.81,70.62\O,0,100.63,32.11,70.29\C,0,100.42,34.29,72.45\
 C,0,99.37,34.06,73.52\O,0,98.69,33.01,73.51\O,0,99.28,34.81,74.52\H,0,
 97.84,34.95,71.38\H,0,100.65,34.74,70.4\H,0,100.87,35.27,72.62\H,0,101
 .25,33.58,72.55\N,0,98.44,32.31,70.61\C,0,98.04,30.96,70.29\C,0,97.97,
 29.97,71.45\O,0,97.61,28.83,71.17\H,0,97.67,32.9,70.88\H,0,98.78,30.59
 ,69.59\H,0,97.09,31.03,69.76\N,0,98.14,30.4,72.7\C,0,97.9,29.67,73.94\
 C,0,96.56,30.2,74.41\O,0,96.45,31.38,74.76\C,0,99.17,29.7,74.79\C,0,99
 .24,28.51,75.74\N,0,99.64,28.75,76.99\O,0,98.89,27.38,75.42\H,0,98.45,
 31.35,72.83\H,0,97.72,28.65,73.59\H,0,99.35,30.63,75.33\H,0,99.96,29.5
 7,74.06\H,0,99.85,29.72,77.2\H,0,99.82,27.97,77.6\N,0,95.56,29.32,74.5
 3\C,0,94.18,29.62,74.85\C,0,93.73,30.48,76.02\O,0,92.54,30.65,76.28\H,
 0,95.74,28.41,74.13\H,0,93.74,28.63,74.97\H,0,93.78,30.1,73.95\N,0,94.
 7,30.97,76.8\C,0,94.55,31.73,78.02\C,0,94.5,33.23,77.76\O,0,95.14,33.7
 8,76.87\C,0,95.7,31.49,79.\C,0,95.84,30.07,79.5\C,0,96.69,29.11,78.92\
 C,0,95.11,29.63,80.61\C,0,96.72,27.79,79.37\C,0,95.13,28.33,81.11\C,0,
 96.02,27.4,80.53\O,0,96.2,26.15,81.07\H,0,95.6,30.83,76.37\H,0,93.61,3
 1.47,78.5\H,0,95.57,32.21,79.81\H,0,96.66,31.8,78.6\H,0,97.39,29.31,78
 .12\H,0,94.53,30.31,81.22\H,0,97.34,27.12,78.8\H,0,94.45,28.09,81.92\H
 ,0,95.7,26.1,81.89\N,0,93.61,33.84,78.55\C,0,93.01,35.15,78.4\C,0,93.9
 4,36.34,78.58\O,0,95.16,36.26,78.77\C,0,92.23,35.37,77.11\C,0,91.2,34.
 27,76.86\C,0,93.06,35.59,75.85\C,0,90.11,34.64,75.86\H,0,93.19,33.35,7
 9.32\H,0,92.2,35.27,79.12\H,0,91.62,36.25,77.32\H,0,90.65,33.92,77.74\
 H,0,91.68,33.41,76.4\H,0,94.04,36.04,75.96\H,0,93.28,34.68,75.29\H,0,9
 2.41,36.2,75.21\H,0,89.44,35.36,76.33\H,0,90.43,35.16,74.96\H,0,89.47,
 33.78,75.63\N,0,93.45,37.58,78.51\C,0,94.16,38.78,78.9\C,0,94.26,38.94
 ,80.41\O,0,95.26,39.34,81.\C,0,93.5,40.04,78.35\O,0,92.17,40.2,78.79\H
 ,0,92.45,37.68,78.48\H,0,95.17,38.77,78.48\H,0,93.45,40.14,77.26\H,0,9
 4.13,40.91,78.53\H,0,91.85,41.04,78.48\N,0,93.23,38.54,81.15\C,0,93.08
 ,38.68,82.58\C,0,93.67,39.94,83.19\O,0,94.52,39.81,84.06\C,0,93.53,37.
 39,83.26\H,0,92.46,38.13,80.63\H,0,92.03,38.7,82.88\H,0,94.57,37.24,82
 .97\H,0,93.37,37.48,84.34\H,0,92.93,36.57,82.87\N,0,93.39,41.18,82.75\
 C,0,92.26,41.6,81.94\C,0,90.98,41.85,82.73\O,0,90.99,42.23,83.9\C,0,92
 .79,42.86,81.26\H,0,93.87,41.84,83.34\H,0,92.02,40.86,81.19\H,0,92.09,
 43.3,80.56\H,0,92.81,43.59,82.07\H,0,93.76,42.7,80.78\N,0,89.8,41.63,8
 2.15\C,0,89.4,41.19,80.83\C,0,88.27,40.19,81.02\O,0,88.35,39.12,80.43\
 C,0,89.04,42.37,79.93\C,0,87.86,43.28,80.23\C,0,87.99,44.04,81.55\O,0,
 87.29,43.59,82.48\O,0,88.73,45.02,81.75\H,0,89.03,41.61,82.8\H,0,90.13
 ,40.66,80.21\H,0,88.9,41.88,78.96\H,0,89.93,43.,79.85\H,0,86.88,42.8,8
 0.19\H,0,87.85,43.98,79.4\N,0,87.26,40.46,81.84\C,0,86.14,39.58,82.12\
 H,0,85.284,39.878,81.514\H,0,86.415,38.553,81.88\H,0,85.878,39.649,83.
 176\H,0,87.33,41.35,82.32\Ca,0,96.64,34.03,74.75\O,0,95.76,36.51,73.9\
 H,0,94.87,36.64,73.57\H,0,96.03,37.38,74.19\\Version=ES64L-G16RevA.03\
 State=1-A\HF=-5333.4285495\RMSD=9.404e-10\Dipole=6.2292956,-0.5740556,
 -8.9917207\Quadrupole=-3.3578586,32.5240229,-29.1661643,176.4023002,92
 .4115255,-267.2923212\PG=C01 [X(C54H83Ca1N15O23)]\\@


 LAWS OF PROGRAMMING DEFINITION:  A WORKING PROGRAM
                                  IS ONE THAT HAS
                                  ONLY UNOBSERVED
                                  BUGS.
 Job cpu time:       0 days 16 hours  6 minutes 10.6 seconds.
 Elapsed time:       0 days  0 hours 20 minutes 23.4 seconds.
 File lengths (MBytes):  RWF=   1517 Int=      0 D2E=      0 Chk=    171 Scr=      1
 Normal termination of Gaussian 16 at Wed Sep 18 11:25:46 2019.
