 Entering Gaussian System, Link 0=g16
 Initial command:
 /home1/apps/gaussian/16rA.03/g16/l1.exe "/scratch/01990/pengzhi/4345049/Gau-58284.inp" -scrdir="/scratch/01990/pengzhi/4345049/"
 Entering Link 1 = /home1/apps/gaussian/16rA.03/g16/l1.exe PID=     58285.
  
 Copyright (c) 1988,1990,1992,1993,1995,1998,2003,2009,2016,
            Gaussian, Inc.  All Rights Reserved.
  
 This is part of the Gaussian(R) 16 program.  It is based on
 the Gaussian(R) 09 system (copyright 2009, Gaussian, Inc.),
 the Gaussian(R) 03 system (copyright 2003, Gaussian, Inc.),
 the Gaussian(R) 98 system (copyright 1998, Gaussian, Inc.),
 the Gaussian(R) 94 system (copyright 1995, Gaussian, Inc.),
 the Gaussian 92(TM) system (copyright 1992, Gaussian, Inc.),
 the Gaussian 90(TM) system (copyright 1990, Gaussian, Inc.),
 the Gaussian 88(TM) system (copyright 1988, Gaussian, Inc.),
 the Gaussian 86(TM) system (copyright 1986, Carnegie Mellon
 University), and the Gaussian 82(TM) system (copyright 1983,
 Carnegie Mellon University). Gaussian is a federally registered
 trademark of Gaussian, Inc.
  
 This software contains proprietary and confidential information,
 including trade secrets, belonging to Gaussian, Inc.
  
 This software is provided under written license and may be
 used, copied, transmitted, or stored only in accord with that
 written license.
  
 The following legend is applicable only to US Government
 contracts under FAR:
  
                    RESTRICTED RIGHTS LEGEND
  
 Use, reproduction and disclosure by the US Government is
 subject to restrictions as set forth in subparagraphs (a)
 and (c) of the Commercial Computer Software - Restricted
 Rights clause in FAR 52.227-19.
  
 Gaussian, Inc.
 340 Quinnipiac St., Bldg. 40, Wallingford CT 06492
  
  
 ---------------------------------------------------------------
 Warning -- This program may not be used in any manner that
 competes with the business of Gaussian, Inc. or will provide
 assistance to any competitor of Gaussian, Inc.  The licensee
 of this program is prohibited from giving any competitor of
 Gaussian, Inc. access to this program.  By using this program,
 the user acknowledges that Gaussian, Inc. is engaged in the
 business of creating and licensing software in the field of
 computational chemistry and represents and warrants to the
 licensee that it is not a competitor of Gaussian, Inc. and that
 it will not use this program in any manner prohibited above.
 ---------------------------------------------------------------
  

 Cite this work as:
 Gaussian 16, Revision A.03,
 M. J. Frisch, G. W. Trucks, H. B. Schlegel, G. E. Scuseria, 
 M. A. Robb, J. R. Cheeseman, G. Scalmani, V. Barone, 
 G. A. Petersson, H. Nakatsuji, X. Li, M. Caricato, A. V. Marenich, 
 J. Bloino, B. G. Janesko, R. Gomperts, B. Mennucci, H. P. Hratchian, 
 J. V. Ortiz, A. F. Izmaylov, J. L. Sonnenberg, D. Williams-Young, 
 F. Ding, F. Lipparini, F. Egidi, J. Goings, B. Peng, A. Petrone, 
 T. Henderson, D. Ranasinghe, V. G. Zakrzewski, J. Gao, N. Rega, 
 G. Zheng, W. Liang, M. Hada, M. Ehara, K. Toyota, R. Fukuda, 
 J. Hasegawa, M. Ishida, T. Nakajima, Y. Honda, O. Kitao, H. Nakai, 
 T. Vreven, K. Throssell, J. A. Montgomery, Jr., J. E. Peralta, 
 F. Ogliaro, M. J. Bearpark, J. J. Heyd, E. N. Brothers, K. N. Kudin, 
 V. N. Staroverov, T. A. Keith, R. Kobayashi, J. Normand, 
 K. Raghavachari, A. P. Rendell, J. C. Burant, S. S. Iyengar, 
 J. Tomasi, M. Cossi, J. M. Millam, M. Klene, C. Adamo, R. Cammi, 
 J. W. Ochterski, R. L. Martin, K. Morokuma, O. Farkas, 
 J. B. Foresman, and D. J. Fox, Gaussian, Inc., Wallingford CT, 2016.
 
 ******************************************
 Gaussian 16:  ES64L-G16RevA.03 25-Dec-2016
                17-Sep-2019 
 ******************************************
 %chk=Ng-293_loop3_33.0.chk
 %nprocshared=48
 Will use up to   48 processors via shared memory.
 %mem=10GB
 %nosave
 ----------------------------------------------------------------------
 #b3lyp/svp scf=(tight,noincore) Test #IOP(5/87=12) Density=Current Pop
 =(MK,readradii) iop(6/33=2) iop(6/42=6)
 ----------------------------------------------------------------------
 1/30=1,38=1,172=1/1;
 2/12=2,17=6,18=5,40=1/2;
 3/5=18,7=101,11=2,25=1,30=1,74=-5/1,2,3;
 4//1;
 5/5=4,32=2,38=5,87=12/2;
 6/7=2,8=2,9=2,10=2,15=8,20=101,22=-1,28=1,33=2,42=6/1,2;
 99/5=1,9=1/99;
 -----------------
 Ng-293_loop3_33.0
 -----------------
 Symbolic Z-matrix:
 Charge =  0 Multiplicity = 1
 C                     41.4      76.53     80.799 
 C                     41.56     76.02     79.379 
 O                     42.31     76.58     78.589 
 H                     40.344    76.524    81.07 
 H                     41.953    75.885    81.482 
 H                     41.786    77.547    80.866 
 N                     40.84     74.98     78.959 
 C                     40.57     74.75     77.549 
 C                     40.31     73.28     77.229 
 O                     39.8      72.56     78.079 
 C                     39.44     75.68     77.129 
 C                     39.17     75.9      75.649 
 O                     39.79     75.14     74.879 
 O                     38.41     76.87     75.399 
 H                     40.21     74.51     79.599 
 H                     41.49     75.02     77.029 
 H                     39.71     76.66     77.539 
 H                     38.55     75.28     77.609 
 N                     40.78     72.8      76.079 
 C                     40.66     71.44     75.599 
 C                     39.18     71.13     75.449 
 O                     38.25     71.9      75.679 
 C                     41.33     70.39     76.479 
 C                     42.85     70.52     76.429 
 C                     43.54     70.65     75.079 
 C                     45.06     70.61     75.189 
 N                     45.55     71.82     75.879 
 H                     40.97     73.57     75.449 
 H                     41.09     71.41     74.609 
 H                     41.1      69.44     76.009 
 H                     40.98     70.38     77.509 
 H                     43.26     69.65     76.949 
 H                     43.14     71.41     76.979 
 H                     43.21     71.5      74.469 
 H                     43.31     69.84     74.379 
 H                     45.52     70.58     74.199 
 H                     45.29     69.69     75.729 
 H                     46.54     71.86     76.039 
 H                     45.45     72.65     75.319 
 H                     45.09     72.08     76.749 
 N                     38.83     69.95     74.929 
 C                     37.52     69.54     74.449 
 C                     36.68     68.61     75.299 
 O                     35.47     68.81     75.279 
 C                     37.61     69.       73.019 
 C                     38.46     67.76     72.819 
 O                     38.98     67.14     73.769 
 O                     38.62     67.41     71.619 
 H                     39.56     69.32     74.629 
 H                     36.92     70.45     74.429 
 H                     37.86     69.82     72.349 
 H                     36.64     68.64     72.669 
 N                     37.27     67.64     76.009 
 C                     36.54     67.01     77.089 
 C                     35.22     66.37     76.689 
 O                     34.19     66.53     77.339 
 H                     38.27     67.54     76.049 
 H                     36.26     67.81     77.769 
 H                     37.09     66.17     77.499 
 N                     35.17     65.76     75.499 
 C                     34.01     64.98     75.149 
 C                     33.78     63.91     76.199 
 O                     34.71     63.28     76.699 
 C                     33.99     64.49     73.699 
 C                     34.27     65.63     72.719 
 N                     33.32     66.54     72.519 
 O                     35.34     65.81     72.139 
 H                     35.98     65.64     74.909 
 H                     33.18     65.67     75.279 
 H                     33.       64.11     73.459 
 H                     34.75     63.73     73.519 
 H                     32.42     66.42     72.959 
 H                     33.6      67.45     72.189 
 N                     32.5      63.7      76.519 
 C                     31.92     62.93     77.599 
 C                     32.06     63.6      78.959 
 O                     32.31     64.8      79.009 
 H                     31.84     64.32     76.079 
 H                     32.42     61.97     77.709 
 H                     30.88     62.63     77.439 
 N                     31.79     62.81     79.999 
 C                     31.83     63.09     81.419 
 C                     33.22     63.43     81.949 
 O                     33.62     63.02     83.039 
 C                     30.86     64.23     81.699 
 C                     30.62     64.61     83.139 
 C                     31.25     65.67     83.799 
 C                     29.85     63.69     83.859 
 C                     31.01     65.8      85.179 
 C                     29.55     63.81     85.219 
 C                     30.23     64.86     85.879 
 O                     30.04     65.05     87.209 
 H                     31.43     61.88     79.829 
 H                     31.49     62.24     82.009 
 H                     29.91     63.95     81.239 
 H                     31.18     65.11     81.139 
 H                     31.89     66.33     83.239 
 H                     29.36     62.83     83.429 
 H                     31.31     66.63     85.799 
 H                     28.95     63.11     85.769 
 H                     29.53     64.4      87.699 
 N                     34.07     64.02     81.109 
 C                     35.48     64.31     81.269 
 C                     36.27     63.01     81.339 
 O                     37.38     62.99     80.809 
 C                     35.68     65.29     82.419 
 C                     34.97     66.62     82.239 
 C                     37.14     65.66     82.659 
 C                     35.31     67.37     80.959 
 H                     33.77     64.41     80.229 
 H                     35.82     64.91     80.419 
 H                     35.39     64.83     83.369 
 H                     35.06     67.34     83.049 
 H                     33.9      66.44     82.119 
 H                     37.7      64.79     83.009 
 H                     37.59     65.96     81.709 
 H                     37.19     66.39     83.469 
 H                     34.79     68.33     80.909 
 H                     36.38     67.61     80.939 
 H                     34.98     66.83     80.069 
 N                     35.8      61.87     81.829 
 C                     36.31     60.53     81.629 
 C                     37.71     60.18     82.129 
 O                     38.19     59.08     81.849 
 C                     35.3      59.47     82.059 
 O                     34.1      59.6      81.339 
 H                     34.87     61.97     82.219 
 H                     36.42     60.5      80.539 
 H                     35.22     59.58     83.139 
 H                     35.69     58.46     81.909 
 H                     34.27     60.18     80.589 
 N                     38.26     61.13     82.879 
 C                     39.64     61.08     83.329 
 C                     40.65     61.12     82.199 
 O                     41.71     60.51     82.289 
 C                     39.86     60.07     84.449 
 H                     37.61     61.78     83.299 
 H                     39.85     62.02     83.839 
 H                     38.97     59.86     85.049 
 H                     40.1      59.13     83.939 
 H                     40.6      60.35     85.189 
 N                     40.29     61.8      81.099 
 C                     40.98     61.69     79.829 
 C                     41.82     62.92     79.559 
 O                     41.49     63.99     80.069 
 C                     39.98     61.44     78.699 
 H                     39.43     62.33     81.089 
 H                     41.68     60.86     79.929 
 H                     39.32     62.3      78.669 
 H                     40.57     61.47     77.789 
 H                     39.49     60.47     78.779 
 N                     42.89     62.81     78.769 
 C                     43.73     63.88     78.279 
 C                     44.36     64.71     79.389 
 O                     44.94     65.76     79.099 
 C                     42.99     64.67     77.209 
 C                     42.79     63.93     75.889 
 C                     41.86     64.65     74.929 
 O                     40.76     64.15     74.609 
 O                     42.2      65.74     74.389 
 H                     43.06     61.91     78.339 
 H                     44.57     63.35     77.829 
 H                     43.53     65.6      77.029 
 H                     42.03     65.03     77.569 
 H                     42.55     62.9      76.139 
 H                     43.77     63.85     75.419 
 N                     44.38     64.24     80.639 
 C                     44.67     64.97     81.859 
 H                     45.483    65.672    81.677 
 H                     43.782    65.517    82.175 
 H                     44.964    64.27     82.641 
 H                     43.92     63.34     80.679 
 Ca                    40.46     65.53     72.34 
 O                     38.05     64.51     72.21 
 H                     37.75     63.81     71.63 
 H                     37.28     65.08     72.31 
 
 Stoichiometry    C54H83CaN15O23
 Framework group  C1[X(C54H83CaN15O23)]
 Deg. of freedom   522
 Full point group                 C1      NOp   1
 Largest Abelian subgroup         C1      NOp   1
 Largest concise Abelian subgroup C1      NOp   1
                         Standard orientation:                         
 ---------------------------------------------------------------------
 Center     Atomic      Atomic             Coordinates (Angstroms)
 Number     Number       Type             X           Y           Z
 ---------------------------------------------------------------------
      1          6           0        7.840226   -2.735776   -7.378078
      2          6           0        8.256160   -2.427472   -5.951878
      3          8           0        9.426571   -2.199327   -5.672079
      4          1           0        7.141171   -3.572396   -7.379499
      5          1           0        7.358602   -1.860462   -7.814181
      6          1           0        8.720313   -2.997345   -7.965278
      7          7           0        7.351813   -2.453700   -4.973170
      8          6           0        7.727580   -2.655758   -3.583252
      9          6           0        6.722252   -2.052460   -2.605373
     10          8           0        5.540060   -1.988352   -2.920513
     11          6           0        7.971998   -4.143934   -3.373989
     12          6           0        8.693961   -4.609132   -2.119373
     13          8           0        8.868748   -3.730104   -1.252390
     14          8           0        9.081898   -5.804567   -2.157305
     15          1           0        6.380323   -2.647467   -5.187785
     16          1           0        8.657309   -2.101218   -3.449871
     17          1           0        8.599060   -4.451434   -4.218760
     18          1           0        6.987319   -4.602813   -3.422345
     19          7           0        7.194494   -1.486623   -1.496042
     20          6           0        6.417480   -0.844874   -0.457386
     21          6           0        5.483750   -1.887405    0.134457
     22          8           0        5.410588   -3.068555   -0.197555
     23          6           0        5.622197    0.373522   -0.914371
     24          6           0        6.548736    1.535629   -1.261981
     25          6           0        7.658489    1.915868   -0.292771
     26          6           0        8.389858    3.188117   -0.705785
     27          7           0        9.159186    2.951052   -1.943620
     28          1           0        8.134362   -1.822825   -1.324236
     29          1           0        7.103667   -0.556337    0.324786
     30          1           0        5.066263    0.691677   -0.039148
     31          1           0        4.931700    0.176379   -1.731591
     32          1           0        5.913058    2.409894   -1.426221
     33          1           0        7.056503    1.307207   -2.194019
     34          1           0        8.366413    1.111106   -0.058889
     35          1           0        7.310639    2.135423    0.722018
     36          1           0        9.092075    3.501139    0.069785
     37          1           0        7.613643    3.945698   -0.826043
     38          1           0        9.638806    3.748990   -2.318531
     39          1           0        9.952014    2.349463   -1.795248
     40          1           0        8.674515    2.496768   -2.714866
     41          7           0        4.728104   -1.539586    1.180077
     42          6           0        3.974862   -2.412672    2.066050
     43          6           0        2.470533   -2.497713    1.915173
     44          8           0        1.972510   -3.601289    2.111627
     45          6           0        4.337384   -2.145132    3.529471
     46          6           0        4.027001   -0.757904    4.058015
     47          8           0        3.416388    0.097631    3.385325
     48          8           0        4.447970   -0.523478    5.222459
     49          1           0        4.825354   -0.607403    1.556080
     50          1           0        4.295753   -3.424706    1.818431
     51          1           0        5.363310   -2.464193    3.701151
     52          1           0        3.737857   -2.758898    4.205386
     53          7           0        1.770005   -1.404050    1.589197
     54          6           0        0.421874   -1.552508    1.082538
     55          6           0       -0.534975   -2.295707    2.001285
     56          8           0       -1.287585   -3.175642    1.591051
     57          1           0        2.215612   -0.527480    1.377871
     58          1           0        0.499917   -2.184175    0.201796
     59          1           0       -0.065140   -0.589994    0.970365
     60          7           0       -0.411560   -2.083080    3.316678
     61          6           0       -1.404228   -2.611565    4.217686
     62          6           0       -2.776241   -2.102578    3.819175
     63          8           0       -2.957790   -0.942873    3.453216
     64          6           0       -1.056124   -2.464020    5.700944
     65          6           0        0.357464   -2.966632    5.996834
     66          7           0        0.578116   -4.278779    5.983276
     67          8           0        1.333776   -2.242992    6.188825
     68          1           0        0.222348   -1.400762    3.705525
     69          1           0       -1.431297   -3.673359    3.985821
     70          1           0       -1.733251   -3.073822    6.294019
     71          1           0       -1.090957   -1.423316    6.022381
     72          1           0       -0.198210   -4.909264    5.849832
     73          1           0        1.518656   -4.597533    5.812453
     74          7           0       -3.760251   -3.001334    3.913322
     75          6           0       -5.125440   -2.947257    3.434747
     76          6           0       -5.241058   -3.107105    1.925051
     77          8           0       -4.298381   -3.585755    1.302754
     78          1           0       -3.470303   -3.930139    4.171880
     79          1           0       -5.577867   -1.980990    3.647673
     80          1           0       -5.812303   -3.637217    3.934121
     81          7           0       -6.435211   -2.791797    1.421880
     82          6           0       -6.903976   -2.805258    0.052034
     83          6           0       -6.180695   -1.822806   -0.864619
     84          8           0       -6.777108   -1.174128   -1.724682
     85          6           0       -6.765712   -4.226768   -0.476258
     86          6           0       -7.324296   -4.524362   -1.845572
     87          6           0       -6.569851   -4.563743   -3.022586
     88          6           0       -8.721608   -4.568446   -1.902801
     89          6           0       -7.273094   -4.723097   -4.230459
     90          6           0       -9.454212   -4.772653   -3.075657
     91          6           0       -8.679995   -4.765504   -4.259311
     92          8           0       -9.290757   -4.922405   -5.460748
     93          1           0       -7.191344   -2.567073    2.055254
     94          1           0       -7.960256   -2.548911   -0.016954
     95          1           0       -7.245976   -4.878831    0.256312
     96          1           0       -5.713751   -4.514194   -0.442133
     97          1           0       -5.499660   -4.464112   -2.962879
     98          1           0       -9.373260   -4.510772   -1.044533
     99          1           0       -6.835389   -4.903397   -5.199585
    100          1           0      -10.525983   -4.817552   -3.117988
    101          1           0      -10.250797   -4.927287   -5.492357
    102          7           0       -4.911918   -1.534234   -0.576297
    103          6           0       -4.034298   -0.536583   -1.152732
    104          6           0       -4.548561    0.857712   -0.820358
    105          8           0       -3.713847    1.732467   -0.593515
    106          6           0       -3.801377   -0.841739   -2.627699
    107          6           0       -3.170509   -2.196752   -2.894802
    108          6           0       -2.880060    0.157367   -3.319843
    109          6           0       -1.851028   -2.451329   -2.180196
    110          1           0       -4.377195   -2.072976    0.087276
    111          1           0       -3.026261   -0.670764   -0.747815
    112          1           0       -4.733699   -0.738830   -3.191956
    113          1           0       -3.012984   -2.470222   -3.935475
    114          1           0       -3.809365   -2.976651   -2.476089
    115          1           0       -3.353637    1.140389   -3.368779
    116          1           0       -1.973340    0.276600   -2.720975
    117          1           0       -2.736965   -0.154470   -4.356077
    118          1           0       -1.438213   -3.429097   -2.441067
    119          1           0       -1.103021   -1.717017   -2.502951
    120          1           0       -1.973245   -2.483166   -1.095462
    121          7           0       -5.827451    1.165879   -0.646943
    122          6           0       -6.388937    2.332848    0.000062
    123          6           0       -6.124941    3.715904   -0.591515
    124          8           0       -6.497250    4.714620    0.027155
    125          6           0       -7.871891    2.149702    0.309748
    126          8           0       -8.075719    1.038086    1.145251
    127          1           0       -6.442949    0.380996   -0.826168
    128          1           0       -5.825526    2.352187    0.939899
    129          1           0       -8.358905    2.108263   -0.662877
    130          1           0       -8.292470    3.033911    0.795534
    131          1           0       -7.220612    0.784646    1.509064
    132          7           0       -5.533005    3.681414   -1.781441
    133          6           0       -5.047291    4.872453   -2.455909
    134          6           0       -3.935102    5.583037   -1.709782
    135          8           0       -3.835650    6.804442   -1.755379
    136          6           0       -6.170945    5.719989   -3.040704
    137          1           0       -5.631472    2.812721   -2.288468
    138          1           0       -4.528270    4.546912   -3.357264
    139          1           0       -7.081550    5.162028   -3.276664
    140          1           0       -6.449520    6.412788   -2.238379
    141          1           0       -5.937870    6.223169   -3.971341
    142          7           0       -3.125025    4.811693   -0.967621
    143          6           0       -2.220479    5.335701    0.036526
    144          6           0       -0.787456    5.295682   -0.449523
    145          8           0       -0.466707    4.455038   -1.288772
    146          6           0       -2.383637    4.571816    1.351539
    147          1           0       -3.211726    3.805724   -1.000921
    148          1           0       -2.470957    6.389998    0.157433
    149          1           0       -2.124701    3.538623    1.147667
    150          1           0       -1.608864    4.963029    2.002523
    151          1           0       -3.357525    4.733426    1.812868
    152          7           0        0.088735    6.168397    0.052230
    153          6           0        1.516722    6.202257   -0.172063
    154          6           0        1.894535    6.330661   -1.641304
    155          8           0        3.073295    6.179845   -1.974139
    156          6           0        2.185670    5.060247    0.579549
    157          6           0        2.201343    5.214399    2.098098
    158          6           0        2.667138    3.966222    2.826101
    159          8           0        1.886480    3.328886    3.565545
    160          8           0        3.865953    3.576553    2.746736
    161          1           0       -0.238036    6.787607    0.782709
    162          1           0        1.814492    7.154934    0.266959
    163          1           0        3.206709    4.954297    0.211915
    164          1           0        1.749131    4.099684    0.319639
    165          1           0        1.237422    5.628039    2.382279
    166          1           0        2.896010    6.022213    2.327387
    167          7           0        0.976286    6.716403   -2.531148
    168          6           0        1.049967    6.633388   -3.977896
    169          1           0        2.059533    6.880555   -4.304368
    170          1           0        0.802952    5.621040   -4.296867
    171          1           0        0.344040    7.336756   -4.419372
    172          1           0        0.086315    6.859224   -2.072071
    173         20           0        3.778200    2.111981    5.008910
    174          8           0        1.844931    0.718355    6.097798
    175          1           0        1.478206    0.827477    6.975297
    176          1           0        1.781064   -0.228212    5.931268
 ---------------------------------------------------------------------
 Rotational constants (GHZ):           0.0170754           0.0098674           0.0090887
 Standard basis: SVP (5D, 7F)
 There are  1809 symmetry adapted cartesian basis functions of A   symmetry.
 There are  1717 symmetry adapted basis functions of A   symmetry.
  1717 basis functions,  2922 primitive gaussians,  1809 cartesian basis functions
   358 alpha electrons      358 beta electrons
       nuclear repulsion energy     19308.3534798296 Hartrees.
 NAtoms=  176 NActive=  176 NUniq=  176 SFac= 1.00D+00 NAtFMM=   60 NAOKFM=T Big=T
 Integral buffers will be    131072 words long.
 Raffenetti 2 integral format.
 Two-electron integral symmetry is turned on.
 One-electron integrals computed using PRISM.
 NBasis=  1717 RedAO= T EigKep=  3.26D-04  NBF=  1717
 NBsUse=  1717 1.00D-06 EigRej= -1.00D+00 NBFU=  1717
 ExpMin= 1.98D-02 ExpMax= 3.51D+04 ExpMxC= 5.28D+03 IAcc=3 IRadAn=         5 AccDes= 0.00D+00
 Harris functional with IExCor=  402 and IRadAn=       5 diagonalized for initial guess.
 HarFok:  IExCor=  402 AccDes= 0.00D+00 IRadAn=         5 IDoV= 1 UseB2=F ITyADJ=14
 ICtDFT=  3500011 ScaDFX=  1.000000  1.000000  1.000000  1.000000
 FoFCou: FMM=F IPFlag=           0 FMFlag=      100000 FMFlg1=        2001
         NFxFlg=           0 DoJE=T BraDBF=F KetDBF=T FulRan=T
         wScrn=  0.000000 ICntrl=       500 IOpCl=  0 I1Cent=   200000004 NGrid=           0
         NMat0=    1 NMatS0=      1 NMatT0=    0 NMatD0=    1 NMtDS0=    0 NMtDT0=    0
 Petite list used in FoFCou.
 Requested convergence on RMS density matrix=1.00D-08 within 128 cycles.
 Requested convergence on MAX density matrix=1.00D-06.
 Requested convergence on             energy=1.00D-06.
 No special actions if energy rises.
 EnCoef did     2 forward-backward iterations
 EnCoef did     3 forward-backward iterations
 EnCoef did     3 forward-backward iterations
 EnCoef did     2 forward-backward iterations
 EnCoef did    11 forward-backward iterations
 Rare condition: small coef for last iteration:  0.000D+00
 EnCoef did     9 forward-backward iterations
 Rare condition: small coef for last iteration: -0.266D-15
 EnCoef did    59 forward-backward iterations
 EnCoef did   100 forward-backward iterations
 Restarting incremental Fock formation.
 Rare condition: small coef for last iteration:  0.000D+00
 EnCoef did   100 forward-backward iterations
 EnCoef did   100 forward-backward iterations
 Rare condition: small coef for last iteration:  0.000D+00
 EnCoef did   100 forward-backward iterations
 EnCoef did   100 forward-backward iterations
 Rare condition: small coef for last iteration:  0.138D-15
 EnCoef did   100 forward-backward iterations
 EnCoef did   100 forward-backward iterations
 Rare condition: small coef for last iteration:  0.306D-15
 EnCoef did   100 forward-backward iterations
 EnCoef did   100 forward-backward iterations
 Rare condition: small coef for last iteration:  0.181D-15
 EnCoef did   100 forward-backward iterations
 EnCoef did    13 forward-backward iterations
 Restarting incremental Fock formation.
 SCF Done:  E(RB3LYP) =  -5333.40383455     A.U. after   46 cycles
            NFock= 46  Conv=0.13D-08     -V/T= 2.0081
 SCF density gives NOpUse=  1 NOpAll=  1.
 Hyperfine terms turned off by default for NAtoms > 100.

 **********************************************************************

            Population analysis using the SCF density.

 **********************************************************************

 Orbital symmetries:
 BldTbl:  Degeneracy threshold= 1.00D-02
       Occupied  (A) (A) (A) (A) (A) (A) (A) (A) (A) (A) (A) (A)
                 (A) (A) (A) (A) (A) (A) (A) (A) (A) (A) (A) (A)
                 (A) (A) (A) (A) (A) (A) (A) (A) (A) (A) (A) (A)
                 (A) (A) (A) (A) (A) (A) (A) (A) (A) (A) (A) (A)
                 (A) (A) (A) (A) (A) (A) (A) (A) (A) (A) (A) (A)
                 (A) (A) (A) (A) (A) (A) (A) (A) (A) (A) (A) (A)
                 (A) (A) (A) (A) (A) (A) (A) (A) (A) (A) (A) (A)
                 (A) (A) (A) (A) (A) (A) (A) (A) (A) (A) (A) (A)
                 (A) (A) (A) (A) (A) (A) (A) (A) (A) (A) (A) (A)
                 (A) (A) (A) (A) (A) (A) (A) (A) (A) (A) (A) (A)
                 (A) (A) (A) (A) (A) (A) (A) (A) (A) (A) (A) (A)
                 (A) (A) (A) (A) (A) (A) (A) (A) (A) (A) (A) (A)
                 (A) (A) (A) (A) (A) (A) (A) (A) (A) (A) (A) (A)
                 (A) (A) (A) (A) (A) (A) (A) (A) (A) (A) (A) (A)
                 (A) (A) (A) (A) (A) (A) (A) (A) (A) (A) (A) (A)
                 (A) (A) (A) (A) (A) (A) (A) (A) (A) (A) (A) (A)
                 (A) (A) (A) (A) (A) (A) (A) (A) (A) (A) (A) (A)
                 (A) (A) (A) (A) (A) (A) (A) (A) (A) (A) (A) (A)
                 (A) (A) (A) (A) (A) (A) (A) (A) (A) (A) (A) (A)
                 (A) (A) (A) (A) (A) (A) (A) (A) (A) (A) (A) (A)
                 (A) (A) (A) (A) (A) (A) (A) (A) (A) (A) (A) (A)
                 (A) (A) (A) (A) (A) (A) (A) (A) (A) (A) (A) (A)
                 (A) (A) (A) (A) (A) (A) (A) (A) (A) (A) (A) (A)
                 (A) (A) (A) (A) (A) (A) (A) (A) (A) (A) (A) (A)
                 (A) (A) (A) (A) (A) (A) (A) (A) (A) (A) (A) (A)
                 (A) (A) (A) (A) (A) (A) (A) (A) (A) (A) (A) (A)
                 (A) (A) (A) (A) (A) (A) (A) (A) (A) (A) (A) (A)
                 (A) (A) (A) (A) (A) (A) (A) (A) (A) (A) (A) (A)
                 (A) (A) (A) (A) (A) (A) (A) (A) (A) (A) (A) (A)
                 (A) (A) (A) (A) (A) (A) (A) (A) (A) (A)
       Virtual   (A) (A) (A) (A) (A) (A) (A) (A) (A) (A) (A) (A)
                 (A) (A) (A) (A) (A) (A) (A) (A) (A) (A) (A) (A)
                 (A) (A) (A) (A) (A) (A) (A) (A) (A) (A) (A) (A)
                 (A) (A) (A) (A) (A) (A) (A) (A) (A) (A) (A) (A)
                 (A) (A) (A) (A) (A) (A) (A) (A) (A) (A) (A) (A)
                 (A) (A) (A) (A) (A) (A) (A) (A) (A) (A) (A) (A)
                 (A) (A) (A) (A) (A) (A) (A) (A) (A) (A) (A) (A)
                 (A) (A) (A) (A) (A) (A) (A) (A) (A) (A) (A) (A)
                 (A) (A) (A) (A) (A) (A) (A) (A) (A) (A) (A) (A)
                 (A) (A) (A) (A) (A) (A) (A) (A) (A) (A) (A) (A)
                 (A) (A) (A) (A) (A) (A) (A) (A) (A) (A) (A) (A)
                 (A) (A) (A) (A) (A) (A) (A) (A) (A) (A) (A) (A)
                 (A) (A) (A) (A) (A) (A) (A) (A) (A) (A) (A) (A)
                 (A) (A) (A) (A) (A) (A) (A) (A) (A) (A) (A) (A)
                 (A) (A) (A) (A) (A) (A) (A) (A) (A) (A) (A) (A)
                 (A) (A) (A) (A) (A) (A) (A) (A) (A) (A) (A) (A)
                 (A) (A) (A) (A) (A) (A) (A) (A) (A) (A) (A) (A)
                 (A) (A) (A) (A) (A) (A) (A) (A) (A) (A) (A) (A)
                 (A) (A) (A) (A) (A) (A) (A) (A) (A) (A) (A) (A)
                 (A) (A) (A) (A) (A) (A) (A) (A) (A) (A) (A) (A)
                 (A) (A) (A) (A) (A) (A) (A) (A) (A) (A) (A) (A)
                 (A) (A) (A) (A) (A) (A) (A) (A) (A) (A) (A) (A)
                 (A) (A) (A) (A) (A) (A) (A) (A) (A) (A) (A) (A)
                 (A) (A) (A) (A) (A) (A) (A) (A) (A) (A) (A) (A)
                 (A) (A) (A) (A) (A) (A) (A) (A) (A) (A) (A) (A)
                 (A) (A) (A) (A) (A) (A) (A) (A) (A) (A) (A) (A)
                 (A) (A) (A) (A) (A) (A) (A) (A) (A) (A) (A) (A)
                 (A) (A) (A) (A) (A) (A) (A) (A) (A) (A) (A) (A)
                 (A) (A) (A) (A) (A) (A) (A) (A) (A) (A) (A) (A)
                 (A) (A) (A) (A) (A) (A) (A) (A) (A) (A) (A) (A)
                 (A) (A) (A) (A) (A) (A) (A) (A) (A) (A) (A) (A)
                 (A) (A) (A) (A) (A) (A) (A) (A) (A) (A) (A) (A)
                 (A) (A) (A) (A) (A) (A) (A) (A) (A) (A) (A) (A)
                 (A) (A) (A) (A) (A) (A) (A) (A) (A) (A) (A) (A)
                 (A) (A) (A) (A) (A) (A) (A) (A) (A) (A) (A) (A)
                 (A) (A) (A) (A) (A) (A) (A) (A) (A) (A) (A) (A)
                 (A) (A) (A) (A) (A) (A) (A) (A) (A) (A) (A) (A)
                 (A) (A) (A) (A) (A) (A) (A) (A) (A) (A) (A) (A)
                 (A) (A) (A) (A) (A) (A) (A) (A) (A) (A) (A) (A)
                 (A) (A) (A) (A) (A) (A) (A) (A) (A) (A) (A) (A)
                 (A) (A) (A) (A) (A) (A) (A) (A) (A) (A) (A) (A)
                 (A) (A) (A) (A) (A) (A) (A) (A) (A) (A) (A) (A)
                 (A) (A) (A) (A) (A) (A) (A) (A) (A) (A) (A) (A)
                 (A) (A) (A) (A) (A) (A) (A) (A) (A) (A) (A) (A)
                 (A) (A) (A) (A) (A) (A) (A) (A) (A) (A) (A) (A)
                 (A) (A) (A) (A) (A) (A) (A) (A) (A) (A) (A) (A)
                 (A) (A) (A) (A) (A) (A) (A) (A) (A) (A) (A) (A)
                 (A) (A) (A) (A) (A) (A) (A) (A) (A) (A) (A) (A)
                 (A) (A) (A) (A) (A) (A) (A) (A) (A) (A) (A) (A)
                 (A) (A) (A) (A) (A) (A) (A) (A) (A) (A) (A) (A)
                 (A) (A) (A) (A) (A) (A) (A) (A) (A) (A) (A) (A)
                 (A) (A) (A) (A) (A) (A) (A) (A) (A) (A) (A) (A)
                 (A) (A) (A) (A) (A) (A) (A) (A) (A) (A) (A) (A)
                 (A) (A) (A) (A) (A) (A) (A) (A) (A) (A) (A) (A)
                 (A) (A) (A) (A) (A) (A) (A) (A) (A) (A) (A) (A)
                 (A) (A) (A) (A) (A) (A) (A) (A) (A) (A) (A) (A)
                 (A) (A) (A) (A) (A) (A) (A) (A) (A) (A) (A) (A)
                 (A) (A) (A) (A) (A) (A) (A) (A) (A) (A) (A) (A)
                 (A) (A) (A) (A) (A) (A) (A) (A) (A) (A) (A) (A)
                 (A) (A) (A) (A) (A) (A) (A) (A) (A) (A) (A) (A)
                 (A) (A) (A) (A) (A) (A) (A) (A) (A) (A) (A) (A)
                 (A) (A) (A) (A) (A) (A) (A) (A) (A) (A) (A) (A)
                 (A) (A) (A) (A) (A) (A) (A) (A) (A) (A) (A) (A)
                 (A) (A) (A) (A) (A) (A) (A) (A) (A) (A) (A) (A)
                 (A) (A) (A) (A) (A) (A) (A) (A) (A) (A) (A) (A)
                 (A) (A) (A) (A) (A) (A) (A) (A) (A) (A) (A) (A)
                 (A) (A) (A) (A) (A) (A) (A) (A) (A) (A) (A) (A)
                 (A) (A) (A) (A) (A) (A) (A) (A) (A) (A) (A) (A)
                 (A) (A) (A) (A) (A) (A) (A) (A) (A) (A) (A) (A)
                 (A) (A) (A) (A) (A) (A) (A) (A) (A) (A) (A) (A)
                 (A) (A) (A) (A) (A) (A) (A) (A) (A) (A) (A) (A)
                 (A) (A) (A) (A) (A) (A) (A) (A) (A) (A) (A) (A)
                 (A) (A) (A) (A) (A) (A) (A) (A) (A) (A) (A) (A)
                 (A) (A) (A) (A) (A) (A) (A) (A) (A) (A) (A) (A)
                 (A) (A) (A) (A) (A) (A) (A) (A) (A) (A) (A) (A)
                 (A) (A) (A) (A) (A) (A) (A) (A) (A) (A) (A) (A)
                 (A) (A) (A) (A) (A) (A) (A) (A) (A) (A) (A) (A)
                 (A) (A) (A) (A) (A) (A) (A) (A) (A) (A) (A) (A)
                 (A) (A) (A) (A) (A) (A) (A) (A) (A) (A) (A) (A)
                 (A) (A) (A) (A) (A) (A) (A) (A) (A) (A) (A) (A)
                 (A) (A) (A) (A) (A) (A) (A) (A) (A) (A) (A) (A)
                 (A) (A) (A) (A) (A) (A) (A) (A) (A) (A) (A) (A)
                 (A) (A) (A) (A) (A) (A) (A) (A) (A) (A) (A) (A)
                 (A) (A) (A) (A) (A) (A) (A) (A) (A) (A) (A) (A)
                 (A) (A) (A) (A) (A) (A) (A) (A) (A) (A) (A) (A)
                 (A) (A) (A) (A) (A) (A) (A) (A) (A) (A) (A) (A)
                 (A) (A) (A) (A) (A) (A) (A) (A) (A) (A) (A) (A)
                 (A) (A) (A) (A) (A) (A) (A) (A) (A) (A) (A) (A)
                 (A) (A) (A) (A) (A) (A) (A) (A) (A) (A) (A) (A)
                 (A) (A) (A) (A) (A) (A) (A) (A) (A) (A) (A) (A)
                 (A) (A) (A) (A) (A) (A) (A) (A) (A) (A) (A) (A)
                 (A) (A) (A) (A) (A) (A) (A) (A) (A) (A) (A) (A)
                 (A) (A) (A) (A) (A) (A) (A) (A) (A) (A) (A) (A)
                 (A) (A) (A) (A) (A) (A) (A) (A) (A) (A) (A) (A)
                 (A) (A) (A) (A) (A) (A) (A) (A) (A) (A) (A) (A)
                 (A) (A) (A) (A) (A) (A) (A) (A) (A) (A) (A) (A)
                 (A) (A) (A) (A) (A) (A) (A) (A) (A) (A) (A) (A)
                 (A) (A) (A) (A) (A) (A) (A) (A) (A) (A) (A) (A)
                 (A) (A) (A) (A) (A) (A) (A) (A) (A) (A) (A) (A)
                 (A) (A) (A) (A) (A) (A) (A) (A) (A) (A) (A) (A)
                 (A) (A) (A) (A) (A) (A) (A) (A) (A) (A) (A) (A)
                 (A) (A) (A) (A) (A) (A) (A) (A) (A) (A) (A) (A)
                 (A) (A) (A) (A) (A) (A) (A) (A) (A) (A) (A) (A)
                 (A) (A) (A) (A) (A) (A) (A) (A) (A) (A) (A) (A)
                 (A) (A) (A) (A) (A) (A) (A) (A) (A) (A) (A) (A)
                 (A) (A) (A) (A) (A) (A) (A) (A) (A) (A) (A) (A)
                 (A) (A) (A) (A) (A) (A) (A) (A) (A) (A) (A) (A)
                 (A) (A) (A) (A) (A) (A) (A) (A) (A) (A) (A) (A)
                 (A) (A) (A) (A) (A) (A) (A) (A) (A) (A) (A) (A)
                 (A) (A) (A) (A) (A) (A) (A) (A) (A) (A) (A) (A)
                 (A) (A) (A) (A) (A) (A) (A) (A) (A) (A) (A) (A)
                 (A) (A) (A) (A) (A) (A) (A) (A) (A) (A) (A) (A)
                 (A) (A) (A) (A) (A) (A) (A) (A) (A) (A) (A) (A)
                 (A) (A) (A)
 The electronic state is 1-A.
 Alpha  occ. eigenvalues -- -145.45695 -19.17063 -19.15789 -19.14245 -19.12556
 Alpha  occ. eigenvalues --  -19.12409 -19.11011 -19.10635 -19.09797 -19.09781
 Alpha  occ. eigenvalues --  -19.09353 -19.08998 -19.08669 -19.08345 -19.08204
 Alpha  occ. eigenvalues --  -19.08068 -19.07981 -19.07690 -19.07529 -19.05905
 Alpha  occ. eigenvalues --  -19.05078 -19.04320 -18.96508 -18.95573 -15.51632
 Alpha  occ. eigenvalues --  -14.57309 -14.38875 -14.37568 -14.37226 -14.36563
 Alpha  occ. eigenvalues --  -14.35688 -14.35645 -14.35467 -14.34781 -14.34358
 Alpha  occ. eigenvalues --  -14.33861 -14.33149 -14.32859 -14.30860 -14.30083
 Alpha  occ. eigenvalues --  -12.65219 -12.65206 -12.65143 -10.34480 -10.31394
 Alpha  occ. eigenvalues --  -10.31257 -10.29873 -10.29526 -10.28782 -10.28363
 Alpha  occ. eigenvalues --  -10.27911 -10.27564 -10.27326 -10.27228 -10.27221
 Alpha  occ. eigenvalues --  -10.27096 -10.26484 -10.26104 -10.25988 -10.25528
 Alpha  occ. eigenvalues --  -10.25326 -10.25035 -10.25018 -10.24190 -10.24152
 Alpha  occ. eigenvalues --  -10.23849 -10.23773 -10.23672 -10.23500 -10.23471
 Alpha  occ. eigenvalues --  -10.23295 -10.23089 -10.22925 -10.22401 -10.21885
 Alpha  occ. eigenvalues --  -10.21518 -10.20455 -10.20348 -10.19601 -10.19442
 Alpha  occ. eigenvalues --  -10.19060 -10.19018 -10.18904 -10.18580 -10.18495
 Alpha  occ. eigenvalues --  -10.18336 -10.18240 -10.18076 -10.17624 -10.17045
 Alpha  occ. eigenvalues --  -10.16981 -10.16726 -10.16629 -10.16031 -10.15830
 Alpha  occ. eigenvalues --  -10.15630 -10.09489  -1.88384  -1.15807  -1.15616
 Alpha  occ. eigenvalues --   -1.15246  -1.12677  -1.05947  -1.05314  -1.04711
 Alpha  occ. eigenvalues --   -1.04531  -1.03723  -1.03560  -1.03310  -1.03077
 Alpha  occ. eigenvalues --   -1.02835  -1.02542  -1.02528  -1.02151  -1.01803
 Alpha  occ. eigenvalues --   -1.01146  -1.00771  -1.00663  -0.99939  -0.98361
 Alpha  occ. eigenvalues --   -0.97638  -0.95937  -0.93802  -0.93384  -0.93234
 Alpha  occ. eigenvalues --   -0.93101  -0.93004  -0.92399  -0.91906  -0.91778
 Alpha  occ. eigenvalues --   -0.91594  -0.90487  -0.90425  -0.90062  -0.89937
 Alpha  occ. eigenvalues --   -0.89195  -0.88920  -0.88010  -0.86567  -0.85062
 Alpha  occ. eigenvalues --   -0.81854  -0.81449  -0.81066  -0.80777  -0.80006
 Alpha  occ. eigenvalues --   -0.79884  -0.78427  -0.76991  -0.76547  -0.76417
 Alpha  occ. eigenvalues --   -0.75036  -0.74702  -0.74394  -0.73922  -0.73260
 Alpha  occ. eigenvalues --   -0.72686  -0.72268  -0.72212  -0.70973  -0.70688
 Alpha  occ. eigenvalues --   -0.70160  -0.69821  -0.69008  -0.68632  -0.67560
 Alpha  occ. eigenvalues --   -0.66818  -0.66509  -0.65804  -0.64905  -0.64171
 Alpha  occ. eigenvalues --   -0.63214  -0.63063  -0.62585  -0.62306  -0.62037
 Alpha  occ. eigenvalues --   -0.61354  -0.61082  -0.60992  -0.60819  -0.59879
 Alpha  occ. eigenvalues --   -0.59831  -0.59378  -0.59270  -0.59166  -0.58792
 Alpha  occ. eigenvalues --   -0.58204  -0.57418  -0.56900  -0.56877  -0.56604
 Alpha  occ. eigenvalues --   -0.56283  -0.56041  -0.55943  -0.55240  -0.55181
 Alpha  occ. eigenvalues --   -0.55016  -0.54334  -0.53885  -0.53713  -0.53664
 Alpha  occ. eigenvalues --   -0.53371  -0.52947  -0.52807  -0.52438  -0.52030
 Alpha  occ. eigenvalues --   -0.51897  -0.51235  -0.51015  -0.50532  -0.50345
 Alpha  occ. eigenvalues --   -0.50196  -0.49874  -0.49416  -0.49393  -0.48841
 Alpha  occ. eigenvalues --   -0.48610  -0.48516  -0.48257  -0.48034  -0.47308
 Alpha  occ. eigenvalues --   -0.47224  -0.46940  -0.46762  -0.46491  -0.46325
 Alpha  occ. eigenvalues --   -0.46244  -0.45971  -0.45869  -0.45712  -0.45351
 Alpha  occ. eigenvalues --   -0.45187  -0.44989  -0.44771  -0.44468  -0.44400
 Alpha  occ. eigenvalues --   -0.44372  -0.44317  -0.44193  -0.44024  -0.43987
 Alpha  occ. eigenvalues --   -0.43688  -0.43651  -0.43597  -0.43369  -0.43275
 Alpha  occ. eigenvalues --   -0.43050  -0.42933  -0.42733  -0.42555  -0.42378
 Alpha  occ. eigenvalues --   -0.42205  -0.42193  -0.42021  -0.41694  -0.41593
 Alpha  occ. eigenvalues --   -0.41440  -0.41345  -0.41276  -0.41225  -0.40916
 Alpha  occ. eigenvalues --   -0.40820  -0.40674  -0.40633  -0.40552  -0.40305
 Alpha  occ. eigenvalues --   -0.40198  -0.40082  -0.40065  -0.39785  -0.39620
 Alpha  occ. eigenvalues --   -0.39557  -0.39446  -0.39142  -0.39098  -0.38831
 Alpha  occ. eigenvalues --   -0.38764  -0.38513  -0.38489  -0.38263  -0.38093
 Alpha  occ. eigenvalues --   -0.38033  -0.37969  -0.37798  -0.37449  -0.37296
 Alpha  occ. eigenvalues --   -0.37172  -0.37011  -0.36691  -0.36503  -0.36477
 Alpha  occ. eigenvalues --   -0.36298  -0.36152  -0.35786  -0.35677  -0.35543
 Alpha  occ. eigenvalues --   -0.35370  -0.35201  -0.35002  -0.34872  -0.34799
 Alpha  occ. eigenvalues --   -0.34624  -0.34609  -0.33993  -0.33819  -0.33779
 Alpha  occ. eigenvalues --   -0.33431  -0.33384  -0.33330  -0.33274  -0.33194
 Alpha  occ. eigenvalues --   -0.32947  -0.31904  -0.31782  -0.31443  -0.30310
 Alpha  occ. eigenvalues --   -0.29952  -0.29858  -0.29660  -0.29329  -0.28740
 Alpha  occ. eigenvalues --   -0.28654  -0.28169  -0.27805  -0.27520  -0.27482
 Alpha  occ. eigenvalues --   -0.27375  -0.27256  -0.26887  -0.26745  -0.26407
 Alpha  occ. eigenvalues --   -0.26189  -0.26108  -0.25689  -0.25570  -0.25460
 Alpha  occ. eigenvalues --   -0.25402  -0.25318  -0.25212  -0.24899  -0.24704
 Alpha  occ. eigenvalues --   -0.24548  -0.24447  -0.24305  -0.24111  -0.24005
 Alpha  occ. eigenvalues --   -0.23602  -0.23443  -0.23235  -0.22838  -0.22052
 Alpha  occ. eigenvalues --   -0.21947  -0.21792  -0.20939  -0.20476  -0.19868
 Alpha  occ. eigenvalues --   -0.13596  -0.12810  -0.11561
 Alpha virt. eigenvalues --   -0.10688  -0.09021  -0.03395  -0.02934  -0.02242
 Alpha virt. eigenvalues --   -0.01673  -0.01569  -0.00661  -0.00209  -0.00013
 Alpha virt. eigenvalues --    0.00266   0.00310   0.00999   0.01079   0.01249
 Alpha virt. eigenvalues --    0.01449   0.01631   0.01789   0.01846   0.02338
 Alpha virt. eigenvalues --    0.02773   0.03344   0.03362   0.03668   0.03893
 Alpha virt. eigenvalues --    0.04403   0.04594   0.04865   0.05039   0.05139
 Alpha virt. eigenvalues --    0.05459   0.05538   0.05900   0.05945   0.06119
 Alpha virt. eigenvalues --    0.06263   0.06426   0.06670   0.07099   0.07284
 Alpha virt. eigenvalues --    0.07422   0.07608   0.07766   0.08043   0.08141
 Alpha virt. eigenvalues --    0.08481   0.08786   0.08844   0.08993   0.09092
 Alpha virt. eigenvalues --    0.09249   0.09577   0.09713   0.09865   0.10150
 Alpha virt. eigenvalues --    0.10333   0.10410   0.10589   0.10781   0.10905
 Alpha virt. eigenvalues --    0.10990   0.11396   0.11462   0.11760   0.12000
 Alpha virt. eigenvalues --    0.12163   0.12413   0.12582   0.12656   0.12871
 Alpha virt. eigenvalues --    0.13125   0.13302   0.13583   0.13710   0.13791
 Alpha virt. eigenvalues --    0.13949   0.14067   0.14220   0.14296   0.14521
 Alpha virt. eigenvalues --    0.14830   0.14957   0.15155   0.15339   0.15492
 Alpha virt. eigenvalues --    0.15620   0.15761   0.15801   0.15903   0.16003
 Alpha virt. eigenvalues --    0.16325   0.16449   0.16497   0.16634   0.16867
 Alpha virt. eigenvalues --    0.16947   0.16963   0.17049   0.17188   0.17516
 Alpha virt. eigenvalues --    0.17660   0.17743   0.17964   0.18101   0.18306
 Alpha virt. eigenvalues --    0.18497   0.18719   0.18787   0.18889   0.19168
 Alpha virt. eigenvalues --    0.19322   0.19472   0.19916   0.20110   0.20430
 Alpha virt. eigenvalues --    0.20540   0.20677   0.21091   0.21181   0.21419
 Alpha virt. eigenvalues --    0.21726   0.22067   0.22213   0.22307   0.22496
 Alpha virt. eigenvalues --    0.22536   0.22821   0.23240   0.23572   0.23596
 Alpha virt. eigenvalues --    0.23879   0.24169   0.24200   0.24592   0.24773
 Alpha virt. eigenvalues --    0.24971   0.25190   0.25276   0.25441   0.25688
 Alpha virt. eigenvalues --    0.26077   0.26179   0.26430   0.26821   0.26935
 Alpha virt. eigenvalues --    0.27111   0.27568   0.27693   0.28057   0.28139
 Alpha virt. eigenvalues --    0.28199   0.28347   0.28902   0.28962   0.29344
 Alpha virt. eigenvalues --    0.29462   0.29528   0.29712   0.29917   0.30176
 Alpha virt. eigenvalues --    0.30496   0.30754   0.31036   0.31321   0.31608
 Alpha virt. eigenvalues --    0.31985   0.32232   0.32288   0.32791   0.33006
 Alpha virt. eigenvalues --    0.33122   0.33265   0.33581   0.33649   0.34063
 Alpha virt. eigenvalues --    0.34423   0.34587   0.34689   0.35118   0.35188
 Alpha virt. eigenvalues --    0.35301   0.35835   0.36334   0.36563   0.36724
 Alpha virt. eigenvalues --    0.37471   0.37579   0.37679   0.38165   0.38857
 Alpha virt. eigenvalues --    0.38962   0.39376   0.39928   0.40102   0.40234
 Alpha virt. eigenvalues --    0.40410   0.40604   0.40751   0.41036   0.41264
 Alpha virt. eigenvalues --    0.41714   0.41842   0.41976   0.42224   0.42448
 Alpha virt. eigenvalues --    0.42869   0.42964   0.43228   0.43458   0.43867
 Alpha virt. eigenvalues --    0.43898   0.43950   0.44172   0.44307   0.44716
 Alpha virt. eigenvalues --    0.44788   0.44874   0.45032   0.45437   0.45581
 Alpha virt. eigenvalues --    0.45998   0.46162   0.46266   0.46544   0.46586
 Alpha virt. eigenvalues --    0.46775   0.46984   0.47125   0.47537   0.47554
 Alpha virt. eigenvalues --    0.47857   0.48061   0.48218   0.48389   0.48455
 Alpha virt. eigenvalues --    0.48506   0.48736   0.48828   0.49082   0.49323
 Alpha virt. eigenvalues --    0.49646   0.50005   0.50246   0.50614   0.50818
 Alpha virt. eigenvalues --    0.51129   0.51222   0.51263   0.51465   0.51741
 Alpha virt. eigenvalues --    0.51801   0.51828   0.52148   0.52291   0.52505
 Alpha virt. eigenvalues --    0.52553   0.52921   0.53003   0.53307   0.53554
 Alpha virt. eigenvalues --    0.53614   0.53877   0.54055   0.54118   0.54179
 Alpha virt. eigenvalues --    0.54322   0.54530   0.54800   0.55205   0.55372
 Alpha virt. eigenvalues --    0.55602   0.55836   0.56008   0.56089   0.56117
 Alpha virt. eigenvalues --    0.56372   0.56447   0.56606   0.56817   0.56949
 Alpha virt. eigenvalues --    0.57270   0.57417   0.57501   0.57673   0.58098
 Alpha virt. eigenvalues --    0.58221   0.58422   0.58561   0.58747   0.58786
 Alpha virt. eigenvalues --    0.58971   0.59001   0.59392   0.59488   0.59603
 Alpha virt. eigenvalues --    0.59760   0.59961   0.60043   0.60141   0.60395
 Alpha virt. eigenvalues --    0.60446   0.60592   0.60800   0.60922   0.60973
 Alpha virt. eigenvalues --    0.61145   0.61365   0.61421   0.61461   0.61670
 Alpha virt. eigenvalues --    0.61864   0.62093   0.62151   0.62419   0.62473
 Alpha virt. eigenvalues --    0.62589   0.62807   0.62896   0.62928   0.63196
 Alpha virt. eigenvalues --    0.63372   0.63519   0.63581   0.63671   0.63903
 Alpha virt. eigenvalues --    0.64005   0.64228   0.64314   0.64466   0.64481
 Alpha virt. eigenvalues --    0.64581   0.64618   0.64818   0.65020   0.65147
 Alpha virt. eigenvalues --    0.65165   0.65248   0.65383   0.65520   0.65536
 Alpha virt. eigenvalues --    0.65676   0.65739   0.65900   0.66005   0.66165
 Alpha virt. eigenvalues --    0.66244   0.66331   0.66399   0.66513   0.66723
 Alpha virt. eigenvalues --    0.66857   0.66931   0.67074   0.67122   0.67251
 Alpha virt. eigenvalues --    0.67444   0.67560   0.67690   0.67825   0.67908
 Alpha virt. eigenvalues --    0.67914   0.68057   0.68104   0.68137   0.68178
 Alpha virt. eigenvalues --    0.68279   0.68391   0.68687   0.68768   0.68897
 Alpha virt. eigenvalues --    0.68938   0.69074   0.69140   0.69227   0.69274
 Alpha virt. eigenvalues --    0.69332   0.69407   0.69430   0.69651   0.69876
 Alpha virt. eigenvalues --    0.69960   0.70093   0.70169   0.70263   0.70292
 Alpha virt. eigenvalues --    0.70449   0.70539   0.70688   0.70795   0.70939
 Alpha virt. eigenvalues --    0.71073   0.71135   0.71358   0.71508   0.71703
 Alpha virt. eigenvalues --    0.71846   0.72174   0.72465   0.72530   0.72610
 Alpha virt. eigenvalues --    0.73014   0.73021   0.73262   0.73333   0.73444
 Alpha virt. eigenvalues --    0.73537   0.73647   0.74110   0.74307   0.74575
 Alpha virt. eigenvalues --    0.74817   0.74988   0.75083   0.75170   0.75345
 Alpha virt. eigenvalues --    0.75535   0.75731   0.75926   0.76104   0.76167
 Alpha virt. eigenvalues --    0.76519   0.76631   0.76674   0.77175   0.77364
 Alpha virt. eigenvalues --    0.77613   0.77778   0.77948   0.78084   0.78188
 Alpha virt. eigenvalues --    0.78434   0.78688   0.78874   0.79140   0.79363
 Alpha virt. eigenvalues --    0.79614   0.79718   0.80044   0.80299   0.80564
 Alpha virt. eigenvalues --    0.80758   0.81127   0.81433   0.81848   0.81977
 Alpha virt. eigenvalues --    0.82007   0.82478   0.82530   0.82691   0.83032
 Alpha virt. eigenvalues --    0.83555   0.83747   0.83986   0.84439   0.84483
 Alpha virt. eigenvalues --    0.84679   0.84858   0.85669   0.86067   0.86093
 Alpha virt. eigenvalues --    0.86630   0.86986   0.87584   0.87688   0.87817
 Alpha virt. eigenvalues --    0.88204   0.88580   0.88795   0.88914   0.89305
 Alpha virt. eigenvalues --    0.89699   0.89831   0.90204   0.90291   0.90625
 Alpha virt. eigenvalues --    0.90787   0.91053   0.91450   0.92046   0.92283
 Alpha virt. eigenvalues --    0.92687   0.92771   0.93055   0.93404   0.93857
 Alpha virt. eigenvalues --    0.94189   0.94265   0.94463   0.94771   0.94851
 Alpha virt. eigenvalues --    0.95036   0.95228   0.96020   0.96242   0.96763
 Alpha virt. eigenvalues --    0.96788   0.96941   0.97444   0.97688   0.97859
 Alpha virt. eigenvalues --    0.98050   0.98092   0.98713   0.98997   0.99123
 Alpha virt. eigenvalues --    0.99215   0.99784   0.99967   1.00038   1.00327
 Alpha virt. eigenvalues --    1.00774   1.00990   1.01589   1.01734   1.01956
 Alpha virt. eigenvalues --    1.02111   1.02437   1.02958   1.03406   1.03541
 Alpha virt. eigenvalues --    1.04109   1.04262   1.04635   1.04899   1.04973
 Alpha virt. eigenvalues --    1.05483   1.05718   1.06057   1.06217   1.06491
 Alpha virt. eigenvalues --    1.06637   1.06973   1.07154   1.07294   1.07507
 Alpha virt. eigenvalues --    1.07587   1.07968   1.08106   1.08380   1.08822
 Alpha virt. eigenvalues --    1.08833   1.09085   1.09354   1.09703   1.09936
 Alpha virt. eigenvalues --    1.10035   1.10486   1.10757   1.11402   1.11662
 Alpha virt. eigenvalues --    1.11731   1.12275   1.12735   1.12925   1.13077
 Alpha virt. eigenvalues --    1.13284   1.13601   1.13924   1.14242   1.14704
 Alpha virt. eigenvalues --    1.14835   1.15252   1.15371   1.15512   1.15598
 Alpha virt. eigenvalues --    1.16024   1.16131   1.16237   1.16821   1.16898
 Alpha virt. eigenvalues --    1.17139   1.17188   1.17455   1.17747   1.18047
 Alpha virt. eigenvalues --    1.18104   1.18413   1.18914   1.19036   1.19222
 Alpha virt. eigenvalues --    1.19384   1.19620   1.19887   1.20223   1.20585
 Alpha virt. eigenvalues --    1.20812   1.21330   1.21403   1.21612   1.21856
 Alpha virt. eigenvalues --    1.22267   1.22534   1.22969   1.23311   1.23336
 Alpha virt. eigenvalues --    1.23605   1.23816   1.23886   1.24339   1.24644
 Alpha virt. eigenvalues --    1.24892   1.25194   1.25626   1.25821   1.26123
 Alpha virt. eigenvalues --    1.26235   1.26299   1.26666   1.27178   1.27402
 Alpha virt. eigenvalues --    1.27593   1.28168   1.28404   1.28519   1.28741
 Alpha virt. eigenvalues --    1.28884   1.29216   1.29506   1.29612   1.30122
 Alpha virt. eigenvalues --    1.30364   1.30513   1.30742   1.31254   1.31473
 Alpha virt. eigenvalues --    1.31735   1.31908   1.32117   1.32506   1.32755
 Alpha virt. eigenvalues --    1.33005   1.33139   1.33410   1.33497   1.34012
 Alpha virt. eigenvalues --    1.34364   1.34625   1.34663   1.35206   1.35497
 Alpha virt. eigenvalues --    1.35592   1.36202   1.36366   1.36809   1.36991
 Alpha virt. eigenvalues --    1.37197   1.37739   1.38038   1.38711   1.38900
 Alpha virt. eigenvalues --    1.39382   1.39991   1.40045   1.40214   1.40651
 Alpha virt. eigenvalues --    1.41154   1.41252   1.41497   1.41805   1.42207
 Alpha virt. eigenvalues --    1.42411   1.42727   1.43021   1.43345   1.43816
 Alpha virt. eigenvalues --    1.44237   1.44286   1.44543   1.44936   1.44980
 Alpha virt. eigenvalues --    1.45159   1.45250   1.45378   1.45801   1.46118
 Alpha virt. eigenvalues --    1.46403   1.46652   1.46870   1.47843   1.48332
 Alpha virt. eigenvalues --    1.48391   1.48860   1.49042   1.49088   1.49209
 Alpha virt. eigenvalues --    1.49638   1.50161   1.50498   1.50579   1.50944
 Alpha virt. eigenvalues --    1.51379   1.51829   1.52437   1.52619   1.52895
 Alpha virt. eigenvalues --    1.53218   1.53574   1.53971   1.54065   1.54248
 Alpha virt. eigenvalues --    1.54610   1.55333   1.55467   1.55978   1.56185
 Alpha virt. eigenvalues --    1.56336   1.56760   1.57002   1.57139   1.57730
 Alpha virt. eigenvalues --    1.58219   1.58397   1.58499   1.58802   1.59381
 Alpha virt. eigenvalues --    1.59924   1.60211   1.60697   1.60824   1.61162
 Alpha virt. eigenvalues --    1.62077   1.62142   1.62282   1.62517   1.62590
 Alpha virt. eigenvalues --    1.63230   1.63382   1.63590   1.63888   1.64145
 Alpha virt. eigenvalues --    1.64977   1.65186   1.65290   1.65594   1.65895
 Alpha virt. eigenvalues --    1.66103   1.66507   1.66713   1.67181   1.67267
 Alpha virt. eigenvalues --    1.67720   1.67849   1.68010   1.68357   1.68773
 Alpha virt. eigenvalues --    1.68940   1.69232   1.69496   1.69514   1.70094
 Alpha virt. eigenvalues --    1.70334   1.71101   1.71350   1.71386   1.71510
 Alpha virt. eigenvalues --    1.71793   1.71885   1.72172   1.72438   1.72883
 Alpha virt. eigenvalues --    1.72961   1.73302   1.73486   1.73590   1.73687
 Alpha virt. eigenvalues --    1.73871   1.74075   1.74272   1.74506   1.74823
 Alpha virt. eigenvalues --    1.74973   1.75115   1.75522   1.75826   1.75878
 Alpha virt. eigenvalues --    1.76017   1.76069   1.76123   1.76754   1.76861
 Alpha virt. eigenvalues --    1.77098   1.77257   1.77394   1.77578   1.77915
 Alpha virt. eigenvalues --    1.78052   1.78095   1.78195   1.78314   1.78489
 Alpha virt. eigenvalues --    1.78693   1.78802   1.78922   1.79293   1.79462
 Alpha virt. eigenvalues --    1.79646   1.79885   1.79938   1.80037   1.80200
 Alpha virt. eigenvalues --    1.80322   1.80549   1.80637   1.80733   1.80881
 Alpha virt. eigenvalues --    1.81002   1.81155   1.81368   1.81490   1.81817
 Alpha virt. eigenvalues --    1.81892   1.82053   1.82230   1.82346   1.82416
 Alpha virt. eigenvalues --    1.82528   1.82749   1.82818   1.83019   1.83376
 Alpha virt. eigenvalues --    1.83515   1.83665   1.83853   1.84119   1.84167
 Alpha virt. eigenvalues --    1.84246   1.84650   1.84694   1.84895   1.85118
 Alpha virt. eigenvalues --    1.85354   1.85393   1.85506   1.85579   1.85675
 Alpha virt. eigenvalues --    1.86149   1.86456   1.86681   1.87020   1.87215
 Alpha virt. eigenvalues --    1.87287   1.87335   1.87584   1.87692   1.87787
 Alpha virt. eigenvalues --    1.88019   1.88342   1.88690   1.88741   1.88873
 Alpha virt. eigenvalues --    1.89149   1.89205   1.89341   1.89506   1.89744
 Alpha virt. eigenvalues --    1.90017   1.90370   1.90429   1.90516   1.90708
 Alpha virt. eigenvalues --    1.90935   1.91006   1.91248   1.91289   1.91594
 Alpha virt. eigenvalues --    1.92150   1.92286   1.92385   1.92530   1.92741
 Alpha virt. eigenvalues --    1.93011   1.93092   1.93217   1.93374   1.93490
 Alpha virt. eigenvalues --    1.94142   1.94335   1.94601   1.95010   1.95270
 Alpha virt. eigenvalues --    1.95301   1.95574   1.95709   1.95882   1.96007
 Alpha virt. eigenvalues --    1.96111   1.96381   1.96577   1.96785   1.96808
 Alpha virt. eigenvalues --    1.97269   1.97552   1.97570   1.97848   1.98066
 Alpha virt. eigenvalues --    1.98254   1.98761   1.98850   1.99170   1.99324
 Alpha virt. eigenvalues --    1.99478   1.99768   2.00143   2.00323   2.00630
 Alpha virt. eigenvalues --    2.00805   2.01026   2.01104   2.01190   2.01329
 Alpha virt. eigenvalues --    2.01746   2.01868   2.02598   2.02826   2.03296
 Alpha virt. eigenvalues --    2.03409   2.03532   2.03893   2.03985   2.04246
 Alpha virt. eigenvalues --    2.04674   2.04793   2.04920   2.05027   2.05169
 Alpha virt. eigenvalues --    2.05619   2.06042   2.06101   2.06729   2.07049
 Alpha virt. eigenvalues --    2.07472   2.07536   2.08031   2.08300   2.08852
 Alpha virt. eigenvalues --    2.08965   2.09219   2.09344   2.09615   2.10106
 Alpha virt. eigenvalues --    2.10265   2.10292   2.10556   2.11021   2.11312
 Alpha virt. eigenvalues --    2.11592   2.11940   2.11975   2.12381   2.12575
 Alpha virt. eigenvalues --    2.12978   2.13302   2.13640   2.14003   2.14061
 Alpha virt. eigenvalues --    2.14610   2.15015   2.15245   2.15634   2.15870
 Alpha virt. eigenvalues --    2.15961   2.16158   2.16183   2.16646   2.16768
 Alpha virt. eigenvalues --    2.16841   2.16980   2.17440   2.17782   2.17897
 Alpha virt. eigenvalues --    2.18281   2.18480   2.19193   2.19255   2.19561
 Alpha virt. eigenvalues --    2.19854   2.20116   2.20425   2.20684   2.20700
 Alpha virt. eigenvalues --    2.21115   2.21591   2.21856   2.22619   2.22677
 Alpha virt. eigenvalues --    2.23011   2.23462   2.24050   2.24612   2.24688
 Alpha virt. eigenvalues --    2.25031   2.25751   2.26196   2.26569   2.26956
 Alpha virt. eigenvalues --    2.27375   2.27572   2.27850   2.28162   2.28358
 Alpha virt. eigenvalues --    2.28851   2.29251   2.29571   2.29636   2.29813
 Alpha virt. eigenvalues --    2.30007   2.30497   2.30666   2.30807   2.30999
 Alpha virt. eigenvalues --    2.31485   2.31767   2.32323   2.32383   2.32760
 Alpha virt. eigenvalues --    2.33004   2.33188   2.33726   2.33848   2.34100
 Alpha virt. eigenvalues --    2.34404   2.34927   2.35199   2.35285   2.35590
 Alpha virt. eigenvalues --    2.35698   2.36674   2.36807   2.37118   2.37582
 Alpha virt. eigenvalues --    2.37613   2.38051   2.38204   2.38445   2.38563
 Alpha virt. eigenvalues --    2.39236   2.39307   2.39490   2.40065   2.40871
 Alpha virt. eigenvalues --    2.41266   2.41406   2.42064   2.42190   2.42359
 Alpha virt. eigenvalues --    2.42493   2.43063   2.43429   2.44020   2.44601
 Alpha virt. eigenvalues --    2.44646   2.44826   2.45046   2.45621   2.45923
 Alpha virt. eigenvalues --    2.45997   2.46290   2.46608   2.47038   2.47416
 Alpha virt. eigenvalues --    2.47789   2.47872   2.48168   2.48470   2.48955
 Alpha virt. eigenvalues --    2.49255   2.49478   2.50114   2.50279   2.50524
 Alpha virt. eigenvalues --    2.50680   2.50904   2.51800   2.52047   2.53034
 Alpha virt. eigenvalues --    2.53289   2.54151   2.54287   2.54790   2.55296
 Alpha virt. eigenvalues --    2.55903   2.56174   2.56311   2.56372   2.56789
 Alpha virt. eigenvalues --    2.56910   2.57417   2.57738   2.57922   2.58301
 Alpha virt. eigenvalues --    2.58457   2.58480   2.59341   2.59736   2.60044
 Alpha virt. eigenvalues --    2.60274   2.60367   2.60994   2.61304   2.61445
 Alpha virt. eigenvalues --    2.61701   2.61934   2.62044   2.62349   2.62956
 Alpha virt. eigenvalues --    2.63062   2.63389   2.63750   2.64128   2.64543
 Alpha virt. eigenvalues --    2.64716   2.64840   2.65245   2.65290   2.65367
 Alpha virt. eigenvalues --    2.65411   2.66126   2.66434   2.66961   2.67026
 Alpha virt. eigenvalues --    2.67315   2.67520   2.68165   2.68400   2.68810
 Alpha virt. eigenvalues --    2.69119   2.69133   2.69394   2.69426   2.69696
 Alpha virt. eigenvalues --    2.69810   2.69943   2.70193   2.70830   2.70887
 Alpha virt. eigenvalues --    2.70927   2.71046   2.71567   2.71959   2.72055
 Alpha virt. eigenvalues --    2.72649   2.73051   2.73223   2.73778   2.73880
 Alpha virt. eigenvalues --    2.74508   2.74797   2.75810   2.75998   2.76078
 Alpha virt. eigenvalues --    2.76352   2.76665   2.76702   2.77027   2.77361
 Alpha virt. eigenvalues --    2.77738   2.77989   2.78207   2.78731   2.79045
 Alpha virt. eigenvalues --    2.79133   2.79196   2.79618   2.79888   2.79969
 Alpha virt. eigenvalues --    2.80150   2.80631   2.80842   2.81335   2.81508
 Alpha virt. eigenvalues --    2.81723   2.81890   2.82333   2.82601   2.82720
 Alpha virt. eigenvalues --    2.83140   2.83453   2.83668   2.83950   2.84144
 Alpha virt. eigenvalues --    2.84525   2.84582   2.84721   2.85223   2.85313
 Alpha virt. eigenvalues --    2.85392   2.86408   2.87012   2.87252   2.87399
 Alpha virt. eigenvalues --    2.87497   2.87996   2.88214   2.89005   2.89257
 Alpha virt. eigenvalues --    2.89342   2.89480   2.89642   2.90176   2.90687
 Alpha virt. eigenvalues --    2.90875   2.90988   2.91282   2.91646   2.92510
 Alpha virt. eigenvalues --    2.92740   2.92828   2.93226   2.93430   2.93552
 Alpha virt. eigenvalues --    2.93784   2.94211   2.94299   2.94826   2.95005
 Alpha virt. eigenvalues --    2.95269   2.95777   2.95813   2.95991   2.96287
 Alpha virt. eigenvalues --    2.96549   2.96684   2.96740   2.97077   2.98099
 Alpha virt. eigenvalues --    2.98162   2.98403   2.98602   2.98818   2.99363
 Alpha virt. eigenvalues --    2.99644   2.99945   3.00582   3.01231   3.01310
 Alpha virt. eigenvalues --    3.01704   3.01800   3.01844   3.02199   3.02536
 Alpha virt. eigenvalues --    3.02594   3.02913   3.03038   3.03488   3.04132
 Alpha virt. eigenvalues --    3.04989   3.05329   3.05534   3.05644   3.06370
 Alpha virt. eigenvalues --    3.06965   3.07239   3.07718   3.07998   3.08324
 Alpha virt. eigenvalues --    3.08947   3.09478   3.09979   3.11245   3.11855
 Alpha virt. eigenvalues --    3.12079   3.12445   3.12549   3.12617   3.12817
 Alpha virt. eigenvalues --    3.13213   3.13340   3.14767   3.15081   3.16029
 Alpha virt. eigenvalues --    3.16090   3.16223   3.16660   3.16817   3.17301
 Alpha virt. eigenvalues --    3.18356   3.18557   3.18729   3.18807   3.19106
 Alpha virt. eigenvalues --    3.19408   3.19508   3.19867   3.20277   3.20738
 Alpha virt. eigenvalues --    3.20924   3.20999   3.21433   3.21703   3.21882
 Alpha virt. eigenvalues --    3.22175   3.22738   3.23123   3.23156   3.23757
 Alpha virt. eigenvalues --    3.24134   3.24245   3.24535   3.25070   3.25901
 Alpha virt. eigenvalues --    3.26648   3.27021   3.28327   3.28377   3.28652
 Alpha virt. eigenvalues --    3.29588   3.29963   3.31062   3.31491   3.33439
 Alpha virt. eigenvalues --    3.33617   3.35673   3.37037   3.37443   3.38191
 Alpha virt. eigenvalues --    3.39087   3.40633   3.44372   3.44868   3.48293
 Alpha virt. eigenvalues --    3.51273   3.52489   3.52853   3.54699   3.54757
 Alpha virt. eigenvalues --    3.55160   3.56173   3.57541   3.57899   3.59057
 Alpha virt. eigenvalues --    3.59297   3.59770   3.62393   3.62893   3.63411
 Alpha virt. eigenvalues --    3.64241   3.64741   3.65577   3.66806   3.67069
 Alpha virt. eigenvalues --    3.67388   3.67708   3.68123   3.68197   3.69412
 Alpha virt. eigenvalues --    3.69681   3.69864   3.70198   3.71073   3.71080
 Alpha virt. eigenvalues --    3.71282   3.71580   3.72513   3.73985   3.74480
 Alpha virt. eigenvalues --    3.76271   3.79442   3.80869   3.84243
          Condensed to atoms (all electrons):
 Mulliken charges:
               1
     1  C    0.066758
     2  C    0.001806
     3  O   -0.301580
     4  H    0.018069
     5  H    0.014901
     6  H    0.025294
     7  N   -0.133929
     8  C    0.107275
     9  C    0.085817
    10  O   -0.304976
    11  C    0.042194
    12  C    0.120456
    13  O   -0.413699
    14  O   -0.375059
    15  H    0.103261
    16  H   -0.035664
    17  H    0.004947
    18  H   -0.007728
    19  N   -0.118936
    20  C    0.074867
    21  C    0.081390
    22  O   -0.222856
    23  C    0.108930
    24  C    0.016688
    25  C   -0.072512
    26  C    0.057285
    27  N    0.076009
    28  H    0.109223
    29  H   -0.006067
    30  H   -0.004761
    31  H    0.041216
    32  H    0.027852
    33  H   -0.019434
    34  H    0.040209
    35  H    0.040080
    36  H    0.063615
    37  H    0.090384
    38  H    0.177867
    39  H    0.181282
    40  H    0.192229
    41  N   -0.141792
    42  C    0.168121
    43  C    0.053585
    44  O   -0.273016
    45  C    0.055014
    46  C    0.080858
    47  O   -0.420941
    48  O   -0.432279
    49  H    0.096278
    50  H    0.026687
    51  H    0.027598
    52  H    0.023119
    53  N   -0.132859
    54  C    0.231778
    55  C    0.032476
    56  O   -0.264446
    57  H    0.127154
    58  H    0.037018
    59  H    0.036252
    60  N   -0.114097
    61  C    0.042259
    62  C    0.083771
    63  O   -0.272202
    64  C    0.150329
    65  C    0.013499
    66  N   -0.029139
    67  O   -0.281131
    68  H    0.120555
    69  H   -0.011007
    70  H    0.004722
    71  H    0.005696
    72  H    0.116926
    73  H    0.152384
    74  N   -0.103139
    75  C    0.182506
    76  C    0.050147
    77  O   -0.259532
    78  H    0.117226
    79  H    0.013810
    80  H    0.035196
    81  N   -0.115554
    82  C    0.118457
    83  C    0.096657
    84  O   -0.306000
    85  C    0.108122
    86  C   -0.001848
    87  C    0.033897
    88  C   -0.015944
    89  C    0.000903
    90  C   -0.037092
    91  C    0.139096
    92  O   -0.206894
    93  H    0.125267
    94  H    0.014446
    95  H   -0.010091
    96  H    0.021459
    97  H   -0.029080
    98  H   -0.040480
    99  H   -0.020895
   100  H   -0.046614
   101  H    0.176948
   102  N   -0.141696
   103  C    0.171038
   104  C    0.051004
   105  O   -0.296557
   106  C   -0.112132
   107  C    0.036738
   108  C    0.083337
   109  C   -0.049954
   110  H    0.149821
   111  H    0.021212
   112  H    0.001202
   113  H    0.002182
   114  H   -0.008540
   115  H   -0.016194
   116  H    0.019868
   117  H    0.008004
   118  H    0.013318
   119  H    0.010143
   120  H    0.036927
   121  N   -0.126803
   122  C    0.033315
   123  C    0.060370
   124  O   -0.270429
   125  C    0.268540
   126  O   -0.310262
   127  H    0.126825
   128  H    0.017786
   129  H   -0.004202
   130  H    0.021033
   131  H    0.160528
   132  N   -0.120882
   133  C    0.068747
   134  C    0.057776
   135  O   -0.270809
   136  C    0.074356
   137  H    0.137160
   138  H    0.015383
   139  H   -0.009277
   140  H    0.039867
   141  H    0.009493
   142  N   -0.131221
   143  C    0.082033
   144  C    0.039513
   145  O   -0.271125
   146  C    0.082696
   147  H    0.136837
   148  H   -0.005648
   149  H    0.036135
   150  H   -0.010834
   151  H    0.041605
   152  N   -0.153783
   153  C    0.121177
   154  C    0.043275
   155  O   -0.305237
   156  C    0.031047
   157  C    0.126632
   158  C    0.091299
   159  O   -0.406949
   160  O   -0.460652
   161  H    0.121497
   162  H    0.002735
   163  H    0.004828
   164  H    0.020488
   165  H   -0.035718
   166  H   -0.021271
   167  N   -0.120830
   168  C    0.140587
   169  H    0.028513
   170  H    0.033851
   171  H    0.021208
   172  H    0.118189
   173  Ca   1.297118
   174  O   -0.328629
   175  H    0.169999
   176  H    0.195544
 Sum of Mulliken charges =  -0.00000
 Mulliken charges with hydrogens summed into heavy atoms:
               1
     1  C    0.125022
     2  C    0.001806
     3  O   -0.301580
     7  N   -0.030668
     8  C    0.071611
     9  C    0.085817
    10  O   -0.304976
    11  C    0.039414
    12  C    0.120456
    13  O   -0.413699
    14  O   -0.375059
    19  N   -0.009712
    20  C    0.068800
    21  C    0.081390
    22  O   -0.222856
    23  C    0.145385
    24  C    0.025106
    25  C    0.007777
    26  C    0.211284
    27  N    0.627388
    41  N   -0.045514
    42  C    0.194809
    43  C    0.053585
    44  O   -0.273016
    45  C    0.105732
    46  C    0.080858
    47  O   -0.420941
    48  O   -0.432279
    53  N   -0.005705
    54  C    0.305048
    55  C    0.032476
    56  O   -0.264446
    60  N    0.006458
    61  C    0.031253
    62  C    0.083771
    63  O   -0.272202
    64  C    0.160748
    65  C    0.013499
    66  N    0.240171
    67  O   -0.281131
    74  N    0.014087
    75  C    0.231512
    76  C    0.050147
    77  O   -0.259532
    81  N    0.009712
    82  C    0.132903
    83  C    0.096657
    84  O   -0.306000
    85  C    0.119489
    86  C   -0.001848
    87  C    0.004817
    88  C   -0.056424
    89  C   -0.019992
    90  C   -0.083707
    91  C    0.139096
    92  O   -0.029946
   102  N    0.008124
   103  C    0.192250
   104  C    0.051004
   105  O   -0.296557
   106  C   -0.110930
   107  C    0.030381
   108  C    0.095015
   109  C    0.010433
   121  N    0.000022
   122  C    0.051101
   123  C    0.060370
   124  O   -0.270429
   125  C    0.285371
   126  O   -0.149734
   132  N    0.016278
   133  C    0.084130
   134  C    0.057776
   135  O   -0.270809
   136  C    0.114440
   142  N    0.005616
   143  C    0.076385
   144  C    0.039513
   145  O   -0.271125
   146  C    0.149603
   152  N   -0.032285
   153  C    0.123912
   154  C    0.043275
   155  O   -0.305237
   156  C    0.056363
   157  C    0.069643
   158  C    0.091299
   159  O   -0.406949
   160  O   -0.460652
   167  N   -0.002641
   168  C    0.224159
   173  Ca   1.297118
   174  O    0.036915
 DipInt: DoE/N= T F RetVal/Mat= T F Init=T NMatP=  1 IDeriv=0 Min/MaxMlt=  0  4
 Entering OneElI...
 OneElI was handed  1333951383 working-precision words.
 Multipole integrals L=0 to 4 MinM= 0 MaxM= 0.
 Requested accuracy = 0.1000D-12
 ShPair: Thresh= 1.00D-13 NBox=     0 BxSize= 0.00D+00 RnKept= 3.57D+01
         NSMCal=               327645 NSMKep=              129949
 PrmmSu-InSpLW:  IPartL=    0 NPrtUS=    1 NPrtUL=    1 DoSpLW=F IThBeg=    0 IThEnd=    0 NThAct=    1.
 PrsmSu:  NPrtUS=   1 ThrOK=F IAlg=1 NPAlg=1 LenDen=           0 ISkipM=0 DoSpLW=F IThBeg=    0 IThEnd=    0.
 Prism:   IPart=     0 DynPar=F LinDyn=F Incr=         512.
 PRISM was handed  1325095867 working-precision words and129949 shell-pairs
 IPart=  0 NShTot=      129949 NBatch=         301 AvBLen=       431.7
 PrsmSu-ThDecC:  IPartSL=    0    0 NPrtUSL=    1    1 IThBeg=    0 IThEnd=    0 CPU=   -1 GPU=   -1 NThAct=    1.
 PrSmSu:  NxtVal=            513.
 Electronic moments (au):
       -716.00000000         -1.61398225          9.26013358          6.39458156
     -73893.10305594     -32853.62401600     -24483.16691736        257.65782782
         33.93523144        -34.60148169     -55925.76504044     -97427.87769234
     -20909.02719645      43432.48512658     169378.45214763     221718.41575139
     -62279.59004121      56641.95394461      53250.17122951     -23203.53804001
  -14294054.64424611   -2958924.94264515   -2158362.15319916     -11013.27694944
     866281.54343617      11737.49374084     174552.15406444     250553.80814457
    -135070.31943176   -3230958.23645376   -2586628.69463536    -933873.88500465
   -1250798.39768018    -217302.38452381         -9.29847351
 Electronic spatial extent (au):  <R**2>=         131229.8940
 DipInt: DoE/N= F T RetVal/Mat= T F Init=T NMatP=  1 IDeriv=0 Min/MaxMlt=  0  4
 Nuclear    moments (au):
        716.00000000          0.00000000         -0.00000000          0.00000000
      73516.36553994      32386.21630861      24144.33740006          0.00000000
          0.00000000         -0.00000000      55309.96256252      97952.41434796
      21828.01809534     -44004.57060225    -166482.04514513    -221202.87575256
      62184.33814753     -56412.71159943     -52638.18131443      22866.69467159
   14057112.55397510    2835529.03904605    2086122.38394508      86990.64057383
    -851776.25856990       6386.55598108    -177766.46748243    -246495.92631929
     135245.71967623    3156643.01313915    2531537.13265107     905693.75527779
    1239940.67226967     220135.86380321       6675.99556129
 Total      moments (au):
         -0.00000000         -1.61398225          9.26013358          6.39458156
       -376.73751600       -467.40770739       -338.82951731        257.65782782
         33.93523144        -34.60148169       -615.80247793        524.53665561
        918.99089889       -572.08547568       2896.40700249        515.53999883
        -95.25189368        229.24234518        611.98991508       -336.84336842
    -236942.09027101    -123395.90359910     -72239.76925408      75977.36362440
      14505.28486627      18124.04972192      -3214.31341800       4057.88182528
        175.40024447     -74315.22331460     -55091.56198428     -28180.12972687
     -10857.72541051       2833.47927940       6666.69708777
 Traceless Quadrup. (au):
         17.58739757        -73.08279383         55.49539626        257.65782782
         33.93523144        -34.60148169
 Charge=             -0.0000 electrons
 Dipole moment (field-independent basis, Debye):
    X=             -4.1023    Y=             23.5369    Z=             16.2534  Tot=             28.8962
 Quadrupole moment (field-independent basis, Debye-Ang):
   XX=           -506.7249   YY=           -628.6794   ZZ=           -455.7373
   XY=            346.5586   XZ=             45.6440   YZ=            -46.5402
 Traceless Quadrupole moment (field-independent basis, Debye-Ang):
   XX=             23.6557   YY=            -98.2989   ZZ=             74.6432
   XY=            346.5586   XZ=             45.6440   YZ=            -46.5402
 Octapole moment (field-independent basis, Debye-Ang**2):
  XXX=           -438.3045  YYY=            373.3450  ZZZ=            654.1023  XYY=           -407.1884
  XXY=           2061.5509  XXZ=            366.9415  XZZ=            -67.7966  YZZ=            163.1659
  YYZ=            435.5908  XYZ=           -239.7521
 Hexadecapole moment (field-independent basis, Debye-Ang**3):
 XXXX=         -89243.7529 YYYY=         -46476.8143 ZZZZ=         -27208.9611 XXXY=          28616.7184
 XXXZ=           5463.3858 YYYX=           6826.3862 YYYZ=          -1210.6646 ZZZX=           1528.3929
 ZZZY=             66.0641 XXYY=         -27990.6766 XXZZ=         -20750.1240 YYZZ=         -10613.9881
 XXYZ=          -4089.5400 YYXZ=           1067.2242 ZZXY=           2510.9978
 N-N= 1.930835347983D+04 E-N=-5.109623568298D+04  KE= 5.290509755457D+03
 Leave Link  601 at Tue Sep 17 10:25:38 2019, MaxMem=  1342177280 cpu:              40.6 elap:               1.1
 FitSet:  NAtFit=   176 NAtPot=   176 NAtFrz=     0 MDM=   180 TotChg=   0.00000
 Merz-Kollman atomic radii used.
 Read replacement radii for each type of atom:
 Rad(20) =   1.700000000000D+00
 Atom Element Radius
    1     6    1.50
    2     6    1.50
    3     8    1.40
    4     1    1.20
    5     1    1.20
    6     1    1.20
    7     7    1.50
    8     6    1.50
    9     6    1.50
   10     8    1.40
   11     6    1.50
   12     6    1.50
   13     8    1.40
   14     8    1.40
   15     1    1.20
   16     1    1.20
   17     1    1.20
   18     1    1.20
   19     7    1.50
   20     6    1.50
   21     6    1.50
   22     8    1.40
   23     6    1.50
   24     6    1.50
   25     6    1.50
   26     6    1.50
   27     7    1.50
   28     1    1.20
   29     1    1.20
   30     1    1.20
   31     1    1.20
   32     1    1.20
   33     1    1.20
   34     1    1.20
   35     1    1.20
   36     1    1.20
   37     1    1.20
   38     1    1.20
   39     1    1.20
   40     1    1.20
   41     7    1.50
   42     6    1.50
   43     6    1.50
   44     8    1.40
   45     6    1.50
   46     6    1.50
   47     8    1.40
   48     8    1.40
   49     1    1.20
   50     1    1.20
   51     1    1.20
   52     1    1.20
   53     7    1.50
   54     6    1.50
   55     6    1.50
   56     8    1.40
   57     1    1.20
   58     1    1.20
   59     1    1.20
   60     7    1.50
   61     6    1.50
   62     6    1.50
   63     8    1.40
   64     6    1.50
   65     6    1.50
   66     7    1.50
   67     8    1.40
   68     1    1.20
   69     1    1.20
   70     1    1.20
   71     1    1.20
   72     1    1.20
   73     1    1.20
   74     7    1.50
   75     6    1.50
   76     6    1.50
   77     8    1.40
   78     1    1.20
   79     1    1.20
   80     1    1.20
   81     7    1.50
   82     6    1.50
   83     6    1.50
   84     8    1.40
   85     6    1.50
   86     6    1.50
   87     6    1.50
   88     6    1.50
   89     6    1.50
   90     6    1.50
   91     6    1.50
   92     8    1.40
   93     1    1.20
   94     1    1.20
   95     1    1.20
   96     1    1.20
   97     1    1.20
   98     1    1.20
   99     1    1.20
  100     1    1.20
  101     1    1.20
[...]
 **** Fit      -0.001493
 **** Fit      -0.002450
 **** Fit      -0.003274
 **** Fit      -0.003867
 **** Fit      -0.004158
 **** Fit      -0.004124
 **** Fit      -0.003788
 **** Fit      -0.003202
 **** Fit      -0.002439
 **** Fit      -0.001567
 **** Fit       0.000397
 **** Fit      -0.000573
 **** Fit      -0.001378
 **** Fit      -0.001984
 **** Fit      -0.002322
 **** Fit      -0.002345
 **** Fit      -0.002054
 **** Fit      -0.001484
 **** Fit      -0.000698
 **** Fit       0.000263
 **** Fit       0.000574
 **** Fit      -0.000203
 **** Fit      -0.000704
 **** Fit      -0.000871
 **** Fit      -0.000669
 **** Fit      -0.000119
 **** Fit       0.000723
 **** Fit       0.001114
 **** Fit       0.000537
 **** Fit       0.000478
 **** Fit       0.000963
 **** Fit       0.001696
 **** Fit       0.001935
 **** Fit       0.002869
 **** Fit       0.001450
 **** Fit      -0.000797
 **** Fit      -0.003713
 **** Fit       0.003519
 **** Fit       0.003544
 **** Fit       0.003010
 **** Fit       0.001838
 **** Fit      -0.000037
 **** Fit      -0.002606
 **** Fit      -0.005676
 **** Fit      -0.008688
 **** Fit       0.003908
 **** Fit       0.003923
 **** Fit       0.003542
 **** Fit       0.002704
 **** Fit       0.001356
 **** Fit      -0.000521
 **** Fit      -0.002865
 **** Fit      -0.005451
 **** Fit      -0.007803
 **** Fit      -0.009226
 **** Fit      -0.009179
 **** Fit       0.004386
 **** Fit       0.004343
 **** Fit       0.004007
 **** Fit       0.003330
 **** Fit       0.002276
 **** Fit       0.000838
 **** Fit      -0.000935
 **** Fit      -0.002896
 **** Fit      -0.004759
 **** Fit      -0.006108
 **** Fit      -0.006553
 **** Fit      -0.006046
 **** Fit       0.004797
 **** Fit       0.004823
 **** Fit       0.004649
 **** Fit       0.004222
 **** Fit       0.003506
 **** Fit       0.002489
 **** Fit       0.001198
 **** Fit      -0.000274
 **** Fit      -0.001747
 **** Fit      -0.002957
 **** Fit      -0.003624
 **** Fit      -0.003625
 **** Fit      -0.003152
 **** Fit       0.005218
 **** Fit       0.005222
 **** Fit       0.005103
 **** Fit       0.004794
 **** Fit       0.004257
 **** Fit       0.003477
 **** Fit       0.002482
 **** Fit       0.001350
 **** Fit       0.000224
 **** Fit      -0.000700
 **** Fit      -0.001240
 **** Fit      -0.001339
 **** Fit      -0.001147
 **** Fit      -0.000945
 **** Fit       0.005570
 **** Fit       0.005467
 **** Fit       0.005244
 **** Fit       0.004852
 **** Fit       0.004272
 **** Fit       0.003521
 **** Fit       0.002662
 **** Fit       0.001801
 **** Fit       0.001077
 **** Fit       0.000605
 **** Fit       0.000413
 **** Fit       0.000403
 **** Fit       0.000429
 **** Fit       0.005824
 **** Fit       0.005678
 **** Fit       0.005436
 **** Fit       0.005046
 **** Fit       0.004497
 **** Fit       0.003826
 **** Fit       0.003113
 **** Fit       0.002471
 **** Fit       0.002000
 **** Fit       0.001729
 **** Fit       0.001602
 **** Fit       0.001550
 **** Fit       0.005987
 **** Fit       0.005803
 **** Fit       0.005546
 **** Fit       0.005164
 **** Fit       0.004655
 **** Fit       0.004072
 **** Fit       0.003505
 **** Fit       0.003044
 **** Fit       0.002732
 **** Fit       0.002555
 **** Fit       0.006012
 **** Fit       0.005788
 **** Fit       0.005482
 **** Fit       0.005059
 **** Fit       0.004554
 **** Fit       0.004056
 **** Fit       0.003658
 **** Fit       0.003412
 **** Fit       0.005883
 **** Fit       0.005596
 **** Fit       0.005185
 **** Fit       0.004700
 **** Fit       0.004285
 **** Fit       0.004088
 **** Fit       0.005635
 **** Fit       0.005244
 **** Fit       0.004808
 **** Fit       0.005272
 **** Fit       0.007796
 **** Fit       0.004375
 **** Fit      -0.000884
 **** Fit       0.003974
 **** Fit      -0.000122
 **** Fit      -0.006506
 **** Fit      -0.000038
 **** Fit      -0.005382
 **** Fit      -0.001627
 **** Fit      -0.007307
 **** Fit      -0.003482
 **** Fit      -0.009631
 **** Fit      -0.008786
 **** Fit       0.065485
 **** Fit       0.065195
 **** Fit       0.068927
 **** Fit       0.068881
 **** Fit       0.066024
 **** Fit       0.061534
 **** Fit       0.060705
 **** Fit       0.064980
 **** Fit       0.069480
 **** Fit       0.071817
 **** Fit       0.072079
 **** Fit       0.070938
 **** Fit       0.069236
 **** Fit       0.053442
 **** Fit       0.054500
 **** Fit       0.059245
 **** Fit       0.064745
 **** Fit       0.069526
 **** Fit       0.072642
 **** Fit       0.074125
 **** Fit       0.074207
 **** Fit       0.073246
 **** Fit       0.071717
 **** Fit       0.070228
 **** Fit       0.044364
 **** Fit       0.046786
 **** Fit       0.052136
 **** Fit       0.058640
 **** Fit       0.064450
 **** Fit       0.069369
 **** Fit       0.072844
 **** Fit       0.074948
 **** Fit       0.075831
 **** Fit       0.075680
 **** Fit       0.074700
 **** Fit       0.073131
 **** Fit       0.071294
 **** Fit       0.069636
 **** Fit       0.068782
 **** Fit       0.033726
 **** Fit       0.037387
 **** Fit       0.043607
 **** Fit       0.050962
 **** Fit       0.058184
 **** Fit       0.064090
 **** Fit       0.069205
 **** Fit       0.072912
 **** Fit       0.075328
 **** Fit       0.076607
 **** Fit       0.076906
 **** Fit       0.076372
 **** Fit       0.075143
 **** Fit       0.073367
 **** Fit       0.071232
 **** Fit       0.069013
 **** Fit       0.067117
 **** Fit       0.066168
 **** Fit       0.032251
 **** Fit       0.040946
 **** Fit       0.049670
 **** Fit       0.057532
 **** Fit       0.063675
 **** Fit       0.068869
 **** Fit       0.072686
 **** Fit       0.075277
 **** Fit       0.076799
 **** Fit       0.077402
 **** Fit       0.077220
 **** Fit       0.076360
 **** Fit       0.074911
 **** Fit       0.072955
 **** Fit       0.070596
 **** Fit       0.067990
 **** Fit       0.065377
 **** Fit       0.063111
 **** Fit       0.061733
 **** Fit       0.039167
 **** Fit       0.048771
 **** Fit       0.056988
 **** Fit       0.063225
 **** Fit       0.068510
 **** Fit       0.072389
 **** Fit       0.075043
 **** Fit       0.076644
 **** Fit       0.077350
 **** Fit       0.077295
 **** Fit       0.076592
 **** Fit       0.075316
 **** Fit       0.073522
 **** Fit       0.071247
 **** Fit       0.068546
 **** Fit       0.065516
 **** Fit       0.062333
 **** Fit       0.059262
 **** Fit       0.056667
 **** Fit       0.055064
 **** Fit       0.037291
 **** Fit       0.047735
 **** Fit       0.056353
 **** Fit       0.062760
 **** Fit       0.068009
 **** Fit       0.071850
 **** Fit       0.074480
 **** Fit       0.076076
 **** Fit       0.076799
 **** Fit       0.076792
 **** Fit       0.076170
 **** Fit       0.075021
 **** Fit       0.073394
 **** Fit       0.071304
 **** Fit       0.068749
 **** Fit       0.065733
 **** Fit       0.062303
 **** Fit       0.058583
 **** Fit       0.054787
 **** Fit       0.051210
 **** Fit       0.048191
 **** Fit       0.046119
 **** Fit       0.036261
 **** Fit       0.047135
 **** Fit       0.055883
 **** Fit       0.062293
 **** Fit       0.067384
 **** Fit       0.071090
 **** Fit       0.073610
 **** Fit       0.075119
 **** Fit       0.075777
 **** Fit       0.075730
 **** Fit       0.075102
 **** Fit       0.073995
 **** Fit       0.072471
 **** Fit       0.070553
 **** Fit       0.068223
 **** Fit       0.065435
 **** Fit       0.062140
 **** Fit       0.058330
 **** Fit       0.054078
 **** Fit       0.049566
 **** Fit       0.045082
 **** Fit       0.040959
 **** Fit       0.037488
 **** Fit       0.036101
 **** Fit       0.046973
 **** Fit       0.055585
 **** Fit       0.061829
 **** Fit       0.066814
 **** Fit       0.070356
 **** Fit       0.072664
 **** Fit       0.073924
 **** Fit       0.074310
 **** Fit       0.073981
 **** Fit       0.073086
 **** Fit       0.071745
 **** Fit       0.070043
 **** Fit       0.068014
 **** Fit       0.065631
 **** Fit       0.062813
 **** Fit       0.059443
 **** Fit       0.055408
 **** Fit       0.050668
 **** Fit       0.045319
 **** Fit       0.039638
 **** Fit       0.034059
 **** Fit       0.029050
 **** Fit       0.024937
 **** Fit       0.035281
 **** Fit       0.046448
 **** Fit       0.055149
 **** Fit       0.061353
 **** Fit       0.066077
 **** Fit       0.069333
 **** Fit       0.071324
 **** Fit       0.072238
 **** Fit       0.072254
 **** Fit       0.071550
 **** Fit       0.070291
 **** Fit       0.068630
 **** Fit       0.066681
 **** Fit       0.064508
 **** Fit       0.062097
 **** Fit       0.059352
 **** Fit       0.056092
 **** Fit       0.052093
 **** Fit       0.047147
 **** Fit       0.041171
 **** Fit       0.035462
 **** Fit       0.046438
 **** Fit       0.054915
 **** Fit       0.060830
 **** Fit       0.065211
 **** Fit       0.068070
 **** Fit       0.069603
 **** Fit       0.070001
 **** Fit       0.069455
 **** Fit       0.068163
 **** Fit       0.066327
 **** Fit       0.064139
 **** Fit       0.061763
 **** Fit       0.059306
 **** Fit       0.056780
 **** Fit       0.054072
 **** Fit       0.050931
 **** Fit       0.046983
 **** Fit       0.035862
 **** Fit       0.046520
 **** Fit       0.054699
 **** Fit       0.060194
 **** Fit       0.064063
 **** Fit       0.066375
 **** Fit       0.067308
 **** Fit       0.067041
 **** Fit       0.065774
 **** Fit       0.063726
 **** Fit       0.061135
 **** Fit       0.058247
 **** Fit       0.055297
 **** Fit       0.052468
 **** Fit       0.049842
 **** Fit       0.047334
 **** Fit       0.037106
 **** Fit       0.046997
 **** Fit       0.054583
 **** Fit       0.059339
 **** Fit       0.062621
 **** Fit       0.064204
 **** Fit       0.064246
 **** Fit       0.062935
 **** Fit       0.060499
 **** Fit       0.057210
 **** Fit       0.053383
 **** Fit       0.049376
 **** Fit       0.045559
 **** Fit       0.037734
 **** Fit       0.047080
 **** Fit       0.054211
 **** Fit       0.058105
 **** Fit       0.060575
 **** Fit       0.061180
 **** Fit       0.060049
 **** Fit       0.057368
 **** Fit       0.053388
 **** Fit       0.048436
 **** Fit       0.038845
 **** Fit       0.047283
 **** Fit       0.053690
 **** Fit       0.056260
 **** Fit       0.057681
 **** Fit       0.056947
 **** Fit       0.054150
 **** Fit       0.049475
 **** Fit       0.039543
 **** Fit       0.047059
 **** Fit       0.052689
 **** Fit       0.053476
 **** Fit       0.053524
 **** Fit       0.051035
 **** Fit       0.039993
 **** Fit       0.046371
 **** Fit       0.051002
 **** Fit       0.049278
 **** Fit       0.047447
 **** Fit       0.044310
 **** Fit       0.048045
 **** Fit       0.040845
 **** Fit       0.039484
 **** Fit       0.022632
 **** Fit       0.030058
 **** Fit       0.039399
 **** Fit       0.006792
 **** Fit       0.010769
 **** Fit       0.017443
 **** Fit       0.027222
 **** Fit      -0.002770
 **** Fit       0.042855
 **** Fit       0.030519
 **** Fit       0.024614
 **** Fit       0.020991
 **** Fit       0.023761
 **** Fit       0.016783
 **** Fit       0.012760
 **** Fit       0.010657
 **** Fit       0.009837
 **** Fit       0.009980
 **** Fit       0.011022
 **** Fit       0.013141
 **** Fit       0.002092
 **** Fit       0.001021
 **** Fit       0.001028
 **** Fit       0.001797
 **** Fit       0.003325
 **** Fit       0.005905
 **** Fit      -0.008923
 **** Fit      -0.007370
 **** Fit      -0.005476
 **** Fit      -0.002987
 **** Fit       0.000682
 **** Fit      -0.017859
 **** Fit      -0.014642
 **** Fit      -0.011566
 **** Fit      -0.008037
 **** Fit      -0.020781
 **** Fit      -0.016209
 **** Fit      -0.011175
 **** Fit      -0.021845
 **** Fit      -0.015089
 **** Fit       0.039021
 **** Fit       0.039375
 **** Fit       0.041787
 **** Fit       0.040908
 **** Fit       0.038582
 **** Fit       0.036452
 **** Fit       0.036372
 **** Fit       0.039716
 **** Fit       0.043439
 **** Fit       0.044935
 **** Fit       0.044104
 **** Fit       0.042096
 **** Fit       0.039956
 **** Fit       0.037998
 **** Fit       0.036010
 **** Fit       0.033929
 **** Fit       0.032489
 **** Fit       0.032861
 **** Fit       0.035536
 **** Fit       0.040138
 **** Fit       0.044970
 **** Fit       0.048033
 **** Fit       0.048712
 **** Fit       0.047420
 **** Fit       0.045100
 **** Fit       0.042610
 **** Fit       0.040436
 **** Fit       0.038693
 **** Fit       0.037215
 **** Fit       0.035663
 **** Fit       0.033703
 **** Fit       0.031316
 **** Fit       0.029058
 **** Fit       0.027840
 **** Fit       0.028340
 **** Fit       0.030768
 **** Fit       0.034947
 **** Fit       0.040764
 **** Fit       0.047172
 **** Fit       0.051823
 **** Fit       0.053812
 **** Fit       0.053202
 **** Fit       0.050791
 **** Fit       0.047578
 **** Fit       0.044357
 **** Fit       0.041586
 **** Fit       0.039430
 **** Fit       0.037855
 **** Fit       0.036692
 **** Fit       0.035649
 **** Fit       0.034333
 **** Fit       0.032351
 **** Fit       0.029543
 **** Fit       0.026277
 **** Fit       0.023460
 **** Fit       0.022025
 **** Fit       0.022371
 **** Fit       0.024508
 **** Fit       0.028445
 **** Fit       0.034081
 **** Fit       0.041777
 **** Fit       0.050557
 **** Fit       0.057336
 **** Fit       0.060805
 **** Fit       0.060766
 **** Fit       0.058022
 **** Fit       0.053805
 **** Fit       0.049227
 **** Fit       0.045024
 **** Fit       0.041558
 **** Fit       0.038924
 **** Fit       0.037070
 **** Fit       0.035866
 **** Fit       0.035116
 **** Fit       0.034537
 **** Fit       0.033713
 **** Fit       0.032126
 **** Fit       0.029314
 **** Fit       0.025208
 **** Fit       0.014670
 **** Fit       0.016519
 **** Fit       0.019976
 **** Fit       0.025373
 **** Fit       0.032863
 **** Fit       0.068842
 **** Fit       0.063292
 **** Fit       0.056861
 **** Fit       0.050666
 **** Fit       0.045318
 **** Fit       0.041044
 **** Fit       0.037839
 **** Fit       0.035591
 **** Fit       0.034157
 **** Fit       0.033388
 **** Fit       0.033116
 **** Fit       0.033097
 **** Fit       0.032935
 **** Fit       0.032032
 **** Fit       0.029680
 **** Fit       0.065086
 **** Fit       0.055787
 **** Fit       0.047942
 **** Fit       0.041782
 **** Fit       0.037213
 **** Fit       0.034005
 **** Fit       0.031918
 **** Fit       0.030752
 **** Fit       0.030354
 **** Fit       0.030589
 **** Fit       0.031260
 **** Fit       0.031970
 **** Fit       0.052001
 **** Fit       0.043081
 **** Fit       0.036592
 **** Fit       0.032079
 **** Fit       0.029107
 **** Fit       0.027334
 **** Fit       0.026531
 **** Fit       0.026571
 **** Fit       0.027393
 **** Fit       0.028920
 **** Fit       0.028090
 **** Fit       0.024513
 **** Fit       0.022436
 **** Fit       0.021498
 **** Fit       0.021522
 **** Fit       0.022481
 **** Fit       0.024463
 -----------------------------------------------------------------
 Leave Link  602 at Tue Sep 17 10:25:41 2019, MaxMem=  1342177280 cpu:             123.8 elap:               2.6

 Test job not archived.
 1\1\GINC-C489-081\SP\RB3LYP\SVP\C54H83Ca1N15O23\PENGZHI\17-Sep-2019\0\
 \#b3lyp/svp scf=(tight,noincore) Test #IOP(5/87=12) Density=Current Po
 p=(MK,readradii) iop(6/33=2) iop(6/42=6)\\Ng-293_loop3_33.0\\0,1\C,0,4
 1.4,76.53,80.799\C,0,41.56,76.02,79.379\O,0,42.31,76.58,78.589\H,0,40.
 344,76.524,81.07\H,0,41.953,75.885,81.482\H,0,41.786,77.547,80.866\N,0
 ,40.84,74.98,78.959\C,0,40.57,74.75,77.549\C,0,40.31,73.28,77.229\O,0,
 39.8,72.56,78.079\C,0,39.44,75.68,77.129\C,0,39.17,75.9,75.649\O,0,39.
 79,75.14,74.879\O,0,38.41,76.87,75.399\H,0,40.21,74.51,79.599\H,0,41.4
 9,75.02,77.029\H,0,39.71,76.66,77.539\H,0,38.55,75.28,77.609\N,0,40.78
 ,72.8,76.079\C,0,40.66,71.44,75.599\C,0,39.18,71.13,75.449\O,0,38.25,7
 1.9,75.679\C,0,41.33,70.39,76.479\C,0,42.85,70.52,76.429\C,0,43.54,70.
 65,75.079\C,0,45.06,70.61,75.189\N,0,45.55,71.82,75.879\H,0,40.97,73.5
 7,75.449\H,0,41.09,71.41,74.609\H,0,41.1,69.44,76.009\H,0,40.98,70.38,
 77.509\H,0,43.26,69.65,76.949\H,0,43.14,71.41,76.979\H,0,43.21,71.5,74
 .469\H,0,43.31,69.84,74.379\H,0,45.52,70.58,74.199\H,0,45.29,69.69,75.
 729\H,0,46.54,71.86,76.039\H,0,45.45,72.65,75.319\H,0,45.09,72.08,76.7
 49\N,0,38.83,69.95,74.929\C,0,37.52,69.54,74.449\C,0,36.68,68.61,75.29
 9\O,0,35.47,68.81,75.279\C,0,37.61,69.,73.019\C,0,38.46,67.76,72.819\O
 ,0,38.98,67.14,73.769\O,0,38.62,67.41,71.619\H,0,39.56,69.32,74.629\H,
 0,36.92,70.45,74.429\H,0,37.86,69.82,72.349\H,0,36.64,68.64,72.669\N,0
 ,37.27,67.64,76.009\C,0,36.54,67.01,77.089\C,0,35.22,66.37,76.689\O,0,
 34.19,66.53,77.339\H,0,38.27,67.54,76.049\H,0,36.26,67.81,77.769\H,0,3
 7.09,66.17,77.499\N,0,35.17,65.76,75.499\C,0,34.01,64.98,75.149\C,0,33
 .78,63.91,76.199\O,0,34.71,63.28,76.699\C,0,33.99,64.49,73.699\C,0,34.
 27,65.63,72.719\N,0,33.32,66.54,72.519\O,0,35.34,65.81,72.139\H,0,35.9
 8,65.64,74.909\H,0,33.18,65.67,75.279\H,0,33.,64.11,73.459\H,0,34.75,6
 3.73,73.519\H,0,32.42,66.42,72.959\H,0,33.6,67.45,72.189\N,0,32.5,63.7
 ,76.519\C,0,31.92,62.93,77.599\C,0,32.06,63.6,78.959\O,0,32.31,64.8,79
 .009\H,0,31.84,64.32,76.079\H,0,32.42,61.97,77.709\H,0,30.88,62.63,77.
 439\N,0,31.79,62.81,79.999\C,0,31.83,63.09,81.419\C,0,33.22,63.43,81.9
 49\O,0,33.62,63.02,83.039\C,0,30.86,64.23,81.699\C,0,30.62,64.61,83.13
 9\C,0,31.25,65.67,83.799\C,0,29.85,63.69,83.859\C,0,31.01,65.8,85.179\
 C,0,29.55,63.81,85.219\C,0,30.23,64.86,85.879\O,0,30.04,65.05,87.209\H
 ,0,31.43,61.88,79.829\H,0,31.49,62.24,82.009\H,0,29.91,63.95,81.239\H,
 0,31.18,65.11,81.139\H,0,31.89,66.33,83.239\H,0,29.36,62.83,83.429\H,0
 ,31.31,66.63,85.799\H,0,28.95,63.11,85.769\H,0,29.53,64.4,87.699\N,0,3
 4.07,64.02,81.109\C,0,35.48,64.31,81.269\C,0,36.27,63.01,81.339\O,0,37
 .38,62.99,80.809\C,0,35.68,65.29,82.419\C,0,34.97,66.62,82.239\C,0,37.
 14,65.66,82.659\C,0,35.31,67.37,80.959\H,0,33.77,64.41,80.229\H,0,35.8
 2,64.91,80.419\H,0,35.39,64.83,83.369\H,0,35.06,67.34,83.049\H,0,33.9,
 66.44,82.119\H,0,37.7,64.79,83.009\H,0,37.59,65.96,81.709\H,0,37.19,66
 .39,83.469\H,0,34.79,68.33,80.909\H,0,36.38,67.61,80.939\H,0,34.98,66.
 83,80.069\N,0,35.8,61.87,81.829\C,0,36.31,60.53,81.629\C,0,37.71,60.18
 ,82.129\O,0,38.19,59.08,81.849\C,0,35.3,59.47,82.059\O,0,34.1,59.6,81.
 339\H,0,34.87,61.97,82.219\H,0,36.42,60.5,80.539\H,0,35.22,59.58,83.13
 9\H,0,35.69,58.46,81.909\H,0,34.27,60.18,80.589\N,0,38.26,61.13,82.879
 \C,0,39.64,61.08,83.329\C,0,40.65,61.12,82.199\O,0,41.71,60.51,82.289\
 C,0,39.86,60.07,84.449\H,0,37.61,61.78,83.299\H,0,39.85,62.02,83.839\H
 ,0,38.97,59.86,85.049\H,0,40.1,59.13,83.939\H,0,40.6,60.35,85.189\N,0,
 40.29,61.8,81.099\C,0,40.98,61.69,79.829\C,0,41.82,62.92,79.559\O,0,41
 .49,63.99,80.069\C,0,39.98,61.44,78.699\H,0,39.43,62.33,81.089\H,0,41.
 68,60.86,79.929\H,0,39.32,62.3,78.669\H,0,40.57,61.47,77.789\H,0,39.49
 ,60.47,78.779\N,0,42.89,62.81,78.769\C,0,43.73,63.88,78.279\C,0,44.36,
 64.71,79.389\O,0,44.94,65.76,79.099\C,0,42.99,64.67,77.209\C,0,42.79,6
 3.93,75.889\C,0,41.86,64.65,74.929\O,0,40.76,64.15,74.609\O,0,42.2,65.
 74,74.389\H,0,43.06,61.91,78.339\H,0,44.57,63.35,77.829\H,0,43.53,65.6
 ,77.029\H,0,42.03,65.03,77.569\H,0,42.55,62.9,76.139\H,0,43.77,63.85,7
 5.419\N,0,44.38,64.24,80.639\C,0,44.67,64.97,81.859\H,0,45.483,65.672,
 81.677\H,0,43.782,65.517,82.175\H,0,44.964,64.27,82.641\H,0,43.92,63.3
 4,80.679\Ca,0,40.46,65.53,72.34\O,0,38.05,64.51,72.21\H,0,37.75,63.81,
 71.63\H,0,37.28,65.08,72.31\\Version=ES64L-G16RevA.03\State=1-A\HF=-53
 33.4038345\RMSD=1.274e-09\Dipole=5.2878531,-9.2102491,-4.0565511\Quadr
 upole=188.1966727,-247.4835248,59.2868521,108.0767573,-75.9473409,74.5
 815195\PG=C01 [X(C54H83Ca1N15O23)]\\@


 YOU CAN WIPE THE SLATE CLEAN, BUT YOU'LL STILL
 HAVE TO EAT A LITTLE CHALK DUST.
 Job cpu time:       0 days 13 hours 57 minutes 51.3 seconds.
 Elapsed time:       0 days  0 hours 17 minutes 42.2 seconds.
 File lengths (MBytes):  RWF=   1517 Int=      0 D2E=      0 Chk=    171 Scr=      1
 Normal termination of Gaussian 16 at Tue Sep 17 10:25:42 2019.
