 Entering Gaussian System, Link 0=g16
 Initial command:
 /home1/apps/gaussian/16rA.03/g16/l1.exe "/scratch/01990/pengzhi/4350470/Gau-223563.inp" -scrdir="/scratch/01990/pengzhi/4350470/"
 Entering Link 1 = /home1/apps/gaussian/16rA.03/g16/l1.exe PID=    223564.
  
 Copyright (c) 1988,1990,1992,1993,1995,1998,2003,2009,2016,
            Gaussian, Inc.  All Rights Reserved.
  
 This is part of the Gaussian(R) 16 program.  It is based on
 the Gaussian(R) 09 system (copyright 2009, Gaussian, Inc.),
 the Gaussian(R) 03 system (copyright 2003, Gaussian, Inc.),
 the Gaussian(R) 98 system (copyright 1998, Gaussian, Inc.),
 the Gaussian(R) 94 system (copyright 1995, Gaussian, Inc.),
 the Gaussian 92(TM) system (copyright 1992, Gaussian, Inc.),
 the Gaussian 90(TM) system (copyright 1990, Gaussian, Inc.),
 the Gaussian 88(TM) system (copyright 1988, Gaussian, Inc.),
 the Gaussian 86(TM) system (copyright 1986, Carnegie Mellon
 University), and the Gaussian 82(TM) system (copyright 1983,
 Carnegie Mellon University). Gaussian is a federally registered
 trademark of Gaussian, Inc.
  
 This software contains proprietary and confidential information,
 including trade secrets, belonging to Gaussian, Inc.
  
 This software is provided under written license and may be
 used, copied, transmitted, or stored only in accord with that
 written license.
  
 The following legend is applicable only to US Government
 contracts under FAR:
  
                    RESTRICTED RIGHTS LEGEND
  
 Use, reproduction and disclosure by the US Government is
 subject to restrictions as set forth in subparagraphs (a)
 and (c) of the Commercial Computer Software - Restricted
 Rights clause in FAR 52.227-19.
  
 Gaussian, Inc.
 340 Quinnipiac St., Bldg. 40, Wallingford CT 06492
  
  
 ---------------------------------------------------------------
 Warning -- This program may not be used in any manner that
 competes with the business of Gaussian, Inc. or will provide
 assistance to any competitor of Gaussian, Inc.  The licensee
 of this program is prohibited from giving any competitor of
 Gaussian, Inc. access to this program.  By using this program,
 the user acknowledges that Gaussian, Inc. is engaged in the
 business of creating and licensing software in the field of
 computational chemistry and represents and warrants to the
 licensee that it is not a competitor of Gaussian, Inc. and that
 it will not use this program in any manner prohibited above.
 ---------------------------------------------------------------
  

 Cite this work as:
 Gaussian 16, Revision A.03,
 M. J. Frisch, G. W. Trucks, H. B. Schlegel, G. E. Scuseria, 
 M. A. Robb, J. R. Cheeseman, G. Scalmani, V. Barone, 
 G. A. Petersson, H. Nakatsuji, X. Li, M. Caricato, A. V. Marenich, 
 J. Bloino, B. G. Janesko, R. Gomperts, B. Mennucci, H. P. Hratchian, 
 J. V. Ortiz, A. F. Izmaylov, J. L. Sonnenberg, D. Williams-Young, 
 F. Ding, F. Lipparini, F. Egidi, J. Goings, B. Peng, A. Petrone, 
 T. Henderson, D. Ranasinghe, V. G. Zakrzewski, J. Gao, N. Rega, 
 G. Zheng, W. Liang, M. Hada, M. Ehara, K. Toyota, R. Fukuda, 
 J. Hasegawa, M. Ishida, T. Nakajima, Y. Honda, O. Kitao, H. Nakai, 
 T. Vreven, K. Throssell, J. A. Montgomery, Jr., J. E. Peralta, 
 F. Ogliaro, M. J. Bearpark, J. J. Heyd, E. N. Brothers, K. N. Kudin, 
 V. N. Staroverov, T. A. Keith, R. Kobayashi, J. Normand, 
 K. Raghavachari, A. P. Rendell, J. C. Burant, S. S. Iyengar, 
 J. Tomasi, M. Cossi, J. M. Millam, M. Klene, C. Adamo, R. Cammi, 
 J. W. Ochterski, R. L. Martin, K. Morokuma, O. Farkas, 
 J. B. Foresman, and D. J. Fox, Gaussian, Inc., Wallingford CT, 2016.
 
 ******************************************
 Gaussian 16:  ES64L-G16RevA.03 25-Dec-2016
                17-Sep-2019 
 ******************************************
 %chk=Ng-295_loop3_1.0.chk
 %nprocshared=48
 Will use up to   48 processors via shared memory.
 %mem=10GB
 %nosave
 ----------------------------------------------------------------------
 #b3lyp/svp scf=(tight,noincore) Test #IOP(5/87=12) Density=Current Pop
 =(MK,readradii) iop(6/33=2) iop(6/42=6)
 ----------------------------------------------------------------------
 1/30=1,38=1,172=1/1;
 2/12=2,17=6,18=5,40=1/2;
 3/5=18,7=101,11=2,25=1,30=1,74=-5/1,2,3;
 4//1;
 5/5=4,32=2,38=5,87=12/2;
 6/7=2,8=2,9=2,10=2,15=8,20=101,22=-1,28=1,33=2,42=6/1,2;
 99/5=1,9=1/99;
 ----------------
 Ng-295_loop3_1.0
 ----------------
 Symbolic Z-matrix:
 Charge =  0 Multiplicity = 1
 C                     83.29     38.64     68.92 
 C                     83.68     39.31     70.24 
 O                     82.83     39.7      71.04 
 H                     82.436    39.161    68.487 
 H                     84.131    38.684    68.228 
 H                     83.024    37.599    69.105 
 N                     84.98     39.37     70.53 
 C                     85.61     40.19     71.54 
 C                     86.63     41.24     71.14 
 O                     87.63     40.94     70.48 
 C                     86.06     39.3      72.69 
 C                     86.39     40.12     73.93 
 O                     85.61     40.15     74.9 
 O                     87.46     40.76     73.98 
 H                     85.62     38.94     69.88 
 H                     84.82     40.87     71.86 
 H                     86.83     38.57     72.44 
 H                     85.19     38.69     72.96 
 N                     86.62     42.44     71.72 
 C                     87.51     43.53     71.37 
 C                     89.       43.42     71.7 
 O                     89.84     43.97     71. 
 C                     86.87     44.82     71.86 
 C                     87.48     46.09     71.28 
 C                     86.81     47.34     71.87 
 C                     87.15     48.64     71.14 
 N                     86.56     49.78     71.85 
 H                     85.93     42.6      72.44 
 H                     87.39     43.5      70.29 
 H                     86.74     44.82     72.94 
 H                     85.85     44.76     71.47 
 H                     87.2      46.03     70.23 
 H                     88.54     46.21     71.5 
 H                     87.01     47.43     72.93 
 H                     85.73     47.27     71.7 
 H                     86.78     48.65     70.12 
 H                     88.24     48.69     71.18 
 H                     85.58     49.95     71.72 
 H                     86.69     49.76     72.86 
 H                     87.       50.64     71.54 
 N                     89.39     42.53     72.62 
 C                     90.77     42.21     72.9 
 C                     91.02     40.72     72.68 
 O                     92.1      40.26     73.05 
 C                     91.06     42.63     74.34 
 C                     90.01     42.22     75.36 
 O                     89.8      41.04     75.72 
 O                     89.31     43.08     75.92 
 H                     88.66     41.95     73.02 
 H                     91.45     42.69     72.2 
 H                     91.2      43.71     74.44 
 H                     91.98     42.18     74.72 
 N                     89.99     39.99     72.26 
 C                     90.       38.57     71.98 
 C                     89.83     37.54     73.08 
 O                     89.79     36.34     72.79 
 H                     89.18     40.55     72.02 
 H                     90.89     38.33     71.4 
 H                     89.13     38.44     71.33 
 N                     89.59     38.04     74.29 
 C                     89.17     37.33     75.49 
 C                     87.75     37.7      75.9 
 O                     87.46     38.8      76.35 
 C                     90.26     37.38     76.56 
 C                     90.33     36.31     77.64 
 N                     91.23     36.42     78.63 
 O                     89.55     35.37     77.7 
 H                     89.72     39.04     74.37 
 H                     89.15     36.31     75.11 
 H                     90.16     38.33     77.08 
 H                     91.24     37.55     76.11 
 H                     92.01     37.06     78.53 
 H                     91.26     35.78     79.4 
 N                     86.79     36.79     75.74 
 C                     85.35     36.9      75.69 
 C                     84.7      37.33     77. 
 O                     83.51     37.63     76.96 
 H                     87.22     35.9      75.51 
 H                     84.95     35.88     75.58 
 H                     85.02     37.57     74.89 
 N                     85.45     37.3      78.1 
 C                     85.1      37.96     79.35 
 C                     84.84     39.46     79.25 
 O                     85.62     40.14     78.59 
 C                     86.04     37.69     80.51 
 C                     86.42     36.26     80.81 
 C                     87.55     35.64     80.27 
 C                     85.64     35.47     81.66 
 C                     87.8      34.28     80.52 
 C                     85.93     34.16     82.05 
 C                     86.99     33.51     81.37 
 O                     87.29     32.21     81.63 
 H                     86.42     37.08     77.98 
 H                     84.11     37.57     79.61 
 H                     85.57     38.14     81.39 
 H                     86.98     38.22     80.35 
 H                     88.27     36.17     79.67 
 H                     84.77     35.95     82.09 
 H                     88.7      33.84     80.13 
 H                     85.34     33.65     82.8 
 H                     86.64     31.9      82.26 
 N                     83.84     39.95     79.99 
 C                     83.28     41.27     80.16 
 C                     84.23     42.31     80.73 
 O                     85.41     42.02     80.91 
 C                     82.5      41.75     78.94 
 C                     81.45     40.74     78.48 
 C                     83.41     42.13     77.77 
 C                     80.64     41.06     77.23 
 H                     83.43     39.26     80.6 
 H                     82.42     41.26     80.84 
 H                     81.94     42.65     79.2 
 H                     80.88     40.36     79.32 
 H                     82.       39.82     78.26 
 H                     84.26     42.77     77.99 
 H                     83.87     41.27     77.28 
 H                     82.91     42.68     76.98 
 H                     80.09     41.98     77.37 
 H                     81.2      40.99     76.3 
 H                     79.87     40.29     77.2 
 N                     83.7      43.49     81.07 
 C                     84.42     44.56     81.73 
 C                     84.08     44.84     83.18 
 O                     84.9      45.19     84.03 
 C                     84.27     45.82     80.89 
 O                     83.13     46.61     81.19 
 H                     82.7      43.65     81.06 
 H                     85.48     44.3      81.72 
 H                     84.14     45.56     79.84 
 H                     85.19     46.34     81.16 
 H                     83.09     47.5      80.83 
 N                     82.82     44.57     83.55 
 C                     82.15     44.53     84.83 
 C                     82.61     45.58     85.84 
 O                     83.05     45.24     86.93 
 C                     82.25     43.08     85.3 
 H                     82.25     44.25     82.78 
 H                     81.09     44.76     84.72 
 H                     81.63     42.89     86.17 
 H                     81.91     42.4      84.52 
 H                     83.28     42.91     85.61 
 N                     82.54     46.89     85.55 
 C                     81.88     47.55     84.45 
 C                     80.41     47.85     84.74 
 O                     80.11     48.44     85.77 
 C                     82.55     48.88     84.12 
 H                     82.85     47.57     86.23 
 H                     82.       46.98     83.53 
 H                     82.67     49.54     84.97 
 H                     83.51     48.76     83.63 
 H                     81.89     49.33     83.39 
 N                     79.42     47.37     83.99 
 C                     79.54     46.47     82.86 
 C                     78.39     45.49     82.67 
 O                     78.47     44.54     81.89 
 C                     79.91     47.23     81.59 
 C                     78.98     48.38     81.21 
 C                     79.31     48.97     79.85 
 O                     78.48     48.69     78.95 
 O                     80.39     49.57     79.66 
 H                     78.5      47.73     84.21 
 H                     80.42     45.85     82.98 
 H                     79.91     46.54     80.75 
 H                     80.94     47.57     81.63 
 H                     79.01     49.15     81.98 
 H                     78.01     47.88     81.14 
 N                     77.25     45.65     83.34 
 C                     76.07     44.85     83.06 
 H                     75.266    45.499    82.713 
 H                     76.303    44.116    82.288 
 H                     75.755    44.336    83.968 
 H                     77.21     46.43     83.97 
 Ca                    87.35     41.33     76.71 
 O                     87.23     42.89     78.79 
 H                     86.58     42.63     79.44 
 H                     87.56     43.73     79.1 
 
 Stoichiometry    C54H83CaN15O23
 Framework group  C1[X(C54H83CaN15O23)]
 Deg. of freedom   522
 Full point group                 C1      NOp   1
 Largest Abelian subgroup         C1      NOp   1
 Largest concise Abelian subgroup C1      NOp   1
                         Standard orientation:                         
 ---------------------------------------------------------------------
 Center     Atomic      Atomic             Coordinates (Angstroms)
 Number     Number       Type             X           Y           Z
 ---------------------------------------------------------------------
      1          6           0        6.481618   -3.041530    6.326544
      2          6           0        5.463077   -2.727552    5.227731
      3          8           0        4.264853   -2.599752    5.477787
      4          1           0        6.060200   -3.776119    7.012863
      5          1           0        7.389026   -3.444072    5.876376
      6          1           0        6.719714   -2.128958    6.873522
      7          7           0        5.940042   -2.506195    4.002494
      8          6           0        5.190212   -2.484257    2.766907
      9          6           0        5.503355   -3.484172    1.669177
     10          8           0        6.643173   -3.586026    1.204375
     11          6           0        5.082798   -1.046446    2.278786
     12          6           0        4.013129   -0.903608    1.204401
     13          8           0        2.912550   -0.383734    1.466424
     14          8           0        4.246078   -1.301161    0.044795
     15          1           0        6.941446   -2.524745    3.884825
     16          1           0        4.210955   -2.875507    3.044178
     17          1           0        6.027792   -0.574229    2.009906
     18          1           0        4.724799   -0.461554    3.134145
     19          7           0        4.514946   -4.069518    0.993220
     20          6           0        4.703901   -5.079023   -0.030448
     21          6           0        5.339572   -4.686474   -1.365711
     22          8           0        6.004622   -5.491148   -2.004701
     23          6           0        3.391601   -5.833977   -0.177795
     24          6           0        3.498087   -7.145748   -0.945466
     25          6           0        2.120706   -7.809801   -1.091605
     26          6           0        2.168754   -9.256152   -1.585830
     27          7           0        0.806445   -9.754444   -1.804052
     28          1           0        3.570536   -3.799406    1.228228
     29          1           0        5.391915   -5.728849    0.504400
     30          1           0        2.582756   -5.177886   -0.491825
     31          1           0        3.134756   -6.097560    0.852086
     32          1           0        4.093536   -7.764614   -0.276928
     33          1           0        3.863515   -7.031179   -1.965141
     34          1           0        1.460401   -7.213852   -1.708486
     35          1           0        1.685818   -7.934204   -0.093810
     36          1           0        2.660706   -9.917706   -0.880330
     37          1           0        2.707716   -9.195416   -2.533475
     38          1           0        0.281117  -10.035667   -0.997118
     39          1           0        0.196145   -9.107790   -2.300814
     40          1           0        0.836569  -10.589906   -2.378853
     41          7           0        5.356890   -3.394447   -1.713514
     42          6           0        6.069757   -2.875474   -2.857055
     43          6           0        7.083834   -1.824238   -2.412588
     44          8           0        7.640998   -1.160699   -3.286765
     45          6           0        5.037153   -2.298297   -3.823851
     46          6           0        3.971088   -1.420960   -3.187624
     47          8           0        4.187819   -0.287655   -2.703115
     48          8           0        2.788555   -1.799467   -3.148294
     49          1           0        4.971225   -2.743368   -1.037749
     50          1           0        6.682302   -3.636268   -3.335366
     51          1           0        4.516856   -3.074682   -4.391758
     52          1           0        5.495878   -1.647509   -4.571746
     53          7           0        7.169514   -1.581134   -1.107307
     54          6           0        8.060330   -0.638376   -0.465003
     55          6           0        7.719500    0.835667   -0.360921
     56          8           0        8.482540    1.596142    0.243354
     57          1           0        6.620931   -2.224439   -0.548276
     58          1           0        9.056514   -0.745661   -0.891862
     59          1           0        8.096751   -0.996762    0.567728
     60          7           0        6.517805    1.171782   -0.824231
     61          6           0        5.816728    2.438971   -0.671843
     62          6           0        4.585997    2.302900    0.215956
     63          8           0        3.583588    1.696629   -0.136479
     64          6           0        5.651485    3.133994   -2.022820
     65          6           0        5.473950    4.643704   -2.096678
     66          7           0        5.231106    5.229237   -3.280054
     67          8           0        5.469577    5.364499   -1.108733
     68          1           0        6.044860    0.445178   -1.345451
     69          1           0        6.564172    3.004132   -0.117659
     70          1           0        4.777497    2.701691   -2.504649
     71          1           0        6.407196    2.791195   -2.732179
     72          1           0        5.409439    4.719266   -4.138033
     73          1           0        5.033693    6.207793   -3.362854
     74          7           0        4.619822    2.852228    1.429379
     75          6           0        3.819815    2.635563    2.613121
     76          6           0        2.361753    3.059859    2.480719
     77          8           0        1.597547    2.717511    3.378765
     78          1           0        5.445066    3.438836    1.498396
     79          1           0        4.176714    3.340726    3.379847
     80          1           0        3.860487    1.594250    2.947503
     81          7           0        2.030827    3.812641    1.433243
     82          6           0        0.663975    4.040209    0.985438
     83          6           0       -0.141626    2.783373    0.670844
     84          8           0        0.400027    1.897153    0.016912
     85          6           0        0.512291    5.031439   -0.153225
     86          6           0        1.211981    6.364793   -0.044124
     87          6           0        2.496597    6.596975   -0.542875
     88          6           0        0.594184    7.454351    0.577317
     89          6           0        3.125806    7.835612   -0.331984
     90          6           0        1.124919    8.742724    0.680834
     91          6           0        2.481976    8.907400    0.306964
     92          8           0        3.102124   10.108560    0.449201
     93          1           0        2.746095    3.978463    0.751631
     94          1           0        0.140262    4.437980    1.861396
     95          1           0       -0.564002    5.187681   -0.275625
     96          1           0        0.872118    4.581914   -1.079806
     97          1           0        3.038016    5.861285   -1.112897
     98          1           0       -0.405895    7.282281    0.954721
     99          1           0        4.095249    8.002994   -0.765418
    100          1           0        0.541628    9.564075    1.075616
    101          1           0        2.470617   10.694895    0.865024
    102          7           0       -1.428993    2.785370    1.031927
    103          6           0       -2.493815    1.815340    0.931452
    104          6           0       -2.876905    1.415772   -0.483676
    105          8           0       -2.218723    1.835794   -1.431979
    106          6           0       -2.317023    0.633401    1.879590
    107          6           0       -2.077997    1.070249    3.323969
    108          6           0       -1.209619   -0.322440    1.430788
    109          6           0       -1.818760   -0.006661    4.369943
    110          1           0       -1.731046    3.674224    1.399354
    111          1           0       -3.419933    2.182493    1.389279
    112          1           0       -3.238121    0.048433    1.903897
    113          1           0       -2.775514    1.846375    3.617226
    114          1           0       -1.179893    1.694856    3.299994
    115          1           0       -1.212131   -0.630512    0.388874
    116          1           0       -0.205017    0.082584    1.565060
    117          1           0       -1.209273   -1.275165    1.949359
    118          1           0       -2.662170   -0.680532    4.425244
    119          1           0       -0.845214   -0.485716    4.291758
    120          1           0       -1.839261    0.525977    5.319983
    121          7           0       -3.973278    0.662384   -0.622505
    122          6           0       -4.557214    0.278795   -1.891670
    123          6           0       -5.869676    0.928461   -2.281383
    124          8           0       -6.177449    1.233885   -3.434375
    125          6           0       -4.679976   -1.237773   -1.917180
    126          8           0       -5.889006   -1.751867   -1.380845
    127          1           0       -4.586602    0.461524    0.158000
    128          1           0       -3.848827    0.549972   -2.676495
    129          1           0       -3.905490   -1.689300   -1.298072
    130          1           0       -4.620090   -1.416033   -2.991580
    131          1           0       -6.099503   -2.674845   -1.545472
    132          7           0       -6.673572    1.281125   -1.268081
    133          6           0       -7.892270    2.054445   -1.192909
    134          6           0       -8.846637    1.884115   -2.373745
    135          8           0       -9.187237    2.852616   -3.039551
    136          6           0       -7.450786    3.488828   -0.908243
    137          1           0       -6.299664    1.018702   -0.367233
    138          1           0       -8.503953    1.732916   -0.349663
    139          1           0       -8.288765    4.130850   -0.657248
    140          1           0       -6.769454    3.518694   -0.058953
    141          1           0       -7.021424    3.884354   -1.827541
    142          7           0       -9.326509    0.672531   -2.700681
    143          6           0       -9.254691   -0.568489   -1.968621
    144          6           0      -10.396267   -0.726974   -0.965283
    145          8           0      -11.551398   -0.576489   -1.342146
    146          6           0       -9.315932   -1.769250   -2.907302
    147          1           0       -9.955730    0.579011   -3.485687
    148          1           0       -8.282094   -0.679374   -1.491694
    149          1           0      -10.154582   -1.755519   -3.592122
    150          1           0       -8.401988   -1.910456   -3.473754
    151          1           0       -9.394452   -2.617600   -2.240117
    152          7           0      -10.185466   -0.880537    0.340466
    153          6           0       -8.908020   -0.861740    1.025360
    154          6           0       -8.922450   -0.289080    2.436336
    155          8           0       -7.881541   -0.018272    3.036728
    156          6           0       -8.210618   -2.214735    0.923210
    157          6           0       -9.016857   -3.415613    1.412772
    158          6           0       -8.196520   -4.693370    1.444139
    159          8           0       -7.894192   -5.085216    2.598415
    160          8           0       -7.774517   -5.206633    0.385378
    161          1           0      -11.010423   -1.091201    0.887701
    162          1           0       -8.210134   -0.240403    0.477551
    163          1           0       -7.299108   -2.190467    1.515038
    164          1           0       -7.845899   -2.385754   -0.084675
    165          1           0       -9.903345   -3.543702    0.792747
    166          1           0       -9.250354   -3.133344    2.443114
    167          7           0      -10.076561   -0.080866    3.067821
    168          6           0      -10.133684    0.293023    4.470584
    169          1           0      -10.649355   -0.485611    5.032579
    170          1           0       -9.120884    0.409806    4.857400
    171          1           0      -10.674003    1.233822    4.574694
    172          1           0      -10.910158   -0.307856    2.557436
    173         20           0        2.041415   -0.074965   -1.149276
    174          8           0       -0.208085   -0.026744   -2.457643
    175          1           0       -0.877702    0.532665   -2.068701
    176          1           0       -0.651694   -0.472309   -3.175475
 ---------------------------------------------------------------------
 Rotational constants (GHZ):           0.0195832           0.0097933           0.0078757
 Standard basis: SVP (5D, 7F)
 There are  1809 symmetry adapted cartesian basis functions of A   symmetry.
 There are  1717 symmetry adapted basis functions of A   symmetry.
  1717 basis functions,  2922 primitive gaussians,  1809 cartesian basis functions
   358 alpha electrons      358 beta electrons
       nuclear repulsion energy     19626.1931379374 Hartrees.
 NAtoms=  176 NActive=  176 NUniq=  176 SFac= 1.00D+00 NAtFMM=   60 NAOKFM=T Big=T
 Integral buffers will be    131072 words long.
 Raffenetti 2 integral format.
 Two-electron integral symmetry is turned on.
 One-electron integrals computed using PRISM.
 NBasis=  1717 RedAO= T EigKep=  2.90D-04  NBF=  1717
 NBsUse=  1717 1.00D-06 EigRej= -1.00D+00 NBFU=  1717
 ExpMin= 1.98D-02 ExpMax= 3.51D+04 ExpMxC= 5.28D+03 IAcc=3 IRadAn=         5 AccDes= 0.00D+00
 Harris functional with IExCor=  402 and IRadAn=       5 diagonalized for initial guess.
 HarFok:  IExCor=  402 AccDes= 0.00D+00 IRadAn=         5 IDoV= 1 UseB2=F ITyADJ=14
 ICtDFT=  3500011 ScaDFX=  1.000000  1.000000  1.000000  1.000000
 FoFCou: FMM=F IPFlag=           0 FMFlag=      100000 FMFlg1=        2001
         NFxFlg=           0 DoJE=T BraDBF=F KetDBF=T FulRan=T
         wScrn=  0.000000 ICntrl=       500 IOpCl=  0 I1Cent=   200000004 NGrid=           0
         NMat0=    1 NMatS0=      1 NMatT0=    0 NMatD0=    1 NMtDS0=    0 NMtDT0=    0
 Petite list used in FoFCou.
 Requested convergence on RMS density matrix=1.00D-08 within 128 cycles.
 Requested convergence on MAX density matrix=1.00D-06.
 Requested convergence on             energy=1.00D-06.
 No special actions if energy rises.
 EnCoef did   100 forward-backward iterations
 EnCoef did     5 forward-backward iterations
 EnCoef did     4 forward-backward iterations
 EnCoef did    14 forward-backward iterations
 Rare condition: small coef for last iteration:  0.000D+00
 EnCoef did   100 forward-backward iterations
 Rare condition: small coef for last iteration:  0.000D+00
 EnCoef did   100 forward-backward iterations
 Rare condition: small coef for last iteration:  0.134D-15
 EnCoef did   100 forward-backward iterations
 Rare condition: small coef for last iteration:  0.000D+00
 EnCoef did   100 forward-backward iterations
 EnCoef did   100 forward-backward iterations
 EnCoef did     8 forward-backward iterations
 Rare condition: small coef for last iteration: -0.178D-14
 EnCoef did    42 forward-backward iterations
 EnCoef did   100 forward-backward iterations
 EnCoef did   100 forward-backward iterations
 Rare condition: small coef for last iteration:  0.188D-14
 Restarting incremental Fock formation.
 EnCoef did   100 forward-backward iterations
 EnCoef did   100 forward-backward iterations
 Rare condition: small coef for last iteration: -0.741D-15
 EnCoef did    73 forward-backward iterations
 EnCoef did    22 forward-backward iterations
 EnCoef did    10 forward-backward iterations
 EnCoef did   100 forward-backward iterations
 EnCoef did   100 forward-backward iterations
 EnCoef did   100 forward-backward iterations
 EnCoef did   100 forward-backward iterations
 Rare condition: small coef for last iteration:  0.773D-15
 EnCoef did     3 forward-backward iterations
 Rare condition: small coef for last iteration:  0.222D-15
 EnCoef did   100 forward-backward iterations
 Rare condition: small coef for last iteration:  0.000D+00
 EnCoef did   100 forward-backward iterations
 Rare condition: small coef for last iteration:  0.000D+00
 EnCoef did   100 forward-backward iterations
 EnCoef did   100 forward-backward iterations
 Rare condition: small coef for last iteration:  0.723D-15
 EnCoef did   100 forward-backward iterations
 Rare condition: small coef for last iteration:  0.457D-16
 EnCoef did   100 forward-backward iterations
 Rare condition: small coef for last iteration:  0.000D+00
 EnCoef did   100 forward-backward iterations
 EnCoef did   100 forward-backward iterations
 EnCoef did   100 forward-backward iterations
 Restarting incremental Fock formation.
 SCF Done:  E(RB3LYP) =  -5333.43051786     A.U. after   53 cycles
            NFock= 53  Conv=0.24D-09     -V/T= 2.0081
 SCF density gives NOpUse=  1 NOpAll=  1.
 Hyperfine terms turned off by default for NAtoms > 100.

 **********************************************************************

            Population analysis using the SCF density.

 **********************************************************************

 Orbital symmetries:
 BldTbl:  Degeneracy threshold= 1.00D-02
       Occupied  (A) (A) (A) (A) (A) (A) (A) (A) (A) (A) (A) (A)
                 (A) (A) (A) (A) (A) (A) (A) (A) (A) (A) (A) (A)
                 (A) (A) (A) (A) (A) (A) (A) (A) (A) (A) (A) (A)
                 (A) (A) (A) (A) (A) (A) (A) (A) (A) (A) (A) (A)
                 (A) (A) (A) (A) (A) (A) (A) (A) (A) (A) (A) (A)
                 (A) (A) (A) (A) (A) (A) (A) (A) (A) (A) (A) (A)
                 (A) (A) (A) (A) (A) (A) (A) (A) (A) (A) (A) (A)
                 (A) (A) (A) (A) (A) (A) (A) (A) (A) (A) (A) (A)
                 (A) (A) (A) (A) (A) (A) (A) (A) (A) (A) (A) (A)
                 (A) (A) (A) (A) (A) (A) (A) (A) (A) (A) (A) (A)
                 (A) (A) (A) (A) (A) (A) (A) (A) (A) (A) (A) (A)
                 (A) (A) (A) (A) (A) (A) (A) (A) (A) (A) (A) (A)
                 (A) (A) (A) (A) (A) (A) (A) (A) (A) (A) (A) (A)
                 (A) (A) (A) (A) (A) (A) (A) (A) (A) (A) (A) (A)
                 (A) (A) (A) (A) (A) (A) (A) (A) (A) (A) (A) (A)
                 (A) (A) (A) (A) (A) (A) (A) (A) (A) (A) (A) (A)
                 (A) (A) (A) (A) (A) (A) (A) (A) (A) (A) (A) (A)
                 (A) (A) (A) (A) (A) (A) (A) (A) (A) (A) (A) (A)
                 (A) (A) (A) (A) (A) (A) (A) (A) (A) (A) (A) (A)
                 (A) (A) (A) (A) (A) (A) (A) (A) (A) (A) (A) (A)
                 (A) (A) (A) (A) (A) (A) (A) (A) (A) (A) (A) (A)
                 (A) (A) (A) (A) (A) (A) (A) (A) (A) (A) (A) (A)
                 (A) (A) (A) (A) (A) (A) (A) (A) (A) (A) (A) (A)
                 (A) (A) (A) (A) (A) (A) (A) (A) (A) (A) (A) (A)
                 (A) (A) (A) (A) (A) (A) (A) (A) (A) (A) (A) (A)
                 (A) (A) (A) (A) (A) (A) (A) (A) (A) (A) (A) (A)
                 (A) (A) (A) (A) (A) (A) (A) (A) (A) (A) (A) (A)
                 (A) (A) (A) (A) (A) (A) (A) (A) (A) (A) (A) (A)
                 (A) (A) (A) (A) (A) (A) (A) (A) (A) (A) (A) (A)
                 (A) (A) (A) (A) (A) (A) (A) (A) (A) (A)
       Virtual   (A) (A) (A) (A) (A) (A) (A) (A) (A) (A) (A) (A)
                 (A) (A) (A) (A) (A) (A) (A) (A) (A) (A) (A) (A)
                 (A) (A) (A) (A) (A) (A) (A) (A) (A) (A) (A) (A)
                 (A) (A) (A) (A) (A) (A) (A) (A) (A) (A) (A) (A)
                 (A) (A) (A) (A) (A) (A) (A) (A) (A) (A) (A) (A)
                 (A) (A) (A) (A) (A) (A) (A) (A) (A) (A) (A) (A)
                 (A) (A) (A) (A) (A) (A) (A) (A) (A) (A) (A) (A)
                 (A) (A) (A) (A) (A) (A) (A) (A) (A) (A) (A) (A)
                 (A) (A) (A) (A) (A) (A) (A) (A) (A) (A) (A) (A)
                 (A) (A) (A) (A) (A) (A) (A) (A) (A) (A) (A) (A)
                 (A) (A) (A) (A) (A) (A) (A) (A) (A) (A) (A) (A)
                 (A) (A) (A) (A) (A) (A) (A) (A) (A) (A) (A) (A)
                 (A) (A) (A) (A) (A) (A) (A) (A) (A) (A) (A) (A)
                 (A) (A) (A) (A) (A) (A) (A) (A) (A) (A) (A) (A)
                 (A) (A) (A) (A) (A) (A) (A) (A) (A) (A) (A) (A)
                 (A) (A) (A) (A) (A) (A) (A) (A) (A) (A) (A) (A)
                 (A) (A) (A) (A) (A) (A) (A) (A) (A) (A) (A) (A)
                 (A) (A) (A) (A) (A) (A) (A) (A) (A) (A) (A) (A)
                 (A) (A) (A) (A) (A) (A) (A) (A) (A) (A) (A) (A)
                 (A) (A) (A) (A) (A) (A) (A) (A) (A) (A) (A) (A)
                 (A) (A) (A) (A) (A) (A) (A) (A) (A) (A) (A) (A)
                 (A) (A) (A) (A) (A) (A) (A) (A) (A) (A) (A) (A)
                 (A) (A) (A) (A) (A) (A) (A) (A) (A) (A) (A) (A)
                 (A) (A) (A) (A) (A) (A) (A) (A) (A) (A) (A) (A)
                 (A) (A) (A) (A) (A) (A) (A) (A) (A) (A) (A) (A)
                 (A) (A) (A) (A) (A) (A) (A) (A) (A) (A) (A) (A)
                 (A) (A) (A) (A) (A) (A) (A) (A) (A) (A) (A) (A)
                 (A) (A) (A) (A) (A) (A) (A) (A) (A) (A) (A) (A)
                 (A) (A) (A) (A) (A) (A) (A) (A) (A) (A) (A) (A)
                 (A) (A) (A) (A) (A) (A) (A) (A) (A) (A) (A) (A)
                 (A) (A) (A) (A) (A) (A) (A) (A) (A) (A) (A) (A)
                 (A) (A) (A) (A) (A) (A) (A) (A) (A) (A) (A) (A)
                 (A) (A) (A) (A) (A) (A) (A) (A) (A) (A) (A) (A)
                 (A) (A) (A) (A) (A) (A) (A) (A) (A) (A) (A) (A)
                 (A) (A) (A) (A) (A) (A) (A) (A) (A) (A) (A) (A)
                 (A) (A) (A) (A) (A) (A) (A) (A) (A) (A) (A) (A)
                 (A) (A) (A) (A) (A) (A) (A) (A) (A) (A) (A) (A)
                 (A) (A) (A) (A) (A) (A) (A) (A) (A) (A) (A) (A)
                 (A) (A) (A) (A) (A) (A) (A) (A) (A) (A) (A) (A)
                 (A) (A) (A) (A) (A) (A) (A) (A) (A) (A) (A) (A)
                 (A) (A) (A) (A) (A) (A) (A) (A) (A) (A) (A) (A)
                 (A) (A) (A) (A) (A) (A) (A) (A) (A) (A) (A) (A)
                 (A) (A) (A) (A) (A) (A) (A) (A) (A) (A) (A) (A)
                 (A) (A) (A) (A) (A) (A) (A) (A) (A) (A) (A) (A)
                 (A) (A) (A) (A) (A) (A) (A) (A) (A) (A) (A) (A)
                 (A) (A) (A) (A) (A) (A) (A) (A) (A) (A) (A) (A)
                 (A) (A) (A) (A) (A) (A) (A) (A) (A) (A) (A) (A)
                 (A) (A) (A) (A) (A) (A) (A) (A) (A) (A) (A) (A)
                 (A) (A) (A) (A) (A) (A) (A) (A) (A) (A) (A) (A)
                 (A) (A) (A) (A) (A) (A) (A) (A) (A) (A) (A) (A)
                 (A) (A) (A) (A) (A) (A) (A) (A) (A) (A) (A) (A)
                 (A) (A) (A) (A) (A) (A) (A) (A) (A) (A) (A) (A)
                 (A) (A) (A) (A) (A) (A) (A) (A) (A) (A) (A) (A)
                 (A) (A) (A) (A) (A) (A) (A) (A) (A) (A) (A) (A)
                 (A) (A) (A) (A) (A) (A) (A) (A) (A) (A) (A) (A)
                 (A) (A) (A) (A) (A) (A) (A) (A) (A) (A) (A) (A)
                 (A) (A) (A) (A) (A) (A) (A) (A) (A) (A) (A) (A)
                 (A) (A) (A) (A) (A) (A) (A) (A) (A) (A) (A) (A)
                 (A) (A) (A) (A) (A) (A) (A) (A) (A) (A) (A) (A)
                 (A) (A) (A) (A) (A) (A) (A) (A) (A) (A) (A) (A)
                 (A) (A) (A) (A) (A) (A) (A) (A) (A) (A) (A) (A)
                 (A) (A) (A) (A) (A) (A) (A) (A) (A) (A) (A) (A)
                 (A) (A) (A) (A) (A) (A) (A) (A) (A) (A) (A) (A)
                 (A) (A) (A) (A) (A) (A) (A) (A) (A) (A) (A) (A)
                 (A) (A) (A) (A) (A) (A) (A) (A) (A) (A) (A) (A)
                 (A) (A) (A) (A) (A) (A) (A) (A) (A) (A) (A) (A)
                 (A) (A) (A) (A) (A) (A) (A) (A) (A) (A) (A) (A)
                 (A) (A) (A) (A) (A) (A) (A) (A) (A) (A) (A) (A)
                 (A) (A) (A) (A) (A) (A) (A) (A) (A) (A) (A) (A)
                 (A) (A) (A) (A) (A) (A) (A) (A) (A) (A) (A) (A)
                 (A) (A) (A) (A) (A) (A) (A) (A) (A) (A) (A) (A)
                 (A) (A) (A) (A) (A) (A) (A) (A) (A) (A) (A) (A)
                 (A) (A) (A) (A) (A) (A) (A) (A) (A) (A) (A) (A)
                 (A) (A) (A) (A) (A) (A) (A) (A) (A) (A) (A) (A)
                 (A) (A) (A) (A) (A) (A) (A) (A) (A) (A) (A) (A)
                 (A) (A) (A) (A) (A) (A) (A) (A) (A) (A) (A) (A)
                 (A) (A) (A) (A) (A) (A) (A) (A) (A) (A) (A) (A)
                 (A) (A) (A) (A) (A) (A) (A) (A) (A) (A) (A) (A)
                 (A) (A) (A) (A) (A) (A) (A) (A) (A) (A) (A) (A)
                 (A) (A) (A) (A) (A) (A) (A) (A) (A) (A) (A) (A)
                 (A) (A) (A) (A) (A) (A) (A) (A) (A) (A) (A) (A)
                 (A) (A) (A) (A) (A) (A) (A) (A) (A) (A) (A) (A)
                 (A) (A) (A) (A) (A) (A) (A) (A) (A) (A) (A) (A)
                 (A) (A) (A) (A) (A) (A) (A) (A) (A) (A) (A) (A)
                 (A) (A) (A) (A) (A) (A) (A) (A) (A) (A) (A) (A)
                 (A) (A) (A) (A) (A) (A) (A) (A) (A) (A) (A) (A)
                 (A) (A) (A) (A) (A) (A) (A) (A) (A) (A) (A) (A)
                 (A) (A) (A) (A) (A) (A) (A) (A) (A) (A) (A) (A)
                 (A) (A) (A) (A) (A) (A) (A) (A) (A) (A) (A) (A)
                 (A) (A) (A) (A) (A) (A) (A) (A) (A) (A) (A) (A)
                 (A) (A) (A) (A) (A) (A) (A) (A) (A) (A) (A) (A)
                 (A) (A) (A) (A) (A) (A) (A) (A) (A) (A) (A) (A)
                 (A) (A) (A) (A) (A) (A) (A) (A) (A) (A) (A) (A)
                 (A) (A) (A) (A) (A) (A) (A) (A) (A) (A) (A) (A)
                 (A) (A) (A) (A) (A) (A) (A) (A) (A) (A) (A) (A)
                 (A) (A) (A) (A) (A) (A) (A) (A) (A) (A) (A) (A)
                 (A) (A) (A) (A) (A) (A) (A) (A) (A) (A) (A) (A)
                 (A) (A) (A) (A) (A) (A) (A) (A) (A) (A) (A) (A)
                 (A) (A) (A) (A) (A) (A) (A) (A) (A) (A) (A) (A)
                 (A) (A) (A) (A) (A) (A) (A) (A) (A) (A) (A) (A)
                 (A) (A) (A) (A) (A) (A) (A) (A) (A) (A) (A) (A)
                 (A) (A) (A) (A) (A) (A) (A) (A) (A) (A) (A) (A)
                 (A) (A) (A) (A) (A) (A) (A) (A) (A) (A) (A) (A)
                 (A) (A) (A) (A) (A) (A) (A) (A) (A) (A) (A) (A)
                 (A) (A) (A) (A) (A) (A) (A) (A) (A) (A) (A) (A)
                 (A) (A) (A) (A) (A) (A) (A) (A) (A) (A) (A) (A)
                 (A) (A) (A) (A) (A) (A) (A) (A) (A) (A) (A) (A)
                 (A) (A) (A) (A) (A) (A) (A) (A) (A) (A) (A) (A)
                 (A) (A) (A) (A) (A) (A) (A) (A) (A) (A) (A) (A)
                 (A) (A) (A) (A) (A) (A) (A) (A) (A) (A) (A) (A)
                 (A) (A) (A) (A) (A) (A) (A) (A) (A) (A) (A) (A)
                 (A) (A) (A) (A) (A) (A) (A) (A) (A) (A) (A) (A)
                 (A) (A) (A) (A) (A) (A) (A) (A) (A) (A) (A) (A)
                 (A) (A) (A)
 The electronic state is 1-A.
 Alpha  occ. eigenvalues -- -145.41288 -19.18607 -19.17458 -19.14658 -19.14121
 Alpha  occ. eigenvalues --  -19.13991 -19.13095 -19.11813 -19.11047 -19.10486
 Alpha  occ. eigenvalues --  -19.10301 -19.09911 -19.09419 -19.08856 -19.08314
 Alpha  occ. eigenvalues --  -19.07957 -19.07583 -19.07536 -19.07408 -19.07118
 Alpha  occ. eigenvalues --  -19.05919 -19.05800 -18.97005 -18.96648 -15.47070
 Alpha  occ. eigenvalues --  -14.57931 -14.39885 -14.39692 -14.38409 -14.38340
 Alpha  occ. eigenvalues --  -14.36864 -14.36656 -14.36513 -14.36462 -14.35042
 Alpha  occ. eigenvalues --  -14.34637 -14.34471 -14.34215 -14.34031 -14.33308
 Alpha  occ. eigenvalues --  -12.60713 -12.60633 -12.60615 -10.35456 -10.32851
 Alpha  occ. eigenvalues --  -10.32423 -10.31550 -10.30641 -10.30407 -10.29769
 Alpha  occ. eigenvalues --  -10.29384 -10.28983 -10.28834 -10.28337 -10.27911
 Alpha  occ. eigenvalues --  -10.27247 -10.27155 -10.27103 -10.26947 -10.26385
 Alpha  occ. eigenvalues --  -10.26288 -10.26261 -10.26141 -10.26133 -10.25990
 Alpha  occ. eigenvalues --  -10.25960 -10.25351 -10.25217 -10.25142 -10.25141
 Alpha  occ. eigenvalues --  -10.24825 -10.24278 -10.24041 -10.22354 -10.22225
 Alpha  occ. eigenvalues --  -10.22070 -10.21823 -10.21769 -10.21701 -10.21347
 Alpha  occ. eigenvalues --  -10.20985 -10.20333 -10.20306 -10.20239 -10.20068
 Alpha  occ. eigenvalues --  -10.19980 -10.19642 -10.19169 -10.18876 -10.18728
 Alpha  occ. eigenvalues --  -10.17913 -10.17647 -10.17216 -10.17022 -10.16334
 Alpha  occ. eigenvalues --  -10.14414 -10.11033  -1.83747  -1.13525  -1.11520
 Alpha  occ. eigenvalues --   -1.10979  -1.10837  -1.07481  -1.06476  -1.06447
 Alpha  occ. eigenvalues --   -1.06205  -1.05527  -1.04580  -1.04235  -1.03623
 Alpha  occ. eigenvalues --   -1.03396  -1.03278  -1.03251  -1.02518  -1.02189
 Alpha  occ. eigenvalues --   -1.01653  -1.01558  -1.01520  -1.01003  -1.00429
 Alpha  occ. eigenvalues --   -1.00418  -0.96711  -0.96549  -0.95102  -0.95069
 Alpha  occ. eigenvalues --   -0.93591  -0.93119  -0.93100  -0.92862  -0.92405
 Alpha  occ. eigenvalues --   -0.92084  -0.91346  -0.91020  -0.90845  -0.90167
 Alpha  occ. eigenvalues --   -0.89946  -0.89821  -0.89810  -0.89714  -0.86099
 Alpha  occ. eigenvalues --   -0.84566  -0.84081  -0.81364  -0.81125  -0.80499
 Alpha  occ. eigenvalues --   -0.80297  -0.79842  -0.77943  -0.77170  -0.76468
 Alpha  occ. eigenvalues --   -0.76358  -0.75977  -0.75849  -0.75260  -0.75035
 Alpha  occ. eigenvalues --   -0.73847  -0.73455  -0.73042  -0.72910  -0.72206
 Alpha  occ. eigenvalues --   -0.72022  -0.70730  -0.69582  -0.69130  -0.68124
 Alpha  occ. eigenvalues --   -0.67472  -0.67330  -0.66421  -0.66259  -0.65963
 Alpha  occ. eigenvalues --   -0.65344  -0.64823  -0.64708  -0.64389  -0.63231
 Alpha  occ. eigenvalues --   -0.62993  -0.62925  -0.61834  -0.61678  -0.61403
 Alpha  occ. eigenvalues --   -0.60614  -0.60089  -0.59735  -0.59708  -0.59299
 Alpha  occ. eigenvalues --   -0.59012  -0.58936  -0.58666  -0.58353  -0.58191
 Alpha  occ. eigenvalues --   -0.58021  -0.57944  -0.57354  -0.57189  -0.56227
 Alpha  occ. eigenvalues --   -0.56201  -0.55800  -0.55787  -0.55641  -0.55200
 Alpha  occ. eigenvalues --   -0.54829  -0.54632  -0.53327  -0.53259  -0.53171
 Alpha  occ. eigenvalues --   -0.52769  -0.52362  -0.52246  -0.51932  -0.51583
 Alpha  occ. eigenvalues --   -0.51285  -0.50828  -0.50698  -0.50308  -0.50074
 Alpha  occ. eigenvalues --   -0.49999  -0.49968  -0.49315  -0.48993  -0.48756
 Alpha  occ. eigenvalues --   -0.48581  -0.48491  -0.48006  -0.47851  -0.47621
 Alpha  occ. eigenvalues --   -0.47370  -0.47306  -0.47042  -0.46849  -0.46731
 Alpha  occ. eigenvalues --   -0.46645  -0.46412  -0.46232  -0.46083  -0.45912
 Alpha  occ. eigenvalues --   -0.45883  -0.45800  -0.45451  -0.45394  -0.45267
 Alpha  occ. eigenvalues --   -0.44979  -0.44879  -0.44535  -0.44196  -0.43849
 Alpha  occ. eigenvalues --   -0.43761  -0.43747  -0.43539  -0.43461  -0.43303
 Alpha  occ. eigenvalues --   -0.43268  -0.43146  -0.43114  -0.42634  -0.42534
 Alpha  occ. eigenvalues --   -0.42458  -0.42392  -0.42295  -0.42198  -0.41894
 Alpha  occ. eigenvalues --   -0.41599  -0.41471  -0.41392  -0.41271  -0.41184
 Alpha  occ. eigenvalues --   -0.41119  -0.41036  -0.40863  -0.40768  -0.40730
 Alpha  occ. eigenvalues --   -0.40607  -0.40485  -0.40187  -0.40019  -0.39766
 Alpha  occ. eigenvalues --   -0.39549  -0.39460  -0.39157  -0.38988  -0.38821
 Alpha  occ. eigenvalues --   -0.38801  -0.38755  -0.38714  -0.38540  -0.38479
 Alpha  occ. eigenvalues --   -0.38237  -0.37992  -0.37963  -0.37672  -0.37598
 Alpha  occ. eigenvalues --   -0.37556  -0.37486  -0.37269  -0.37033  -0.36947
 Alpha  occ. eigenvalues --   -0.36857  -0.36649  -0.36521  -0.36434  -0.36156
 Alpha  occ. eigenvalues --   -0.36055  -0.35685  -0.35635  -0.35346  -0.34933
 Alpha  occ. eigenvalues --   -0.34871  -0.34808  -0.34372  -0.34308  -0.34269
 Alpha  occ. eigenvalues --   -0.34169  -0.34087  -0.32792  -0.32063  -0.31693
 Alpha  occ. eigenvalues --   -0.31622  -0.31007  -0.30658  -0.30413  -0.30047
 Alpha  occ. eigenvalues --   -0.29900  -0.29616  -0.29507  -0.28714  -0.28583
 Alpha  occ. eigenvalues --   -0.28517  -0.27580  -0.27434  -0.27214  -0.27103
 Alpha  occ. eigenvalues --   -0.26933  -0.26750  -0.26596  -0.26490  -0.26401
 Alpha  occ. eigenvalues --   -0.26032  -0.25950  -0.25741  -0.25710  -0.25522
 Alpha  occ. eigenvalues --   -0.25302  -0.25205  -0.25167  -0.24799  -0.24753
 Alpha  occ. eigenvalues --   -0.24400  -0.23904  -0.23492  -0.23423  -0.23412
 Alpha  occ. eigenvalues --   -0.23235  -0.22835  -0.22743  -0.22227  -0.20881
 Alpha  occ. eigenvalues --   -0.14264  -0.13886  -0.11763
 Alpha virt. eigenvalues --   -0.10750  -0.04849  -0.04648  -0.03391  -0.02927
 Alpha virt. eigenvalues --   -0.02575  -0.02525  -0.02418  -0.02248  -0.01979
 Alpha virt. eigenvalues --   -0.00703  -0.00369  -0.00074   0.00499   0.00645
 Alpha virt. eigenvalues --    0.00825   0.01578   0.01671   0.01897   0.02207
 Alpha virt. eigenvalues --    0.02469   0.02672   0.02838   0.03133   0.03246
 Alpha virt. eigenvalues --    0.03351   0.03723   0.03850   0.03969   0.04062
 Alpha virt. eigenvalues --    0.04391   0.04572   0.04588   0.04710   0.04763
 Alpha virt. eigenvalues --    0.04852   0.05613   0.05708   0.05747   0.06129
 Alpha virt. eigenvalues --    0.06611   0.07121   0.07306   0.07350   0.07906
 Alpha virt. eigenvalues --    0.08207   0.08370   0.08501   0.08740   0.08870
 Alpha virt. eigenvalues --    0.09020   0.09073   0.09227   0.09426   0.09573
 Alpha virt. eigenvalues --    0.09718   0.09883   0.10043   0.10380   0.10673
 Alpha virt. eigenvalues --    0.11033   0.11173   0.11251   0.11516   0.11746
 Alpha virt. eigenvalues --    0.11845   0.12084   0.12219   0.12260   0.12345
 Alpha virt. eigenvalues --    0.12589   0.12740   0.12794   0.13105   0.13316
 Alpha virt. eigenvalues --    0.13557   0.13633   0.13737   0.13925   0.13988
 Alpha virt. eigenvalues --    0.14095   0.14121   0.14307   0.14387   0.14455
 Alpha virt. eigenvalues --    0.14604   0.14774   0.15035   0.15109   0.15132
 Alpha virt. eigenvalues --    0.15361   0.15439   0.15580   0.15602   0.15780
 Alpha virt. eigenvalues --    0.15921   0.16334   0.16409   0.16709   0.17098
 Alpha virt. eigenvalues --    0.17140   0.17250   0.17470   0.17724   0.17764
 Alpha virt. eigenvalues --    0.17907   0.18218   0.18328   0.18393   0.18904
 Alpha virt. eigenvalues --    0.19063   0.19098   0.19573   0.19675   0.19818
 Alpha virt. eigenvalues --    0.19907   0.20227   0.20434   0.20638   0.20759
 Alpha virt. eigenvalues --    0.20899   0.21163   0.21379   0.21478   0.21731
 Alpha virt. eigenvalues --    0.21906   0.22128   0.22189   0.22422   0.23067
 Alpha virt. eigenvalues --    0.23141   0.23375   0.23675   0.23795   0.24051
 Alpha virt. eigenvalues --    0.24212   0.24546   0.24637   0.25023   0.25126
 Alpha virt. eigenvalues --    0.25303   0.25359   0.25688   0.25883   0.26052
 Alpha virt. eigenvalues --    0.26384   0.26428   0.26669   0.27041   0.27268
 Alpha virt. eigenvalues --    0.27462   0.27749   0.28037   0.28248   0.28296
 Alpha virt. eigenvalues --    0.28847   0.29033   0.29298   0.29346   0.29482
 Alpha virt. eigenvalues --    0.29773   0.30016   0.30196   0.30372   0.30419
 Alpha virt. eigenvalues --    0.30594   0.30766   0.31193   0.31531   0.31560
 Alpha virt. eigenvalues --    0.31715   0.31847   0.32313   0.33409   0.33556
 Alpha virt. eigenvalues --    0.33862   0.33946   0.34160   0.34318   0.34934
 Alpha virt. eigenvalues --    0.35155   0.35353   0.35814   0.36046   0.36549
 Alpha virt. eigenvalues --    0.36591   0.36941   0.37057   0.37351   0.37538
 Alpha virt. eigenvalues --    0.37716   0.38378   0.38562   0.39044   0.39556
 Alpha virt. eigenvalues --    0.39688   0.39730   0.39980   0.40457   0.40490
 Alpha virt. eigenvalues --    0.40621   0.40717   0.41019   0.41065   0.41460
 Alpha virt. eigenvalues --    0.41692   0.41908   0.42193   0.42553   0.42836
 Alpha virt. eigenvalues --    0.42917   0.43356   0.43474   0.43860   0.44206
 Alpha virt. eigenvalues --    0.44293   0.44595   0.44864   0.45117   0.45168
 Alpha virt. eigenvalues --    0.45197   0.45320   0.45410   0.45514   0.45762
 Alpha virt. eigenvalues --    0.45922   0.46005   0.46252   0.46436   0.46551
 Alpha virt. eigenvalues --    0.47014   0.47104   0.47223   0.47371   0.47740
 Alpha virt. eigenvalues --    0.47907   0.48059   0.48119   0.48260   0.48617
 Alpha virt. eigenvalues --    0.48729   0.48807   0.49071   0.49504   0.49780
 Alpha virt. eigenvalues --    0.49852   0.50034   0.50169   0.50559   0.50646
 Alpha virt. eigenvalues --    0.50737   0.51014   0.51176   0.51222   0.51306
 Alpha virt. eigenvalues --    0.51476   0.51672   0.51756   0.51902   0.52242
 Alpha virt. eigenvalues --    0.52666   0.52834   0.52968   0.53306   0.53492
 Alpha virt. eigenvalues --    0.53722   0.53851   0.54089   0.54184   0.54285
 Alpha virt. eigenvalues --    0.54335   0.54493   0.54731   0.54912   0.55001
 Alpha virt. eigenvalues --    0.55323   0.55635   0.55730   0.55926   0.56288
 Alpha virt. eigenvalues --    0.56464   0.56576   0.56779   0.57002   0.57063
 Alpha virt. eigenvalues --    0.57283   0.57454   0.57659   0.57775   0.57979
 Alpha virt. eigenvalues --    0.58060   0.58096   0.58284   0.58493   0.58498
 Alpha virt. eigenvalues --    0.58743   0.58910   0.59034   0.59154   0.59315
 Alpha virt. eigenvalues --    0.59440   0.59590   0.59891   0.59993   0.60183
 Alpha virt. eigenvalues --    0.60346   0.60408   0.60657   0.60748   0.60962
 Alpha virt. eigenvalues --    0.61124   0.61195   0.61364   0.61446   0.61738
 Alpha virt. eigenvalues --    0.61847   0.61911   0.62110   0.62325   0.62464
 Alpha virt. eigenvalues --    0.62660   0.62684   0.62874   0.62974   0.63097
 Alpha virt. eigenvalues --    0.63270   0.63405   0.63463   0.63683   0.63797
 Alpha virt. eigenvalues --    0.63930   0.63983   0.64028   0.64120   0.64220
 Alpha virt. eigenvalues --    0.64454   0.64599   0.64633   0.64774   0.64907
 Alpha virt. eigenvalues --    0.65009   0.65137   0.65190   0.65253   0.65587
 Alpha virt. eigenvalues --    0.65616   0.65650   0.65873   0.65923   0.65994
 Alpha virt. eigenvalues --    0.66169   0.66298   0.66460   0.66488   0.66629
 Alpha virt. eigenvalues --    0.66803   0.66854   0.66861   0.67013   0.67063
 Alpha virt. eigenvalues --    0.67266   0.67271   0.67472   0.67521   0.67693
 Alpha virt. eigenvalues --    0.67778   0.67867   0.67908   0.67949   0.68009
 Alpha virt. eigenvalues --    0.68232   0.68277   0.68355   0.68503   0.68645
 Alpha virt. eigenvalues --    0.68801   0.69061   0.69178   0.69222   0.69377
 Alpha virt. eigenvalues --    0.69392   0.69697   0.69822   0.69915   0.69945
 Alpha virt. eigenvalues --    0.70056   0.70273   0.70317   0.70375   0.70567
 Alpha virt. eigenvalues --    0.70661   0.70884   0.71081   0.71180   0.71479
 Alpha virt. eigenvalues --    0.71649   0.71968   0.72272   0.72361   0.72492
 Alpha virt. eigenvalues --    0.72631   0.72788   0.73103   0.73245   0.73343
 Alpha virt. eigenvalues --    0.73414   0.73694   0.73750   0.73918   0.74082
 Alpha virt. eigenvalues --    0.74213   0.74429   0.74626   0.74836   0.74957
 Alpha virt. eigenvalues --    0.75027   0.75275   0.75395   0.75597   0.75721
 Alpha virt. eigenvalues --    0.75814   0.76251   0.76542   0.76788   0.76847
 Alpha virt. eigenvalues --    0.77026   0.77657   0.77947   0.78005   0.78197
 Alpha virt. eigenvalues --    0.78338   0.78719   0.79181   0.79196   0.79334
 Alpha virt. eigenvalues --    0.79543   0.79754   0.79928   0.80262   0.80374
 Alpha virt. eigenvalues --    0.80907   0.81130   0.81379   0.81553   0.81708
 Alpha virt. eigenvalues --    0.82031   0.82155   0.82283   0.82465   0.82995
 Alpha virt. eigenvalues --    0.83207   0.83919   0.84276   0.84571   0.84784
 Alpha virt. eigenvalues --    0.84906   0.85175   0.85457   0.85695   0.85989
 Alpha virt. eigenvalues --    0.86257   0.86800   0.86965   0.87307   0.87679
 Alpha virt. eigenvalues --    0.87855   0.88170   0.88449   0.88689   0.88853
 Alpha virt. eigenvalues --    0.89134   0.89206   0.89885   0.90301   0.90501
 Alpha virt. eigenvalues --    0.90673   0.90858   0.91286   0.91776   0.92145
 Alpha virt. eigenvalues --    0.92408   0.92428   0.92762   0.92827   0.93147
 Alpha virt. eigenvalues --    0.93255   0.93441   0.93873   0.94219   0.94805
 Alpha virt. eigenvalues --    0.95057   0.95203   0.95551   0.95791   0.95943
 Alpha virt. eigenvalues --    0.96347   0.96500   0.96659   0.96782   0.97354
 Alpha virt. eigenvalues --    0.97498   0.97652   0.97971   0.98206   0.98523
 Alpha virt. eigenvalues --    0.98761   0.99126   0.99452   0.99961   1.00040
 Alpha virt. eigenvalues --    1.00116   1.00474   1.00777   1.01140   1.01226
 Alpha virt. eigenvalues --    1.01448   1.01900   1.02126   1.02430   1.02802
 Alpha virt. eigenvalues --    1.03529   1.03781   1.03893   1.04022   1.04124
 Alpha virt. eigenvalues --    1.04304   1.04409   1.05072   1.05212   1.05556
 Alpha virt. eigenvalues --    1.05914   1.06166   1.06475   1.06908   1.07015
 Alpha virt. eigenvalues --    1.07255   1.07432   1.07639   1.08326   1.08514
 Alpha virt. eigenvalues --    1.08794   1.09107   1.09195   1.09512   1.09982
 Alpha virt. eigenvalues --    1.10075   1.10282   1.10410   1.11128   1.11270
 Alpha virt. eigenvalues --    1.11536   1.11836   1.12201   1.12862   1.13097
 Alpha virt. eigenvalues --    1.13385   1.13626   1.13657   1.13859   1.14259
 Alpha virt. eigenvalues --    1.14475   1.14840   1.15112   1.15601   1.15844
 Alpha virt. eigenvalues --    1.15987   1.16280   1.16408   1.16684   1.16828
 Alpha virt. eigenvalues --    1.17213   1.17328   1.17485   1.17702   1.18054
 Alpha virt. eigenvalues --    1.18213   1.18310   1.18995   1.19476   1.19722
 Alpha virt. eigenvalues --    1.19855   1.20211   1.20366   1.20742   1.20789
 Alpha virt. eigenvalues --    1.21068   1.21121   1.21428   1.21663   1.21957
 Alpha virt. eigenvalues --    1.22130   1.22232   1.22736   1.22931   1.23271
 Alpha virt. eigenvalues --    1.23438   1.23452   1.23688   1.23882   1.24321
 Alpha virt. eigenvalues --    1.24448   1.24682   1.25071   1.25243   1.25626
 Alpha virt. eigenvalues --    1.25717   1.25829   1.25957   1.26546   1.26616
 Alpha virt. eigenvalues --    1.26666   1.27004   1.27119   1.27314   1.27850
 Alpha virt. eigenvalues --    1.28303   1.28679   1.28767   1.29060   1.29373
 Alpha virt. eigenvalues --    1.29671   1.29952   1.30191   1.30631   1.30864
 Alpha virt. eigenvalues --    1.31666   1.31865   1.32026   1.32394   1.32527
 Alpha virt. eigenvalues --    1.32675   1.33128   1.33481   1.33601   1.33950
 Alpha virt. eigenvalues --    1.34123   1.34784   1.34885   1.35217   1.35492
 Alpha virt. eigenvalues --    1.35575   1.36766   1.36957   1.37156   1.37734
 Alpha virt. eigenvalues --    1.37921   1.38061   1.38366   1.38577   1.38920
 Alpha virt. eigenvalues --    1.39786   1.39873   1.39949   1.40225   1.40457
 Alpha virt. eigenvalues --    1.40580   1.40885   1.41177   1.41461   1.41728
 Alpha virt. eigenvalues --    1.42042   1.42324   1.42720   1.43178   1.43223
 Alpha virt. eigenvalues --    1.43417   1.44048   1.44169   1.44373   1.44711
 Alpha virt. eigenvalues --    1.45039   1.45118   1.45277   1.45719   1.46021
 Alpha virt. eigenvalues --    1.46368   1.46493   1.46533   1.47416   1.47554
 Alpha virt. eigenvalues --    1.47850   1.48153   1.48417   1.48540   1.48945
 Alpha virt. eigenvalues --    1.49216   1.49460   1.49683   1.50170   1.50509
 Alpha virt. eigenvalues --    1.50543   1.50997   1.51321   1.51716   1.52005
 Alpha virt. eigenvalues --    1.52178   1.52573   1.52750   1.52940   1.53089
 Alpha virt. eigenvalues --    1.53352   1.53963   1.54247   1.54437   1.55274
 Alpha virt. eigenvalues --    1.55559   1.55893   1.56445   1.56808   1.57449
 Alpha virt. eigenvalues --    1.57808   1.58195   1.58337   1.58763   1.58893
 Alpha virt. eigenvalues --    1.59027   1.59285   1.59611   1.59625   1.59818
 Alpha virt. eigenvalues --    1.60815   1.60964   1.61554   1.61667   1.61784
 Alpha virt. eigenvalues --    1.62032   1.62150   1.62609   1.62775   1.63254
 Alpha virt. eigenvalues --    1.63322   1.63790   1.63963   1.64159   1.64272
 Alpha virt. eigenvalues --    1.64770   1.65079   1.65548   1.65746   1.65854
 Alpha virt. eigenvalues --    1.66451   1.66709   1.66751   1.67278   1.67455
 Alpha virt. eigenvalues --    1.68269   1.68399   1.68484   1.68615   1.68836
 Alpha virt. eigenvalues --    1.69293   1.69520   1.69636   1.70190   1.70353
 Alpha virt. eigenvalues --    1.70418   1.70615   1.70825   1.70892   1.71424
 Alpha virt. eigenvalues --    1.71569   1.71859   1.71917   1.72198   1.72370
 Alpha virt. eigenvalues --    1.72808   1.73025   1.73202   1.73423   1.73912
 Alpha virt. eigenvalues --    1.74106   1.74220   1.74480   1.74534   1.74949
 Alpha virt. eigenvalues --    1.74998   1.75126   1.75504   1.75628   1.75907
 Alpha virt. eigenvalues --    1.76044   1.76179   1.76317   1.76534   1.76654
 Alpha virt. eigenvalues --    1.76758   1.76809   1.76994   1.77160   1.77286
 Alpha virt. eigenvalues --    1.77546   1.77697   1.77814   1.77998   1.78302
 Alpha virt. eigenvalues --    1.78455   1.78556   1.78625   1.78791   1.79096
 Alpha virt. eigenvalues --    1.79196   1.79235   1.79650   1.80035   1.80133
 Alpha virt. eigenvalues --    1.80406   1.80516   1.80777   1.80871   1.80924
 Alpha virt. eigenvalues --    1.81162   1.81339   1.81563   1.81669   1.81834
 Alpha virt. eigenvalues --    1.81960   1.82153   1.82476   1.82666   1.82796
 Alpha virt. eigenvalues --    1.82835   1.83158   1.83280   1.83298   1.83686
 Alpha virt. eigenvalues --    1.83885   1.84099   1.84492   1.84598   1.84677
 Alpha virt. eigenvalues --    1.84745   1.84804   1.84939   1.84956   1.85098
 Alpha virt. eigenvalues --    1.85436   1.85706   1.85901   1.86200   1.86461
 Alpha virt. eigenvalues --    1.86599   1.86666   1.86676   1.86769   1.87127
 Alpha virt. eigenvalues --    1.87391   1.87481   1.87531   1.87637   1.87949
 Alpha virt. eigenvalues --    1.88449   1.88539   1.88776   1.88805   1.88962
 Alpha virt. eigenvalues --    1.89089   1.89544   1.89635   1.89778   1.89970
 Alpha virt. eigenvalues --    1.90263   1.90593   1.90692   1.90830   1.91113
 Alpha virt. eigenvalues --    1.91150   1.91388   1.91505   1.91624   1.91780
 Alpha virt. eigenvalues --    1.92134   1.92316   1.92701   1.92891   1.93178
 Alpha virt. eigenvalues --    1.93305   1.93691   1.93860   1.93991   1.94195
 Alpha virt. eigenvalues --    1.94458   1.94641   1.94749   1.95364   1.95450
 Alpha virt. eigenvalues --    1.95775   1.95865   1.96062   1.96220   1.96518
 Alpha virt. eigenvalues --    1.96849   1.97013   1.97250   1.97435   1.97725
 Alpha virt. eigenvalues --    1.97824   1.97983   1.98254   1.98490   1.98519
 Alpha virt. eigenvalues --    1.98626   1.98722   1.98913   1.99059   1.99339
 Alpha virt. eigenvalues --    1.99686   1.99885   2.00328   2.00599   2.00943
 Alpha virt. eigenvalues --    2.01217   2.01324   2.01435   2.01714   2.01872
 Alpha virt. eigenvalues --    2.01912   2.02140   2.02582   2.03471   2.03630
 Alpha virt. eigenvalues --    2.04005   2.04130   2.04468   2.04750   2.04763
 Alpha virt. eigenvalues --    2.05411   2.05762   2.06207   2.06347   2.06585
 Alpha virt. eigenvalues --    2.06961   2.07199   2.07421   2.07588   2.07972
 Alpha virt. eigenvalues --    2.08279   2.08369   2.08442   2.08878   2.09307
 Alpha virt. eigenvalues --    2.09792   2.09945   2.10340   2.10394   2.10579
 Alpha virt. eigenvalues --    2.11076   2.11241   2.11585   2.11732   2.11968
 Alpha virt. eigenvalues --    2.12137   2.12437   2.12737   2.12888   2.12949
 Alpha virt. eigenvalues --    2.13523   2.13717   2.13904   2.14092   2.14289
 Alpha virt. eigenvalues --    2.14813   2.15035   2.15476   2.15888   2.15953
 Alpha virt. eigenvalues --    2.16106   2.16666   2.16976   2.17068   2.17144
 Alpha virt. eigenvalues --    2.17867   2.17993   2.18649   2.19082   2.19310
 Alpha virt. eigenvalues --    2.19529   2.19795   2.19853   2.20167   2.20822
 Alpha virt. eigenvalues --    2.21186   2.21793   2.22166   2.22219   2.22727
 Alpha virt. eigenvalues --    2.23116   2.23443   2.23711   2.24072   2.24507
 Alpha virt. eigenvalues --    2.24811   2.25010   2.25063   2.26038   2.26172
 Alpha virt. eigenvalues --    2.26349   2.27480   2.27537   2.27826   2.28207
 Alpha virt. eigenvalues --    2.28358   2.28861   2.29198   2.29544   2.29971
 Alpha virt. eigenvalues --    2.30079   2.30222   2.30292   2.30689   2.30898
 Alpha virt. eigenvalues --    2.31395   2.31491   2.31670   2.32149   2.32490
 Alpha virt. eigenvalues --    2.32557   2.33080   2.33293   2.33504   2.33576
 Alpha virt. eigenvalues --    2.33745   2.33820   2.33985   2.34036   2.34543
 Alpha virt. eigenvalues --    2.34702   2.35285   2.35409   2.35688   2.36204
 Alpha virt. eigenvalues --    2.36711   2.37035   2.37166   2.37423   2.37599
 Alpha virt. eigenvalues --    2.38000   2.38204   2.38518   2.39112   2.39426
 Alpha virt. eigenvalues --    2.39795   2.40040   2.40240   2.41155   2.41518
 Alpha virt. eigenvalues --    2.42032   2.42521   2.42762   2.43325   2.43397
 Alpha virt. eigenvalues --    2.44027   2.44122   2.44536   2.44796   2.45348
 Alpha virt. eigenvalues --    2.45726   2.46134   2.46335   2.47230   2.47673
 Alpha virt. eigenvalues --    2.47846   2.48009   2.48030   2.48204   2.48632
 Alpha virt. eigenvalues --    2.48921   2.49216   2.49594   2.50239   2.50344
 Alpha virt. eigenvalues --    2.50760   2.51113   2.51344   2.51864   2.52107
 Alpha virt. eigenvalues --    2.52247   2.52542   2.53280   2.53556   2.53928
 Alpha virt. eigenvalues --    2.54163   2.54286   2.54735   2.55111   2.55191
 Alpha virt. eigenvalues --    2.55640   2.55845   2.56564   2.57010   2.57075
 Alpha virt. eigenvalues --    2.57191   2.57320   2.57848   2.58213   2.58618
 Alpha virt. eigenvalues --    2.58703   2.58977   2.59074   2.59244   2.59304
 Alpha virt. eigenvalues --    2.59840   2.59996   2.60084   2.60965   2.60997
 Alpha virt. eigenvalues --    2.61094   2.61358   2.61587   2.61939   2.62294
 Alpha virt. eigenvalues --    2.62528   2.62701   2.62800   2.63367   2.63875
 Alpha virt. eigenvalues --    2.64114   2.64723   2.64968   2.66229   2.66692
 Alpha virt. eigenvalues --    2.66861   2.67533   2.67584   2.67743   2.68143
 Alpha virt. eigenvalues --    2.68384   2.68463   2.68579   2.68622   2.69286
 Alpha virt. eigenvalues --    2.69555   2.69742   2.70116   2.70141   2.70188
 Alpha virt. eigenvalues --    2.70665   2.70920   2.71126   2.71232   2.71730
 Alpha virt. eigenvalues --    2.72077   2.72410   2.72798   2.73085   2.73415
 Alpha virt. eigenvalues --    2.73794   2.73850   2.74745   2.74812   2.75161
 Alpha virt. eigenvalues --    2.75615   2.75827   2.76052   2.76219   2.76629
 Alpha virt. eigenvalues --    2.76851   2.76895   2.77061   2.77234   2.77479
 Alpha virt. eigenvalues --    2.77656   2.78136   2.78438   2.78511   2.78645
 Alpha virt. eigenvalues --    2.78728   2.79295   2.79559   2.79681   2.80048
 Alpha virt. eigenvalues --    2.80143   2.80573   2.81161   2.81212   2.81360
 Alpha virt. eigenvalues --    2.81890   2.82154   2.82680   2.82825   2.83085
 Alpha virt. eigenvalues --    2.83237   2.83316   2.83870   2.83965   2.84286
 Alpha virt. eigenvalues --    2.84620   2.85142   2.85188   2.85567   2.86061
 Alpha virt. eigenvalues --    2.86170   2.86783   2.87333   2.87574   2.87767
 Alpha virt. eigenvalues --    2.88125   2.88634   2.89173   2.89432   2.89705
 Alpha virt. eigenvalues --    2.89864   2.90175   2.90734   2.90990   2.91356
 Alpha virt. eigenvalues --    2.91501   2.91825   2.92216   2.92268   2.92305
 Alpha virt. eigenvalues --    2.92460   2.93318   2.93458   2.93774   2.93997
 Alpha virt. eigenvalues --    2.94084   2.94344   2.94604   2.95331   2.95898
 Alpha virt. eigenvalues --    2.95925   2.96217   2.96396   2.96564   2.96909
 Alpha virt. eigenvalues --    2.97089   2.97183   2.97567   2.98044   2.98169
 Alpha virt. eigenvalues --    2.98516   2.98713   2.99471   2.99686   2.99817
 Alpha virt. eigenvalues --    2.99890   3.00156   3.00366   3.00724   3.00891
 Alpha virt. eigenvalues --    3.01076   3.01268   3.01530   3.02367   3.02652
 Alpha virt. eigenvalues --    3.03290   3.03738   3.04426   3.04506   3.05300
 Alpha virt. eigenvalues --    3.05490   3.05995   3.06611   3.06875   3.06903
 Alpha virt. eigenvalues --    3.08532   3.09400   3.09489   3.09840   3.10962
 Alpha virt. eigenvalues --    3.11087   3.11465   3.11661   3.12456   3.12574
 Alpha virt. eigenvalues --    3.12717   3.13506   3.13839   3.14371   3.14666
 Alpha virt. eigenvalues --    3.15246   3.15499   3.15910   3.16121   3.16364
 Alpha virt. eigenvalues --    3.16569   3.17121   3.17542   3.17786   3.17867
 Alpha virt. eigenvalues --    3.17945   3.18002   3.18244   3.18642   3.18688
 Alpha virt. eigenvalues --    3.19210   3.19443   3.19651   3.19780   3.20190
 Alpha virt. eigenvalues --    3.20236   3.20396   3.20876   3.21422   3.21506
 Alpha virt. eigenvalues --    3.22855   3.23052   3.23208   3.23573   3.23757
 Alpha virt. eigenvalues --    3.25359   3.26260   3.26929   3.27479   3.28324
 Alpha virt. eigenvalues --    3.28352   3.29308   3.30744   3.31539   3.32019
 Alpha virt. eigenvalues --    3.33118   3.37428   3.37495   3.37738   3.38227
 Alpha virt. eigenvalues --    3.40195   3.42827   3.48956   3.49727   3.50295
 Alpha virt. eigenvalues --    3.50977   3.51598   3.53052   3.53607   3.54897
 Alpha virt. eigenvalues --    3.55290   3.55738   3.56377   3.56463   3.57134
 Alpha virt. eigenvalues --    3.57430   3.58613   3.58785   3.58814   3.59225
 Alpha virt. eigenvalues --    3.61001   3.65484   3.65943   3.66396   3.66843
 Alpha virt. eigenvalues --    3.67152   3.67682   3.68076   3.68490   3.68671
 Alpha virt. eigenvalues --    3.68791   3.69093   3.69417   3.69603   3.69980
 Alpha virt. eigenvalues --    3.70024   3.70989   3.72630   3.73025   3.74379
 Alpha virt. eigenvalues --    3.75522   3.80157   3.81095   3.81251
          Condensed to atoms (all electrons):
 Mulliken charges:
               1
     1  C    0.055845
     2  C    0.009192
     3  O   -0.279768
     4  H    0.040912
     5  H    0.002700
     6  H    0.049999
     7  N   -0.124455
     8  C    0.114852
     9  C    0.071310
    10  O   -0.303023
    11  C    0.146258
    12  C    0.060966
    13  O   -0.387194
    14  O   -0.412372
    15  H    0.115292
    16  H   -0.010839
    17  H    0.011042
    18  H    0.015259
    19  N   -0.133519
    20  C    0.161697
    21  C    0.094219
    22  O   -0.291097
    23  C   -0.035307
    24  C    0.070090
    25  C   -0.079032
    26  C    0.071703
    27  N    0.128442
    28  H    0.127674
    29  H    0.015143
    30  H    0.013281
    31  H    0.002109
    32  H    0.012098
    33  H    0.048771
    34  H    0.027085
    35  H    0.008571
    36  H    0.068756
    37  H    0.069026
    38  H    0.137497
    39  H    0.144966
    40  H    0.136954
    41  N   -0.184691
    42  C    0.117505
    43  C    0.032763
    44  O   -0.286287
    45  C    0.177707
    46  C    0.048228
    47  O   -0.424577
    48  O   -0.429418
    49  H    0.170122
    50  H    0.033383
    51  H   -0.017676
    52  H    0.018913
    53  N   -0.168434
    54  C    0.201737
    55  C    0.031501
    56  O   -0.293731
    57  H    0.146457
    58  H    0.037040
    59  H    0.026093
    60  N   -0.163141
    61  C    0.155711
    62  C    0.120936
    63  O   -0.351233
    64  C    0.058649
    65  C    0.038069
    66  N   -0.058253
    67  O   -0.273755
    68  H    0.160392
    69  H   -0.003197
    70  H    0.028721
    71  H    0.035659
    72  H    0.118703
    73  H    0.128194
    74  N   -0.158524
    75  C    0.216383
    76  C    0.019773
    77  O   -0.275973
    78  H    0.140973
    79  H    0.043618
    80  H    0.073221
    81  N   -0.083659
    82  C    0.089089
    83  C    0.155339
    84  O   -0.351966
    85  C    0.147824
    86  C    0.020497
    87  C   -0.016302
    88  C   -0.014474
    89  C   -0.013669
    90  C   -0.036483
    91  C    0.156093
    92  O   -0.175870
    93  H    0.124374
    94  H   -0.015668
    95  H   -0.007606
    96  H    0.001259
    97  H   -0.036401
    98  H   -0.043353
    99  H   -0.023784
   100  H   -0.036789
   101  H    0.171258
   102  N   -0.087340
   103  C    0.099325
   104  C    0.117785
   105  O   -0.280951
   106  C   -0.096283
   107  C   -0.004674
   108  C    0.031401
   109  C    0.059737
   110  H    0.132385
   111  H    0.021892
   112  H    0.002603
   113  H   -0.030111
   114  H    0.006070
   115  H   -0.046179
   116  H    0.044548
   117  H    0.010353
   118  H    0.015021
   119  H    0.039799
   120  H    0.007255
   121  N   -0.141640
   122  C    0.054634
   123  C    0.094528
   124  O   -0.247400
   125  C    0.260851
   126  O   -0.332430
   127  H    0.143735
   128  H    0.024515
   129  H   -0.000145
   130  H    0.009141
   131  H    0.211662
   132  N   -0.151312
   133  C    0.024677
   134  C    0.076994
   135  O   -0.243435
   136  C    0.093330
   137  H    0.111802
   138  H    0.034524
   139  H    0.013769
   140  H   -0.018613
   141  H    0.037858
   142  N   -0.084230
   143  C    0.022355
   144  C    0.045822
   145  O   -0.275859
   146  C    0.050070
   147  H    0.126811
   148  H    0.018395
   149  H    0.020012
   150  H    0.007769
   151  H    0.031973
   152  N   -0.111028
   153  C    0.128419
   154  C    0.053942
   155  O   -0.297308
   156  C    0.017907
   157  C    0.083714
   158  C    0.043514
   159  O   -0.368482
   160  O   -0.395527
   161  H    0.120995
   162  H   -0.035879
   163  H   -0.008995
   164  H   -0.031423
   165  H   -0.033952
   166  H   -0.044467
   167  N   -0.143223
   168  C    0.123129
   169  H    0.028634
   170  H    0.054938
   171  H    0.017481
   172  H    0.094260
   173  Ca   1.319894
   174  O   -0.326667
   175  H    0.178779
   176  H    0.192176
 Sum of Mulliken charges =  -0.00000
 Mulliken charges with hydrogens summed into heavy atoms:
               1
     1  C    0.149456
     2  C    0.009192
     3  O   -0.279768
     7  N   -0.009163
     8  C    0.104013
     9  C    0.071310
    10  O   -0.303023
    11  C    0.172559
    12  C    0.060966
    13  O   -0.387194
    14  O   -0.412372
    19  N   -0.005844
    20  C    0.176840
    21  C    0.094219
    22  O   -0.291097
    23  C   -0.019917
    24  C    0.130958
    25  C   -0.043377
    26  C    0.209484
    27  N    0.547859
    41  N   -0.014569
    42  C    0.150888
    43  C    0.032763
    44  O   -0.286287
    45  C    0.178944
    46  C    0.048228
    47  O   -0.424577
    48  O   -0.429418
    53  N   -0.021977
    54  C    0.264871
    55  C    0.031501
    56  O   -0.293731
    60  N   -0.002749
    61  C    0.152514
    62  C    0.120936
    63  O   -0.351233
    64  C    0.123029
    65  C    0.038069
    66  N    0.188644
    67  O   -0.273755
    74  N   -0.017551
    75  C    0.333221
    76  C    0.019773
    77  O   -0.275973
    81  N    0.040714
    82  C    0.073421
    83  C    0.155339
    84  O   -0.351966
    85  C    0.141477
    86  C    0.020497
    87  C   -0.052703
    88  C   -0.057828
    89  C   -0.037453
    90  C   -0.073272
    91  C    0.156093
    92  O   -0.004612
   102  N    0.045045
   103  C    0.121217
   104  C    0.117785
   105  O   -0.280951
   106  C   -0.093680
   107  C   -0.028715
   108  C    0.040122
   109  C    0.121812
   121  N    0.002095
   122  C    0.079149
   123  C    0.094528
   124  O   -0.247400
   125  C    0.269848
   126  O   -0.120768
   132  N   -0.039509
   133  C    0.059201
   134  C    0.076994
   135  O   -0.243435
   136  C    0.126345
   142  N    0.042580
   143  C    0.040750
   144  C    0.045822
   145  O   -0.275859
   146  C    0.109823
   152  N    0.009967
   153  C    0.092541
   154  C    0.053942
   155  O   -0.297308
   156  C   -0.022511
   157  C    0.005294
   158  C    0.043514
   159  O   -0.368482
   160  O   -0.395527
   167  N   -0.048963
   168  C    0.224182
   173  Ca   1.319894
   174  O    0.044288
 DipInt: DoE/N= T F RetVal/Mat= T F Init=T NMatP=  1 IDeriv=0 Min/MaxMlt=  0  4
 Entering OneElI...
 OneElI was handed  1333951383 working-precision words.
 Multipole integrals L=0 to 4 MinM= 0 MaxM= 0.
 Requested accuracy = 0.1000D-12
 ShPair: Thresh= 1.00D-13 NBox=     0 BxSize= 0.00D+00 RnKept= 2.67D+01
         NSMCal=               327645 NSMKep=              130310
 PrmmSu-InSpLW:  IPartL=    0 NPrtUS=    1 NPrtUL=    1 DoSpLW=F IThBeg=    0 IThEnd=    0 NThAct=    1.
 PrsmSu:  NPrtUS=   1 ThrOK=F IAlg=1 NPAlg=1 LenDen=           0 ISkipM=0 DoSpLW=F IThBeg=    0 IThEnd=    0.
 Prism:   IPart=     0 DynPar=F LinDyn=F Incr=         512.
 PRISM was handed  1325016705 working-precision words and130310 shell-pairs
 IPart=  0 NShTot=      130310 NBatch=         306 AvBLen=       425.8
 PrsmSu-ThDecC:  IPartSL=    0    0 NPrtUSL=    1    1 IThBeg=    0 IThEnd=    0 CPU=   -1 GPU=   -1 NThAct=    1.
 PrSmSu:  NxtVal=            513.
 Electronic moments (au):
       -716.00000000          6.33071911         -5.38155918         -1.60049458
     -85870.17480357     -37284.19872669     -13324.67423968        -83.99034488
          5.98774372         67.40212594     485400.91563320     -21588.26597143
     -32751.81898242    -118220.78927686      91715.09216715      11204.58548698
     -10375.51833212      20456.51321984      17281.20599996      -9264.64232941
  -19591563.30849857   -6840598.68444500    -745246.99422329    -464203.61938607
     128710.82844309    -419364.19833045    -401890.28578026    -169676.48066456
     154712.88214847   -2342394.11590434   -1800374.47918852    -393092.49011235
     418799.00330926     156071.79189947     217423.09849508
 Electronic spatial extent (au):  <R**2>=         136479.0478
 DipInt: DoE/N= F T RetVal/Mat= T F Init=T NMatP=  1 IDeriv=0 Min/MaxMlt=  0  4
 Nuclear    moments (au):
        716.00000000         -0.00000000          0.00000000         -0.00000000
      85224.53865643      37079.32362063      12889.98106295          0.00000000
          0.00000000          0.00000000    -483803.01061578      18097.78811281
      32609.05981630     119572.53281805     -90626.41390806     -10283.22114876
      10688.28499793     -20471.36049999     -18185.03834615       8472.87198242
   19228399.25896808    6806326.17264229     699180.09583688     451084.83119027
    -135376.35463597     402068.39930037     421362.08799564     169787.12641352
    -153904.01573180    2251294.98888977    1742172.34404875     367068.01876463
    -414646.08964107    -154825.85446569    -216168.14970762
 Total      moments (au):
         -0.00000000          6.33071911         -5.38155918         -1.60049458
       -645.63614713       -204.87510606       -434.69317673        -83.99034488
          5.98774372         67.40212594       1597.90501742      -3490.47785862
       -142.75916613       1351.74354120       1088.67825909        921.36433822
        312.76666580        -14.84728015       -903.83234619       -791.77034699
    -363164.04953049     -34272.51180271     -46066.89838640     -13118.78819580
      -6665.52619288     -17295.79903008      19471.80221538        110.64574896
        808.86641667     -91099.12701457     -58202.13513977     -26024.47134772
       4152.91366819       1245.93743378       1254.94878746
 Traceless Quadrup. (au):
       -217.23467049        223.52637058         -6.29170009        -83.99034488
          5.98774372         67.40212594
 Charge=             -0.0000 electrons
 Dipole moment (field-independent basis, Debye):
    X=             16.0911    Y=            -13.6786    Z=             -4.0681  Tot=             21.5076
 Quadrupole moment (field-independent basis, Debye-Ang):
   XX=           -868.4027   YY=           -275.5640   ZZ=           -584.6772
   XY=           -112.9699   XZ=              8.0537   YZ=             90.6582
 Traceless Quadrupole moment (field-independent basis, Debye-Ang):
   XX=           -292.1881   YY=            300.6506   ZZ=             -8.4626
   XY=           -112.9699   XZ=              8.0537   YZ=             90.6582
 Octapole moment (field-independent basis, Debye-Ang**2):
  XXX=           1137.3272  YYY=          -2484.3877  ZZZ=           -101.6105  XYY=            962.1190
  XXY=            774.8792  XXZ=            655.7916  XZZ=            222.6153  YZZ=            -10.5677
  YYZ=           -643.3130  XYZ=           -563.5516
 Hexadecapole moment (field-independent basis, Debye-Ang**3):
 XXXX=        -136784.9953 YYYY=         -12908.6714 ZZZZ=         -17351.0029 XXXY=          -4941.1647
 XXXZ=          -2510.5568 YYYX=          -6514.4273 YYYZ=           7334.0144 ZZZX=             41.6745
 ZZZY=            304.6579 XXYY=         -34312.2996 XXZZ=         -21921.7150 YYZZ=          -9802.0638
 XXYZ=           1564.1864 YYXZ=            469.2798 ZZXY=            472.6739
 N-N= 1.962619313794D+04 E-N=-5.172477480840D+04  KE= 5.290430508423D+03
 Leave Link  601 at Wed Sep 18 00:00:21 2019, MaxMem=  1342177280 cpu:              40.9 elap:               1.0
 FitSet:  NAtFit=   176 NAtPot=   176 NAtFrz=     0 MDM=   180 TotChg=   0.00000
 Merz-Kollman atomic radii used.
 Read replacement radii for each type of atom:
 Rad(20) =   1.700000000000D+00
 Atom Element Radius
    1     6    1.50
    2     6    1.50
    3     8    1.40
    4     1    1.20
    5     1    1.20
    6     1    1.20
    7     7    1.50
    8     6    1.50
    9     6    1.50
   10     8    1.40
   11     6    1.50
   12     6    1.50
   13     8    1.40
   14     8    1.40
   15     1    1.20
   16     1    1.20
   17     1    1.20
   18     1    1.20
   19     7    1.50
   20     6    1.50
   21     6    1.50
   22     8    1.40
   23     6    1.50
   24     6    1.50
   25     6    1.50
   26     6    1.50
   27     7    1.50
   28     1    1.20
   29     1    1.20
   30     1    1.20
   31     1    1.20
   32     1    1.20
   33     1    1.20
   34     1    1.20
   35     1    1.20
   36     1    1.20
   37     1    1.20
   38     1    1.20
   39     1    1.20
   40     1    1.20
   41     7    1.50
   42     6    1.50
   43     6    1.50
   44     8    1.40
   45     6    1.50
   46     6    1.50
   47     8    1.40
   48     8    1.40
   49     1    1.20
   50     1    1.20
   51     1    1.20
   52     1    1.20
   53     7    1.50
   54     6    1.50
   55     6    1.50
   56     8    1.40
   57     1    1.20
   58     1    1.20
[...]
 **** Fit      -0.038796
 **** Fit      -0.040546
 **** Fit      -0.009491
 **** Fit      -0.006862
 **** Fit      -0.004783
 **** Fit       0.002226
 **** Fit       0.002234
 **** Fit       0.002240
 **** Fit       0.002115
 **** Fit      -0.015385
 **** Fit      -0.010890
 **** Fit      -0.007708
 **** Fit      -0.005347
 **** Fit       0.003356
 **** Fit       0.003693
 **** Fit       0.003995
 **** Fit       0.004095
 **** Fit       0.003806
 **** Fit      -0.012189
 **** Fit      -0.008507
 **** Fit      -0.005930
 **** Fit       0.004826
 **** Fit       0.005676
 **** Fit       0.006476
 **** Fit       0.007017
 **** Fit      -0.011660
 **** Fit      -0.008025
 **** Fit      -0.005603
 **** Fit       0.006667
 **** Fit      -0.006867
 **** Fit      -0.004954
 **** Fit      -0.006180
 **** Fit      -0.007177
 **** Fit      -0.004703
 **** Fit      -0.005319
 **** Fit      -0.006844
 **** Fit      -0.007917
 **** Fit      -0.003750
 **** Fit      -0.004581
 **** Fit      -0.005888
 **** Fit      -0.007529
 **** Fit      -0.009093
 **** Fit      -0.009977
 **** Fit      -0.009709
 **** Fit      -0.002581
 **** Fit      -0.003131
 **** Fit      -0.003947
 **** Fit      -0.005080
 **** Fit      -0.006548
 **** Fit      -0.008273
 **** Fit      -0.010050
 **** Fit      -0.011553
 **** Fit      -0.012422
 **** Fit      -0.012396
 **** Fit      -0.002266
 **** Fit      -0.002962
 **** Fit      -0.003881
 **** Fit      -0.005089
 **** Fit      -0.006619
 **** Fit      -0.008441
 **** Fit      -0.010447
 **** Fit      -0.012431
 **** Fit      -0.014116
 **** Fit      -0.015208
 **** Fit      -0.015490
 **** Fit      -0.001741
 **** Fit      -0.002448
 **** Fit      -0.003350
 **** Fit      -0.004522
 **** Fit      -0.006019
 **** Fit      -0.007856
 **** Fit      -0.009996
 **** Fit      -0.012329
 **** Fit      -0.014661
 **** Fit      -0.016724
 **** Fit      -0.018231
 **** Fit      -0.018951
 **** Fit      -0.018770
 **** Fit      -0.001215
 **** Fit      -0.001920
 **** Fit      -0.002798
 **** Fit      -0.003930
 **** Fit      -0.005375
 **** Fit      -0.007170
 **** Fit      -0.009319
 **** Fit      -0.011782
 **** Fit      -0.014453
 **** Fit      -0.017147
 **** Fit      -0.019606
 **** Fit      -0.021538
 **** Fit      -0.022700
 **** Fit      -0.022979
 **** Fit      -0.000537
 **** Fit      -0.001269
 **** Fit      -0.002180
 **** Fit      -0.003359
 **** Fit      -0.004876
 **** Fit      -0.006782
 **** Fit      -0.009102
 **** Fit      -0.011825
 **** Fit      -0.014882
 **** Fit      -0.018126
 **** Fit      -0.021306
 **** Fit      -0.024091
 **** Fit      -0.026138
 **** Fit      -0.027221
 **** Fit      -0.000402
 **** Fit      -0.001342
 **** Fit      -0.002563
 **** Fit      -0.004139
 **** Fit      -0.006128
 **** Fit      -0.008569
 **** Fit      -0.011476
 **** Fit      -0.014815
 **** Fit      -0.018483
 **** Fit      -0.022274
 **** Fit      -0.025864
 **** Fit      -0.028849
 **** Fit      -0.030866
 **** Fit       0.000410
 **** Fit      -0.000732
 **** Fit      -0.002225
 **** Fit      -0.004140
 **** Fit      -0.006534
 **** Fit      -0.009447
 **** Fit      -0.012885
 **** Fit      -0.016805
 **** Fit      -0.021071
 **** Fit      -0.025422
 **** Fit      -0.029457
 **** Fit      -0.032696
 **** Fit       0.001742
 **** Fit       0.000238
 **** Fit      -0.001740
 **** Fit      -0.004266
 **** Fit      -0.007396
 **** Fit      -0.011160
 **** Fit      -0.015529
 **** Fit      -0.020373
 **** Fit      -0.025401
 **** Fit      -0.030128
 **** Fit       0.002902
 **** Fit       0.000479
 **** Fit      -0.002637
 **** Fit      -0.006503
 **** Fit      -0.011129
 **** Fit      -0.016417
 **** Fit      -0.022074
 **** Fit      -0.008750
 **** Fit      -0.006956
 **** Fit      -0.009368
 **** Fit      -0.010278
 **** Fit      -0.008479
 **** Fit      -0.006721
 **** Fit      -0.011810
 **** Fit      -0.011586
 **** Fit      -0.012071
 **** Fit      -0.010193
 **** Fit      -0.008332
 **** Fit      -0.006673
 **** Fit      -0.005269
 **** Fit      -0.014755
 **** Fit      -0.014672
 **** Fit      -0.013675
 **** Fit      -0.014297
 **** Fit      -0.012202
 **** Fit      -0.010124
 **** Fit      -0.008229
 **** Fit      -0.006592
 **** Fit      -0.005197
 **** Fit      -0.018200
 **** Fit      -0.018360
 **** Fit      -0.017618
 **** Fit      -0.016184
 **** Fit      -0.017169
 **** Fit      -0.014743
 **** Fit      -0.012327
 **** Fit      -0.010095
 **** Fit      -0.008144
 **** Fit      -0.006490
 **** Fit      -0.005071
 **** Fit      -0.022098
 **** Fit      -0.022709
 **** Fit      -0.022347
 **** Fit      -0.021179
 **** Fit      -0.019387
 **** Fit      -0.020986
 **** Fit      -0.018182
 **** Fit      -0.015355
 **** Fit      -0.012700
 **** Fit      -0.010345
 **** Fit      -0.008336
 **** Fit      -0.006642
 **** Fit      -0.027675
 **** Fit      -0.027833
 **** Fit      -0.027114
 **** Fit      -0.025640
 **** Fit      -0.023542
 **** Fit      -0.026208
 **** Fit      -0.022724
 **** Fit      -0.019165
 **** Fit      -0.015799
 **** Fit      -0.012811
 **** Fit      -0.010274
 **** Fit      -0.008165
 **** Fit      -0.006384
 **** Fit      -0.032620
 **** Fit      -0.033890
 **** Fit      -0.034119
 **** Fit      -0.033393
 **** Fit      -0.031762
 **** Fit      -0.029309
 **** Fit      -0.020240
 **** Fit      -0.016365
 **** Fit      -0.013082
 **** Fit      -0.010376
 **** Fit      -0.008146
 **** Fit      -0.016579
 **** Fit      -0.013020
 **** Fit      -0.010150
 **** Fit      -0.015311
 **** Fit      -0.001001
 **** Fit      -0.001373
 **** Fit      -0.000901
 **** Fit      -0.000619
 **** Fit      -0.000527
 **** Fit      -0.000576
 **** Fit      -0.002000
 **** Fit      -0.001315
 **** Fit      -0.000768
 **** Fit      -0.000397
 **** Fit      -0.000200
 **** Fit      -0.000156
 **** Fit      -0.000223
 **** Fit      -0.000343
 **** Fit      -0.001892
 **** Fit      -0.001143
 **** Fit      -0.000565
 **** Fit      -0.000164
 **** Fit       0.000072
 **** Fit       0.000167
 **** Fit       0.000152
 **** Fit       0.000064
 **** Fit      -0.000048
 **** Fit      -0.002738
 **** Fit      -0.001782
 **** Fit      -0.001012
 **** Fit      -0.000430
 **** Fit      -0.000017
 **** Fit       0.000248
 **** Fit       0.000387
 **** Fit       0.000427
 **** Fit       0.000398
 **** Fit       0.000334
 **** Fit       0.000274
 **** Fit       0.000268
 **** Fit      -0.003502
 **** Fit      -0.002302
 **** Fit      -0.001364
 **** Fit      -0.000657
 **** Fit      -0.000144
 **** Fit       0.000209
 **** Fit       0.000432
 **** Fit       0.000553
 **** Fit       0.000601
 **** Fit       0.000609
 **** Fit       0.000613
 **** Fit       0.000652
 **** Fit       0.000770
 **** Fit      -0.002998
 **** Fit      -0.001874
 **** Fit      -0.001043
 **** Fit      -0.000437
 **** Fit      -0.000006
 **** Fit       0.000292
 **** Fit       0.000489
 **** Fit       0.000615
 **** Fit       0.000704
 **** Fit       0.000790
 **** Fit       0.000913
 **** Fit       0.001116
 **** Fit       0.001439
 **** Fit      -0.003611
 **** Fit      -0.002323
 **** Fit      -0.001403
 **** Fit      -0.000745
 **** Fit      -0.000274
 **** Fit       0.000063
 **** Fit       0.000306
 **** Fit       0.000492
 **** Fit       0.000656
 **** Fit       0.000840
 **** Fit       0.001089
 **** Fit       0.001456
 **** Fit       0.001995
 **** Fit      -0.003744
 **** Fit      -0.002425
 **** Fit      -0.001524
 **** Fit      -0.000897
 **** Fit      -0.000452
 **** Fit      -0.000121
 **** Fit       0.000147
 **** Fit       0.000398
 **** Fit       0.000685
 **** Fit       0.001069
 **** Fit       0.001623
 **** Fit       0.002433
 **** Fit       0.003591
 **** Fit      -0.003584
 **** Fit      -0.002378
 **** Fit      -0.001583
 **** Fit      -0.001034
 **** Fit      -0.000625
 **** Fit      -0.000277
 **** Fit       0.000077
 **** Fit       0.000513
 **** Fit       0.001119
 **** Fit       0.002012
 **** Fit       0.003341
 **** Fit      -0.003472
 **** Fit      -0.002441
 **** Fit      -0.001759
 **** Fit      -0.001258
 **** Fit      -0.000821
 **** Fit      -0.000351
 **** Fit       0.000257
 **** Fit       0.001131
 **** Fit       0.002449
 **** Fit       0.004458
 **** Fit      -0.004265
 **** Fit      -0.003063
 **** Fit      -0.002284
 **** Fit      -0.001681
 **** Fit      -0.001075
 **** Fit      -0.000296
 **** Fit       0.000858
 **** Fit       0.002681
 **** Fit      -0.002044
 **** Fit       0.007549
 **** Fit       0.006471
 **** Fit       0.004815
 **** Fit       0.007832
 **** Fit       0.007693
 **** Fit       0.007256
 **** Fit       0.006411
 **** Fit       0.005021
 **** Fit       0.002921
 **** Fit      -0.000068
 **** Fit       0.006633
 **** Fit       0.006902
 **** Fit       0.006984
 **** Fit       0.006821
 **** Fit       0.006322
 **** Fit       0.005356
 **** Fit       0.003753
 **** Fit       0.001306
 **** Fit      -0.002204
 **** Fit       0.004266
 **** Fit       0.004896
 **** Fit       0.005409
 **** Fit       0.005808
 **** Fit       0.006070
 **** Fit       0.006137
 **** Fit       0.005907
 **** Fit       0.005221
 **** Fit       0.003861
 **** Fit       0.001552
 **** Fit       0.001689
 **** Fit       0.002446
 **** Fit       0.003138
 **** Fit       0.003803
 **** Fit       0.004459
 **** Fit       0.005091
 **** Fit       0.005630
 **** Fit      -0.001058
 **** Fit      -0.000379
 **** Fit       0.000354
 **** Fit       0.001215
 **** Fit       0.002276
 **** Fit      -0.004341
 **** Fit      -0.003979
 **** Fit      -0.003378
 **** Fit       0.038810
 **** Fit       0.040387
 **** Fit       0.043517
 **** Fit       0.044924
 **** Fit       0.046573
 **** Fit       0.046131
 **** Fit       0.047397
 **** Fit       0.048563
 **** Fit       0.045382
 **** Fit       0.046697
 **** Fit       0.047655
 **** Fit       0.048275
 **** Fit       0.045237
 **** Fit       0.045916
 **** Fit       0.046014
 **** Fit       0.042592
 **** Fit       0.042966
 **** Fit       0.042492
 **** Fit       0.041156
 **** Fit       0.039152
 **** Fit       0.037618
 **** Fit       0.034823
 **** Fit       0.032043
 **** Fit       0.024739
 **** Fit       0.024447
 **** Fit       0.022739
 **** Fit       0.019452
 **** Fit       0.023047
 **** Fit       0.022960
 **** Fit       0.021413
 **** Fit       0.018364
 **** Fit       0.020237
 **** Fit       0.020664
 **** Fit       0.019400
 **** Fit       0.012825
 **** Fit       0.016344
 **** Fit       0.017529
 **** Fit       0.016686
 **** Fit       0.007933
 **** Fit       0.012320
 **** Fit       0.013796
 **** Fit       0.003164
 **** Fit       0.008066
 **** Fit       0.009723
 **** Fit       0.000083
 **** Fit       0.004430
 **** Fit      -0.003045
 **** Fit       0.041267
 **** Fit       0.037315
 **** Fit       0.037535
 **** Fit       0.038554
 **** Fit       0.040386
 **** Fit       0.037848
 **** Fit       0.037193
 **** Fit       0.036679
 **** Fit       0.036071
 **** Fit       0.038320
 **** Fit       0.036495
 **** Fit       0.034087
 **** Fit       0.030583
 **** Fit       0.010677
 **** Fit       0.032216
 **** Fit       0.026192
 **** Fit       0.014447
 **** Fit       0.009080
 **** Fit       0.003870
 **** Fit       0.015202
 **** Fit       0.011316
 **** Fit       0.007646
 **** Fit       0.004075
 **** Fit       0.012756
 **** Fit       0.010505
 **** Fit       0.008164
 **** Fit       0.005917
 **** Fit       0.003860
 **** Fit       0.009546
 **** Fit       0.009828
 **** Fit       0.009110
 **** Fit       0.008022
 **** Fit       0.006957
 **** Fit       0.006192
 **** Fit       0.006033
 **** Fit       0.006937
 **** Fit       0.009525
 **** Fit       0.014355
 **** Fit      -0.003425
 **** Fit       0.002203
 **** Fit       0.005769
 **** Fit       0.007564
 **** Fit       0.008178
 **** Fit       0.008239
 **** Fit       0.008260
 **** Fit       0.008646
 **** Fit       0.009788
 **** Fit       0.012120
 **** Fit       0.000353
 **** Fit       0.004114
 **** Fit       0.006652
 **** Fit       0.008167
 **** Fit       0.009175
 **** Fit       0.010244
 **** Fit       0.011887
 **** Fit       0.014568
 **** Fit       0.002629
 **** Fit       0.005061
 **** Fit       0.007574
 **** Fit       0.009619
 **** Fit       0.011507
 **** Fit       0.013878
 **** Fit       0.002036
 **** Fit       0.010244
 **** Fit       0.012409
 **** Fit       0.040370
 **** Fit       0.038991
 **** Fit       0.040924
 **** Fit       0.039581
 **** Fit       0.037816
 **** Fit       0.035098
 **** Fit       0.030768
 **** Fit       0.040241
 **** Fit       0.038716
 **** Fit       0.036427
 **** Fit       0.032763
 **** Fit       0.026951
 **** Fit       0.041196
 **** Fit       0.039978
 **** Fit       0.038479
 **** Fit       0.036210
 **** Fit       0.032564
 **** Fit       0.026778
 **** Fit       0.017898
 **** Fit       0.040596
 **** Fit       0.039580
 **** Fit       0.038334
 **** Fit       0.036458
 **** Fit       0.033430
 **** Fit       0.028598
 **** Fit       0.021192
 **** Fit       0.017341
 **** Fit       0.038450
 **** Fit       0.038670
 **** Fit       0.038321
 **** Fit       0.037529
 **** Fit       0.036139
 **** Fit       0.033799
 **** Fit       0.030027
 **** Fit       0.024273
 **** Fit       0.016039
 **** Fit       0.017850
 **** Fit       0.020774
 **** Fit       0.024387
 **** Fit       0.028183
 **** Fit       0.031522
 **** Fit       0.033998
 **** Fit       0.035477
 **** Fit       0.036028
 **** Fit       0.035774
 **** Fit       0.034688
 **** Fit       0.032523
 **** Fit       0.028887
 **** Fit       0.023376
 **** Fit       0.015812
 **** Fit       0.006661
 **** Fit       0.002869
 **** Fit       0.016326
 **** Fit       0.018238
 **** Fit       0.020556
 **** Fit       0.023354
 **** Fit       0.026426
 **** Fit       0.029339
 **** Fit       0.031651
 **** Fit       0.033078
 **** Fit       0.033515
 **** Fit       0.032903
 **** Fit       0.031080
 **** Fit       0.027778
 **** Fit       0.022805
 **** Fit       0.016365
 **** Fit       0.009467
 **** Fit       0.004005
 **** Fit       0.001779
 **** Fit       0.009594
 **** Fit       0.010996
 **** Fit       0.013004
 **** Fit       0.014986
 **** Fit       0.016891
 **** Fit       0.018878
 **** Fit       0.021122
 **** Fit       0.023691
 **** Fit       0.026401
 **** Fit       0.028815
 **** Fit       0.030443
 **** Fit       0.030930
 **** Fit       0.030042
 **** Fit       0.027581
 **** Fit       0.023492
 **** Fit       0.018251
 **** Fit       0.013188
 **** Fit       0.010049
 **** Fit       0.014963
 **** Fit       0.015669
 **** Fit       0.017439
 **** Fit       0.019603
 **** Fit       0.022070
 **** Fit       0.024735
 **** Fit       0.027075
 **** Fit       0.028248
 **** Fit       0.027555
 **** Fit       0.024740
 **** Fit       0.020431
 **** Fit       0.016533
 **** Fit       0.019188
 **** Fit       0.019947
 **** Fit       0.022544
 **** Fit       0.025044
 **** Fit       0.025026
 **** Fit       0.021809
 **** Fit       0.022483
 -----------------------------------------------------------------
 Leave Link  602 at Wed Sep 18 00:00:24 2019, MaxMem=  1342177280 cpu:             118.9 elap:               2.5

 Test job not archived.
 1\1\GINC-C489-074\SP\RB3LYP\SVP\C54H83Ca1N15O23\PENGZHI\18-Sep-2019\0\
 \#b3lyp/svp scf=(tight,noincore) Test #IOP(5/87=12) Density=Current Po
 p=(MK,readradii) iop(6/33=2) iop(6/42=6)\\Ng-295_loop3_1.0\\0,1\C,0,83
 .29,38.64,68.92\C,0,83.68,39.31,70.24\O,0,82.83,39.7,71.04\H,0,82.436,
 39.161,68.487\H,0,84.131,38.684,68.228\H,0,83.024,37.599,69.105\N,0,84
 .98,39.37,70.53\C,0,85.61,40.19,71.54\C,0,86.63,41.24,71.14\O,0,87.63,
 40.94,70.48\C,0,86.06,39.3,72.69\C,0,86.39,40.12,73.93\O,0,85.61,40.15
 ,74.9\O,0,87.46,40.76,73.98\H,0,85.62,38.94,69.88\H,0,84.82,40.87,71.8
 6\H,0,86.83,38.57,72.44\H,0,85.19,38.69,72.96\N,0,86.62,42.44,71.72\C,
 0,87.51,43.53,71.37\C,0,89.,43.42,71.7\O,0,89.84,43.97,71.\C,0,86.87,4
 4.82,71.86\C,0,87.48,46.09,71.28\C,0,86.81,47.34,71.87\C,0,87.15,48.64
 ,71.14\N,0,86.56,49.78,71.85\H,0,85.93,42.6,72.44\H,0,87.39,43.5,70.29
 \H,0,86.74,44.82,72.94\H,0,85.85,44.76,71.47\H,0,87.2,46.03,70.23\H,0,
 88.54,46.21,71.5\H,0,87.01,47.43,72.93\H,0,85.73,47.27,71.7\H,0,86.78,
 48.65,70.12\H,0,88.24,48.69,71.18\H,0,85.58,49.95,71.72\H,0,86.69,49.7
 6,72.86\H,0,87.,50.64,71.54\N,0,89.39,42.53,72.62\C,0,90.77,42.21,72.9
 \C,0,91.02,40.72,72.68\O,0,92.1,40.26,73.05\C,0,91.06,42.63,74.34\C,0,
 90.01,42.22,75.36\O,0,89.8,41.04,75.72\O,0,89.31,43.08,75.92\H,0,88.66
 ,41.95,73.02\H,0,91.45,42.69,72.2\H,0,91.2,43.71,74.44\H,0,91.98,42.18
 ,74.72\N,0,89.99,39.99,72.26\C,0,90.,38.57,71.98\C,0,89.83,37.54,73.08
 \O,0,89.79,36.34,72.79\H,0,89.18,40.55,72.02\H,0,90.89,38.33,71.4\H,0,
 89.13,38.44,71.33\N,0,89.59,38.04,74.29\C,0,89.17,37.33,75.49\C,0,87.7
 5,37.7,75.9\O,0,87.46,38.8,76.35\C,0,90.26,37.38,76.56\C,0,90.33,36.31
 ,77.64\N,0,91.23,36.42,78.63\O,0,89.55,35.37,77.7\H,0,89.72,39.04,74.3
 7\H,0,89.15,36.31,75.11\H,0,90.16,38.33,77.08\H,0,91.24,37.55,76.11\H,
 0,92.01,37.06,78.53\H,0,91.26,35.78,79.4\N,0,86.79,36.79,75.74\C,0,85.
 35,36.9,75.69\C,0,84.7,37.33,77.\O,0,83.51,37.63,76.96\H,0,87.22,35.9,
 75.51\H,0,84.95,35.88,75.58\H,0,85.02,37.57,74.89\N,0,85.45,37.3,78.1\
 C,0,85.1,37.96,79.35\C,0,84.84,39.46,79.25\O,0,85.62,40.14,78.59\C,0,8
 6.04,37.69,80.51\C,0,86.42,36.26,80.81\C,0,87.55,35.64,80.27\C,0,85.64
 ,35.47,81.66\C,0,87.8,34.28,80.52\C,0,85.93,34.16,82.05\C,0,86.99,33.5
 1,81.37\O,0,87.29,32.21,81.63\H,0,86.42,37.08,77.98\H,0,84.11,37.57,79
 .61\H,0,85.57,38.14,81.39\H,0,86.98,38.22,80.35\H,0,88.27,36.17,79.67\
 H,0,84.77,35.95,82.09\H,0,88.7,33.84,80.13\H,0,85.34,33.65,82.8\H,0,86
 .64,31.9,82.26\N,0,83.84,39.95,79.99\C,0,83.28,41.27,80.16\C,0,84.23,4
 2.31,80.73\O,0,85.41,42.02,80.91\C,0,82.5,41.75,78.94\C,0,81.45,40.74,
 78.48\C,0,83.41,42.13,77.77\C,0,80.64,41.06,77.23\H,0,83.43,39.26,80.6
 \H,0,82.42,41.26,80.84\H,0,81.94,42.65,79.2\H,0,80.88,40.36,79.32\H,0,
 82.,39.82,78.26\H,0,84.26,42.77,77.99\H,0,83.87,41.27,77.28\H,0,82.91,
 42.68,76.98\H,0,80.09,41.98,77.37\H,0,81.2,40.99,76.3\H,0,79.87,40.29,
 77.2\N,0,83.7,43.49,81.07\C,0,84.42,44.56,81.73\C,0,84.08,44.84,83.18\
 O,0,84.9,45.19,84.03\C,0,84.27,45.82,80.89\O,0,83.13,46.61,81.19\H,0,8
 2.7,43.65,81.06\H,0,85.48,44.3,81.72\H,0,84.14,45.56,79.84\H,0,85.19,4
 6.34,81.16\H,0,83.09,47.5,80.83\N,0,82.82,44.57,83.55\C,0,82.15,44.53,
 84.83\C,0,82.61,45.58,85.84\O,0,83.05,45.24,86.93\C,0,82.25,43.08,85.3
 \H,0,82.25,44.25,82.78\H,0,81.09,44.76,84.72\H,0,81.63,42.89,86.17\H,0
 ,81.91,42.4,84.52\H,0,83.28,42.91,85.61\N,0,82.54,46.89,85.55\C,0,81.8
 8,47.55,84.45\C,0,80.41,47.85,84.74\O,0,80.11,48.44,85.77\C,0,82.55,48
 .88,84.12\H,0,82.85,47.57,86.23\H,0,82.,46.98,83.53\H,0,82.67,49.54,84
 .97\H,0,83.51,48.76,83.63\H,0,81.89,49.33,83.39\N,0,79.42,47.37,83.99\
 C,0,79.54,46.47,82.86\C,0,78.39,45.49,82.67\O,0,78.47,44.54,81.89\C,0,
 79.91,47.23,81.59\C,0,78.98,48.38,81.21\C,0,79.31,48.97,79.85\O,0,78.4
 8,48.69,78.95\O,0,80.39,49.57,79.66\H,0,78.5,47.73,84.21\H,0,80.42,45.
 85,82.98\H,0,79.91,46.54,80.75\H,0,80.94,47.57,81.63\H,0,79.01,49.15,8
 1.98\H,0,78.01,47.88,81.14\N,0,77.25,45.65,83.34\C,0,76.07,44.85,83.06
 \H,0,75.266,45.499,82.713\H,0,76.303,44.116,82.288\H,0,75.755,44.336,8
 3.968\H,0,77.21,46.43,83.97\Ca,0,87.35,41.33,76.71\O,0,87.23,42.89,78.
 79\H,0,86.58,42.63,79.44\H,0,87.56,43.73,79.1\\Version=ES64L-G16RevA.0
 3\State=1-A\HF=-5333.4305179\RMSD=2.436e-10\Dipole=4.3995437,1.7396875
 ,-7.0155733\Quadrupole=-86.6874508,63.0055386,23.6819122,125.7131186,2
 9.4525719,-193.7438411\PG=C01 [X(C54H83Ca1N15O23)]\\@


 ERROR IS THE FORCE THAT WELDS MEN TOGETHER....
 TRUTH IS COMMUNICATED TO MEN ONLY BY DEEDS OF TRUTH.
           TOLSTOI,MY RELIGION
 Job cpu time:       0 days 16 hours 45 minutes 46.0 seconds.
 Elapsed time:       0 days  0 hours 21 minutes 13.8 seconds.
 File lengths (MBytes):  RWF=   1517 Int=      0 D2E=      0 Chk=    171 Scr=      1
 Normal termination of Gaussian 16 at Wed Sep 18 00:00:26 2019.
