 Entering Gaussian System, Link 0=g16
 Initial command:
 /home1/apps/gaussian/16rA.03/g16/l1.exe "/scratch/01990/pengzhi/4345060/Gau-33742.inp" -scrdir="/scratch/01990/pengzhi/4345060/"
 Entering Link 1 = /home1/apps/gaussian/16rA.03/g16/l1.exe PID=     33743.
  
 Copyright (c) 1988,1990,1992,1993,1995,1998,2003,2009,2016,
            Gaussian, Inc.  All Rights Reserved.
  
 This is part of the Gaussian(R) 16 program.  It is based on
 the Gaussian(R) 09 system (copyright 2009, Gaussian, Inc.),
 the Gaussian(R) 03 system (copyright 2003, Gaussian, Inc.),
 the Gaussian(R) 98 system (copyright 1998, Gaussian, Inc.),
 the Gaussian(R) 94 system (copyright 1995, Gaussian, Inc.),
 the Gaussian 92(TM) system (copyright 1992, Gaussian, Inc.),
 the Gaussian 90(TM) system (copyright 1990, Gaussian, Inc.),
 the Gaussian 88(TM) system (copyright 1988, Gaussian, Inc.),
 the Gaussian 86(TM) system (copyright 1986, Carnegie Mellon
 University), and the Gaussian 82(TM) system (copyright 1983,
 Carnegie Mellon University). Gaussian is a federally registered
 trademark of Gaussian, Inc.
  
 This software contains proprietary and confidential information,
 including trade secrets, belonging to Gaussian, Inc.
  
 This software is provided under written license and may be
 used, copied, transmitted, or stored only in accord with that
 written license.
  
 The following legend is applicable only to US Government
 contracts under FAR:
  
                    RESTRICTED RIGHTS LEGEND
  
 Use, reproduction and disclosure by the US Government is
 subject to restrictions as set forth in subparagraphs (a)
 and (c) of the Commercial Computer Software - Restricted
 Rights clause in FAR 52.227-19.
  
 Gaussian, Inc.
 340 Quinnipiac St., Bldg. 40, Wallingford CT 06492
  
  
 ---------------------------------------------------------------
 Warning -- This program may not be used in any manner that
 competes with the business of Gaussian, Inc. or will provide
 assistance to any competitor of Gaussian, Inc.  The licensee
 of this program is prohibited from giving any competitor of
 Gaussian, Inc. access to this program.  By using this program,
 the user acknowledges that Gaussian, Inc. is engaged in the
 business of creating and licensing software in the field of
 computational chemistry and represents and warrants to the
 licensee that it is not a competitor of Gaussian, Inc. and that
 it will not use this program in any manner prohibited above.
 ---------------------------------------------------------------
  

 Cite this work as:
 Gaussian 16, Revision A.03,
 M. J. Frisch, G. W. Trucks, H. B. Schlegel, G. E. Scuseria, 
 M. A. Robb, J. R. Cheeseman, G. Scalmani, V. Barone, 
 G. A. Petersson, H. Nakatsuji, X. Li, M. Caricato, A. V. Marenich, 
 J. Bloino, B. G. Janesko, R. Gomperts, B. Mennucci, H. P. Hratchian, 
 J. V. Ortiz, A. F. Izmaylov, J. L. Sonnenberg, D. Williams-Young, 
 F. Ding, F. Lipparini, F. Egidi, J. Goings, B. Peng, A. Petrone, 
 T. Henderson, D. Ranasinghe, V. G. Zakrzewski, J. Gao, N. Rega, 
 G. Zheng, W. Liang, M. Hada, M. Ehara, K. Toyota, R. Fukuda, 
 J. Hasegawa, M. Ishida, T. Nakajima, Y. Honda, O. Kitao, H. Nakai, 
 T. Vreven, K. Throssell, J. A. Montgomery, Jr., J. E. Peralta, 
 F. Ogliaro, M. J. Bearpark, J. J. Heyd, E. N. Brothers, K. N. Kudin, 
 V. N. Staroverov, T. A. Keith, R. Kobayashi, J. Normand, 
 K. Raghavachari, A. P. Rendell, J. C. Burant, S. S. Iyengar, 
 J. Tomasi, M. Cossi, J. M. Millam, M. Klene, C. Adamo, R. Cammi, 
 J. W. Ochterski, R. L. Martin, K. Morokuma, O. Farkas, 
 J. B. Foresman, and D. J. Fox, Gaussian, Inc., Wallingford CT, 2016.
 
 ******************************************
 Gaussian 16:  ES64L-G16RevA.03 25-Dec-2016
                17-Sep-2019 
 ******************************************
 %chk=Ng-293_loop3_42.0.chk
 %nprocshared=48
 Will use up to   48 processors via shared memory.
 %mem=10GB
 %nosave
 ----------------------------------------------------------------------
 #b3lyp/svp scf=(tight,noincore) Test #IOP(5/87=12) Density=Current Pop
 =(MK,readradii) iop(6/33=2) iop(6/42=6)
 ----------------------------------------------------------------------
 1/30=1,38=1,172=1/1;
 2/12=2,17=6,18=5,40=1/2;
 3/5=18,7=101,11=2,25=1,30=1,74=-5/1,2,3;
 4//1;
 5/5=4,32=2,38=5,87=12/2;
 6/7=2,8=2,9=2,10=2,15=8,20=101,22=-1,28=1,33=2,42=6/1,2;
 99/5=1,9=1/99;
 -----------------
 Ng-293_loop3_42.0
 -----------------
 Symbolic Z-matrix:
 Charge =  0 Multiplicity = 1
 C                     38.97     78.01     70.68 
 C                     39.49     77.93     69.25 
 O                     40.65     78.28     69.04 
 H                     37.945    77.642    70.714 
 H                     39.597    77.399    71.33 
 H                     38.995    79.046    71.019 
 N                     38.79     77.38     68.26 
 C                     39.29     77.12     66.92 
 C                     38.88     75.71     66.5 
 O                     38.22     75.02     67.28 
 C                     38.68     78.22     66.05 
 C                     39.17     78.12     64.62 
 O                     40.28     77.64     64.32 
 O                     38.51     78.56     63.65 
 H                     37.92     76.93     68.54 
 H                     40.38     77.15     66.93 
 H                     39.04     79.18     66.42 
 H                     37.59     78.19     66.1 
 N                     39.31     75.23     65.34 
 C                     39.01     73.99     64.65 
 C                     37.54     73.79     64.3 
 O                     36.76     74.71     64.54 
 C                     39.7      72.8      65.31 
 C                     41.22     72.84     65.45 
 C                     41.98     72.8      64.12 
 C                     43.42     72.38     64.41 
 N                     44.21     73.45     65.04 
 H                     39.93     75.86     64.85 
 H                     39.48     74.06     63.67 
 H                     39.42     71.88     64.79 
 H                     39.23     72.76     66.29 
 H                     41.4      71.96     66.06 
 H                     41.55     73.72     66. 
 H                     41.79     73.7      63.55 
 H                     41.55     72.01     63.5 
 H                     43.98     72.13     63.5 
 H                     43.32     71.57     65.13 
 H                     44.19     74.33     64.54 
 H                     43.88     73.7      65.96 
 H                     45.17     73.16     65.15 
 N                     37.24     72.66     63.66 
 C                     35.89     72.32     63.26 
 C                     35.1      71.79     64.45 
 O                     35.15     70.62     64.82 
 C                     35.8      71.34     62.11 
 C                     36.76     70.16     62.13 
 O                     37.94     70.28     62.53 
 O                     36.45     69.06     61.64 
 H                     37.96     72.03     63.31 
 H                     35.52     73.28     62.89 
 H                     35.81     71.89     61.17 
 H                     34.83     70.84     62.08 
 N                     34.17     72.61     64.96 
 C                     33.15     72.25     65.93 
 C                     32.05     71.42     65.3 
 O                     31.27     70.84     66.06 
 H                     34.19     73.56     64.63 
 H                     32.68     73.15     66.33 
 H                     33.73     71.82     66.75 
 N                     31.89     71.4      63.97 
 C                     30.82     70.71     63.29 
 C                     30.7      69.2      63.45 
 O                     31.66     68.46     63.27 
 C                     30.88     71.1      61.82 
 C                     30.09     72.38     61.57 
 N                     28.78     72.26     61.83 
 O                     30.61     73.48     61.39 
 H                     32.44     72.03     63.39 
 H                     29.88     71.06     63.71 
 H                     30.36     70.41     61.15 
 H                     31.88     71.33     61.47 
 H                     28.35     71.36     61.97 
 H                     28.16     73.06     61.79 
 N                     29.49     68.72     63.75 
 C                     29.16     67.3      63.8 
 C                     29.51     66.62     65.11 
 O                     30.08     67.18     66.05 
 H                     28.92     69.36     64.28 
 H                     29.68     66.86     62.95 
 H                     28.08     67.24     63.72 
 N                     29.23     65.31     65.13 
 C                     29.19     64.42     66.27 
 C                     30.58     64.34     66.89 
 O                     30.75     63.75     67.96 
 C                     28.15     64.97     67.24 
 C                     27.27     63.93     67.9 
 C                     27.25     63.77     69.29 
 C                     26.42     63.11     67.14 
 C                     26.39     62.89     69.96 
 C                     25.49     62.28     67.76 
 C                     25.49     62.15     69.17 
 O                     24.58     61.35     69.8 
 H                     28.72     64.96     64.33 
 H                     28.88     63.42     65.97 
 H                     27.39     65.6      66.77 
 H                     28.56     65.57     68.06 
 H                     27.91     64.4      69.87 
 H                     26.45     63.28     66.07 
 H                     26.46     62.77     71.03 
 H                     24.73     61.84     67.14 
 H                     23.98     60.92     69.19 
 N                     31.65     64.79     66.24 
 C                     33.06     64.6      66.52 
 C                     33.64     63.21     66.33 
 O                     34.6      63.01     65.58 
 C                     33.5      65.2      67.86 
 C                     32.91     66.53     68.32 
 C                     35.01     65.22     68.04 
 C                     33.29     67.79     67.55 
 H                     31.51     65.28     65.37 
 H                     33.61     65.11     65.73 
 H                     33.15     64.52     68.64 
 H                     33.25     66.62     69.35 
 H                     31.82     66.44     68.31 
 H                     35.53     64.27     68.15 
 H                     35.43     65.68     67.15 
 H                     35.24     65.85     68.9 
 H                     33.06     68.67     68.16 
 H                     34.36     67.68     67.44 
 H                     32.78     67.71     66.59 
 N                     33.05     62.26     67.06 
 C                     33.34     60.84     67.04 
 C                     34.68     60.67     67.76 
 O                     35.39     59.73     67.4 
 C                     32.27     60.08     67.83 
 O                     32.       60.74     69.05 
 H                     32.24     62.55     67.6 
 H                     33.4      60.37     66.06 
 H                     32.61     59.06     68.01 
 H                     31.34     60.04     67.26 
 H                     31.06     60.56     69.1 
 N                     35.08     61.57     68.65 
 C                     36.33     61.57     69.38 
 C                     37.6      61.68     68.55 
 O                     38.69     61.32     69. 
 C                     36.33     60.52     70.48 
 H                     34.47     62.38     68.71 
 H                     36.42     62.5      69.95 
 H                     36.99     60.86     71.28 
 H                     35.33     60.32     70.86 
 H                     36.71     59.53     70.22 
 N                     37.54     62.22     67.33 
 C                     38.69     62.41     66.47 
 C                     39.41     63.69     66.88 
 O                     38.93     64.62     67.52 
 C                     38.2      62.5      65.03 
 H                     36.68     62.7      67.07 
 H                     39.37     61.55     66.46 
 H                     37.37     63.21     65.03 
 H                     38.95     62.95     64.38 
 H                     37.91     61.5      64.7 
 N                     40.67     63.85     66.49 
 C                     41.53     65.01     66.64 
 C                     41.73     65.68     67.99 
 O                     42.33     66.76     67.97 
 C                     41.02     66.06     65.66 
 C                     41.51     65.88     64.23 
 C                     40.97     66.78     63.13 
 O                     40.23     67.74     63.43 
 O                     41.09     66.52     61.91 
 H                     41.12     63.09     66.01 
 H                     42.52     64.65     66.34 
 H                     41.33     67.06     65.97 
 H                     39.93     66.08     65.63 
 H                     41.18     64.87     63.96 
 H                     42.6      65.94     64.22 
 N                     41.37     65.06     69.11 
 C                     41.26     65.73     70.39 
 H                     40.208    65.877    70.633 
 H                     41.729    65.12     71.162 
 H                     41.759    66.698    70.338 
 H                     40.91     64.17     69. 
 Ca                    38.91     68.26     61.19 
 O                     37.36     66.76     59.68 
 H                     36.68     67.13     59.12 
 H                     36.95     65.97     60.05 
 
 Stoichiometry    C54H83CaN15O23
 Framework group  C1[X(C54H83CaN15O23)]
 Deg. of freedom   522
 Full point group                 C1      NOp   1
 Largest Abelian subgroup         C1      NOp   1
 Largest concise Abelian subgroup C1      NOp   1
                         Standard orientation:                         
 ---------------------------------------------------------------------
 Center     Atomic      Atomic             Coordinates (Angstroms)
 Number     Number       Type             X           Y           Z
 ---------------------------------------------------------------------
      1          6           0       -9.114992   -1.759709    6.833830
      2          6           0       -9.582753   -1.550266    5.398897
      3          8           0      -10.570547   -0.841494    5.214218
      4          1           0       -8.219592   -2.380561    6.836139
      5          1           0       -8.888739   -0.794322    7.287468
      6          1           0       -9.901252   -2.254759    7.404412
      7          7           0       -8.895312   -1.990200    4.347002
      8          6           0       -9.193518   -1.680691    2.958305
      9          6           0       -7.897970   -1.304544    2.242296
     10          8           0       -6.838873   -1.316087    2.873390
     11          6           0       -9.854746   -2.943813    2.404861
     12          6           0      -10.289101   -2.747586    0.966866
     13          8           0      -10.600466   -1.633887    0.502942
     14          8           0      -10.411037   -3.702136    0.164329
     15          1           0       -7.985371   -2.395474    4.560449
     16          1           0       -9.850230   -0.811188    2.915931
     17          1           0      -10.770425   -3.119210    2.969545
     18          1           0       -9.188431   -3.802533    2.505473
     19          7           0       -7.951224   -0.897115    0.980525
     20          6           0       -6.898451   -0.574795    0.036343
     21          6           0       -5.939462   -1.719157   -0.270539
     22          8           0       -6.180565   -2.820626    0.220413
     23          6           0       -6.245644    0.765560    0.360519
     24          6           0       -7.139785    2.001750    0.423348
     25          6           0       -7.763113    2.401642   -0.918162
     26          6           0       -8.219938    3.855742   -0.813254
     27          7           0       -9.431965    4.014769    0.006259
     28          1           0       -8.892785   -0.832541    0.619010
     29          1           0       -7.384672   -0.408491   -0.923934
     30          1           0       -5.432427    0.956663   -0.344717
     31          1           0       -5.783342    0.582569    1.327830
     32          1           0       -6.445308    2.746892    0.799335
     33          1           0       -7.945410    1.878855    1.145612
     34          1           0       -8.461312    1.644450   -1.250093
     35          1           0       -6.982246    2.380761   -1.681844
     36          1           0       -8.492209    4.285641   -1.785497
     37          1           0       -7.400700    4.354531   -0.298902
     38          1           0      -10.201956    3.419213   -0.271638
     39          1           0       -9.291957    3.773282    0.975734
     40          1           0       -9.741882    4.974756   -0.007032
     41          7           0       -4.966386   -1.449037   -1.140400
     42          6           0       -3.973624   -2.427147   -1.535146
     43          6           0       -2.900801   -2.559488   -0.461537
     44          8           0       -1.937870   -1.801646   -0.379440
     45          6           0       -3.323995   -2.161719   -2.876239
     46          6           0       -2.938747   -0.722862   -3.185553
     47          8           0       -3.657168    0.239685   -2.833169
     48          8           0       -1.959759   -0.450588   -3.902246
     49          1           0       -4.939178   -0.577322   -1.666872
     50          1           0       -4.582883   -3.327820   -1.649125
     51          1           0       -3.918777   -2.628446   -3.660204
     52          1           0       -2.365610   -2.676024   -2.969980
     53          7           0       -2.931656   -3.678522    0.276169
     54          6           0       -1.895721   -4.131570    1.188576
     55          6           0       -0.694615   -4.675617    0.442146
     56          8           0        0.343423   -4.849303    1.086127
     57          1           0       -3.753525   -4.250011    0.177520
     58          1           0       -2.275691   -4.941640    1.813324
     59          1           0       -1.759207   -3.274447    1.852204
     60          7           0       -0.798437   -5.033309   -0.844780
     61          6           0        0.265587   -5.639872   -1.608543
     62          6           0        1.564918   -4.868581   -1.800771
     63          8           0        1.567353   -3.710404   -2.201046
     64          6           0       -0.315567   -6.072273   -2.947157
     65          6           0       -0.916300   -7.470150   -2.846857
     66          7           0       -0.016573   -8.419575   -2.551587
     67          8           0       -2.124756   -7.692434   -2.791863
     68          1           0       -1.713663   -5.041704   -1.289854
     69          1           0        0.600863   -6.521765   -1.067845
     70          1           0        0.429951   -6.230786   -3.731043
     71          1           0       -1.136976   -5.451730   -3.287179
     72          1           0        0.973645   -8.242702   -2.603395
     73          1           0       -0.299944   -9.374794   -2.369219
     74          7           0        2.699863   -5.529439   -1.556505
     75          6           0        4.032054   -4.998363   -1.823010
     76          6           0        4.580181   -4.100746   -0.729923
     77          8           0        3.952426   -3.780837    0.282836
     78          1           0        2.606193   -6.252666   -0.861114
     79          1           0        3.944149   -4.484454   -2.779394
     80          1           0        4.695659   -5.855644   -1.856155
     81          7           0        5.790770   -3.595678   -1.002468
     82          6           0        6.706098   -2.928235   -0.102470
     83          6           0        6.060123   -1.644521    0.405168
     84          8           0        6.602842   -0.986138    1.296172
     85          6           0        7.028157   -3.903678    1.024379
     86          6           0        8.475134   -3.920606    1.468871
     87          6           0        8.836830   -3.598057    2.781592
     88          6           0        9.501955   -4.290733    0.585047
     89          6           0       10.146204   -3.685958    3.272219
     90          6           0       10.804203   -4.472225    1.042663
     91          6           0       11.133542   -4.146543    2.380746
     92          8           0       12.401832   -4.326697    2.854016
     93          1           0        6.238588   -3.958554   -1.833359
     94          1           0        7.635772   -2.677441   -0.611301
     95          1           0        6.892975   -4.955199    0.757119
     96          1           0        6.442425   -3.757401    1.938721
     97          1           0        8.043261   -3.308753    3.456463
     98          1           0        9.177687   -4.553227   -0.415276
     99          1           0       10.372407   -3.370138    4.278842
    100          1           0       11.498090   -4.955538    0.378939
    101          1           0       12.996225   -4.683956    2.193665
    102          7           0        4.974554   -1.143462   -0.178253
    103          6           0        4.350217    0.156567   -0.027498
    104          6           0        5.090442    1.366175   -0.569269
    105          8           0        4.571114    2.121562   -1.396184
    106          6           0        3.830259    0.420628    1.389934
    107          6           0        3.186908   -0.715202    2.180245
    108          6           0        2.964286    1.667016    1.487441
    109          6           0        1.837931   -1.246095    1.707684
    110          1           0        4.526115   -1.685942   -0.900207
    111          1           0        3.497049    0.177183   -0.704536
    112          1           0        4.700959    0.655047    2.006561
    113          1           0        3.082138   -0.304308    3.182637
    114          1           0        3.891455   -1.551331    2.208552
    115          1           0        3.436654    2.637111    1.343270
    116          1           0        2.210637    1.591996    0.708670
    117          1           0        2.465801    1.657747    2.457403
    118          1           0        1.367837   -1.812575    2.518556
    119          1           0        1.285270   -0.336512    1.517096
    120          1           0        2.044875   -1.787905    0.784799
    121          7           0        6.308085    1.547062   -0.051461
    122          6           0        7.268224    2.568608   -0.419534
    123          6           0        6.739111    3.879784    0.166775
    124          8           0        7.017692    4.914018   -0.441543
    125          6           0        8.623356    2.265137    0.227090
    126          8           0        8.449583    1.898188    1.580623
    127          1           0        6.634744    0.825584    0.584592
    128          1           0        7.451155    2.702614   -1.484184
    129          1           0        9.267499    3.140700    0.144212
    130          1           0        9.105280    1.430385   -0.285100
    131          1           0        9.148187    1.244607    1.637930
    132          7           0        5.931223    3.863657    1.219940
    133          6           0        5.320556    5.009048    1.860695
    134          6           0        4.360844    5.829153    1.012001
    135          8           0        4.085498    6.994651    1.305256
    136          6           0        6.333763    5.790754    2.682185
    137          1           0        5.650066    2.928960    1.501172
    138          1           0        4.617952    4.667207    2.627110
    139          1           0        5.806617    6.280898    3.502597
    140          1           0        7.136056    5.158915    3.058359
    141          1           0        6.860279    6.603018    2.177102
    142          7           0        3.769957    5.260877   -0.042284
    143          6           0        2.811504    5.933729   -0.894831
    144          6           0        1.437576    5.879619   -0.235820
    145          8           0        1.077924    5.087877    0.629451
    146          6           0        2.794439    5.227333   -2.244836
    147          1           0        3.846181    4.249389   -0.135461
    148          1           0        3.099787    6.962018   -1.143051
    149          1           0        2.711448    4.158975   -2.033356
    150          1           0        1.895114    5.468755   -2.810902
    151          1           0        3.707671    5.488963   -2.783870
    152          7           0        0.514251    6.742866   -0.645180
    153          6           0       -0.887103    6.822375   -0.274256
    154          6           0       -1.321586    6.854568    1.182312
    155          8           0       -2.535047    6.737070    1.383576
    156          6           0       -1.584276    5.648434   -0.951613
    157          6           0       -1.954850    5.889159   -2.408366
    158          6           0       -2.534180    4.752748   -3.235739
    159          8           0       -2.820850    3.672265   -2.679341
    160          8           0       -2.592013    4.775500   -4.487353
    161          1           0        0.781438    7.444461   -1.313668
    162          1           0       -1.224299    7.771963   -0.703536
    163          1           0       -2.512350    5.399437   -0.433076
    164          1           0       -0.970630    4.747526   -0.916928
    165          1           0       -1.000761    6.134678   -2.889338
    166          1           0       -2.638681    6.738381   -2.463119
    167          7           0       -0.438479    7.108597    2.143556
    168          6           0       -0.703743    6.876686    3.548993
    169          1           0       -0.169768    5.985027    3.876371
    170          1           0       -0.366800    7.735244    4.129849
    171          1           0       -1.774248    6.733787    3.698415
    172          1           0        0.521210    7.210643    1.853067
    173         20           0       -2.825724    1.909498   -4.660004
    174          8           0       -0.969400    1.214874   -6.393255
    175          1           0       -0.958259    0.356708   -6.813169
    176          1           0       -0.041707    1.388120   -6.197116
 ---------------------------------------------------------------------
 Rotational constants (GHZ):           0.0170013           0.0093297           0.0073160
 Standard basis: SVP (5D, 7F)
 There are  1809 symmetry adapted cartesian basis functions of A   symmetry.
 There are  1717 symmetry adapted basis functions of A   symmetry.
  1717 basis functions,  2922 primitive gaussians,  1809 cartesian basis functions
   358 alpha electrons      358 beta electrons
       nuclear repulsion energy     18711.3391954501 Hartrees.
 NAtoms=  176 NActive=  176 NUniq=  176 SFac= 1.00D+00 NAtFMM=   60 NAOKFM=T Big=T
 Integral buffers will be    131072 words long.
 Raffenetti 2 integral format.
 Two-electron integral symmetry is turned on.
 One-electron integrals computed using PRISM.
 NBasis=  1717 RedAO= T EigKep=  2.94D-04  NBF=  1717
 NBsUse=  1717 1.00D-06 EigRej= -1.00D+00 NBFU=  1717
 ExpMin= 1.98D-02 ExpMax= 3.51D+04 ExpMxC= 5.28D+03 IAcc=3 IRadAn=         5 AccDes= 0.00D+00
 Harris functional with IExCor=  402 and IRadAn=       5 diagonalized for initial guess.
 HarFok:  IExCor=  402 AccDes= 0.00D+00 IRadAn=         5 IDoV= 1 UseB2=F ITyADJ=14
 ICtDFT=  3500011 ScaDFX=  1.000000  1.000000  1.000000  1.000000
 FoFCou: FMM=F IPFlag=           0 FMFlag=      100000 FMFlg1=        2001
         NFxFlg=           0 DoJE=T BraDBF=F KetDBF=T FulRan=T
         wScrn=  0.000000 ICntrl=       500 IOpCl=  0 I1Cent=   200000004 NGrid=           0
         NMat0=    1 NMatS0=      1 NMatT0=    0 NMatD0=    1 NMtDS0=    0 NMtDT0=    0
 Petite list used in FoFCou.
 Requested convergence on RMS density matrix=1.00D-08 within 128 cycles.
 Requested convergence on MAX density matrix=1.00D-06.
 Requested convergence on             energy=1.00D-06.
 No special actions if energy rises.
 EnCoef did     3 forward-backward iterations
 EnCoef did    25 forward-backward iterations
 EnCoef did     2 forward-backward iterations
 EnCoef did     3 forward-backward iterations
 EnCoef did     2 forward-backward iterations
 Restarting incremental Fock formation.
 SCF Done:  E(RB3LYP) =  -5333.38497697     A.U. after   26 cycles
            NFock= 26  Conv=0.32D-08     -V/T= 2.0081
 SCF density gives NOpUse=  1 NOpAll=  1.
 Hyperfine terms turned off by default for NAtoms > 100.

 **********************************************************************

            Population analysis using the SCF density.

 **********************************************************************

 Orbital symmetries:
 BldTbl:  Degeneracy threshold= 1.00D-02
       Occupied  (A) (A) (A) (A) (A) (A) (A) (A) (A) (A) (A) (A)
                 (A) (A) (A) (A) (A) (A) (A) (A) (A) (A) (A) (A)
                 (A) (A) (A) (A) (A) (A) (A) (A) (A) (A) (A) (A)
                 (A) (A) (A) (A) (A) (A) (A) (A) (A) (A) (A) (A)
                 (A) (A) (A) (A) (A) (A) (A) (A) (A) (A) (A) (A)
                 (A) (A) (A) (A) (A) (A) (A) (A) (A) (A) (A) (A)
                 (A) (A) (A) (A) (A) (A) (A) (A) (A) (A) (A) (A)
                 (A) (A) (A) (A) (A) (A) (A) (A) (A) (A) (A) (A)
                 (A) (A) (A) (A) (A) (A) (A) (A) (A) (A) (A) (A)
                 (A) (A) (A) (A) (A) (A) (A) (A) (A) (A) (A) (A)
                 (A) (A) (A) (A) (A) (A) (A) (A) (A) (A) (A) (A)
                 (A) (A) (A) (A) (A) (A) (A) (A) (A) (A) (A) (A)
                 (A) (A) (A) (A) (A) (A) (A) (A) (A) (A) (A) (A)
                 (A) (A) (A) (A) (A) (A) (A) (A) (A) (A) (A) (A)
                 (A) (A) (A) (A) (A) (A) (A) (A) (A) (A) (A) (A)
                 (A) (A) (A) (A) (A) (A) (A) (A) (A) (A) (A) (A)
                 (A) (A) (A) (A) (A) (A) (A) (A) (A) (A) (A) (A)
                 (A) (A) (A) (A) (A) (A) (A) (A) (A) (A) (A) (A)
                 (A) (A) (A) (A) (A) (A) (A) (A) (A) (A) (A) (A)
                 (A) (A) (A) (A) (A) (A) (A) (A) (A) (A) (A) (A)
                 (A) (A) (A) (A) (A) (A) (A) (A) (A) (A) (A) (A)
                 (A) (A) (A) (A) (A) (A) (A) (A) (A) (A) (A) (A)
                 (A) (A) (A) (A) (A) (A) (A) (A) (A) (A) (A) (A)
                 (A) (A) (A) (A) (A) (A) (A) (A) (A) (A) (A) (A)
                 (A) (A) (A) (A) (A) (A) (A) (A) (A) (A) (A) (A)
                 (A) (A) (A) (A) (A) (A) (A) (A) (A) (A) (A) (A)
                 (A) (A) (A) (A) (A) (A) (A) (A) (A) (A) (A) (A)
                 (A) (A) (A) (A) (A) (A) (A) (A) (A) (A) (A) (A)
                 (A) (A) (A) (A) (A) (A) (A) (A) (A) (A) (A) (A)
                 (A) (A) (A) (A) (A) (A) (A) (A) (A) (A)
       Virtual   (A) (A) (A) (A) (A) (A) (A) (A) (A) (A) (A) (A)
                 (A) (A) (A) (A) (A) (A) (A) (A) (A) (A) (A) (A)
                 (A) (A) (A) (A) (A) (A) (A) (A) (A) (A) (A) (A)
                 (A) (A) (A) (A) (A) (A) (A) (A) (A) (A) (A) (A)
                 (A) (A) (A) (A) (A) (A) (A) (A) (A) (A) (A) (A)
                 (A) (A) (A) (A) (A) (A) (A) (A) (A) (A) (A) (A)
                 (A) (A) (A) (A) (A) (A) (A) (A) (A) (A) (A) (A)
                 (A) (A) (A) (A) (A) (A) (A) (A) (A) (A) (A) (A)
                 (A) (A) (A) (A) (A) (A) (A) (A) (A) (A) (A) (A)
                 (A) (A) (A) (A) (A) (A) (A) (A) (A) (A) (A) (A)
                 (A) (A) (A) (A) (A) (A) (A) (A) (A) (A) (A) (A)
                 (A) (A) (A) (A) (A) (A) (A) (A) (A) (A) (A) (A)
                 (A) (A) (A) (A) (A) (A) (A) (A) (A) (A) (A) (A)
                 (A) (A) (A) (A) (A) (A) (A) (A) (A) (A) (A) (A)
                 (A) (A) (A) (A) (A) (A) (A) (A) (A) (A) (A) (A)
                 (A) (A) (A) (A) (A) (A) (A) (A) (A) (A) (A) (A)
                 (A) (A) (A) (A) (A) (A) (A) (A) (A) (A) (A) (A)
                 (A) (A) (A) (A) (A) (A) (A) (A) (A) (A) (A) (A)
                 (A) (A) (A) (A) (A) (A) (A) (A) (A) (A) (A) (A)
                 (A) (A) (A) (A) (A) (A) (A) (A) (A) (A) (A) (A)
                 (A) (A) (A) (A) (A) (A) (A) (A) (A) (A) (A) (A)
                 (A) (A) (A) (A) (A) (A) (A) (A) (A) (A) (A) (A)
                 (A) (A) (A) (A) (A) (A) (A) (A) (A) (A) (A) (A)
                 (A) (A) (A) (A) (A) (A) (A) (A) (A) (A) (A) (A)
                 (A) (A) (A) (A) (A) (A) (A) (A) (A) (A) (A) (A)
                 (A) (A) (A) (A) (A) (A) (A) (A) (A) (A) (A) (A)
                 (A) (A) (A) (A) (A) (A) (A) (A) (A) (A) (A) (A)
                 (A) (A) (A) (A) (A) (A) (A) (A) (A) (A) (A) (A)
                 (A) (A) (A) (A) (A) (A) (A) (A) (A) (A) (A) (A)
                 (A) (A) (A) (A) (A) (A) (A) (A) (A) (A) (A) (A)
                 (A) (A) (A) (A) (A) (A) (A) (A) (A) (A) (A) (A)
                 (A) (A) (A) (A) (A) (A) (A) (A) (A) (A) (A) (A)
                 (A) (A) (A) (A) (A) (A) (A) (A) (A) (A) (A) (A)
                 (A) (A) (A) (A) (A) (A) (A) (A) (A) (A) (A) (A)
                 (A) (A) (A) (A) (A) (A) (A) (A) (A) (A) (A) (A)
                 (A) (A) (A) (A) (A) (A) (A) (A) (A) (A) (A) (A)
                 (A) (A) (A) (A) (A) (A) (A) (A) (A) (A) (A) (A)
                 (A) (A) (A) (A) (A) (A) (A) (A) (A) (A) (A) (A)
                 (A) (A) (A) (A) (A) (A) (A) (A) (A) (A) (A) (A)
                 (A) (A) (A) (A) (A) (A) (A) (A) (A) (A) (A) (A)
                 (A) (A) (A) (A) (A) (A) (A) (A) (A) (A) (A) (A)
                 (A) (A) (A) (A) (A) (A) (A) (A) (A) (A) (A) (A)
                 (A) (A) (A) (A) (A) (A) (A) (A) (A) (A) (A) (A)
                 (A) (A) (A) (A) (A) (A) (A) (A) (A) (A) (A) (A)
                 (A) (A) (A) (A) (A) (A) (A) (A) (A) (A) (A) (A)
                 (A) (A) (A) (A) (A) (A) (A) (A) (A) (A) (A) (A)
                 (A) (A) (A) (A) (A) (A) (A) (A) (A) (A) (A) (A)
                 (A) (A) (A) (A) (A) (A) (A) (A) (A) (A) (A) (A)
                 (A) (A) (A) (A) (A) (A) (A) (A) (A) (A) (A) (A)
                 (A) (A) (A) (A) (A) (A) (A) (A) (A) (A) (A) (A)
                 (A) (A) (A) (A) (A) (A) (A) (A) (A) (A) (A) (A)
                 (A) (A) (A) (A) (A) (A) (A) (A) (A) (A) (A) (A)
                 (A) (A) (A) (A) (A) (A) (A) (A) (A) (A) (A) (A)
                 (A) (A) (A) (A) (A) (A) (A) (A) (A) (A) (A) (A)
                 (A) (A) (A) (A) (A) (A) (A) (A) (A) (A) (A) (A)
                 (A) (A) (A) (A) (A) (A) (A) (A) (A) (A) (A) (A)
                 (A) (A) (A) (A) (A) (A) (A) (A) (A) (A) (A) (A)
                 (A) (A) (A) (A) (A) (A) (A) (A) (A) (A) (A) (A)
                 (A) (A) (A) (A) (A) (A) (A) (A) (A) (A) (A) (A)
                 (A) (A) (A) (A) (A) (A) (A) (A) (A) (A) (A) (A)
                 (A) (A) (A) (A) (A) (A) (A) (A) (A) (A) (A) (A)
                 (A) (A) (A) (A) (A) (A) (A) (A) (A) (A) (A) (A)
                 (A) (A) (A) (A) (A) (A) (A) (A) (A) (A) (A) (A)
                 (A) (A) (A) (A) (A) (A) (A) (A) (A) (A) (A) (A)
                 (A) (A) (A) (A) (A) (A) (A) (A) (A) (A) (A) (A)
                 (A) (A) (A) (A) (A) (A) (A) (A) (A) (A) (A) (A)
                 (A) (A) (A) (A) (A) (A) (A) (A) (A) (A) (A) (A)
                 (A) (A) (A) (A) (A) (A) (A) (A) (A) (A) (A) (A)
                 (A) (A) (A) (A) (A) (A) (A) (A) (A) (A) (A) (A)
                 (A) (A) (A) (A) (A) (A) (A) (A) (A) (A) (A) (A)
                 (A) (A) (A) (A) (A) (A) (A) (A) (A) (A) (A) (A)
                 (A) (A) (A) (A) (A) (A) (A) (A) (A) (A) (A) (A)
                 (A) (A) (A) (A) (A) (A) (A) (A) (A) (A) (A) (A)
                 (A) (A) (A) (A) (A) (A) (A) (A) (A) (A) (A) (A)
                 (A) (A) (A) (A) (A) (A) (A) (A) (A) (A) (A) (A)
                 (A) (A) (A) (A) (A) (A) (A) (A) (A) (A) (A) (A)
                 (A) (A) (A) (A) (A) (A) (A) (A) (A) (A) (A) (A)
                 (A) (A) (A) (A) (A) (A) (A) (A) (A) (A) (A) (A)
                 (A) (A) (A) (A) (A) (A) (A) (A) (A) (A) (A) (A)
                 (A) (A) (A) (A) (A) (A) (A) (A) (A) (A) (A) (A)
                 (A) (A) (A) (A) (A) (A) (A) (A) (A) (A) (A) (A)
                 (A) (A) (A) (A) (A) (A) (A) (A) (A) (A) (A) (A)
                 (A) (A) (A) (A) (A) (A) (A) (A) (A) (A) (A) (A)
                 (A) (A) (A) (A) (A) (A) (A) (A) (A) (A) (A) (A)
                 (A) (A) (A) (A) (A) (A) (A) (A) (A) (A) (A) (A)
                 (A) (A) (A) (A) (A) (A) (A) (A) (A) (A) (A) (A)
                 (A) (A) (A) (A) (A) (A) (A) (A) (A) (A) (A) (A)
                 (A) (A) (A) (A) (A) (A) (A) (A) (A) (A) (A) (A)
                 (A) (A) (A) (A) (A) (A) (A) (A) (A) (A) (A) (A)
                 (A) (A) (A) (A) (A) (A) (A) (A) (A) (A) (A) (A)
                 (A) (A) (A) (A) (A) (A) (A) (A) (A) (A) (A) (A)
                 (A) (A) (A) (A) (A) (A) (A) (A) (A) (A) (A) (A)
                 (A) (A) (A) (A) (A) (A) (A) (A) (A) (A) (A) (A)
                 (A) (A) (A) (A) (A) (A) (A) (A) (A) (A) (A) (A)
                 (A) (A) (A) (A) (A) (A) (A) (A) (A) (A) (A) (A)
                 (A) (A) (A) (A) (A) (A) (A) (A) (A) (A) (A) (A)
                 (A) (A) (A) (A) (A) (A) (A) (A) (A) (A) (A) (A)
                 (A) (A) (A) (A) (A) (A) (A) (A) (A) (A) (A) (A)
                 (A) (A) (A) (A) (A) (A) (A) (A) (A) (A) (A) (A)
                 (A) (A) (A) (A) (A) (A) (A) (A) (A) (A) (A) (A)
                 (A) (A) (A) (A) (A) (A) (A) (A) (A) (A) (A) (A)
                 (A) (A) (A) (A) (A) (A) (A) (A) (A) (A) (A) (A)
                 (A) (A) (A) (A) (A) (A) (A) (A) (A) (A) (A) (A)
                 (A) (A) (A) (A) (A) (A) (A) (A) (A) (A) (A) (A)
                 (A) (A) (A) (A) (A) (A) (A) (A) (A) (A) (A) (A)
                 (A) (A) (A) (A) (A) (A) (A) (A) (A) (A) (A) (A)
                 (A) (A) (A) (A) (A) (A) (A) (A) (A) (A) (A) (A)
                 (A) (A) (A) (A) (A) (A) (A) (A) (A) (A) (A) (A)
                 (A) (A) (A) (A) (A) (A) (A) (A) (A) (A) (A) (A)
                 (A) (A) (A) (A) (A) (A) (A) (A) (A) (A) (A) (A)
                 (A) (A) (A) (A) (A) (A) (A) (A) (A) (A) (A) (A)
                 (A) (A) (A) (A) (A) (A) (A) (A) (A) (A) (A) (A)
                 (A) (A) (A) (A) (A) (A) (A) (A) (A) (A) (A) (A)
                 (A) (A) (A)
 The electronic state is 1-A.
 Alpha  occ. eigenvalues -- -145.46023 -19.22582 -19.17102 -19.14608 -19.12230
 Alpha  occ. eigenvalues --  -19.10969 -19.10689 -19.10497 -19.10386 -19.08979
 Alpha  occ. eigenvalues --  -19.08751 -19.08674 -19.08434 -19.07971 -19.07787
 Alpha  occ. eigenvalues --  -19.07686 -19.07492 -19.06930 -19.06888 -19.06717
 Alpha  occ. eigenvalues --  -19.04501 -19.02856 -18.96592 -18.95031 -15.51976
 Alpha  occ. eigenvalues --  -14.55862 -14.38602 -14.37435 -14.36867 -14.36642
 Alpha  occ. eigenvalues --  -14.35959 -14.35237 -14.35065 -14.34831 -14.34041
 Alpha  occ. eigenvalues --  -14.33817 -14.33655 -14.32695 -14.29743 -14.29501
 Alpha  occ. eigenvalues --  -12.65609 -12.65517 -12.65485 -10.33158 -10.31053
 Alpha  occ. eigenvalues --  -10.30172 -10.29823 -10.29156 -10.28664 -10.28125
 Alpha  occ. eigenvalues --  -10.27797 -10.27420 -10.27002 -10.26813 -10.26770
 Alpha  occ. eigenvalues --  -10.26659 -10.26442 -10.26418 -10.26404 -10.26048
 Alpha  occ. eigenvalues --  -10.25643 -10.25260 -10.25009 -10.24906 -10.23590
 Alpha  occ. eigenvalues --  -10.23248 -10.23157 -10.23151 -10.23067 -10.22714
 Alpha  occ. eigenvalues --  -10.22714 -10.22264 -10.22213 -10.21907 -10.21887
 Alpha  occ. eigenvalues --  -10.21347 -10.20791 -10.20669 -10.20585 -10.20403
 Alpha  occ. eigenvalues --  -10.19882 -10.19721 -10.19686 -10.19221 -10.18483
 Alpha  occ. eigenvalues --  -10.18317 -10.17874 -10.17423 -10.17284 -10.16699
 Alpha  occ. eigenvalues --  -10.16377 -10.15841 -10.15775 -10.15565 -10.15465
 Alpha  occ. eigenvalues --  -10.13930 -10.11256  -1.88650  -1.16413  -1.15752
 Alpha  occ. eigenvalues --   -1.15548  -1.11325  -1.08309  -1.05717  -1.05608
 Alpha  occ. eigenvalues --   -1.04460  -1.04338  -1.03738  -1.03555  -1.03156
 Alpha  occ. eigenvalues --   -1.02838  -1.02651  -1.02085  -1.01787  -1.01328
 Alpha  occ. eigenvalues --   -1.00843  -1.00477  -1.00237  -0.99682  -0.97655
 Alpha  occ. eigenvalues --   -0.96337  -0.95770  -0.93607  -0.93198  -0.93103
 Alpha  occ. eigenvalues --   -0.92669  -0.92598  -0.91631  -0.91575  -0.91535
 Alpha  occ. eigenvalues --   -0.91232  -0.90665  -0.90334  -0.90119  -0.90019
 Alpha  occ. eigenvalues --   -0.89975  -0.87901  -0.86556  -0.86128  -0.85705
 Alpha  occ. eigenvalues --   -0.81798  -0.80574  -0.80114  -0.79872  -0.79399
 Alpha  occ. eigenvalues --   -0.78882  -0.77765  -0.77713  -0.76928  -0.76409
 Alpha  occ. eigenvalues --   -0.75468  -0.75041  -0.74193  -0.74114  -0.72966
 Alpha  occ. eigenvalues --   -0.72407  -0.72072  -0.71933  -0.70354  -0.69536
 Alpha  occ. eigenvalues --   -0.69492  -0.69002  -0.68607  -0.67944  -0.67525
 Alpha  occ. eigenvalues --   -0.67288  -0.66012  -0.65142  -0.64886  -0.63667
 Alpha  occ. eigenvalues --   -0.63354  -0.62768  -0.62245  -0.61740  -0.61407
 Alpha  occ. eigenvalues --   -0.61385  -0.61292  -0.60803  -0.60615  -0.59978
 Alpha  occ. eigenvalues --   -0.59849  -0.59659  -0.59340  -0.58741  -0.58582
 Alpha  occ. eigenvalues --   -0.58237  -0.57876  -0.57359  -0.56706  -0.56323
 Alpha  occ. eigenvalues --   -0.56181  -0.55924  -0.55886  -0.55487  -0.54671
 Alpha  occ. eigenvalues --   -0.54499  -0.54154  -0.54109  -0.53727  -0.53423
 Alpha  occ. eigenvalues --   -0.52743  -0.52718  -0.52254  -0.52138  -0.52040
 Alpha  occ. eigenvalues --   -0.51600  -0.51245  -0.51004  -0.50658  -0.50456
 Alpha  occ. eigenvalues --   -0.50075  -0.49602  -0.49528  -0.49238  -0.48824
 Alpha  occ. eigenvalues --   -0.48764  -0.48344  -0.48135  -0.48119  -0.47641
 Alpha  occ. eigenvalues --   -0.47380  -0.47222  -0.47167  -0.46422  -0.46321
 Alpha  occ. eigenvalues --   -0.46140  -0.45770  -0.45483  -0.45448  -0.45233
 Alpha  occ. eigenvalues --   -0.45226  -0.44973  -0.44960  -0.44756  -0.44458
 Alpha  occ. eigenvalues --   -0.44248  -0.44099  -0.43882  -0.43822  -0.43616
 Alpha  occ. eigenvalues --   -0.43461  -0.43385  -0.43290  -0.43241  -0.43107
 Alpha  occ. eigenvalues --   -0.42505  -0.42497  -0.42164  -0.42049  -0.41953
 Alpha  occ. eigenvalues --   -0.41920  -0.41863  -0.41667  -0.41383  -0.41211
 Alpha  occ. eigenvalues --   -0.41008  -0.40996  -0.40881  -0.40721  -0.40693
 Alpha  occ. eigenvalues --   -0.40566  -0.40320  -0.40277  -0.40085  -0.40001
 Alpha  occ. eigenvalues --   -0.39865  -0.39696  -0.39642  -0.39572  -0.39509
 Alpha  occ. eigenvalues --   -0.39360  -0.39291  -0.39060  -0.38833  -0.38723
 Alpha  occ. eigenvalues --   -0.38611  -0.38524  -0.38181  -0.38010  -0.37879
 Alpha  occ. eigenvalues --   -0.37864  -0.37742  -0.37580  -0.37558  -0.37353
 Alpha  occ. eigenvalues --   -0.37243  -0.36976  -0.36957  -0.36736  -0.36673
 Alpha  occ. eigenvalues --   -0.36375  -0.36195  -0.36077  -0.35825  -0.35678
 Alpha  occ. eigenvalues --   -0.35504  -0.35317  -0.35108  -0.35028  -0.35010
 Alpha  occ. eigenvalues --   -0.34566  -0.34544  -0.34162  -0.34044  -0.33961
 Alpha  occ. eigenvalues --   -0.33160  -0.33138  -0.32911  -0.32801  -0.32114
 Alpha  occ. eigenvalues --   -0.31799  -0.31653  -0.31035  -0.30936  -0.30203
 Alpha  occ. eigenvalues --   -0.30054  -0.29270  -0.29199  -0.28982  -0.28823
 Alpha  occ. eigenvalues --   -0.28280  -0.28067  -0.27803  -0.27546  -0.27259
 Alpha  occ. eigenvalues --   -0.27048  -0.26985  -0.26608  -0.26519  -0.26492
 Alpha  occ. eigenvalues --   -0.26357  -0.26356  -0.26284  -0.26229  -0.26117
 Alpha  occ. eigenvalues --   -0.25362  -0.25199  -0.24823  -0.24562  -0.24390
 Alpha  occ. eigenvalues --   -0.24277  -0.24238  -0.23521  -0.23396  -0.23144
 Alpha  occ. eigenvalues --   -0.23097  -0.23073  -0.22869  -0.22645  -0.22247
 Alpha  occ. eigenvalues --   -0.21728  -0.21319  -0.20530  -0.20222  -0.18989
 Alpha  occ. eigenvalues --   -0.14643  -0.13368  -0.09956
 Alpha virt. eigenvalues --   -0.08866  -0.07988  -0.03024  -0.02084  -0.01922
 Alpha virt. eigenvalues --   -0.01681  -0.01512  -0.01071  -0.00579  -0.00336
 Alpha virt. eigenvalues --    0.00672   0.00764   0.01217   0.01481   0.01708
 Alpha virt. eigenvalues --    0.02053   0.02063   0.02233   0.02717   0.02994
 Alpha virt. eigenvalues --    0.03202   0.03336   0.03372   0.03775   0.03913
 Alpha virt. eigenvalues --    0.04167   0.04351   0.04419   0.04567   0.04870
 Alpha virt. eigenvalues --    0.05429   0.05668   0.05678   0.05787   0.06172
 Alpha virt. eigenvalues --    0.06386   0.06543   0.06981   0.07202   0.07448
 Alpha virt. eigenvalues --    0.07520   0.07611   0.07948   0.08019   0.08257
 Alpha virt. eigenvalues --    0.08449   0.08584   0.08697   0.08884   0.09138
 Alpha virt. eigenvalues --    0.09257   0.09378   0.09476   0.09743   0.09893
 Alpha virt. eigenvalues --    0.10012   0.10264   0.10557   0.10812   0.11121
 Alpha virt. eigenvalues --    0.11236   0.11338   0.11425   0.11516   0.11623
 Alpha virt. eigenvalues --    0.11725   0.11941   0.12289   0.12609   0.12738
 Alpha virt. eigenvalues --    0.13069   0.13124   0.13313   0.13457   0.13549
 Alpha virt. eigenvalues --    0.13870   0.13959   0.14065   0.14091   0.14183
 Alpha virt. eigenvalues --    0.14412   0.14460   0.14784   0.14956   0.15280
 Alpha virt. eigenvalues --    0.15343   0.15565   0.15618   0.15775   0.15908
 Alpha virt. eigenvalues --    0.16179   0.16498   0.16652   0.16764   0.16928
 Alpha virt. eigenvalues --    0.16978   0.17238   0.17404   0.17529   0.17578
 Alpha virt. eigenvalues --    0.17618   0.18022   0.18084   0.18353   0.18428
 Alpha virt. eigenvalues --    0.18898   0.18974   0.19207   0.19518   0.19740
 Alpha virt. eigenvalues --    0.19801   0.20009   0.20268   0.20345   0.20521
 Alpha virt. eigenvalues --    0.20604   0.20860   0.20989   0.21276   0.21432
 Alpha virt. eigenvalues --    0.21736   0.21980   0.22024   0.22294   0.22454
 Alpha virt. eigenvalues --    0.22762   0.23071   0.23263   0.23693   0.23860
 Alpha virt. eigenvalues --    0.23954   0.24190   0.24402   0.24518   0.24679
 Alpha virt. eigenvalues --    0.24806   0.25354   0.25607   0.26023   0.26098
 Alpha virt. eigenvalues --    0.26132   0.26627   0.26895   0.27043   0.27327
 Alpha virt. eigenvalues --    0.27374   0.27624   0.27667   0.27940   0.28155
 Alpha virt. eigenvalues --    0.28605   0.28787   0.28994   0.29507   0.29649
 Alpha virt. eigenvalues --    0.29888   0.29911   0.29997   0.30279   0.30313
 Alpha virt. eigenvalues --    0.30716   0.30993   0.31087   0.31201   0.31420
 Alpha virt. eigenvalues --    0.31609   0.32019   0.32304   0.32501   0.32993
 Alpha virt. eigenvalues --    0.33205   0.33705   0.33818   0.33924   0.34137
 Alpha virt. eigenvalues --    0.34193   0.34544   0.34779   0.35043   0.35424
 Alpha virt. eigenvalues --    0.35608   0.36112   0.36685   0.37040   0.37404
 Alpha virt. eigenvalues --    0.37924   0.38123   0.38755   0.38867   0.39268
 Alpha virt. eigenvalues --    0.39720   0.40104   0.40510   0.40612   0.40777
 Alpha virt. eigenvalues --    0.40907   0.40978   0.41023   0.41270   0.41686
 Alpha virt. eigenvalues --    0.41796   0.41800   0.42016   0.42248   0.42689
 Alpha virt. eigenvalues --    0.43105   0.43459   0.43480   0.43605   0.43760
 Alpha virt. eigenvalues --    0.43882   0.43944   0.44040   0.44283   0.44424
 Alpha virt. eigenvalues --    0.44450   0.44759   0.45314   0.45494   0.45533
 Alpha virt. eigenvalues --    0.45776   0.46237   0.46325   0.46418   0.46601
 Alpha virt. eigenvalues --    0.47042   0.47117   0.47147   0.47347   0.47564
 Alpha virt. eigenvalues --    0.47679   0.48276   0.48610   0.48744   0.48756
 Alpha virt. eigenvalues --    0.48909   0.49154   0.49231   0.49328   0.49440
 Alpha virt. eigenvalues --    0.49473   0.49686   0.49954   0.49998   0.50136
 Alpha virt. eigenvalues --    0.50487   0.50739   0.50960   0.51205   0.51367
 Alpha virt. eigenvalues --    0.51449   0.51627   0.51802   0.51890   0.52183
 Alpha virt. eigenvalues --    0.52304   0.52805   0.53038   0.53100   0.53180
 Alpha virt. eigenvalues --    0.53345   0.53685   0.53784   0.53946   0.54164
 Alpha virt. eigenvalues --    0.54256   0.54331   0.54614   0.54908   0.55051
 Alpha virt. eigenvalues --    0.55160   0.55381   0.55602   0.55780   0.55910
 Alpha virt. eigenvalues --    0.56064   0.56123   0.56334   0.56471   0.56667
 Alpha virt. eigenvalues --    0.57165   0.57204   0.57411   0.57575   0.57744
 Alpha virt. eigenvalues --    0.57914   0.58013   0.58120   0.58185   0.58374
 Alpha virt. eigenvalues --    0.58783   0.58891   0.59056   0.59259   0.59436
 Alpha virt. eigenvalues --    0.59682   0.59788   0.59850   0.60175   0.60248
 Alpha virt. eigenvalues --    0.60540   0.60710   0.61020   0.61081   0.61180
 Alpha virt. eigenvalues --    0.61284   0.61402   0.61500   0.61617   0.61714
 Alpha virt. eigenvalues --    0.61790   0.61945   0.62209   0.62293   0.62340
 Alpha virt. eigenvalues --    0.62602   0.62757   0.62781   0.62853   0.63256
 Alpha virt. eigenvalues --    0.63320   0.63456   0.63651   0.63776   0.63892
 Alpha virt. eigenvalues --    0.64014   0.64273   0.64321   0.64530   0.64626
 Alpha virt. eigenvalues --    0.64724   0.64803   0.64887   0.64980   0.65176
 Alpha virt. eigenvalues --    0.65222   0.65362   0.65432   0.65631   0.65707
 Alpha virt. eigenvalues --    0.65780   0.65969   0.66059   0.66105   0.66337
 Alpha virt. eigenvalues --    0.66409   0.66472   0.66564   0.66687   0.66724
 Alpha virt. eigenvalues --    0.66920   0.66931   0.67138   0.67159   0.67334
 Alpha virt. eigenvalues --    0.67446   0.67453   0.67560   0.67656   0.67801
 Alpha virt. eigenvalues --    0.67830   0.67879   0.67983   0.68339   0.68351
 Alpha virt. eigenvalues --    0.68467   0.68546   0.68711   0.68764   0.68885
 Alpha virt. eigenvalues --    0.68999   0.69207   0.69250   0.69363   0.69398
 Alpha virt. eigenvalues --    0.69444   0.69699   0.69708   0.69824   0.69919
 Alpha virt. eigenvalues --    0.69939   0.70054   0.70076   0.70307   0.70485
 Alpha virt. eigenvalues --    0.70607   0.70752   0.70890   0.71019   0.71157
 Alpha virt. eigenvalues --    0.71218   0.71296   0.71399   0.71492   0.71680
 Alpha virt. eigenvalues --    0.71777   0.71891   0.72041   0.72320   0.72339
 Alpha virt. eigenvalues --    0.72629   0.72791   0.72922   0.73029   0.73371
 Alpha virt. eigenvalues --    0.73539   0.73648   0.73738   0.73928   0.74281
 Alpha virt. eigenvalues --    0.74315   0.74580   0.74697   0.74761   0.75055
 Alpha virt. eigenvalues --    0.75392   0.75626   0.75794   0.76098   0.76217
 Alpha virt. eigenvalues --    0.76519   0.76647   0.76918   0.77041   0.77348
 Alpha virt. eigenvalues --    0.77587   0.77629   0.77891   0.78038   0.78068
 Alpha virt. eigenvalues --    0.78101   0.78425   0.78649   0.78744   0.78941
 Alpha virt. eigenvalues --    0.79325   0.79453   0.80016   0.80360   0.80423
 Alpha virt. eigenvalues --    0.80694   0.80841   0.80868   0.81052   0.81397
 Alpha virt. eigenvalues --    0.81666   0.81794   0.81940   0.82668   0.82784
 Alpha virt. eigenvalues --    0.82991   0.83197   0.83917   0.84107   0.84400
 Alpha virt. eigenvalues --    0.84597   0.84776   0.84847   0.85158   0.85234
 Alpha virt. eigenvalues --    0.85645   0.86214   0.86697   0.87118   0.87587
 Alpha virt. eigenvalues --    0.87762   0.87908   0.88058   0.88256   0.88582
 Alpha virt. eigenvalues --    0.88938   0.89232   0.89543   0.90352   0.90627
 Alpha virt. eigenvalues --    0.90737   0.91245   0.91508   0.91730   0.91921
 Alpha virt. eigenvalues --    0.92211   0.92448   0.92548   0.92717   0.93019
 Alpha virt. eigenvalues --    0.93233   0.93488   0.93860   0.94547   0.94701
 Alpha virt. eigenvalues --    0.95147   0.95375   0.95818   0.95937   0.96212
 Alpha virt. eigenvalues --    0.96601   0.96742   0.96850   0.97121   0.97245
 Alpha virt. eigenvalues --    0.97406   0.97725   0.97953   0.98389   0.98563
 Alpha virt. eigenvalues --    0.99041   0.99167   0.99378   0.99577   0.99805
 Alpha virt. eigenvalues --    1.00183   1.00276   1.00657   1.01008   1.01110
 Alpha virt. eigenvalues --    1.01702   1.02147   1.02423   1.02491   1.02857
 Alpha virt. eigenvalues --    1.03035   1.03269   1.03940   1.04148   1.04376
 Alpha virt. eigenvalues --    1.04545   1.04763   1.05057   1.05144   1.05488
 Alpha virt. eigenvalues --    1.05735   1.05903   1.06228   1.06391   1.06769
 Alpha virt. eigenvalues --    1.07079   1.07663   1.08036   1.08240   1.08406
 Alpha virt. eigenvalues --    1.08435   1.08658   1.09205   1.09278   1.09817
 Alpha virt. eigenvalues --    1.10114   1.10289   1.10527   1.10990   1.11177
 Alpha virt. eigenvalues --    1.11406   1.11810   1.11880   1.12568   1.12745
 Alpha virt. eigenvalues --    1.12874   1.13375   1.13609   1.13993   1.14337
 Alpha virt. eigenvalues --    1.14544   1.14803   1.15033   1.15103   1.15292
 Alpha virt. eigenvalues --    1.15412   1.15932   1.16130   1.16486   1.16654
 Alpha virt. eigenvalues --    1.16754   1.17336   1.17816   1.17882   1.18229
 Alpha virt. eigenvalues --    1.18338   1.18426   1.18608   1.18942   1.19365
 Alpha virt. eigenvalues --    1.19593   1.20178   1.20475   1.20627   1.20812
 Alpha virt. eigenvalues --    1.20886   1.21200   1.21380   1.21584   1.21653
 Alpha virt. eigenvalues --    1.22570   1.22729   1.22762   1.22969   1.23600
 Alpha virt. eigenvalues --    1.23657   1.23972   1.24201   1.24607   1.24728
 Alpha virt. eigenvalues --    1.25051   1.25195   1.25393   1.25635   1.25920
 Alpha virt. eigenvalues --    1.26250   1.26551   1.26591   1.26676   1.26840
 Alpha virt. eigenvalues --    1.27264   1.27591   1.27852   1.27896   1.28187
 Alpha virt. eigenvalues --    1.28425   1.28753   1.28895   1.29205   1.29887
 Alpha virt. eigenvalues --    1.30352   1.30865   1.31163   1.31313   1.31480
 Alpha virt. eigenvalues --    1.31883   1.32092   1.32311   1.32375   1.32710
 Alpha virt. eigenvalues --    1.32885   1.33299   1.33590   1.33739   1.34123
 Alpha virt. eigenvalues --    1.34350   1.34776   1.35253   1.35986   1.36087
 Alpha virt. eigenvalues --    1.36291   1.36429   1.36814   1.37164   1.37535
 Alpha virt. eigenvalues --    1.37658   1.37942   1.38135   1.38389   1.39031
 Alpha virt. eigenvalues --    1.39125   1.39408   1.39577   1.40103   1.40464
 Alpha virt. eigenvalues --    1.40678   1.41001   1.41410   1.41599   1.41754
 Alpha virt. eigenvalues --    1.41774   1.41905   1.42115   1.42375   1.42750
 Alpha virt. eigenvalues --    1.42910   1.43176   1.43566   1.43696   1.43965
 Alpha virt. eigenvalues --    1.44336   1.45027   1.45249   1.45822   1.45839
 Alpha virt. eigenvalues --    1.46150   1.46318   1.46922   1.47075   1.47616
 Alpha virt. eigenvalues --    1.47843   1.47889   1.48072   1.48154   1.48480
 Alpha virt. eigenvalues --    1.48526   1.49170   1.49641   1.49687   1.50133
 Alpha virt. eigenvalues --    1.50253   1.51789   1.51967   1.52511   1.52630
 Alpha virt. eigenvalues --    1.52850   1.53042   1.53234   1.53515   1.53796
 Alpha virt. eigenvalues --    1.54482   1.54830   1.55304   1.55605   1.55679
 Alpha virt. eigenvalues --    1.55706   1.55733   1.56022   1.56619   1.57096
 Alpha virt. eigenvalues --    1.57249   1.57438   1.57887   1.58058   1.58688
 Alpha virt. eigenvalues --    1.58932   1.60494   1.60599   1.60983   1.61330
 Alpha virt. eigenvalues --    1.62108   1.62183   1.62411   1.62530   1.62703
 Alpha virt. eigenvalues --    1.62867   1.63027   1.63229   1.63345   1.63656
 Alpha virt. eigenvalues --    1.63859   1.64322   1.64760   1.64988   1.65600
 Alpha virt. eigenvalues --    1.66026   1.66137   1.66303   1.66509   1.66991
 Alpha virt. eigenvalues --    1.67333   1.67630   1.67903   1.68233   1.68519
 Alpha virt. eigenvalues --    1.68695   1.69310   1.69442   1.69850   1.70277
 Alpha virt. eigenvalues --    1.70349   1.70620   1.70635   1.70886   1.71210
 Alpha virt. eigenvalues --    1.71442   1.71679   1.72049   1.72275   1.72338
 Alpha virt. eigenvalues --    1.72500   1.72624   1.73145   1.73190   1.73589
 Alpha virt. eigenvalues --    1.73914   1.74112   1.74342   1.74365   1.74535
 Alpha virt. eigenvalues --    1.75076   1.75133   1.75445   1.75512   1.75641
 Alpha virt. eigenvalues --    1.75807   1.76187   1.76602   1.76654   1.76818
 Alpha virt. eigenvalues --    1.76952   1.77183   1.77194   1.77469   1.77571
 Alpha virt. eigenvalues --    1.77642   1.77763   1.77885   1.77994   1.78167
 Alpha virt. eigenvalues --    1.78273   1.78370   1.78570   1.78706   1.79006
 Alpha virt. eigenvalues --    1.79080   1.79374   1.79526   1.79741   1.79836
 Alpha virt. eigenvalues --    1.79943   1.80040   1.80136   1.80525   1.80691
 Alpha virt. eigenvalues --    1.80744   1.81044   1.81246   1.81602   1.81604
 Alpha virt. eigenvalues --    1.81701   1.81898   1.82078   1.82130   1.82488
 Alpha virt. eigenvalues --    1.82660   1.82896   1.82977   1.83149   1.83267
 Alpha virt. eigenvalues --    1.83543   1.83706   1.83830   1.83925   1.84121
 Alpha virt. eigenvalues --    1.84184   1.84756   1.84994   1.85094   1.85436
 Alpha virt. eigenvalues --    1.85458   1.85565   1.85687   1.85886   1.85964
 Alpha virt. eigenvalues --    1.86133   1.86378   1.86505   1.86737   1.86820
 Alpha virt. eigenvalues --    1.86929   1.87316   1.87477   1.87590   1.88026
 Alpha virt. eigenvalues --    1.88450   1.88658   1.88810   1.88870   1.89029
 Alpha virt. eigenvalues --    1.89083   1.89178   1.89415   1.89641   1.89667
 Alpha virt. eigenvalues --    1.90074   1.90177   1.90252   1.90559   1.90606
 Alpha virt. eigenvalues --    1.90858   1.91180   1.91350   1.91435   1.91866
 Alpha virt. eigenvalues --    1.92133   1.92203   1.92444   1.92604   1.92847
 Alpha virt. eigenvalues --    1.92878   1.93476   1.93502   1.93736   1.93972
 Alpha virt. eigenvalues --    1.94083   1.94295   1.94413   1.94521   1.94814
 Alpha virt. eigenvalues --    1.95164   1.95276   1.95588   1.95740   1.96278
 Alpha virt. eigenvalues --    1.96514   1.96933   1.97278   1.97552   1.97794
 Alpha virt. eigenvalues --    1.97874   1.98024   1.98248   1.98633   1.98806
 Alpha virt. eigenvalues --    1.99177   1.99293   1.99597   1.99688   2.00018
 Alpha virt. eigenvalues --    2.00216   2.00569   2.00636   2.00788   2.00879
 Alpha virt. eigenvalues --    2.01128   2.01290   2.01400   2.02080   2.02162
 Alpha virt. eigenvalues --    2.02542   2.02714   2.03130   2.03549   2.03803
 Alpha virt. eigenvalues --    2.03988   2.04052   2.04277   2.04697   2.04889
 Alpha virt. eigenvalues --    2.05462   2.05496   2.05880   2.06050   2.06328
 Alpha virt. eigenvalues --    2.06509   2.06679   2.06928   2.06998   2.07595
 Alpha virt. eigenvalues --    2.07656   2.08077   2.08531   2.08781   2.08956
 Alpha virt. eigenvalues --    2.09365   2.09638   2.09780   2.10143   2.10521
 Alpha virt. eigenvalues --    2.10685   2.10760   2.10978   2.11084   2.11291
 Alpha virt. eigenvalues --    2.11815   2.12030   2.13186   2.13268   2.13426
 Alpha virt. eigenvalues --    2.13548   2.13780   2.13953   2.14027   2.14179
 Alpha virt. eigenvalues --    2.14466   2.14700   2.14833   2.14986   2.15506
 Alpha virt. eigenvalues --    2.15801   2.16000   2.16125   2.16431   2.16609
 Alpha virt. eigenvalues --    2.16848   2.17010   2.17083   2.17598   2.17743
 Alpha virt. eigenvalues --    2.17898   2.18333   2.18532   2.18968   2.19460
 Alpha virt. eigenvalues --    2.19541   2.19912   2.20612   2.21022   2.21255
 Alpha virt. eigenvalues --    2.21867   2.22047   2.22219   2.22508   2.22789
 Alpha virt. eigenvalues --    2.23093   2.23390   2.23688   2.23931   2.24236
 Alpha virt. eigenvalues --    2.24337   2.24828   2.25049   2.25219   2.25574
 Alpha virt. eigenvalues --    2.26445   2.26585   2.27025   2.27148   2.27669
 Alpha virt. eigenvalues --    2.27990   2.28107   2.28584   2.28933   2.29215
 Alpha virt. eigenvalues --    2.29743   2.29940   2.30235   2.30497   2.30595
 Alpha virt. eigenvalues --    2.31199   2.31515   2.31891   2.32053   2.32264
 Alpha virt. eigenvalues --    2.32636   2.32751   2.33055   2.33329   2.33467
 Alpha virt. eigenvalues --    2.33754   2.34653   2.34730   2.35186   2.35383
 Alpha virt. eigenvalues --    2.35715   2.35928   2.36329   2.36771   2.36986
 Alpha virt. eigenvalues --    2.37184   2.37491   2.37770   2.38181   2.38340
 Alpha virt. eigenvalues --    2.38651   2.39749   2.39990   2.40439   2.40942
 Alpha virt. eigenvalues --    2.41102   2.41527   2.41722   2.41822   2.41949
 Alpha virt. eigenvalues --    2.42513   2.42533   2.43552   2.43687   2.44147
 Alpha virt. eigenvalues --    2.44454   2.45065   2.45178   2.45374   2.46276
 Alpha virt. eigenvalues --    2.46321   2.46464   2.46999   2.47440   2.47863
 Alpha virt. eigenvalues --    2.48088   2.48143   2.48458   2.48719   2.49206
 Alpha virt. eigenvalues --    2.49360   2.49687   2.50253   2.50257   2.50624
 Alpha virt. eigenvalues --    2.51574   2.51836   2.52123   2.52220   2.52493
 Alpha virt. eigenvalues --    2.52794   2.53577   2.53705   2.53808   2.54491
 Alpha virt. eigenvalues --    2.55488   2.56727   2.56988   2.57027   2.57309
 Alpha virt. eigenvalues --    2.57419   2.57891   2.58342   2.58476   2.58564
 Alpha virt. eigenvalues --    2.58747   2.59226   2.59244   2.59863   2.59964
 Alpha virt. eigenvalues --    2.60431   2.60837   2.60980   2.61331   2.61517
 Alpha virt. eigenvalues --    2.61751   2.62077   2.62526   2.62787   2.63167
 Alpha virt. eigenvalues --    2.63339   2.63547   2.63666   2.63984   2.64534
 Alpha virt. eigenvalues --    2.64582   2.64755   2.64986   2.65154   2.65383
 Alpha virt. eigenvalues --    2.65873   2.66296   2.66469   2.66834   2.66881
 Alpha virt. eigenvalues --    2.67536   2.67681   2.67784   2.68211   2.68346
 Alpha virt. eigenvalues --    2.68382   2.68761   2.69219   2.69264   2.69595
 Alpha virt. eigenvalues --    2.69639   2.69851   2.70489   2.70678   2.71004
 Alpha virt. eigenvalues --    2.71055   2.71368   2.71975   2.72165   2.72789
 Alpha virt. eigenvalues --    2.73008   2.73259   2.73827   2.74091   2.74325
 Alpha virt. eigenvalues --    2.74468   2.74818   2.75243   2.75372   2.75735
 Alpha virt. eigenvalues --    2.76074   2.76109   2.76342   2.76927   2.77017
 Alpha virt. eigenvalues --    2.77340   2.77415   2.78395   2.78641   2.78725
 Alpha virt. eigenvalues --    2.79075   2.79232   2.79853   2.79967   2.80141
 Alpha virt. eigenvalues --    2.80610   2.80745   2.80933   2.81050   2.81591
 Alpha virt. eigenvalues --    2.82567   2.82706   2.82736   2.83063   2.83371
 Alpha virt. eigenvalues --    2.84102   2.84333   2.84473   2.84520   2.84652
 Alpha virt. eigenvalues --    2.85156   2.85349   2.85555   2.85759   2.86089
 Alpha virt. eigenvalues --    2.86598   2.86834   2.87499   2.87799   2.87942
 Alpha virt. eigenvalues --    2.88153   2.88532   2.88634   2.88765   2.88877
 Alpha virt. eigenvalues --    2.89002   2.89651   2.89759   2.89862   2.90150
 Alpha virt. eigenvalues --    2.90489   2.90837   2.90878   2.91255   2.91555
 Alpha virt. eigenvalues --    2.92090   2.92350   2.92662   2.92892   2.93194
 Alpha virt. eigenvalues --    2.93445   2.93506   2.93780   2.93927   2.94392
 Alpha virt. eigenvalues --    2.94504   2.94803   2.94896   2.95484   2.95576
 Alpha virt. eigenvalues --    2.96112   2.96252   2.96847   2.97036   2.97641
 Alpha virt. eigenvalues --    2.97952   2.98875   2.98916   2.99113   2.99154
 Alpha virt. eigenvalues --    2.99453   2.99904   3.00080   3.00632   3.00965
 Alpha virt. eigenvalues --    3.01625   3.01714   3.01975   3.02048   3.02366
 Alpha virt. eigenvalues --    3.03193   3.03476   3.04066   3.04239   3.04279
 Alpha virt. eigenvalues --    3.04367   3.04528   3.04828   3.04982   3.06179
 Alpha virt. eigenvalues --    3.06628   3.06984   3.07241   3.08065   3.08944
 Alpha virt. eigenvalues --    3.09165   3.09335   3.09627   3.10841   3.11529
 Alpha virt. eigenvalues --    3.12072   3.12276   3.12346   3.12993   3.13822
 Alpha virt. eigenvalues --    3.14034   3.14108   3.14795   3.15572   3.16321
 Alpha virt. eigenvalues --    3.16864   3.16982   3.17160   3.17206   3.17665
 Alpha virt. eigenvalues --    3.17719   3.17814   3.18125   3.18355   3.18833
 Alpha virt. eigenvalues --    3.19182   3.19240   3.19550   3.19778   3.19988
 Alpha virt. eigenvalues --    3.20302   3.20511   3.21310   3.21582   3.21877
 Alpha virt. eigenvalues --    3.22122   3.22314   3.22598   3.22821   3.23227
 Alpha virt. eigenvalues --    3.23377   3.23730   3.24400   3.24581   3.24858
 Alpha virt. eigenvalues --    3.25084   3.25659   3.25989   3.26963   3.27022
 Alpha virt. eigenvalues --    3.28177   3.28282   3.29828   3.30840   3.31165
 Alpha virt. eigenvalues --    3.31541   3.32349   3.32390   3.32700   3.34691
 Alpha virt. eigenvalues --    3.38764   3.39826   3.40696   3.46257   3.46735
 Alpha virt. eigenvalues --    3.52762   3.53214   3.53717   3.55035   3.55500
 Alpha virt. eigenvalues --    3.56110   3.56983   3.57642   3.58318   3.58939
 Alpha virt. eigenvalues --    3.59475   3.59604   3.60032   3.60311   3.62238
 Alpha virt. eigenvalues --    3.64520   3.64913   3.65419   3.66359   3.66484
 Alpha virt. eigenvalues --    3.66562   3.67899   3.68231   3.68473   3.68632
 Alpha virt. eigenvalues --    3.68742   3.69315   3.69794   3.69994   3.70090
 Alpha virt. eigenvalues --    3.70267   3.70810   3.72115   3.72583   3.74876
 Alpha virt. eigenvalues --    3.76303   3.78764   3.79360   3.79982
          Condensed to atoms (all electrons):
 Mulliken charges:
               1
     1  C    0.083201
     2  C   -0.007462
     3  O   -0.328495
     4  H   -0.015900
     5  H    0.029694
     6  H    0.028721
     7  N   -0.112245
     8  C    0.081260
     9  C    0.055904
    10  O   -0.309007
    11  C    0.141344
    12  C    0.004570
    13  O   -0.409640
    14  O   -0.342347
    15  H    0.113681
    16  H    0.000083
    17  H    0.009288
    18  H   -0.017234
    19  N   -0.098538
    20  C    0.096028
    21  C    0.104584
    22  O   -0.250166
    23  C    0.036465
    24  C   -0.012452
    25  C   -0.040066
    26  C    0.055253
    27  N    0.078109
    28  H    0.096146
    29  H   -0.011173
    30  H    0.012669
    31  H    0.031438
    32  H    0.022127
    33  H   -0.003752
    34  H    0.056911
    35  H    0.038865
    36  H    0.058944
    37  H    0.079386
    38  H    0.185530
    39  H    0.178083
    40  H    0.174308
    41  N   -0.155082
    42  C    0.092272
    43  C    0.089767
    44  O   -0.255310
    45  C    0.067230
    46  C    0.134661
    47  O   -0.453983
    48  O   -0.428617
    49  H    0.129545
    50  H   -0.002541
    51  H    0.018350
    52  H    0.022928
    53  N   -0.178415
    54  C    0.211554
    55  C    0.068793
    56  O   -0.291078
    57  H    0.130300
    58  H    0.040004
    59  H    0.056768
    60  N   -0.097879
    61  C    0.110875
    62  C    0.089421
    63  O   -0.261715
    64  C    0.075689
    65  C   -0.001595
    66  N   -0.070560
    67  O   -0.243159
    68  H    0.121094
    69  H   -0.024861
    70  H    0.015299
    71  H    0.028843
    72  H    0.106036
    73  H    0.131780
    74  N   -0.163053
    75  C    0.211303
    76  C    0.025322
    77  O   -0.230680
    78  H    0.129295
    79  H    0.038529
    80  H    0.013680
    81  N   -0.158461
    82  C    0.119573
    83  C    0.068313
    84  O   -0.307575
    85  C    0.171016
    86  C   -0.067135
    87  C    0.002916
    88  C   -0.020284
    89  C   -0.012007
    90  C   -0.027287
    91  C    0.174917
    92  O   -0.199738
    93  H    0.109827
    94  H    0.030792
    95  H    0.010505
    96  H    0.023446
    97  H   -0.020947
    98  H   -0.052689
    99  H   -0.019336
   100  H   -0.043147
   101  H    0.171368
   102  N   -0.064437
   103  C    0.167541
   104  C    0.023148
   105  O   -0.271493
   106  C   -0.133987
   107  C   -0.000845
   108  C    0.075509
   109  C    0.051952
   110  H    0.129899
   111  H    0.003819
   112  H   -0.002724
   113  H   -0.016239
   114  H    0.002638
   115  H   -0.035549
   116  H    0.021868
   117  H    0.011991
   118  H    0.019663
   119  H   -0.005910
   120  H    0.028241
   121  N   -0.161748
   122  C    0.134563
   123  C    0.037505
   124  O   -0.279237
   125  C    0.196141
   126  O   -0.292454
   127  H    0.146721
   128  H    0.014618
   129  H    0.020199
   130  H   -0.002884
   131  H    0.168690
   132  N   -0.122539
   133  C    0.066600
   134  C    0.068575
   135  O   -0.295430
   136  C    0.073950
   137  H    0.136156
   138  H    0.036317
   139  H    0.011018
   140  H    0.008751
   141  H    0.022313
   142  N   -0.119319
   143  C    0.070130
   144  C    0.058386
   145  O   -0.281472
   146  C    0.054490
   147  H    0.152998
   148  H    0.014184
   149  H    0.026515
   150  H   -0.002364
   151  H    0.043297
   152  N   -0.118230
   153  C    0.097657
   154  C    0.066079
   155  O   -0.304315
   156  C    0.062289
   157  C    0.025252
   158  C    0.086636
   159  O   -0.420917
   160  O   -0.420068
   161  H    0.105310
   162  H    0.004618
   163  H    0.015876
   164  H    0.017112
   165  H   -0.013651
   166  H    0.001057
   167  N   -0.112553
   168  C    0.125030
   169  H    0.030885
   170  H    0.016058
   171  H    0.038671
   172  H    0.123289
   173  Ca   1.330689
   174  O   -0.317373
   175  H    0.196181
   176  H    0.205665
 Sum of Mulliken charges =  -0.00000
 Mulliken charges with hydrogens summed into heavy atoms:
               1
     1  C    0.125716
     2  C   -0.007462
     3  O   -0.328495
     7  N    0.001437
     8  C    0.081343
     9  C    0.055904
    10  O   -0.309007
    11  C    0.133398
    12  C    0.004570
    13  O   -0.409640
    14  O   -0.342347
    19  N   -0.002391
    20  C    0.084855
    21  C    0.104584
    22  O   -0.250166
    23  C    0.080572
    24  C    0.005923
    25  C    0.055711
    26  C    0.193584
    27  N    0.616030
    41  N   -0.025537
    42  C    0.089731
    43  C    0.089767
    44  O   -0.255310
    45  C    0.108508
    46  C    0.134661
    47  O   -0.453983
    48  O   -0.428617
    53  N   -0.048115
    54  C    0.308326
    55  C    0.068793
    56  O   -0.291078
    60  N    0.023215
    61  C    0.086014
    62  C    0.089421
    63  O   -0.261715
    64  C    0.119832
    65  C   -0.001595
    66  N    0.167255
    67  O   -0.243159
    74  N   -0.033758
    75  C    0.263511
    76  C    0.025322
    77  O   -0.230680
    81  N   -0.048635
    82  C    0.150365
    83  C    0.068313
    84  O   -0.307575
    85  C    0.204967
    86  C   -0.067135
    87  C   -0.018031
    88  C   -0.072973
    89  C   -0.031343
    90  C   -0.070433
    91  C    0.174917
    92  O   -0.028370
   102  N    0.065462
   103  C    0.171360
   104  C    0.023148
   105  O   -0.271493
   106  C   -0.136711
   107  C   -0.014446
   108  C    0.073819
   109  C    0.093945
   121  N   -0.015027
   122  C    0.149181
   123  C    0.037505
   124  O   -0.279237
   125  C    0.213457
   126  O   -0.123764
   132  N    0.013617
   133  C    0.102918
   134  C    0.068575
   135  O   -0.295430
   136  C    0.116032
   142  N    0.033679
   143  C    0.084315
   144  C    0.058386
   145  O   -0.281472
   146  C    0.121939
   152  N   -0.012920
   153  C    0.102275
   154  C    0.066079
   155  O   -0.304315
   156  C    0.095278
   157  C    0.012658
   158  C    0.086636
   159  O   -0.420917
   160  O   -0.420068
   167  N    0.010736
   168  C    0.210645
   173  Ca   1.330689
   174  O    0.084473
 DipInt: DoE/N= T F RetVal/Mat= T F Init=T NMatP=  1 IDeriv=0 Min/MaxMlt=  0  4
 Entering OneElI...
 OneElI was handed  1333951383 working-precision words.
 Multipole integrals L=0 to 4 MinM= 0 MaxM= 0.
 Requested accuracy = 0.1000D-12
 ShPair: Thresh= 1.00D-13 NBox=     0 BxSize= 0.00D+00 RnKept= 3.49D+01
         NSMCal=               327645 NSMKep=              121115
 PrmmSu-InSpLW:  IPartL=    0 NPrtUS=    1 NPrtUL=    1 DoSpLW=F IThBeg=    0 IThEnd=    0 NThAct=    1.
 PrsmSu:  NPrtUS=   1 ThrOK=F IAlg=1 NPAlg=1 LenDen=           0 ISkipM=0 DoSpLW=F IThBeg=    0 IThEnd=    0.
 Prism:   IPart=     0 DynPar=F LinDyn=F Incr=         512.
 PRISM was handed  1325421297 working-precision words and121115 shell-pairs
 IPart=  0 NShTot=      121115 NBatch=         284 AvBLen=       426.5
 PrsmSu-ThDecC:  IPartSL=    0    0 NPrtUSL=    1    1 IThBeg=    0 IThEnd=    0 CPU=   -1 GPU=   -1 NThAct=    1.
 PrSmSu:  NxtVal=            513.
 Electronic moments (au):
       -716.00000000          5.89862808          2.90307962         -7.95512114
     -89335.92945772     -42967.58948095     -14649.00237641       -231.61244614
         32.52502522         13.86043241      47404.08239801     -52660.98071908
      -1878.04803364     -77614.27412716     153714.72009912    -229198.86408770
      69692.73918459       3859.50285446      18958.60795498     -17494.05379280
  -24044656.51696748   -5182163.95387010   -1058647.22676107    1046989.69812972
     750320.57636305      31954.83307557    -627427.01305958     451758.80301472
     180118.23311570   -3407910.06933406   -2060274.58141227    -681158.91413200
     969326.47468472    -304711.28063119     -60394.28576642
 Electronic spatial extent (au):  <R**2>=         146952.5213
 DipInt: DoE/N= F T RetVal/Mat= T F Init=T NMatP=  1 IDeriv=0 Min/MaxMlt=  0  4
 Nuclear    moments (au):
        716.00000000         -0.00000000         -0.00000000         -0.00000000
      88882.93583422      42586.01609191      14284.43328375         -0.00000000
         -0.00000000          0.00000000     -43858.59703061      51961.96554938
       1079.96632302      77543.52292773    -151254.92250226     227922.60413320
     -69687.00189607      -3852.96218690     -19148.00268378      17838.27887165
   23705491.86261019    5043311.49846604    1017382.14180461   -1125750.14876765
    -736438.63118263     -50533.55058854     629627.49631872    -447703.26819074
    -179593.83953564    3337644.10277266    1994700.95753262     647994.90869954
    -968238.30475861     300509.42345167      61180.53242187
 Total      moments (au):
         -0.00000000          5.89862808          2.90307962         -7.95512114
       -452.99362350       -381.57338905       -364.56909266       -231.61244614
         32.52502522         13.86043241       3545.48536740       -699.01516971
       -798.08171062        -70.75119943       2459.79759687      -1276.25995449
          5.73728852          6.54066756       -189.39472880        344.22507884
    -339164.65435729    -138852.45540406     -41265.08495646     -78760.45063792
      13881.94518041     -18578.71751297       2200.48325913       4055.53482399
        524.39358005     -70265.96656140     -65573.62387965     -33164.00543246
       1088.16992611      -4201.85717953        786.24665545
 Traceless Quadrup. (au):
        -53.28158843         18.13864602         35.14294241       -231.61244614
         32.52502522         13.86043241
 Charge=             -0.0000 electrons
 Dipole moment (field-independent basis, Debye):
    X=             14.9928    Y=              7.3789    Z=            -20.2199  Tot=             26.2312
 Quadrupole moment (field-independent basis, Debye-Ang):
   XX=           -609.2919   YY=           -513.2293   ZZ=           -490.3579
   XY=           -311.5267   XZ=             43.7473   YZ=             18.6428
 Traceless Quadrupole moment (field-independent basis, Debye-Ang):
   XX=            -71.6656   YY=             24.3971   ZZ=             47.2685
   XY=           -311.5267   XZ=             43.7473   YZ=             18.6428
 Octapole moment (field-independent basis, Debye-Ang**2):
  XXX=           2523.5399  YYY=           -497.5321  ZZZ=           -568.0438  XYY=            -50.3580
  XXY=           1750.7892  XXZ=           -908.3927  XZZ=              4.0836  YZZ=              4.6554
  YYZ=           -134.8039  XYZ=            245.0061
 Hexadecapole moment (field-independent basis, Debye-Ang**3):
 XXXX=        -127745.6723 YYYY=         -52298.4929 ZZZZ=         -15542.4097 XXXY=         -29664.9624
 XXXZ=           5228.6062 YYYX=          -6997.6359 YYYZ=            828.8075 ZZZX=           1527.5089
 ZZZY=            197.5118 XXYY=         -26465.5324 XXZZ=         -24698.1711 YYZZ=         -12491.1547
 XXYZ=            409.8570 YYXZ=          -1582.6209 ZZXY=            296.1382
 N-N= 1.871133919545D+04 E-N=-4.990324972767D+04  KE= 5.290462885888D+03
 Leave Link  601 at Tue Sep 17 10:17:31 2019, MaxMem=  1342177280 cpu:              40.2 elap:               1.0
 FitSet:  NAtFit=   176 NAtPot=   176 NAtFrz=     0 MDM=   180 TotChg=   0.00000
 Merz-Kollman atomic radii used.
 Read replacement radii for each type of atom:
 Rad(20) =   1.700000000000D+00
 Atom Element Radius
    1     6    1.50
    2     6    1.50
    3     8    1.40
    4     1    1.20
    5     1    1.20
    6     1    1.20
    7     7    1.50
    8     6    1.50
    9     6    1.50
   10     8    1.40
   11     6    1.50
   12     6    1.50
   13     8    1.40
   14     8    1.40
   15     1    1.20
   16     1    1.20
   17     1    1.20
   18     1    1.20
   19     7    1.50
   20     6    1.50
   21     6    1.50
   22     8    1.40
   23     6    1.50
   24     6    1.50
   25     6    1.50
   26     6    1.50
   27     7    1.50
   28     1    1.20
   29     1    1.20
   30     1    1.20
   31     1    1.20
   32     1    1.20
   33     1    1.20
   34     1    1.20
   35     1    1.20
   36     1    1.20
   37     1    1.20
   38     1    1.20
   39     1    1.20
   40     1    1.20
   41     7    1.50
   42     6    1.50
   43     6    1.50
   44     8    1.40
   45     6    1.50
   46     6    1.50
   47     8    1.40
   48     8    1.40
   49     1    1.20
   50     1    1.20
   51     1    1.20
   52     1    1.20
   53     7    1.50
   54     6    1.50
   55     6    1.50
   56     8    1.40
   57     1    1.20
   58     1    1.20
   59     1    1.20
   60     7    1.50
   61     6    1.50
   62     6    1.50
   63     8    1.40
   64     6    1.50
   65     6    1.50
   66     7    1.50
   67     8    1.40
   68     1    1.20
   69     1    1.20
   70     1    1.20
   71     1    1.20
   72     1    1.20
   73     1    1.20
   74     7    1.50
   75     6    1.50
   76     6    1.50
   77     8    1.40
   78     1    1.20
   79     1    1.20
   80     1    1.20
   81     7    1.50
   82     6    1.50
   83     6    1.50
   84     8    1.40
   85     6    1.50
   86     6    1.50
   87     6    1.50
   88     6    1.50
   89     6    1.50
   90     6    1.50
   91     6    1.50
   92     8    1.40
   93     1    1.20
   94     1    1.20
   95     1    1.20
   96     1    1.20
   97     1    1.20
   98     1    1.20
   99     1    1.20
  100     1    1.20
  101     1    1.20
  102     7    1.50
  103     6    1.50
  104     6    1.50
  105     8    1.40
  106     6    1.50
  107     6    1.50
  108     6    1.50
  109     6    1.50
  110     1    1.20
  111     1    1.20
  112     1    1.20
  113     1    1.20
  114     1    1.20
  115     1    1.20
  116     1    1.20
  117     1    1.20
  118     1    1.20
  119     1    1.20
  120     1    1.20
  121     7    1.50
  122     6    1.50
  123     6    1.50
  124     8    1.40
  125     6    1.50
  126     8    1.40
  127     1    1.20
  128     1    1.20
  129     1    1.20
  130     1    1.20
  131     1    1.20
  132     7    1.50
  133     6    1.50
  134     6    1.50
  135     8    1.40
  136     6    1.50
  137     1    1.20
  138     1    1.20
  139     1    1.20
  140     1    1.20
  141     1    1.20
  142     7    1.50
  143     6    1.50
  144     6    1.50
  145     8    1.40
  146     6    1.50
  147     1    1.20
  148     1    1.20
  149     1    1.20
  150     1    1.20
  151     1    1.20
  152     7    1.50
  153     6    1.50
  154     6    1.50
  155     8    1.40
  156     6    1.50
  157     6    1.50
  158     6    1.50
  159     8    1.40
  160     8    1.40
  161     1    1.20
  162     1    1.20
  163     1    1.20
[...]
 **** Fit      -0.019781
 **** Fit      -0.020038
 **** Fit      -0.020304
 **** Fit      -0.020659
 **** Fit      -0.021107
 **** Fit      -0.021570
 **** Fit      -0.021926
 **** Fit      -0.022048
 **** Fit      -0.027086
 **** Fit      -0.015642
 **** Fit      -0.012470
 **** Fit      -0.015409
 **** Fit      -0.010265
 **** Fit      -0.015181
 **** Fit      -0.009606
 **** Fit      -0.012884
 **** Fit      -0.007928
 **** Fit      -0.014756
 **** Fit      -0.008727
 **** Fit      -0.013070
 **** Fit      -0.006951
 **** Fit      -0.008568
 **** Fit      -0.003215
 **** Fit      -0.042277
 **** Fit      -0.033877
 **** Fit      -0.021061
 **** Fit      -0.025214
 **** Fit      -0.011523
 **** Fit      -0.009764
 **** Fit      -0.016577
 **** Fit      -0.002249
 **** Fit       0.000240
 **** Fit       0.000196
 **** Fit      -0.007723
 **** Fit       0.006977
 **** Fit       0.009623
 **** Fit       0.009998
 **** Fit       0.001573
 **** Fit       0.016589
 **** Fit       0.018908
 **** Fit       0.018943
 **** Fit       0.017128
 **** Fit       0.035284
 **** Fit       0.011433
 **** Fit       0.027263
 **** Fit       0.028661
 **** Fit       0.027726
 **** Fit       0.024952
 **** Fit       0.032874
 **** Fit       0.042171
 **** Fit       0.048841
 **** Fit       0.047250
 **** Fit       0.022854
 **** Fit       0.036917
 **** Fit       0.032418
 **** Fit       0.026411
 **** Fit       0.032697
 **** Fit       0.042627
 **** Fit       0.049975
 **** Fit       0.054738
 **** Fit       0.056954
 **** Fit       0.056764
 **** Fit       0.054436
 **** Fit       0.050350
 **** Fit       0.044940
 **** Fit       0.032230
 **** Fit       0.031383
 **** Fit       0.042013
 **** Fit       0.050014
 **** Fit       0.055593
 **** Fit       0.058892
 **** Fit       0.060078
 **** Fit       0.059378
 **** Fit       0.057086
 **** Fit       0.053545
 **** Fit       0.049143
 **** Fit       0.044312
 **** Fit       0.036613
 **** Fit       0.038771
 **** Fit       0.048085
 **** Fit       0.054882
 **** Fit       0.059424
 **** Fit       0.061920
 **** Fit       0.062593
 **** Fit       0.061706
 **** Fit       0.059558
 **** Fit       0.056486
 **** Fit       0.052851
 **** Fit       0.049034
 **** Fit       0.045415
 **** Fit       0.035037
 **** Fit       0.045454
 **** Fit       0.053296
 **** Fit       0.058908
 **** Fit       0.062540
 **** Fit       0.064413
 **** Fit       0.064763
 **** Fit       0.063850
 **** Fit       0.061958
 **** Fit       0.059388
 **** Fit       0.056442
 **** Fit       0.053403
 **** Fit       0.050480
 **** Fit       0.047736
 **** Fit       0.036201
 **** Fit       0.046397
 **** Fit       0.054198
 **** Fit       0.059903
 **** Fit       0.063749
 **** Fit       0.065953
 **** Fit       0.066740
 **** Fit       0.066352
 **** Fit       0.065050
 **** Fit       0.063099
 **** Fit       0.060754
 **** Fit       0.058224
 **** Fit       0.055634
 **** Fit       0.052969
 **** Fit       0.050018
 **** Fit       0.038103
 **** Fit       0.047634
 **** Fit       0.055126
 **** Fit       0.060754
 **** Fit       0.064698
 **** Fit       0.067141
 **** Fit       0.068282
 **** Fit       0.068337
 **** Fit       0.067536
 **** Fit       0.066108
 **** Fit       0.064262
 **** Fit       0.062162
 **** Fit       0.059894
 **** Fit       0.057444
 **** Fit       0.054699
 **** Fit       0.051522
 **** Fit       0.047928
 **** Fit       0.037998
 **** Fit       0.047318
 **** Fit       0.054929
 **** Fit       0.060826
 **** Fit       0.065102
 **** Fit       0.067900
 **** Fit       0.069401
 **** Fit       0.069814
 **** Fit       0.069363
 **** Fit       0.068271
 **** Fit       0.066738
 **** Fit       0.064916
 **** Fit       0.062894
 **** Fit       0.060717
 **** Fit       0.058460
 **** Fit       0.056393
 **** Fit       0.055255
 **** Fit       0.038790
 **** Fit       0.047344
 **** Fit       0.054741
 **** Fit       0.060714
 **** Fit       0.065208
 **** Fit       0.068287
 **** Fit       0.070091
 **** Fit       0.070812
 **** Fit       0.070664
 **** Fit       0.069870
 **** Fit       0.068634
 **** Fit       0.067130
 **** Fit       0.065526
 **** Fit       0.064054
 **** Fit       0.063182
 **** Fit       0.026652
 **** Fit       0.024897
 **** Fit       0.028215
 **** Fit       0.033621
 **** Fit       0.040509
 **** Fit       0.047796
 **** Fit       0.054617
 **** Fit       0.060441
 **** Fit       0.065017
 **** Fit       0.068290
 **** Fit       0.070336
 **** Fit       0.071314
 **** Fit       0.071431
 **** Fit       0.070915
 **** Fit       0.069999
 **** Fit       0.068937
 **** Fit       0.068068
 **** Fit       0.067974
 **** Fit       0.034016
 **** Fit       0.035737
 **** Fit       0.039366
 **** Fit       0.044626
 **** Fit       0.050709
 **** Fit       0.056727
 **** Fit       0.062006
 **** Fit       0.066171
 **** Fit       0.069095
 **** Fit       0.070836
 **** Fit       0.071569
 **** Fit       0.071546
 **** Fit       0.071069
 **** Fit       0.070515
 **** Fit       0.070442
 **** Fit       0.040780
 **** Fit       0.043675
 **** Fit       0.047818
 **** Fit       0.052922
 **** Fit       0.058240
 **** Fit       0.063027
 **** Fit       0.066791
 **** Fit       0.069345
 **** Fit       0.070749
 **** Fit       0.071238
 **** Fit       0.071175
 **** Fit       0.071062
 **** Fit       0.046805
 **** Fit       0.050968
 **** Fit       0.055847
 **** Fit       0.060816
 **** Fit       0.065036
 **** Fit       0.067978
 **** Fit       0.069566
 **** Fit       0.070097
 **** Fit       0.070115
 **** Fit       0.052487
 **** Fit       0.057553
 **** Fit       0.062388
 **** Fit       0.065871
 **** Fit       0.067498
 **** Fit       0.058268
 **** Fit       0.062809
 **** Fit       0.012312
 **** Fit       0.019106
 **** Fit       0.031351
 **** Fit       0.030953
 **** Fit       0.025915
 **** Fit       0.030200
 **** Fit       0.025959
 **** Fit       0.022603
 **** Fit       0.033056
 **** Fit       0.029040
 **** Fit       0.025787
 **** Fit       0.023864
 **** Fit       0.024222
 **** Fit       0.031576
 **** Fit       0.028346
 **** Fit       0.026086
 **** Fit       0.025314
 **** Fit       0.026710
 **** Fit       0.030980
 **** Fit       0.032584
 **** Fit       0.029504
 **** Fit       0.027325
 **** Fit       0.026470
 **** Fit       0.027420
 **** Fit       0.030610
 **** Fit       0.036201
 **** Fit       0.043845
 **** Fit       0.069986
 **** Fit       0.066897
 **** Fit       0.036512
 **** Fit       0.033101
 **** Fit       0.030197
 **** Fit       0.028190
 **** Fit       0.027482
 **** Fit       0.028462
 **** Fit       0.031387
 **** Fit       0.036197
 **** Fit       0.042380
 **** Fit       0.048996
 **** Fit       0.054944
 **** Fit       0.059325
 **** Fit       0.061745
 **** Fit       0.062395
 **** Fit       0.061898
 **** Fit       0.052157
 **** Fit       0.046100
 **** Fit       0.043389
 **** Fit       0.040336
 **** Fit       0.037068
 **** Fit       0.033875
 **** Fit       0.031131
 **** Fit       0.029240
 **** Fit       0.028597
 **** Fit       0.029519
 **** Fit       0.032131
 **** Fit       0.036227
 **** Fit       0.041211
 **** Fit       0.046230
 **** Fit       0.050471
 **** Fit       0.053462
 **** Fit       0.055218
 **** Fit       0.056157
 **** Fit       0.048526
 **** Fit       0.044002
 **** Fit       0.040950
 **** Fit       0.037765
 **** Fit       0.034673
 **** Fit       0.032062
 **** Fit       0.030387
 **** Fit       0.030067
 **** Fit       0.031350
 **** Fit       0.034175
 **** Fit       0.038074
 **** Fit       0.042287
 **** Fit       0.046066
 **** Fit       0.049009
 **** Fit       0.051182
 **** Fit       0.046897
 **** Fit       0.042362
 **** Fit       0.038975
 **** Fit       0.035763
 **** Fit       0.033205
 **** Fit       0.031905
 **** Fit       0.032333
 **** Fit       0.034537
 **** Fit       0.037992
 **** Fit       0.041805
 **** Fit       0.045240
 **** Fit       0.048086
 **** Fit       0.045697
 **** Fit       0.041221
 **** Fit       0.037671
 **** Fit       0.035012
 **** Fit       0.034224
 **** Fit       0.035776
 **** Fit       0.039047
 **** Fit       0.042756
 **** Fit       0.045997
 **** Fit       0.044822
 **** Fit       0.040616
 **** Fit       0.037491
 **** Fit       0.037830
 **** Fit       0.041275
 **** Fit       0.044268
 **** Fit       0.043971
 **** Fit       0.040606
 **** Fit       0.016020
 **** Fit       0.021819
 **** Fit       0.020077
 **** Fit       0.022968
 **** Fit       0.026574
 **** Fit       0.030989
 **** Fit       0.036393
 **** Fit       0.029334
 **** Fit       0.027708
 **** Fit       0.027439
 **** Fit       0.028136
 **** Fit       0.029564
 **** Fit       0.031633
 **** Fit       0.034351
 **** Fit       0.037785
 **** Fit       0.042081
 **** Fit       0.057320
 **** Fit       0.048813
 **** Fit       0.042730
 **** Fit       0.038640
 **** Fit       0.036147
 **** Fit       0.034902
 **** Fit       0.034603
 **** Fit       0.035027
 **** Fit       0.036037
 **** Fit       0.037574
 **** Fit       0.039640
 **** Fit       0.042285
 **** Fit       0.045614
 **** Fit       0.060382
 **** Fit       0.053362
 **** Fit       0.048025
 **** Fit       0.044213
 **** Fit       0.041703
 **** Fit       0.040260
 **** Fit       0.039664
 **** Fit       0.039731
 **** Fit       0.040332
 **** Fit       0.041395
 **** Fit       0.042901
 **** Fit       0.044870
 **** Fit       0.047364
 **** Fit       0.050492
 **** Fit       0.063377
 **** Fit       0.057600
 **** Fit       0.052721
 **** Fit       0.048925
 **** Fit       0.046198
 **** Fit       0.044429
 **** Fit       0.043466
 **** Fit       0.043154
 **** Fit       0.043364
 **** Fit       0.044003
 **** Fit       0.045024
 **** Fit       0.046415
 **** Fit       0.048192
 **** Fit       0.050396
 **** Fit       0.053058
 **** Fit       0.062438
 **** Fit       0.058885
 **** Fit       0.055216
 **** Fit       0.051957
 **** Fit       0.049358
 **** Fit       0.047486
 **** Fit       0.046299
 **** Fit       0.045706
 **** Fit       0.045600
 **** Fit       0.045889
 **** Fit       0.046507
 **** Fit       0.047413
 **** Fit       0.048586
 **** Fit       0.050006
 **** Fit       0.051624
 **** Fit       0.050899
 **** Fit       0.057133
 **** Fit       0.055143
 **** Fit       0.052825
 **** Fit       0.050700
 **** Fit       0.049037
 **** Fit       0.047919
 **** Fit       0.047320
 **** Fit       0.047161
 **** Fit       0.047355
 **** Fit       0.047826
 **** Fit       0.048509
 **** Fit       0.049338
 **** Fit       0.050204
 **** Fit       0.048996
 **** Fit       0.053284
 **** Fit       0.052374
 **** Fit       0.051037
 **** Fit       0.049759
 **** Fit       0.048799
 **** Fit       0.048232
 **** Fit       0.048028
 **** Fit       0.048109
 **** Fit       0.048381
 **** Fit       0.048736
 **** Fit       0.049022
 **** Fit       0.047587
 **** Fit       0.050283
 **** Fit       0.050505
 **** Fit       0.049959
 **** Fit       0.049225
 **** Fit       0.048649
 **** Fit       0.048336
 **** Fit       0.048240
 **** Fit       0.048228
 **** Fit       0.048105
 **** Fit       0.046661
 **** Fit       0.045059
 **** Fit       0.046267
 **** Fit       0.048203
 **** Fit       0.048807
 **** Fit       0.048603
 **** Fit       0.048235
 **** Fit       0.047925
 **** Fit       0.047520
 **** Fit       0.046222
 **** Fit       0.044756
 **** Fit       0.045072
 **** Fit       0.046920
 **** Fit       0.047602
 **** Fit       0.047258
 **** Fit       0.046290
 **** Fit       0.020965
 **** Fit       0.026572
 **** Fit       0.014604
 **** Fit       0.022378
 **** Fit       0.025856
 **** Fit       0.029581
 **** Fit       0.034285
 **** Fit       0.012620
 **** Fit       0.018322
 **** Fit       0.024665
 **** Fit       0.026846
 **** Fit       0.029184
 **** Fit       0.031891
 **** Fit       0.035248
 **** Fit       0.013014
 **** Fit       0.018497
 **** Fit       0.022134
 **** Fit       0.027485
 **** Fit       0.028745
 **** Fit       0.030165
 **** Fit       0.031826
 **** Fit       0.033686
 **** Fit       0.035863
 **** Fit       0.015086
 **** Fit       0.020295
 **** Fit       0.023809
 **** Fit       0.026026
 **** Fit       0.030616
 **** Fit       0.031179
 **** Fit       0.031872
 **** Fit       0.032743
 **** Fit       0.033700
 **** Fit       0.034630
 **** Fit       0.035547
 **** Fit       0.036859
 **** Fit       0.019514
 **** Fit       0.023753
 **** Fit       0.026802
 **** Fit       0.028789
 **** Fit       0.029942
 **** Fit       0.033797
 **** Fit       0.033875
 **** Fit       0.034049
 **** Fit       0.034349
 **** Fit       0.034682
 **** Fit       0.034901
 **** Fit       0.034883
 **** Fit       0.034662
 **** Fit       0.034717
 **** Fit       0.024826
 **** Fit       0.027917
 **** Fit       0.030357
 **** Fit       0.032104
 **** Fit       0.033157
 **** Fit       0.033643
 **** Fit       0.036767
 **** Fit       0.036483
 **** Fit       0.036251
 **** Fit       0.036087
 **** Fit       0.035921
 **** Fit       0.035628
 **** Fit       0.035073
 **** Fit       0.034182
 **** Fit       0.033082
 **** Fit       0.034069
 **** Fit       0.035126
 **** Fit       0.036076
 **** Fit       0.036738
 **** Fit       0.037033
 **** Fit       0.037000
 **** Fit       0.039344
 **** Fit       0.038780
 **** Fit       0.038238
 **** Fit       0.037719
 **** Fit       0.037164
 **** Fit       0.036477
 **** Fit       0.035548
 **** Fit       0.034309
 **** Fit       0.032825
 **** Fit       0.041475
 **** Fit       0.040965
 **** Fit       0.040762
 **** Fit       0.040592
 **** Fit       0.040308
 **** Fit       0.039878
 **** Fit       0.041447
 **** Fit       0.040623
 **** Fit       0.039805
 **** Fit       0.038974
 **** Fit       0.038072
 **** Fit       0.037016
 **** Fit       0.035723
 **** Fit       0.034169
 **** Fit       0.032482
 **** Fit       0.046091
 **** Fit       0.044787
 **** Fit       0.043862
 **** Fit       0.043060
 **** Fit       0.042265
 **** Fit       0.043075
 **** Fit       0.041987
 **** Fit       0.040899
 **** Fit       0.039773
 **** Fit       0.038546
 **** Fit       0.037147
 **** Fit       0.035532
 **** Fit       0.033741
 **** Fit       0.048500
 **** Fit       0.046736
 **** Fit       0.045374
 **** Fit       0.044189
 **** Fit       0.044269
 **** Fit       0.042928
 **** Fit       0.041595
 **** Fit       0.040210
 **** Fit       0.038713
 **** Fit       0.037052
 **** Fit       0.035221
 **** Fit       0.051843
 **** Fit       0.049208
 **** Fit       0.047265
 **** Fit       0.045681
 **** Fit       0.045091
 **** Fit       0.043403
 **** Fit       0.041737
 **** Fit       0.040006
 **** Fit       0.038143
 **** Fit       0.036124
 **** Fit       0.051896
 **** Fit       0.049081
 **** Fit       0.046921
 **** Fit       0.045604
 **** Fit       0.043541
 **** Fit       0.041529
 **** Fit       0.039453
 **** Fit       0.050714
 **** Fit       0.047899
 **** Fit       0.045862
 **** Fit       0.043304
 **** Fit       0.040845
 -----------------------------------------------------------------
 Leave Link  602 at Tue Sep 17 10:17:34 2019, MaxMem=  1342177280 cpu:             130.8 elap:               2.8

 Test job not archived.
 1\1\GINC-C490-084\SP\RB3LYP\SVP\C54H83Ca1N15O23\PENGZHI\17-Sep-2019\0\
 \#b3lyp/svp scf=(tight,noincore) Test #IOP(5/87=12) Density=Current Po
 p=(MK,readradii) iop(6/33=2) iop(6/42=6)\\Ng-293_loop3_42.0\\0,1\C,0,3
 8.97,78.01,70.68\C,0,39.49,77.93,69.25\O,0,40.65,78.28,69.04\H,0,37.94
 5,77.642,70.714\H,0,39.597,77.399,71.33\H,0,38.995,79.046,71.019\N,0,3
 8.79,77.38,68.26\C,0,39.29,77.12,66.92\C,0,38.88,75.71,66.5\O,0,38.22,
 75.02,67.28\C,0,38.68,78.22,66.05\C,0,39.17,78.12,64.62\O,0,40.28,77.6
 4,64.32\O,0,38.51,78.56,63.65\H,0,37.92,76.93,68.54\H,0,40.38,77.15,66
 .93\H,0,39.04,79.18,66.42\H,0,37.59,78.19,66.1\N,0,39.31,75.23,65.34\C
 ,0,39.01,73.99,64.65\C,0,37.54,73.79,64.3\O,0,36.76,74.71,64.54\C,0,39
 .7,72.8,65.31\C,0,41.22,72.84,65.45\C,0,41.98,72.8,64.12\C,0,43.42,72.
 38,64.41\N,0,44.21,73.45,65.04\H,0,39.93,75.86,64.85\H,0,39.48,74.06,6
 3.67\H,0,39.42,71.88,64.79\H,0,39.23,72.76,66.29\H,0,41.4,71.96,66.06\
 H,0,41.55,73.72,66.\H,0,41.79,73.7,63.55\H,0,41.55,72.01,63.5\H,0,43.9
 8,72.13,63.5\H,0,43.32,71.57,65.13\H,0,44.19,74.33,64.54\H,0,43.88,73.
 7,65.96\H,0,45.17,73.16,65.15\N,0,37.24,72.66,63.66\C,0,35.89,72.32,63
 .26\C,0,35.1,71.79,64.45\O,0,35.15,70.62,64.82\C,0,35.8,71.34,62.11\C,
 0,36.76,70.16,62.13\O,0,37.94,70.28,62.53\O,0,36.45,69.06,61.64\H,0,37
 .96,72.03,63.31\H,0,35.52,73.28,62.89\H,0,35.81,71.89,61.17\H,0,34.83,
 70.84,62.08\N,0,34.17,72.61,64.96\C,0,33.15,72.25,65.93\C,0,32.05,71.4
 2,65.3\O,0,31.27,70.84,66.06\H,0,34.19,73.56,64.63\H,0,32.68,73.15,66.
 33\H,0,33.73,71.82,66.75\N,0,31.89,71.4,63.97\C,0,30.82,70.71,63.29\C,
 0,30.7,69.2,63.45\O,0,31.66,68.46,63.27\C,0,30.88,71.1,61.82\C,0,30.09
 ,72.38,61.57\N,0,28.78,72.26,61.83\O,0,30.61,73.48,61.39\H,0,32.44,72.
 03,63.39\H,0,29.88,71.06,63.71\H,0,30.36,70.41,61.15\H,0,31.88,71.33,6
 1.47\H,0,28.35,71.36,61.97\H,0,28.16,73.06,61.79\N,0,29.49,68.72,63.75
 \C,0,29.16,67.3,63.8\C,0,29.51,66.62,65.11\O,0,30.08,67.18,66.05\H,0,2
 8.92,69.36,64.28\H,0,29.68,66.86,62.95\H,0,28.08,67.24,63.72\N,0,29.23
 ,65.31,65.13\C,0,29.19,64.42,66.27\C,0,30.58,64.34,66.89\O,0,30.75,63.
 75,67.96\C,0,28.15,64.97,67.24\C,0,27.27,63.93,67.9\C,0,27.25,63.77,69
 .29\C,0,26.42,63.11,67.14\C,0,26.39,62.89,69.96\C,0,25.49,62.28,67.76\
 C,0,25.49,62.15,69.17\O,0,24.58,61.35,69.8\H,0,28.72,64.96,64.33\H,0,2
 8.88,63.42,65.97\H,0,27.39,65.6,66.77\H,0,28.56,65.57,68.06\H,0,27.91,
 64.4,69.87\H,0,26.45,63.28,66.07\H,0,26.46,62.77,71.03\H,0,24.73,61.84
 ,67.14\H,0,23.98,60.92,69.19\N,0,31.65,64.79,66.24\C,0,33.06,64.6,66.5
 2\C,0,33.64,63.21,66.33\O,0,34.6,63.01,65.58\C,0,33.5,65.2,67.86\C,0,3
 2.91,66.53,68.32\C,0,35.01,65.22,68.04\C,0,33.29,67.79,67.55\H,0,31.51
 ,65.28,65.37\H,0,33.61,65.11,65.73\H,0,33.15,64.52,68.64\H,0,33.25,66.
 62,69.35\H,0,31.82,66.44,68.31\H,0,35.53,64.27,68.15\H,0,35.43,65.68,6
 7.15\H,0,35.24,65.85,68.9\H,0,33.06,68.67,68.16\H,0,34.36,67.68,67.44\
 H,0,32.78,67.71,66.59\N,0,33.05,62.26,67.06\C,0,33.34,60.84,67.04\C,0,
 34.68,60.67,67.76\O,0,35.39,59.73,67.4\C,0,32.27,60.08,67.83\O,0,32.,6
 0.74,69.05\H,0,32.24,62.55,67.6\H,0,33.4,60.37,66.06\H,0,32.61,59.06,6
 8.01\H,0,31.34,60.04,67.26\H,0,31.06,60.56,69.1\N,0,35.08,61.57,68.65\
 C,0,36.33,61.57,69.38\C,0,37.6,61.68,68.55\O,0,38.69,61.32,69.\C,0,36.
 33,60.52,70.48\H,0,34.47,62.38,68.71\H,0,36.42,62.5,69.95\H,0,36.99,60
 .86,71.28\H,0,35.33,60.32,70.86\H,0,36.71,59.53,70.22\N,0,37.54,62.22,
 67.33\C,0,38.69,62.41,66.47\C,0,39.41,63.69,66.88\O,0,38.93,64.62,67.5
 2\C,0,38.2,62.5,65.03\H,0,36.68,62.7,67.07\H,0,39.37,61.55,66.46\H,0,3
 7.37,63.21,65.03\H,0,38.95,62.95,64.38\H,0,37.91,61.5,64.7\N,0,40.67,6
 3.85,66.49\C,0,41.53,65.01,66.64\C,0,41.73,65.68,67.99\O,0,42.33,66.76
 ,67.97\C,0,41.02,66.06,65.66\C,0,41.51,65.88,64.23\C,0,40.97,66.78,63.
 13\O,0,40.23,67.74,63.43\O,0,41.09,66.52,61.91\H,0,41.12,63.09,66.01\H
 ,0,42.52,64.65,66.34\H,0,41.33,67.06,65.97\H,0,39.93,66.08,65.63\H,0,4
 1.18,64.87,63.96\H,0,42.6,65.94,64.22\N,0,41.37,65.06,69.11\C,0,41.26,
 65.73,70.39\H,0,40.208,65.877,70.633\H,0,41.729,65.12,71.162\H,0,41.75
 9,66.698,70.338\H,0,40.91,64.17,69.\Ca,0,38.91,68.26,61.19\O,0,37.36,6
 6.76,59.68\H,0,36.68,67.13,59.12\H,0,36.95,65.97,60.05\\Version=ES64L-
 G16RevA.03\State=1-A\HF=-5333.384977\RMSD=3.162e-09\Dipole=-0.6461717,
 -8.1827277,-6.2554829\Quadrupole=213.5766982,-247.5222997,33.9456015,4
 1.5114807,-7.9740454,35.940347\PG=C01 [X(C54H83Ca1N15O23)]\\@


 CHRISTMAS IS ON TOP OF A STEEP HILL.
 THE CLOSER YOU GET, THE STEEPER THE HILL IS.
          -- LINUS, OF PEANUTS
 Job cpu time:       0 days  7 hours 33 minutes 38.0 seconds.
 Elapsed time:       0 days  0 hours  9 minutes 35.3 seconds.
 File lengths (MBytes):  RWF=   1517 Int=      0 D2E=      0 Chk=    171 Scr=      1
 Normal termination of Gaussian 16 at Tue Sep 17 10:17:36 2019.
