 Entering Gaussian System, Link 0=g16
 Initial command:
 /home1/apps/gaussian/16rA.03/g16/l1.exe "/scratch/01990/pengzhi/4342281/Gau-33043.inp" -scrdir="/scratch/01990/pengzhi/4342281/"
 Entering Link 1 = /home1/apps/gaussian/16rA.03/g16/l1.exe PID=     33044.
  
 Copyright (c) 1988,1990,1992,1993,1995,1998,2003,2009,2016,
            Gaussian, Inc.  All Rights Reserved.
  
 This is part of the Gaussian(R) 16 program.  It is based on
 the Gaussian(R) 09 system (copyright 2009, Gaussian, Inc.),
 the Gaussian(R) 03 system (copyright 2003, Gaussian, Inc.),
 the Gaussian(R) 98 system (copyright 1998, Gaussian, Inc.),
 the Gaussian(R) 94 system (copyright 1995, Gaussian, Inc.),
 the Gaussian 92(TM) system (copyright 1992, Gaussian, Inc.),
 the Gaussian 90(TM) system (copyright 1990, Gaussian, Inc.),
 the Gaussian 88(TM) system (copyright 1988, Gaussian, Inc.),
 the Gaussian 86(TM) system (copyright 1986, Carnegie Mellon
 University), and the Gaussian 82(TM) system (copyright 1983,
 Carnegie Mellon University). Gaussian is a federally registered
 trademark of Gaussian, Inc.
  
 This software contains proprietary and confidential information,
 including trade secrets, belonging to Gaussian, Inc.
  
 This software is provided under written license and may be
 used, copied, transmitted, or stored only in accord with that
 written license.
  
 The following legend is applicable only to US Government
 contracts under FAR:
  
                    RESTRICTED RIGHTS LEGEND
  
 Use, reproduction and disclosure by the US Government is
 subject to restrictions as set forth in subparagraphs (a)
 and (c) of the Commercial Computer Software - Restricted
 Rights clause in FAR 52.227-19.
  
 Gaussian, Inc.
 340 Quinnipiac St., Bldg. 40, Wallingford CT 06492
  
  
 ---------------------------------------------------------------
 Warning -- This program may not be used in any manner that
 competes with the business of Gaussian, Inc. or will provide
 assistance to any competitor of Gaussian, Inc.  The licensee
 of this program is prohibited from giving any competitor of
 Gaussian, Inc. access to this program.  By using this program,
 the user acknowledges that Gaussian, Inc. is engaged in the
 business of creating and licensing software in the field of
 computational chemistry and represents and warrants to the
 licensee that it is not a competitor of Gaussian, Inc. and that
 it will not use this program in any manner prohibited above.
 ---------------------------------------------------------------
  

 Cite this work as:
 Gaussian 16, Revision A.03,
 M. J. Frisch, G. W. Trucks, H. B. Schlegel, G. E. Scuseria, 
 M. A. Robb, J. R. Cheeseman, G. Scalmani, V. Barone, 
 G. A. Petersson, H. Nakatsuji, X. Li, M. Caricato, A. V. Marenich, 
 J. Bloino, B. G. Janesko, R. Gomperts, B. Mennucci, H. P. Hratchian, 
 J. V. Ortiz, A. F. Izmaylov, J. L. Sonnenberg, D. Williams-Young, 
 F. Ding, F. Lipparini, F. Egidi, J. Goings, B. Peng, A. Petrone, 
 T. Henderson, D. Ranasinghe, V. G. Zakrzewski, J. Gao, N. Rega, 
 G. Zheng, W. Liang, M. Hada, M. Ehara, K. Toyota, R. Fukuda, 
 J. Hasegawa, M. Ishida, T. Nakajima, Y. Honda, O. Kitao, H. Nakai, 
 T. Vreven, K. Throssell, J. A. Montgomery, Jr., J. E. Peralta, 
 F. Ogliaro, M. J. Bearpark, J. J. Heyd, E. N. Brothers, K. N. Kudin, 
 V. N. Staroverov, T. A. Keith, R. Kobayashi, J. Normand, 
 K. Raghavachari, A. P. Rendell, J. C. Burant, S. S. Iyengar, 
 J. Tomasi, M. Cossi, J. M. Millam, M. Klene, C. Adamo, R. Cammi, 
 J. W. Ochterski, R. L. Martin, K. Morokuma, O. Farkas, 
 J. B. Foresman, and D. J. Fox, Gaussian, Inc., Wallingford CT, 2016.
 
 ******************************************
 Gaussian 16:  ES64L-G16RevA.03 25-Dec-2016
                16-Sep-2019 
 ******************************************
 %chk=Ng-293_loop3_15.0.chk
 %nprocshared=48
 Will use up to   48 processors via shared memory.
 %mem=10GB
 %nosave
 ----------------------------------------------------------------------
 #b3lyp/svp scf=(tight,noincore) Test #IOP(5/87=12) Density=Current Pop
 =(MK,readradii) iop(6/33=2) iop(6/42=6)
 ----------------------------------------------------------------------
 1/30=1,38=1,172=1/1;
 2/12=2,17=6,18=5,40=1/2;
 3/5=18,7=101,11=2,25=1,30=1,74=-5/1,2,3;
 4//1;
 5/5=4,32=2,38=5,87=12/2;
 6/7=2,8=2,9=2,10=2,15=8,20=101,22=-1,28=1,33=2,42=6/1,2;
 99/5=1,9=1/99;
 -----------------
 Ng-293_loop3_15.0
 -----------------
 Symbolic Z-matrix:
 Charge =  0 Multiplicity = 1
 C                     47.19     69.22     69.81 
 C                     48.38     69.25     68.87 
 O                     49.45     69.65     69.33 
 H                     46.324    68.817    69.286 
 H                     47.42     68.589    70.669 
 H                     46.969    70.232    70.15 
 N                     48.16     68.91     67.59 
 C                     49.19     68.54     66.64 
 C                     49.14     67.14     66.06 
 O                     48.05     66.56     65.96 
 C                     49.22     69.52     65.46 
 C                     50.39     69.34     64.51 
 O                     51.52     69.04     64.94 
 O                     50.2      69.61     63.3 
 H                     47.19     68.79     67.35 
 H                     50.1      68.64     67.22 
 H                     49.34     70.52     65.89 
 H                     48.28     69.52     64.91 
 N                     50.27     66.57     65.64 
 C                     50.5      65.42     64.79 
 C                     49.84     65.55     63.42 
 O                     49.42     66.64     63.06 
 C                     50.1      64.17     65.57 
 C                     50.81     63.87     66.89 
 C                     52.3      63.59     66.82 
 C                     52.53     62.36     67.7 
 N                     53.57     62.58     68.71 
 H                     51.13     67.08     65.8 
 H                     51.57     65.28     64.67 
 H                     50.26     63.34     64.88 
 H                     49.02     64.08     65.7 
 H                     50.22     63.03     67.28 
 H                     50.63     64.71     67.55 
 H                     52.75     64.43     67.35 
 H                     52.73     63.42     65.83 
 H                     52.82     61.55     67.03 
 H                     51.56     62.06     68.1 
 H                     53.75     61.78     69.3 
 H                     54.51     62.78     68.4 
 H                     53.28     63.33     69.33 
 N                     49.73     64.46     62.65 
 C                     49.03     64.51     61.38 
 C                     47.55     64.18     61.59 
 O                     47.09     63.78     62.65 
 C                     49.66     63.61     60.33 
 C                     49.89     62.18     60.79 
 O                     49.59     61.78     61.94 
 O                     50.45     61.34     60.05 
 H                     49.9      63.54     63.02 
 H                     48.93     65.53     61. 
 H                     50.64     64.05     60.14 
 H                     49.05     63.58     59.44 
 N                     46.8      64.33     60.49 
 C                     45.4      63.97     60.44 
 C                     45.27     62.49     60.11 
 O                     45.89     62.       59.17 
 H                     47.32     64.72     59.71 
 H                     44.91     64.52     59.63 
 H                     44.95     64.18     61.41 
 N                     44.5      61.74     60.91 
 C                     44.45     60.29     60.86 
 C                     43.06     59.73     60.62 
 O                     42.74     58.61     61.02 
 C                     45.14     59.68     62.08 
 C                     46.64     59.96     62.15 
 N                     47.07     60.66     63.2 
 O                     47.47     59.5      61.37 
 H                     43.81     62.14     61.53 
 H                     45.       60.01     59.97 
 H                     45.11     58.6      62.2 
 H                     44.65     60.11     62.95 
 H                     46.43     61.18     63.78 
 H                     47.97     61.11     63.09 
 N                     42.18     60.48     59.95 
 C                     40.92     59.92     59.51 
 C                     40.02     59.23     60.52 
 O                     39.78     59.85     61.55 
 H                     42.39     61.41     59.61 
 H                     41.15     59.14     58.78 
 H                     40.4      60.73     58.99 
 N                     39.54     57.99     60.31 
 C                     38.93     57.21     61.37 
 C                     39.68     56.87     62.65 
 O                     39.15     56.27     63.58 
 C                     37.54     57.73     61.73 
 C                     36.64     58.2      60.61 
 C                     36.08     57.24     59.76 
 C                     36.14     59.5      60.56 
 C                     35.16     57.7      58.82 
 C                     35.21     59.99     59.63 
 C                     34.63     59.       58.81 
 O                     33.55     59.24     58. 
 H                     39.89     57.5      59.5 
 H                     38.75     56.23     60.92 
 H                     37.59     58.51     62.49 
 H                     36.99     56.92     62.21 
 H                     36.44     56.22     59.78 
 H                     36.43     60.07     61.42 
 H                     34.79     56.97     58.11 
 H                     34.96     61.04     59.56 
 H                     33.37     60.16     58.16 
 N                     40.97     57.17     62.79 
 C                     41.86     56.77     63.87 
 C                     42.17     55.28     63.85 
 O                     43.35     54.95     63.81 
 C                     41.6      57.39     65.24 
 C                     41.16     58.85     65.12 
 C                     42.72     57.16     66.25 
 C                     42.03     59.83     64.35 
 H                     41.44     57.57     62. 
 H                     42.8      57.22     63.55 
 H                     40.7      56.9      65.61 
 H                     41.07     59.22     66.14 
 H                     40.2      58.89     64.6 
 H                     42.41     57.47     67.24 
 H                     42.99     56.1      66.25 
 H                     43.66     57.69     66.12 
 H                     43.06     59.91     64.7 
 H                     42.02     59.54     63.3 
 H                     41.68     60.86     64.4 
 N                     41.14     54.45     63.98 
 C                     41.28     53.02     63.73 
 C                     42.05     52.26     64.81 
 O                     42.67     51.3      64.37 
 C                     39.89     52.44     63.52 
 O                     39.07     52.7      64.64 
 H                     40.23     54.81     64.2 
 H                     41.83     52.84     62.81 
 H                     39.94     51.35     63.53 
 H                     39.37     52.83     62.65 
 H                     38.17     52.68     64.32 
 N                     42.1      52.76     66.04 
 C                     42.83     52.18     67.15 
 C                     44.34     52.26     67.02 
 O                     45.05     51.83     67.92 
 C                     42.29     50.8      67.49 
 H                     41.62     53.65     66.15 
 H                     42.54     52.8      68.01 
 H                     41.2      50.88     67.54 
 H                     42.61     50.03     66.79 
 H                     42.59     50.54     68.51 
 N                     44.91     52.96     66.03 
 C                     46.32     53.28     65.92 
 C                     46.7      54.63     66.51 
 O                     45.8      55.45     66.7 
 C                     46.68     53.19     64.44 
 H                     44.4      53.3      65.23 
 H                     46.9      52.48     66.37 
 H                     46.18     53.93     63.81 
 H                     47.75     53.36     64.37 
 H                     46.53     52.15     64.15 
 N                     47.97     54.9      66.79 
 C                     48.59     56.12     67.26 
 C                     48.1      56.74     68.56 
 O                     48.6      57.81     68.91 
 C                     48.67     57.14     66.12 
 C                     49.23     56.57     64.82 
 C                     49.23     57.59     63.7 
 O                     49.22     57.22     62.5 
 O                     49.5      58.79     63.91 
 H                     48.63     54.18     66.52 
 H                     49.62     55.83     67.46 
 H                     49.26     58.       66.43 
 H                     47.7      57.56     65.84 
 H                     48.48     55.83     64.53 
 H                     50.22     56.14     64.97 
 N                     47.14     56.1      69.23 
 C                     46.49     56.68     70.39 
 H                     45.484    56.271    70.485 
 H                     47.064    56.443    71.286 
 H                     46.431    57.762    70.271 
 H                     46.8      55.2      68.91 
 Ca                    50.47     59.34     61.63 
 O                     49.82     58.07     59.34 
 H                     50.29     57.29     59.05 
 H                     48.9      57.84     59.24 
 
 Stoichiometry    C54H83CaN15O23
 Framework group  C1[X(C54H83CaN15O23)]
 Deg. of freedom   522
 Full point group                 C1      NOp   1
 Largest Abelian subgroup         C1      NOp   1
 Largest concise Abelian subgroup C1      NOp   1
                         Standard orientation:                         
 ---------------------------------------------------------------------
 Center     Atomic      Atomic             Coordinates (Angstroms)
 Number     Number       Type             X           Y           Z
 ---------------------------------------------------------------------
      1          6           0       -8.912743    1.617755   -6.829756
      2          6           0       -9.605552    1.516442   -5.484263
      3          8           0      -10.687891    0.929935   -5.451840
      4          1           0       -7.957564    2.127499   -6.708366
      5          1           0       -8.741700    0.617132   -7.227801
      6          1           0       -9.539456    2.182444   -7.520367
      7          7           0       -9.024005    2.137807   -4.445943
      8          6           0       -9.319165    1.877945   -3.051076
      9          6           0       -8.194233    1.350975   -2.181749
     10          8           0       -7.021752    1.634232   -2.463799
     11          6           0       -9.870671    3.135863   -2.367568
     12          6           0      -10.397532    2.919253   -0.960693
     13          8           0      -11.013319    1.877858   -0.663872
     14          8           0      -10.284929    3.867879   -0.147964
     15          1           0       -8.243093    2.722773   -4.692701
     16          1           0      -10.094766    1.122969   -3.105430
     17          1           0      -10.733804    3.457772   -2.959747
     18          1           0       -9.150922    3.953075   -2.382549
     19          7           0       -8.491395    0.615226   -1.110036
     20          6           0       -7.696870    0.244099    0.042741
     21          6           0       -7.140665    1.449243    0.796176
     22          8           0       -7.585483    2.561988    0.555270
     23          6           0       -6.641157   -0.758967   -0.415765
     24          6           0       -7.101882   -2.069929   -1.052641
     25          6           0       -7.903490   -3.014617   -0.176063
     26          6           0       -7.305147   -4.402729   -0.411290
     27          7           0       -8.318403   -5.393242   -0.788509
     28          1           0       -9.466002    0.379277   -0.969434
     29          1           0       -8.306179   -0.357020    0.710797
     30          1           0       -6.052418   -0.980806    0.475736
     31          1           0       -5.861261   -0.302291   -1.027818
     32          1           0       -6.154388   -2.494799   -1.409768
     33          1           0       -7.679809   -1.814204   -1.932530
     34          1           0       -8.890693   -3.027949   -0.638937
     35          1           0       -7.928545   -2.801231    0.895263
     36          1           0       -6.822097   -4.693709    0.522034
     37          1           0       -6.488745   -4.288337   -1.126344
     38          1           0       -7.952497   -6.322431   -0.940896
     39          1           0       -9.055755   -5.604389   -0.131676
     40          1           0       -8.751012   -5.111958   -1.662996
     41          7           0       -6.169813    1.255459    1.697839
     42          6           0       -5.543595    2.376231    2.373947
     43          6           0       -4.331030    2.854604    1.571298
     44          8           0       -3.886300    2.260809    0.599278
     45          6           0       -5.171329    2.056741    3.812260
     46          6           0       -4.367704    0.777884    3.979926
     47          8           0       -4.044954    0.047011    3.013408
     48          8           0       -4.036409    0.360758    5.112644
     49          1           0       -5.678631    0.379365    1.756134
     50          1           0       -6.152753    3.282676    2.328317
     51          1           0       -6.125911    1.907389    4.318785
     52          1           0       -4.604539    2.866152    4.246660
     53          7           0       -3.767592    3.970221    2.053933
     54          6           0       -2.549742    4.531683    1.511991
     55          6           0       -1.349594    3.858209    2.161820
     56          8           0       -1.281242    3.739863    3.382239
     57          1           0       -4.286986    4.368723    2.830029
     58          1           0       -2.492998    5.595134    1.766064
     59          1           0       -2.536897    4.365413    0.435102
     60          7           0       -0.404499    3.358301    1.354178
     61          6           0        0.678647    2.503778    1.805937
     62          6           0        2.061256    3.040537    1.484095
     63          8           0        3.024890    2.287989    1.336173
     64          6           0        0.468917    1.065085    1.333945
     65          6           0       -0.762376    0.388023    1.932948
     66          7           0       -1.711637    0.007118    1.077836
     67          8           0       -0.881818    0.085179    3.117397
     68          1           0       -0.313673    3.636987    0.387439
     69          1           0        0.636377    2.527190    2.887910
     70          1           0        1.247695    0.336812    1.545660
     71          1           0        0.365551    1.114402    0.252842
     72          1           0       -1.735161    0.356315    0.132369
     73          1           0       -2.630741   -0.137277    1.476580
     74          7           0        2.218935    4.362742    1.371347
     75          6           0        3.542482    4.940759    1.276903
     76          6           0        4.502064    4.431642    0.215676
     77          8           0        4.068748    4.375132   -0.929726
     78          1           0        1.457807    5.022235    1.473094
     79          1           0        4.053568    4.734671    2.220576
     80          1           0        3.390293    6.021514    1.201359
     81          7           0        5.750142    4.031495    0.522730
     82          6           0        6.569886    3.280686   -0.409152
     83          6           0        6.116570    1.945290   -0.981622
     84          8           0        6.771654    1.336652   -1.821995
     85          6           0        7.088544    4.159622   -1.545183
     86          6           0        7.526981    5.568510   -1.216387
     87          6           0        8.722113    5.745059   -0.510561
     88          6           0        6.940217    6.683138   -1.812889
     89          6           0        9.154940    7.057931   -0.335549
     90          6           0        7.356822    8.014663   -1.659987
     91          6           0        8.582708    8.166476   -0.979504
     92          8           0        9.263327    9.355475   -0.923465
     93          1           0        5.983006    3.986945    1.503796
     94          1           0        7.462376    3.015042    0.163732
     95          1           0        6.382687    4.197074   -2.375161
     96          1           0        7.974092    3.681579   -1.965042
     97          1           0        9.207282    4.898776   -0.042785
     98          1           0        6.207406    6.402799   -2.542956
     99          1           0       10.035109    7.197466    0.280676
    100          1           0        6.782640    8.848045   -2.041680
    101          1           0        8.701232    9.940806   -1.419284
    102          7           0        5.003423    1.355556   -0.549399
    103          6           0        4.527355    0.018357   -0.871511
    104          6           0        5.390078   -1.073284   -0.254559
    105          8           0        4.830765   -1.897961    0.459567
    106          6           0        4.057786   -0.217312   -2.304293
    107          6           0        3.325532    1.004258   -2.862119
    108          6           0        3.313460   -1.533502   -2.506838
    109          6           0        2.142793    1.577441   -2.098711
    110          1           0        4.512305    1.793039    0.207180
    111          1           0        3.611846   -0.030376   -0.281624
    112          1           0        4.967508   -0.243309   -2.903234
    113          1           0        2.971322    0.715153   -3.850225
    114          1           0        4.025741    1.840645   -2.923473
    115          1           0        3.156337   -1.724154   -3.561003
    116          1           0        3.891494   -2.344886   -2.055135
    117          1           0        2.312613   -1.638232   -2.096064
    118          1           0        1.333698    0.873367   -1.900108
    119          1           0        2.511912    1.987735   -1.159504
    120          1           0        1.633376    2.385455   -2.621691
    121          7           0        6.667666   -1.107929   -0.619620
    122          6           0        7.636586   -1.941192    0.083138
    123          6           0        7.500765   -3.439132   -0.190040
    124          8           0        7.833499   -4.131731    0.763478
    125          6           0        9.029166   -1.433744   -0.257181
    126          8           0        9.235656   -1.451790   -1.654119
    127          1           0        6.995459   -0.511471   -1.356430
    128          1           0        7.526865   -1.838284    1.159554
    129          1           0        9.776866   -2.150208    0.086801
    130          1           0        9.230064   -0.420859    0.079129
    131          1           0        9.908856   -0.797354   -1.831079
    132          7           0        6.927174   -3.839980   -1.319515
    133          6           0        6.684821   -5.220077   -1.690996
    134          6           0        5.619753   -5.916254   -0.863731
    135          8           0        5.314015   -7.074051   -1.118744
    136          6           0        7.993639   -5.982866   -1.820406
    137          1           0        6.597935   -3.082809   -1.913563
    138          1           0        6.310427   -5.154464   -2.722318
    139          1           0        8.669920   -5.369418   -2.423171
    140          1           0        8.431951   -6.248261   -0.859808
    141          1           0        7.826921   -6.878702   -2.426774
    142          7           0        4.874421   -5.233052    0.015311
    143          6           0        3.701972   -5.735615    0.704798
    144          6           0        2.387131   -5.424588    0.005187
    145          8           0        2.382016   -4.528230   -0.840400
    146          6           0        3.738877   -5.160244    2.117486
    147          1           0        5.094181   -4.296075    0.314443
    148          1           0        3.816446   -6.803522    0.864082
    149          1           0        3.639514   -4.072774    2.162625
    150          1           0        2.899503   -5.594843    2.651597
    151          1           0        4.630620   -5.569212    2.592607
    152          7           0        1.288609   -6.100530    0.322284
    153          6           0       -0.078408   -5.934164   -0.121885
    154          6           0       -0.381337   -6.005964   -1.611038
    155          8           0       -1.541397   -5.801545   -1.971419
    156          6           0       -0.698514   -4.700628    0.541633
    157          6           0       -0.479103   -4.635430    2.050311
    158          6           0       -1.047750   -3.369679    2.658024
    159          8           0       -0.599157   -2.925743    3.743697
    160          8           0       -2.124309   -2.880723    2.259351
    161          1           0        1.396781   -6.759276    1.084684
    162          1           0       -0.599666   -6.786513    0.310309
    163          1           0       -1.763016   -4.654403    0.321407
    164          1           0       -0.299725   -3.754566    0.165291
    165          1           0        0.605030   -4.530773    2.139200
    166          1           0       -0.865245   -5.525963    2.545635
    167          7           0        0.632966   -6.261166   -2.439387
    168          6           0        0.488089   -6.193037   -3.881215
    169          1           0        1.452004   -5.957047   -4.332345
    170          1           0        0.136734   -7.153764   -4.258063
    171          1           0       -0.231762   -5.415795   -4.138269
    172          1           0        1.557699   -6.462492   -2.075605
    173         20           0       -2.844681   -1.787663    4.433767
    174          8           0       -1.154485   -0.952026    6.363650
    175          1           0       -0.871090   -1.534179    7.066633
    176          1           0       -0.349060   -0.541420    6.060345
 ---------------------------------------------------------------------
 Rotational constants (GHZ):           0.0183309           0.0091931           0.0074845
 Standard basis: SVP (5D, 7F)
 There are  1809 symmetry adapted cartesian basis functions of A   symmetry.
 There are  1717 symmetry adapted basis functions of A   symmetry.
  1717 basis functions,  2922 primitive gaussians,  1809 cartesian basis functions
   358 alpha electrons      358 beta electrons
       nuclear repulsion energy     19147.1404374393 Hartrees.
 NAtoms=  176 NActive=  176 NUniq=  176 SFac= 1.00D+00 NAtFMM=   60 NAOKFM=T Big=T
 Integral buffers will be    131072 words long.
 Raffenetti 2 integral format.
 Two-electron integral symmetry is turned on.
 One-electron integrals computed using PRISM.
 NBasis=  1717 RedAO= T EigKep=  3.51D-04  NBF=  1717
 NBsUse=  1717 1.00D-06 EigRej= -1.00D+00 NBFU=  1717
 ExpMin= 1.98D-02 ExpMax= 3.51D+04 ExpMxC= 5.28D+03 IAcc=3 IRadAn=         5 AccDes= 0.00D+00
 Harris functional with IExCor=  402 and IRadAn=       5 diagonalized for initial guess.
 HarFok:  IExCor=  402 AccDes= 0.00D+00 IRadAn=         5 IDoV= 1 UseB2=F ITyADJ=14
 ICtDFT=  3500011 ScaDFX=  1.000000  1.000000  1.000000  1.000000
 FoFCou: FMM=F IPFlag=           0 FMFlag=      100000 FMFlg1=        2001
         NFxFlg=           0 DoJE=T BraDBF=F KetDBF=T FulRan=T
         wScrn=  0.000000 ICntrl=       500 IOpCl=  0 I1Cent=   200000004 NGrid=           0
         NMat0=    1 NMatS0=      1 NMatT0=    0 NMatD0=    1 NMtDS0=    0 NMtDT0=    0
 Petite list used in FoFCou.
 Requested convergence on RMS density matrix=1.00D-08 within 128 cycles.
 Requested convergence on MAX density matrix=1.00D-06.
 Requested convergence on             energy=1.00D-06.
 No special actions if energy rises.
 EnCoef did     2 forward-backward iterations
 EnCoef did     2 forward-backward iterations
 EnCoef did     3 forward-backward iterations
 EnCoef did    44 forward-backward iterations
 EnCoef did   100 forward-backward iterations
 EnCoef did   100 forward-backward iterations
 EnCoef did   100 forward-backward iterations
 Rare condition: small coef for last iteration:  0.606D-15
 EnCoef did   100 forward-backward iterations
 Rare condition: small coef for last iteration:  0.000D+00
 EnCoef did   100 forward-backward iterations
 Rare condition: small coef for last iteration:  0.000D+00
 EnCoef did   100 forward-backward iterations
 EnCoef did   100 forward-backward iterations
 Restarting incremental Fock formation.
 SCF Done:  E(RB3LYP) =  -5333.42665337     A.U. after   36 cycles
            NFock= 36  Conv=0.18D-08     -V/T= 2.0081
 SCF density gives NOpUse=  1 NOpAll=  1.
 Hyperfine terms turned off by default for NAtoms > 100.

 **********************************************************************

            Population analysis using the SCF density.

 **********************************************************************

 Orbital symmetries:
 BldTbl:  Degeneracy threshold= 1.00D-02
       Occupied  (A) (A) (A) (A) (A) (A) (A) (A) (A) (A) (A) (A)
                 (A) (A) (A) (A) (A) (A) (A) (A) (A) (A) (A) (A)
                 (A) (A) (A) (A) (A) (A) (A) (A) (A) (A) (A) (A)
                 (A) (A) (A) (A) (A) (A) (A) (A) (A) (A) (A) (A)
                 (A) (A) (A) (A) (A) (A) (A) (A) (A) (A) (A) (A)
                 (A) (A) (A) (A) (A) (A) (A) (A) (A) (A) (A) (A)
                 (A) (A) (A) (A) (A) (A) (A) (A) (A) (A) (A) (A)
                 (A) (A) (A) (A) (A) (A) (A) (A) (A) (A) (A) (A)
                 (A) (A) (A) (A) (A) (A) (A) (A) (A) (A) (A) (A)
                 (A) (A) (A) (A) (A) (A) (A) (A) (A) (A) (A) (A)
                 (A) (A) (A) (A) (A) (A) (A) (A) (A) (A) (A) (A)
                 (A) (A) (A) (A) (A) (A) (A) (A) (A) (A) (A) (A)
                 (A) (A) (A) (A) (A) (A) (A) (A) (A) (A) (A) (A)
                 (A) (A) (A) (A) (A) (A) (A) (A) (A) (A) (A) (A)
                 (A) (A) (A) (A) (A) (A) (A) (A) (A) (A) (A) (A)
                 (A) (A) (A) (A) (A) (A) (A) (A) (A) (A) (A) (A)
                 (A) (A) (A) (A) (A) (A) (A) (A) (A) (A) (A) (A)
                 (A) (A) (A) (A) (A) (A) (A) (A) (A) (A) (A) (A)
                 (A) (A) (A) (A) (A) (A) (A) (A) (A) (A) (A) (A)
                 (A) (A) (A) (A) (A) (A) (A) (A) (A) (A) (A) (A)
                 (A) (A) (A) (A) (A) (A) (A) (A) (A) (A) (A) (A)
                 (A) (A) (A) (A) (A) (A) (A) (A) (A) (A) (A) (A)
                 (A) (A) (A) (A) (A) (A) (A) (A) (A) (A) (A) (A)
                 (A) (A) (A) (A) (A) (A) (A) (A) (A) (A) (A) (A)
                 (A) (A) (A) (A) (A) (A) (A) (A) (A) (A) (A) (A)
                 (A) (A) (A) (A) (A) (A) (A) (A) (A) (A) (A) (A)
                 (A) (A) (A) (A) (A) (A) (A) (A) (A) (A) (A) (A)
                 (A) (A) (A) (A) (A) (A) (A) (A) (A) (A) (A) (A)
                 (A) (A) (A) (A) (A) (A) (A) (A) (A) (A) (A) (A)
                 (A) (A) (A) (A) (A) (A) (A) (A) (A) (A)
       Virtual   (A) (A) (A) (A) (A) (A) (A) (A) (A) (A) (A) (A)
                 (A) (A) (A) (A) (A) (A) (A) (A) (A) (A) (A) (A)
                 (A) (A) (A) (A) (A) (A) (A) (A) (A) (A) (A) (A)
                 (A) (A) (A) (A) (A) (A) (A) (A) (A) (A) (A) (A)
                 (A) (A) (A) (A) (A) (A) (A) (A) (A) (A) (A) (A)
                 (A) (A) (A) (A) (A) (A) (A) (A) (A) (A) (A) (A)
                 (A) (A) (A) (A) (A) (A) (A) (A) (A) (A) (A) (A)
                 (A) (A) (A) (A) (A) (A) (A) (A) (A) (A) (A) (A)
                 (A) (A) (A) (A) (A) (A) (A) (A) (A) (A) (A) (A)
                 (A) (A) (A) (A) (A) (A) (A) (A) (A) (A) (A) (A)
                 (A) (A) (A) (A) (A) (A) (A) (A) (A) (A) (A) (A)
                 (A) (A) (A) (A) (A) (A) (A) (A) (A) (A) (A) (A)
                 (A) (A) (A) (A) (A) (A) (A) (A) (A) (A) (A) (A)
                 (A) (A) (A) (A) (A) (A) (A) (A) (A) (A) (A) (A)
                 (A) (A) (A) (A) (A) (A) (A) (A) (A) (A) (A) (A)
                 (A) (A) (A) (A) (A) (A) (A) (A) (A) (A) (A) (A)
                 (A) (A) (A) (A) (A) (A) (A) (A) (A) (A) (A) (A)
                 (A) (A) (A) (A) (A) (A) (A) (A) (A) (A) (A) (A)
                 (A) (A) (A) (A) (A) (A) (A) (A) (A) (A) (A) (A)
                 (A) (A) (A) (A) (A) (A) (A) (A) (A) (A) (A) (A)
                 (A) (A) (A) (A) (A) (A) (A) (A) (A) (A) (A) (A)
                 (A) (A) (A) (A) (A) (A) (A) (A) (A) (A) (A) (A)
                 (A) (A) (A) (A) (A) (A) (A) (A) (A) (A) (A) (A)
                 (A) (A) (A) (A) (A) (A) (A) (A) (A) (A) (A) (A)
                 (A) (A) (A) (A) (A) (A) (A) (A) (A) (A) (A) (A)
                 (A) (A) (A) (A) (A) (A) (A) (A) (A) (A) (A) (A)
                 (A) (A) (A) (A) (A) (A) (A) (A) (A) (A) (A) (A)
                 (A) (A) (A) (A) (A) (A) (A) (A) (A) (A) (A) (A)
                 (A) (A) (A) (A) (A) (A) (A) (A) (A) (A) (A) (A)
                 (A) (A) (A) (A) (A) (A) (A) (A) (A) (A) (A) (A)
                 (A) (A) (A) (A) (A) (A) (A) (A) (A) (A) (A) (A)
                 (A) (A) (A) (A) (A) (A) (A) (A) (A) (A) (A) (A)
                 (A) (A) (A) (A) (A) (A) (A) (A) (A) (A) (A) (A)
                 (A) (A) (A) (A) (A) (A) (A) (A) (A) (A) (A) (A)
                 (A) (A) (A) (A) (A) (A) (A) (A) (A) (A) (A) (A)
                 (A) (A) (A) (A) (A) (A) (A) (A) (A) (A) (A) (A)
                 (A) (A) (A) (A) (A) (A) (A) (A) (A) (A) (A) (A)
                 (A) (A) (A) (A) (A) (A) (A) (A) (A) (A) (A) (A)
                 (A) (A) (A) (A) (A) (A) (A) (A) (A) (A) (A) (A)
                 (A) (A) (A) (A) (A) (A) (A) (A) (A) (A) (A) (A)
                 (A) (A) (A) (A) (A) (A) (A) (A) (A) (A) (A) (A)
                 (A) (A) (A) (A) (A) (A) (A) (A) (A) (A) (A) (A)
                 (A) (A) (A) (A) (A) (A) (A) (A) (A) (A) (A) (A)
                 (A) (A) (A) (A) (A) (A) (A) (A) (A) (A) (A) (A)
                 (A) (A) (A) (A) (A) (A) (A) (A) (A) (A) (A) (A)
                 (A) (A) (A) (A) (A) (A) (A) (A) (A) (A) (A) (A)
                 (A) (A) (A) (A) (A) (A) (A) (A) (A) (A) (A) (A)
                 (A) (A) (A) (A) (A) (A) (A) (A) (A) (A) (A) (A)
                 (A) (A) (A) (A) (A) (A) (A) (A) (A) (A) (A) (A)
                 (A) (A) (A) (A) (A) (A) (A) (A) (A) (A) (A) (A)
                 (A) (A) (A) (A) (A) (A) (A) (A) (A) (A) (A) (A)
                 (A) (A) (A) (A) (A) (A) (A) (A) (A) (A) (A) (A)
                 (A) (A) (A) (A) (A) (A) (A) (A) (A) (A) (A) (A)
                 (A) (A) (A) (A) (A) (A) (A) (A) (A) (A) (A) (A)
                 (A) (A) (A) (A) (A) (A) (A) (A) (A) (A) (A) (A)
                 (A) (A) (A) (A) (A) (A) (A) (A) (A) (A) (A) (A)
                 (A) (A) (A) (A) (A) (A) (A) (A) (A) (A) (A) (A)
                 (A) (A) (A) (A) (A) (A) (A) (A) (A) (A) (A) (A)
                 (A) (A) (A) (A) (A) (A) (A) (A) (A) (A) (A) (A)
                 (A) (A) (A) (A) (A) (A) (A) (A) (A) (A) (A) (A)
                 (A) (A) (A) (A) (A) (A) (A) (A) (A) (A) (A) (A)
                 (A) (A) (A) (A) (A) (A) (A) (A) (A) (A) (A) (A)
                 (A) (A) (A) (A) (A) (A) (A) (A) (A) (A) (A) (A)
                 (A) (A) (A) (A) (A) (A) (A) (A) (A) (A) (A) (A)
                 (A) (A) (A) (A) (A) (A) (A) (A) (A) (A) (A) (A)
                 (A) (A) (A) (A) (A) (A) (A) (A) (A) (A) (A) (A)
                 (A) (A) (A) (A) (A) (A) (A) (A) (A) (A) (A) (A)
                 (A) (A) (A) (A) (A) (A) (A) (A) (A) (A) (A) (A)
                 (A) (A) (A) (A) (A) (A) (A) (A) (A) (A) (A) (A)
                 (A) (A) (A) (A) (A) (A) (A) (A) (A) (A) (A) (A)
                 (A) (A) (A) (A) (A) (A) (A) (A) (A) (A) (A) (A)
                 (A) (A) (A) (A) (A) (A) (A) (A) (A) (A) (A) (A)
                 (A) (A) (A) (A) (A) (A) (A) (A) (A) (A) (A) (A)
                 (A) (A) (A) (A) (A) (A) (A) (A) (A) (A) (A) (A)
                 (A) (A) (A) (A) (A) (A) (A) (A) (A) (A) (A) (A)
                 (A) (A) (A) (A) (A) (A) (A) (A) (A) (A) (A) (A)
                 (A) (A) (A) (A) (A) (A) (A) (A) (A) (A) (A) (A)
                 (A) (A) (A) (A) (A) (A) (A) (A) (A) (A) (A) (A)
                 (A) (A) (A) (A) (A) (A) (A) (A) (A) (A) (A) (A)
                 (A) (A) (A) (A) (A) (A) (A) (A) (A) (A) (A) (A)
                 (A) (A) (A) (A) (A) (A) (A) (A) (A) (A) (A) (A)
                 (A) (A) (A) (A) (A) (A) (A) (A) (A) (A) (A) (A)
                 (A) (A) (A) (A) (A) (A) (A) (A) (A) (A) (A) (A)
                 (A) (A) (A) (A) (A) (A) (A) (A) (A) (A) (A) (A)
                 (A) (A) (A) (A) (A) (A) (A) (A) (A) (A) (A) (A)
                 (A) (A) (A) (A) (A) (A) (A) (A) (A) (A) (A) (A)
                 (A) (A) (A) (A) (A) (A) (A) (A) (A) (A) (A) (A)
                 (A) (A) (A) (A) (A) (A) (A) (A) (A) (A) (A) (A)
                 (A) (A) (A) (A) (A) (A) (A) (A) (A) (A) (A) (A)
                 (A) (A) (A) (A) (A) (A) (A) (A) (A) (A) (A) (A)
                 (A) (A) (A) (A) (A) (A) (A) (A) (A) (A) (A) (A)
                 (A) (A) (A) (A) (A) (A) (A) (A) (A) (A) (A) (A)
                 (A) (A) (A) (A) (A) (A) (A) (A) (A) (A) (A) (A)
                 (A) (A) (A) (A) (A) (A) (A) (A) (A) (A) (A) (A)
                 (A) (A) (A) (A) (A) (A) (A) (A) (A) (A) (A) (A)
                 (A) (A) (A) (A) (A) (A) (A) (A) (A) (A) (A) (A)
                 (A) (A) (A) (A) (A) (A) (A) (A) (A) (A) (A) (A)
                 (A) (A) (A) (A) (A) (A) (A) (A) (A) (A) (A) (A)
                 (A) (A) (A) (A) (A) (A) (A) (A) (A) (A) (A) (A)
                 (A) (A) (A) (A) (A) (A) (A) (A) (A) (A) (A) (A)
                 (A) (A) (A) (A) (A) (A) (A) (A) (A) (A) (A) (A)
                 (A) (A) (A) (A) (A) (A) (A) (A) (A) (A) (A) (A)
                 (A) (A) (A) (A) (A) (A) (A) (A) (A) (A) (A) (A)
                 (A) (A) (A) (A) (A) (A) (A) (A) (A) (A) (A) (A)
                 (A) (A) (A) (A) (A) (A) (A) (A) (A) (A) (A) (A)
                 (A) (A) (A) (A) (A) (A) (A) (A) (A) (A) (A) (A)
                 (A) (A) (A) (A) (A) (A) (A) (A) (A) (A) (A) (A)
                 (A) (A) (A) (A) (A) (A) (A) (A) (A) (A) (A) (A)
                 (A) (A) (A) (A) (A) (A) (A) (A) (A) (A) (A) (A)
                 (A) (A) (A) (A) (A) (A) (A) (A) (A) (A) (A) (A)
                 (A) (A) (A) (A) (A) (A) (A) (A) (A) (A) (A) (A)
                 (A) (A) (A) (A) (A) (A) (A) (A) (A) (A) (A) (A)
                 (A) (A) (A) (A) (A) (A) (A) (A) (A) (A) (A) (A)
                 (A) (A) (A)
 The electronic state is 1-A.
 Alpha  occ. eigenvalues -- -145.43065 -19.18690 -19.17216 -19.13795 -19.13428
 Alpha  occ. eigenvalues --  -19.11187 -19.10984 -19.10428 -19.09994 -19.09339
 Alpha  occ. eigenvalues --  -19.09062 -19.09047 -19.09047 -19.08930 -19.08702
 Alpha  occ. eigenvalues --  -19.08361 -19.07926 -19.07319 -19.06777 -19.05511
 Alpha  occ. eigenvalues --  -19.04377 -19.04188 -18.96001 -18.95138 -15.49000
 Alpha  occ. eigenvalues --  -14.56178 -14.39401 -14.38217 -14.37984 -14.36632
 Alpha  occ. eigenvalues --  -14.35466 -14.35385 -14.35127 -14.34870 -14.34818
 Alpha  occ. eigenvalues --  -14.33524 -14.32470 -14.32189 -14.30614 -14.30311
 Alpha  occ. eigenvalues --  -12.62621 -12.62560 -12.62495 -10.32698 -10.31782
 Alpha  occ. eigenvalues --  -10.30532 -10.29835 -10.29270 -10.28249 -10.28089
 Alpha  occ. eigenvalues --  -10.28005 -10.27985 -10.27689 -10.27590 -10.27110
 Alpha  occ. eigenvalues --  -10.26778 -10.26632 -10.26235 -10.25900 -10.25748
 Alpha  occ. eigenvalues --  -10.25672 -10.25471 -10.24688 -10.24373 -10.24309
 Alpha  occ. eigenvalues --  -10.23966 -10.23734 -10.23456 -10.23215 -10.23025
 Alpha  occ. eigenvalues --  -10.22863 -10.21999 -10.21882 -10.21810 -10.21594
 Alpha  occ. eigenvalues --  -10.21565 -10.20238 -10.20060 -10.19788 -10.19387
 Alpha  occ. eigenvalues --  -10.19231 -10.19226 -10.19171 -10.19139 -10.18616
 Alpha  occ. eigenvalues --  -10.18443 -10.18375 -10.18285 -10.17650 -10.17403
 Alpha  occ. eigenvalues --  -10.17094 -10.16825 -10.16335 -10.16255 -10.15685
 Alpha  occ. eigenvalues --  -10.15175 -10.10274  -1.85868  -1.13433  -1.13153
 Alpha  occ. eigenvalues --   -1.12860  -1.11580  -1.06657  -1.06179  -1.04773
 Alpha  occ. eigenvalues --   -1.04746  -1.04267  -1.04165  -1.04042  -1.03278
 Alpha  occ. eigenvalues --   -1.03053  -1.02616  -1.02343  -1.02036  -1.01793
 Alpha  occ. eigenvalues --   -1.01624  -1.01506  -1.01091  -0.99154  -0.97303
 Alpha  occ. eigenvalues --   -0.96553  -0.95703  -0.94491  -0.93973  -0.93329
 Alpha  occ. eigenvalues --   -0.92949  -0.92745  -0.92057  -0.91808  -0.91509
 Alpha  occ. eigenvalues --   -0.91145  -0.91124  -0.90188  -0.90158  -0.89037
 Alpha  occ. eigenvalues --   -0.88171  -0.87966  -0.87224  -0.86944  -0.85712
 Alpha  occ. eigenvalues --   -0.80942  -0.80384  -0.79982  -0.79715  -0.79627
 Alpha  occ. eigenvalues --   -0.79353  -0.78025  -0.77852  -0.76533  -0.76226
 Alpha  occ. eigenvalues --   -0.75354  -0.74982  -0.74326  -0.74043  -0.73521
 Alpha  occ. eigenvalues --   -0.73403  -0.72483  -0.72129  -0.70810  -0.69982
 Alpha  occ. eigenvalues --   -0.69801  -0.69652  -0.69028  -0.67844  -0.66949
 Alpha  occ. eigenvalues --   -0.66350  -0.66204  -0.65276  -0.64862  -0.63875
 Alpha  occ. eigenvalues --   -0.63661  -0.63133  -0.62759  -0.62269  -0.62061
 Alpha  occ. eigenvalues --   -0.61505  -0.61426  -0.60987  -0.60387  -0.59563
 Alpha  occ. eigenvalues --   -0.59492  -0.58838  -0.58715  -0.58564  -0.57945
 Alpha  occ. eigenvalues --   -0.57883  -0.57855  -0.57517  -0.57430  -0.57218
 Alpha  occ. eigenvalues --   -0.57076  -0.56569  -0.55448  -0.55056  -0.54930
 Alpha  occ. eigenvalues --   -0.54819  -0.54411  -0.53795  -0.53530  -0.52967
 Alpha  occ. eigenvalues --   -0.52829  -0.52543  -0.52427  -0.52056  -0.51748
 Alpha  occ. eigenvalues --   -0.51610  -0.51214  -0.50953  -0.50705  -0.50205
 Alpha  occ. eigenvalues --   -0.49854  -0.49759  -0.49514  -0.49303  -0.48803
 Alpha  occ. eigenvalues --   -0.48744  -0.48393  -0.48381  -0.47931  -0.47724
 Alpha  occ. eigenvalues --   -0.47483  -0.47038  -0.46996  -0.46577  -0.46364
 Alpha  occ. eigenvalues --   -0.46103  -0.46042  -0.45942  -0.45639  -0.45385
 Alpha  occ. eigenvalues --   -0.45222  -0.45200  -0.44836  -0.44760  -0.44658
 Alpha  occ. eigenvalues --   -0.44526  -0.44390  -0.44348  -0.44077  -0.43866
 Alpha  occ. eigenvalues --   -0.43760  -0.43506  -0.43409  -0.43154  -0.43029
 Alpha  occ. eigenvalues --   -0.42854  -0.42782  -0.42631  -0.42558  -0.42292
 Alpha  occ. eigenvalues --   -0.42151  -0.41963  -0.41890  -0.41867  -0.41637
 Alpha  occ. eigenvalues --   -0.41527  -0.41377  -0.41305  -0.41098  -0.40695
 Alpha  occ. eigenvalues --   -0.40644  -0.40467  -0.40372  -0.40260  -0.40113
 Alpha  occ. eigenvalues --   -0.40107  -0.39878  -0.39780  -0.39760  -0.39513
 Alpha  occ. eigenvalues --   -0.39449  -0.39334  -0.39093  -0.38991  -0.38948
 Alpha  occ. eigenvalues --   -0.38825  -0.38659  -0.38422  -0.38287  -0.38179
 Alpha  occ. eigenvalues --   -0.38103  -0.37751  -0.37451  -0.37316  -0.37176
 Alpha  occ. eigenvalues --   -0.36841  -0.36674  -0.36611  -0.36507  -0.36349
 Alpha  occ. eigenvalues --   -0.36229  -0.36178  -0.36155  -0.35983  -0.35834
 Alpha  occ. eigenvalues --   -0.35746  -0.35447  -0.35358  -0.35200  -0.34877
 Alpha  occ. eigenvalues --   -0.34775  -0.34574  -0.34398  -0.34278  -0.34200
 Alpha  occ. eigenvalues --   -0.33837  -0.33560  -0.33503  -0.32999  -0.32713
 Alpha  occ. eigenvalues --   -0.32277  -0.31792  -0.31593  -0.31061  -0.30769
 Alpha  occ. eigenvalues --   -0.30454  -0.30194  -0.29790  -0.29554  -0.28555
 Alpha  occ. eigenvalues --   -0.28501  -0.28203  -0.27877  -0.27740  -0.27530
 Alpha  occ. eigenvalues --   -0.27256  -0.27195  -0.26852  -0.26660  -0.26519
 Alpha  occ. eigenvalues --   -0.26313  -0.26187  -0.26037  -0.25956  -0.25829
 Alpha  occ. eigenvalues --   -0.25578  -0.25306  -0.24938  -0.24790  -0.24657
 Alpha  occ. eigenvalues --   -0.24491  -0.24347  -0.24206  -0.24176  -0.24135
 Alpha  occ. eigenvalues --   -0.23636  -0.23345  -0.22810  -0.22734  -0.22274
 Alpha  occ. eigenvalues --   -0.21830  -0.21764  -0.20826  -0.20331  -0.19265
 Alpha  occ. eigenvalues --   -0.13278  -0.12828  -0.10243
 Alpha virt. eigenvalues --   -0.09075  -0.08143  -0.02815  -0.02726  -0.02641
 Alpha virt. eigenvalues --   -0.01786  -0.01391  -0.00556  -0.00514  -0.00079
 Alpha virt. eigenvalues --    0.00193   0.00561   0.01157   0.01458   0.01554
 Alpha virt. eigenvalues --    0.01700   0.02002   0.02203   0.02324   0.02589
 Alpha virt. eigenvalues --    0.02808   0.02918   0.03486   0.03803   0.03881
 Alpha virt. eigenvalues --    0.04201   0.04370   0.04501   0.04568   0.04752
 Alpha virt. eigenvalues --    0.05125   0.05271   0.06001   0.06332   0.06400
 Alpha virt. eigenvalues --    0.06586   0.06615   0.06946   0.07285   0.07559
 Alpha virt. eigenvalues --    0.07666   0.07954   0.08176   0.08676   0.08786
 Alpha virt. eigenvalues --    0.08960   0.09190   0.09366   0.09487   0.09742
 Alpha virt. eigenvalues --    0.09807   0.09962   0.10095   0.10229   0.10405
 Alpha virt. eigenvalues --    0.10671   0.10893   0.11095   0.11273   0.11542
 Alpha virt. eigenvalues --    0.11742   0.11766   0.11834   0.11939   0.12349
 Alpha virt. eigenvalues --    0.12377   0.12698   0.12891   0.12949   0.13017
 Alpha virt. eigenvalues --    0.13230   0.13284   0.13631   0.13656   0.13863
 Alpha virt. eigenvalues --    0.14134   0.14226   0.14322   0.14521   0.14582
 Alpha virt. eigenvalues --    0.14686   0.14928   0.15023   0.15079   0.15188
 Alpha virt. eigenvalues --    0.15506   0.15619   0.15720   0.15977   0.16193
 Alpha virt. eigenvalues --    0.16288   0.16394   0.16619   0.16874   0.16968
 Alpha virt. eigenvalues --    0.17021   0.17209   0.17326   0.17440   0.17497
 Alpha virt. eigenvalues --    0.17683   0.17790   0.17946   0.18025   0.18203
 Alpha virt. eigenvalues --    0.18418   0.18717   0.18901   0.19140   0.19445
 Alpha virt. eigenvalues --    0.19760   0.19909   0.20060   0.20233   0.20554
 Alpha virt. eigenvalues --    0.20795   0.21007   0.21320   0.21435   0.21583
 Alpha virt. eigenvalues --    0.21781   0.21798   0.22069   0.22436   0.22803
 Alpha virt. eigenvalues --    0.22872   0.23018   0.23183   0.23427   0.23821
 Alpha virt. eigenvalues --    0.23954   0.24017   0.24216   0.24333   0.24537
 Alpha virt. eigenvalues --    0.24864   0.25054   0.25166   0.25325   0.25653
 Alpha virt. eigenvalues --    0.25796   0.26053   0.26106   0.26408   0.26485
 Alpha virt. eigenvalues --    0.26738   0.27354   0.27544   0.27718   0.27973
 Alpha virt. eigenvalues --    0.28208   0.28507   0.28744   0.28936   0.28966
 Alpha virt. eigenvalues --    0.29376   0.29662   0.29779   0.30090   0.30288
 Alpha virt. eigenvalues --    0.30483   0.30808   0.31092   0.31382   0.31451
 Alpha virt. eigenvalues --    0.31842   0.32032   0.32151   0.32403   0.33051
 Alpha virt. eigenvalues --    0.33211   0.33503   0.33989   0.34193   0.34335
 Alpha virt. eigenvalues --    0.34584   0.34876   0.35162   0.35413   0.35614
 Alpha virt. eigenvalues --    0.35773   0.36431   0.36958   0.37409   0.37532
 Alpha virt. eigenvalues --    0.38278   0.38304   0.38644   0.38998   0.39034
 Alpha virt. eigenvalues --    0.39642   0.39733   0.39986   0.40159   0.40212
 Alpha virt. eigenvalues --    0.40541   0.40964   0.41295   0.41395   0.41526
 Alpha virt. eigenvalues --    0.41898   0.42124   0.42401   0.42472   0.42525
 Alpha virt. eigenvalues --    0.42808   0.43116   0.43303   0.43604   0.43696
 Alpha virt. eigenvalues --    0.43877   0.43949   0.44120   0.44421   0.44645
 Alpha virt. eigenvalues --    0.44807   0.44950   0.45236   0.45501   0.45658
 Alpha virt. eigenvalues --    0.45898   0.46137   0.46254   0.46448   0.46835
 Alpha virt. eigenvalues --    0.46869   0.47162   0.47315   0.47664   0.47743
 Alpha virt. eigenvalues --    0.47802   0.48008   0.48168   0.48330   0.48426
 Alpha virt. eigenvalues --    0.48635   0.48834   0.48887   0.49203   0.49472
 Alpha virt. eigenvalues --    0.49541   0.49699   0.49792   0.50121   0.50440
 Alpha virt. eigenvalues --    0.50692   0.50795   0.50868   0.50941   0.51254
 Alpha virt. eigenvalues --    0.51532   0.51662   0.52050   0.52353   0.52483
 Alpha virt. eigenvalues --    0.52541   0.52753   0.52892   0.53039   0.53246
 Alpha virt. eigenvalues --    0.53362   0.53706   0.53993   0.54033   0.54262
 Alpha virt. eigenvalues --    0.54690   0.55032   0.55079   0.55096   0.55304
 Alpha virt. eigenvalues --    0.55539   0.55690   0.55978   0.56117   0.56284
 Alpha virt. eigenvalues --    0.56510   0.56681   0.56822   0.56877   0.56962
 Alpha virt. eigenvalues --    0.57248   0.57473   0.57579   0.57845   0.58014
 Alpha virt. eigenvalues --    0.58212   0.58461   0.58587   0.58620   0.58796
 Alpha virt. eigenvalues --    0.58857   0.59075   0.59379   0.59566   0.59663
 Alpha virt. eigenvalues --    0.60098   0.60178   0.60392   0.60538   0.60630
 Alpha virt. eigenvalues --    0.60795   0.60923   0.61101   0.61190   0.61326
 Alpha virt. eigenvalues --    0.61512   0.61533   0.61635   0.61749   0.61945
 Alpha virt. eigenvalues --    0.62032   0.62218   0.62315   0.62515   0.62605
 Alpha virt. eigenvalues --    0.62710   0.62859   0.62951   0.63013   0.63141
 Alpha virt. eigenvalues --    0.63206   0.63360   0.63515   0.63625   0.63755
 Alpha virt. eigenvalues --    0.63864   0.63933   0.64044   0.64237   0.64395
 Alpha virt. eigenvalues --    0.64531   0.64579   0.64665   0.64713   0.64909
 Alpha virt. eigenvalues --    0.64979   0.64992   0.65231   0.65275   0.65399
 Alpha virt. eigenvalues --    0.65469   0.65655   0.65742   0.65886   0.65901
 Alpha virt. eigenvalues --    0.66210   0.66371   0.66389   0.66509   0.66572
 Alpha virt. eigenvalues --    0.66760   0.66819   0.66867   0.66981   0.67163
 Alpha virt. eigenvalues --    0.67369   0.67475   0.67676   0.67715   0.67870
 Alpha virt. eigenvalues --    0.68010   0.68075   0.68177   0.68318   0.68364
 Alpha virt. eigenvalues --    0.68451   0.68567   0.68599   0.68661   0.68797
 Alpha virt. eigenvalues --    0.68948   0.69095   0.69232   0.69353   0.69416
 Alpha virt. eigenvalues --    0.69459   0.69546   0.69600   0.69736   0.70023
 Alpha virt. eigenvalues --    0.70054   0.70193   0.70293   0.70319   0.70468
 Alpha virt. eigenvalues --    0.70584   0.70673   0.70790   0.70942   0.70954
 Alpha virt. eigenvalues --    0.71043   0.71199   0.71286   0.71593   0.71723
 Alpha virt. eigenvalues --    0.71754   0.71952   0.72075   0.72153   0.72360
 Alpha virt. eigenvalues --    0.72706   0.72814   0.72962   0.73179   0.73443
 Alpha virt. eigenvalues --    0.73828   0.73846   0.74298   0.74471   0.74676
 Alpha virt. eigenvalues --    0.74865   0.74884   0.75017   0.75037   0.75138
 Alpha virt. eigenvalues --    0.75325   0.75551   0.75847   0.75879   0.76105
 Alpha virt. eigenvalues --    0.76493   0.76579   0.77000   0.77274   0.77590
 Alpha virt. eigenvalues --    0.77642   0.77865   0.78064   0.78265   0.78467
 Alpha virt. eigenvalues --    0.79038   0.79166   0.79370   0.79801   0.79958
 Alpha virt. eigenvalues --    0.80218   0.80331   0.80455   0.80736   0.81206
 Alpha virt. eigenvalues --    0.81527   0.81576   0.81738   0.81934   0.82121
 Alpha virt. eigenvalues --    0.82281   0.82614   0.82753   0.83161   0.83372
 Alpha virt. eigenvalues --    0.83531   0.84053   0.84097   0.84417   0.84775
 Alpha virt. eigenvalues --    0.85267   0.85609   0.85753   0.86139   0.86218
 Alpha virt. eigenvalues --    0.86535   0.86995   0.87355   0.87633   0.87867
 Alpha virt. eigenvalues --    0.88186   0.88622   0.88650   0.88938   0.89032
 Alpha virt. eigenvalues --    0.89200   0.89405   0.89805   0.90228   0.90388
 Alpha virt. eigenvalues --    0.90549   0.90629   0.91364   0.91753   0.91952
 Alpha virt. eigenvalues --    0.92199   0.92332   0.92576   0.93105   0.93734
 Alpha virt. eigenvalues --    0.93916   0.94229   0.94468   0.94941   0.95240
 Alpha virt. eigenvalues --    0.95651   0.95804   0.96065   0.96363   0.96508
 Alpha virt. eigenvalues --    0.96812   0.96974   0.97232   0.97394   0.97761
 Alpha virt. eigenvalues --    0.97802   0.98261   0.98683   0.98911   0.99177
 Alpha virt. eigenvalues --    0.99573   0.99867   1.00164   1.00605   1.00909
 Alpha virt. eigenvalues --    1.01039   1.01236   1.01671   1.01739   1.02299
 Alpha virt. eigenvalues --    1.02479   1.02682   1.03045   1.03298   1.03664
 Alpha virt. eigenvalues --    1.04004   1.04194   1.04700   1.04941   1.05062
 Alpha virt. eigenvalues --    1.05369   1.05688   1.06036   1.06328   1.06417
 Alpha virt. eigenvalues --    1.06722   1.06902   1.07184   1.07498   1.07942
 Alpha virt. eigenvalues --    1.08057   1.08442   1.08480   1.08934   1.09012
 Alpha virt. eigenvalues --    1.09155   1.09638   1.10050   1.10545   1.10738
 Alpha virt. eigenvalues --    1.10890   1.11104   1.11284   1.11543   1.11728
 Alpha virt. eigenvalues --    1.12044   1.12198   1.12609   1.12863   1.13402
 Alpha virt. eigenvalues --    1.13591   1.13773   1.14066   1.14447   1.14576
 Alpha virt. eigenvalues --    1.14911   1.15155   1.15192   1.15673   1.15840
 Alpha virt. eigenvalues --    1.16057   1.16462   1.16583   1.16778   1.17126
 Alpha virt. eigenvalues --    1.17272   1.17791   1.18144   1.18237   1.18338
 Alpha virt. eigenvalues --    1.18569   1.18717   1.19095   1.19215   1.19526
 Alpha virt. eigenvalues --    1.19592   1.20141   1.20354   1.20727   1.21044
 Alpha virt. eigenvalues --    1.21669   1.21994   1.22100   1.22269   1.22363
 Alpha virt. eigenvalues --    1.22732   1.22776   1.23120   1.23369   1.23682
 Alpha virt. eigenvalues --    1.23959   1.24198   1.24460   1.24579   1.25003
 Alpha virt. eigenvalues --    1.25155   1.25789   1.25988   1.26101   1.26286
 Alpha virt. eigenvalues --    1.26448   1.26580   1.26815   1.26975   1.27506
 Alpha virt. eigenvalues --    1.27721   1.27922   1.28312   1.28713   1.29048
 Alpha virt. eigenvalues --    1.29192   1.29335   1.29590   1.29930   1.30048
 Alpha virt. eigenvalues --    1.30310   1.30472   1.30849   1.31184   1.31449
 Alpha virt. eigenvalues --    1.31539   1.31931   1.32514   1.32786   1.33110
 Alpha virt. eigenvalues --    1.33324   1.33426   1.33806   1.34616   1.34896
 Alpha virt. eigenvalues --    1.35571   1.35726   1.36135   1.36263   1.36428
 Alpha virt. eigenvalues --    1.36607   1.37074   1.37389   1.37540   1.37583
 Alpha virt. eigenvalues --    1.37787   1.37895   1.38644   1.39102   1.39286
 Alpha virt. eigenvalues --    1.39811   1.39892   1.40179   1.40500   1.40642
 Alpha virt. eigenvalues --    1.41145   1.41494   1.41684   1.42079   1.42201
 Alpha virt. eigenvalues --    1.42399   1.43016   1.43125   1.43597   1.43818
 Alpha virt. eigenvalues --    1.43915   1.44074   1.44236   1.44352   1.44848
 Alpha virt. eigenvalues --    1.44968   1.45280   1.45589   1.45867   1.46028
 Alpha virt. eigenvalues --    1.46421   1.46911   1.47257   1.47571   1.47749
 Alpha virt. eigenvalues --    1.48191   1.48423   1.48527   1.49194   1.49499
 Alpha virt. eigenvalues --    1.49740   1.49820   1.50287   1.50714   1.50917
 Alpha virt. eigenvalues --    1.50969   1.51230   1.51551   1.51719   1.52233
 Alpha virt. eigenvalues --    1.52610   1.52669   1.53148   1.53407   1.53882
 Alpha virt. eigenvalues --    1.54487   1.54979   1.55013   1.55391   1.55945
 Alpha virt. eigenvalues --    1.56439   1.56940   1.57134   1.57496   1.57713
 Alpha virt. eigenvalues --    1.57750   1.58019   1.58191   1.58679   1.58996
 Alpha virt. eigenvalues --    1.59539   1.60113   1.60364   1.60512   1.60813
 Alpha virt. eigenvalues --    1.61284   1.61415   1.61784   1.62221   1.62523
 Alpha virt. eigenvalues --    1.62823   1.63070   1.63662   1.63843   1.64443
 Alpha virt. eigenvalues --    1.64489   1.64793   1.64911   1.65299   1.65603
 Alpha virt. eigenvalues --    1.66248   1.66667   1.66947   1.67562   1.68017
 Alpha virt. eigenvalues --    1.68273   1.68383   1.68520   1.69120   1.69251
 Alpha virt. eigenvalues --    1.69694   1.69912   1.70020   1.70187   1.70524
 Alpha virt. eigenvalues --    1.70598   1.71270   1.71360   1.71570   1.71745
 Alpha virt. eigenvalues --    1.71859   1.71899   1.72056   1.72309   1.72530
 Alpha virt. eigenvalues --    1.72839   1.73118   1.73337   1.73480   1.73731
 Alpha virt. eigenvalues --    1.73880   1.74033   1.74268   1.74450   1.74558
 Alpha virt. eigenvalues --    1.74949   1.75196   1.75301   1.75449   1.75932
 Alpha virt. eigenvalues --    1.75984   1.76017   1.76114   1.76453   1.76581
 Alpha virt. eigenvalues --    1.76739   1.76939   1.77361   1.77573   1.77675
 Alpha virt. eigenvalues --    1.77926   1.77988   1.78189   1.78317   1.78402
 Alpha virt. eigenvalues --    1.78447   1.78544   1.78600   1.78984   1.79245
 Alpha virt. eigenvalues --    1.79426   1.79551   1.79633   1.80165   1.80232
 Alpha virt. eigenvalues --    1.80272   1.80492   1.80798   1.80902   1.80988
 Alpha virt. eigenvalues --    1.81218   1.81377   1.81445   1.81640   1.81883
 Alpha virt. eigenvalues --    1.82149   1.82206   1.82376   1.82445   1.82577
 Alpha virt. eigenvalues --    1.82938   1.83026   1.83211   1.83392   1.83468
 Alpha virt. eigenvalues --    1.83557   1.83672   1.84010   1.84331   1.84561
 Alpha virt. eigenvalues --    1.84636   1.84789   1.85143   1.85445   1.85568
 Alpha virt. eigenvalues --    1.85694   1.85908   1.86002   1.86203   1.86306
 Alpha virt. eigenvalues --    1.86729   1.87157   1.87418   1.87573   1.87702
 Alpha virt. eigenvalues --    1.87723   1.87995   1.88083   1.88317   1.88489
 Alpha virt. eigenvalues --    1.88621   1.88863   1.89036   1.89119   1.89193
 Alpha virt. eigenvalues --    1.89385   1.89610   1.89801   1.90004   1.90105
 Alpha virt. eigenvalues --    1.90392   1.90535   1.90756   1.90942   1.91082
 Alpha virt. eigenvalues --    1.91275   1.91427   1.91607   1.91736   1.91866
 Alpha virt. eigenvalues --    1.92284   1.92547   1.92745   1.92935   1.93113
 Alpha virt. eigenvalues --    1.93171   1.93333   1.93503   1.93637   1.93666
 Alpha virt. eigenvalues --    1.93975   1.94211   1.94322   1.94603   1.94949
 Alpha virt. eigenvalues --    1.95306   1.95502   1.95589   1.95668   1.96213
 Alpha virt. eigenvalues --    1.96367   1.96665   1.96779   1.96943   1.97150
 Alpha virt. eigenvalues --    1.97275   1.97438   1.97745   1.97898   1.98317
 Alpha virt. eigenvalues --    1.98583   1.98852   1.98999   1.99215   1.99366
 Alpha virt. eigenvalues --    1.99793   1.99839   2.00147   2.00589   2.00927
 Alpha virt. eigenvalues --    2.01114   2.01234   2.01506   2.01811   2.02065
 Alpha virt. eigenvalues --    2.02731   2.02814   2.03102   2.03259   2.03971
 Alpha virt. eigenvalues --    2.04304   2.04550   2.04836   2.05013   2.05270
 Alpha virt. eigenvalues --    2.05588   2.05959   2.06230   2.06254   2.06402
 Alpha virt. eigenvalues --    2.06459   2.06704   2.06938   2.07223   2.07380
 Alpha virt. eigenvalues --    2.07567   2.08031   2.08090   2.08696   2.09156
 Alpha virt. eigenvalues --    2.09267   2.09814   2.09987   2.10286   2.10519
 Alpha virt. eigenvalues --    2.10931   2.11006   2.11154   2.11202   2.11479
 Alpha virt. eigenvalues --    2.11919   2.11958   2.12128   2.12436   2.12675
 Alpha virt. eigenvalues --    2.12925   2.13060   2.13671   2.13891   2.14116
 Alpha virt. eigenvalues --    2.14207   2.14331   2.14752   2.15052   2.15292
 Alpha virt. eigenvalues --    2.15558   2.15888   2.15968   2.16066   2.16245
 Alpha virt. eigenvalues --    2.16603   2.17026   2.17534   2.17990   2.18161
 Alpha virt. eigenvalues --    2.18611   2.18871   2.19126   2.19285   2.19929
 Alpha virt. eigenvalues --    2.20325   2.20855   2.21373   2.21964   2.22257
 Alpha virt. eigenvalues --    2.22691   2.22742   2.22827   2.23053   2.23416
 Alpha virt. eigenvalues --    2.23595   2.23950   2.24218   2.24471   2.24496
 Alpha virt. eigenvalues --    2.24748   2.24775   2.25098   2.25560   2.25953
 Alpha virt. eigenvalues --    2.26218   2.27076   2.27354   2.28086   2.28484
 Alpha virt. eigenvalues --    2.28597   2.28785   2.28950   2.29152   2.29385
 Alpha virt. eigenvalues --    2.29663   2.29757   2.30687   2.30790   2.31031
 Alpha virt. eigenvalues --    2.31158   2.31587   2.31825   2.32024   2.32697
 Alpha virt. eigenvalues --    2.32856   2.33207   2.33520   2.33650   2.33683
 Alpha virt. eigenvalues --    2.33696   2.34272   2.35096   2.35632   2.35830
 Alpha virt. eigenvalues --    2.35998   2.36231   2.36341   2.37012   2.37216
 Alpha virt. eigenvalues --    2.37268   2.37724   2.38285   2.38349   2.38883
 Alpha virt. eigenvalues --    2.39028   2.39371   2.39764   2.40044   2.40179
 Alpha virt. eigenvalues --    2.40312   2.41194   2.41313   2.42122   2.42224
 Alpha virt. eigenvalues --    2.43007   2.43266   2.43418   2.43783   2.44190
 Alpha virt. eigenvalues --    2.44463   2.44604   2.44787   2.44915   2.45416
 Alpha virt. eigenvalues --    2.45628   2.46241   2.46938   2.47020   2.47049
 Alpha virt. eigenvalues --    2.47524   2.47982   2.48831   2.49201   2.49412
 Alpha virt. eigenvalues --    2.49521   2.50426   2.51064   2.51576   2.51630
 Alpha virt. eigenvalues --    2.52199   2.52278   2.52596   2.53277   2.53290
 Alpha virt. eigenvalues --    2.54105   2.54491   2.54587   2.54931   2.55216
 Alpha virt. eigenvalues --    2.55787   2.56217   2.56245   2.56574   2.56703
 Alpha virt. eigenvalues --    2.56859   2.57281   2.57699   2.58077   2.58341
 Alpha virt. eigenvalues --    2.58429   2.58872   2.59380   2.59569   2.59923
 Alpha virt. eigenvalues --    2.60208   2.60302   2.60390   2.60652   2.61232
 Alpha virt. eigenvalues --    2.61299   2.61630   2.61866   2.61999   2.62101
 Alpha virt. eigenvalues --    2.62447   2.62762   2.63295   2.63488   2.63700
 Alpha virt. eigenvalues --    2.64314   2.65005   2.65679   2.65824   2.65983
 Alpha virt. eigenvalues --    2.66019   2.66239   2.66592   2.66929   2.67030
 Alpha virt. eigenvalues --    2.67342   2.67487   2.67925   2.68281   2.68689
 Alpha virt. eigenvalues --    2.68911   2.69170   2.69401   2.69653   2.70057
 Alpha virt. eigenvalues --    2.70750   2.70810   2.70960   2.71207   2.71605
 Alpha virt. eigenvalues --    2.71715   2.72271   2.72622   2.72822   2.72934
 Alpha virt. eigenvalues --    2.73530   2.73707   2.73975   2.74627   2.74749
 Alpha virt. eigenvalues --    2.74868   2.75182   2.75319   2.75981   2.76147
 Alpha virt. eigenvalues --    2.76315   2.76413   2.76822   2.77064   2.77112
 Alpha virt. eigenvalues --    2.77297   2.77919   2.78028   2.78684   2.79148
 Alpha virt. eigenvalues --    2.79273   2.79610   2.79752   2.80298   2.80615
 Alpha virt. eigenvalues --    2.80649   2.80988   2.81002   2.81802   2.82283
 Alpha virt. eigenvalues --    2.82370   2.82492   2.82512   2.83090   2.83317
 Alpha virt. eigenvalues --    2.83421   2.83527   2.83779   2.83868   2.84337
 Alpha virt. eigenvalues --    2.84812   2.85586   2.85648   2.85857   2.86280
 Alpha virt. eigenvalues --    2.86424   2.87272   2.87610   2.87960   2.88280
 Alpha virt. eigenvalues --    2.88415   2.88601   2.88853   2.89033   2.89104
 Alpha virt. eigenvalues --    2.89289   2.89732   2.90568   2.90797   2.90974
 Alpha virt. eigenvalues --    2.91656   2.91694   2.92070   2.92353   2.92582
 Alpha virt. eigenvalues --    2.92762   2.93007   2.93188   2.93358   2.93699
 Alpha virt. eigenvalues --    2.93934   2.94236   2.94477   2.94632   2.94677
 Alpha virt. eigenvalues --    2.94862   2.95170   2.95248   2.95591   2.96025
 Alpha virt. eigenvalues --    2.96300   2.96631   2.96872   2.97185   2.97752
 Alpha virt. eigenvalues --    2.97813   2.98139   2.98262   2.98559   2.99054
 Alpha virt. eigenvalues --    2.99191   2.99275   2.99631   2.99756   2.99929
 Alpha virt. eigenvalues --    3.00463   3.00886   3.01204   3.02297   3.02762
 Alpha virt. eigenvalues --    3.02951   3.03491   3.03549   3.03690   3.04602
 Alpha virt. eigenvalues --    3.05197   3.05271   3.05672   3.05920   3.06027
 Alpha virt. eigenvalues --    3.06368   3.06742   3.07237   3.07630   3.07808
 Alpha virt. eigenvalues --    3.08237   3.08715   3.08922   3.09082   3.10668
 Alpha virt. eigenvalues --    3.11509   3.11820   3.12860   3.13220   3.13585
 Alpha virt. eigenvalues --    3.13760   3.13781   3.13916   3.14178   3.14654
 Alpha virt. eigenvalues --    3.15587   3.16004   3.16735   3.16809   3.17116
 Alpha virt. eigenvalues --    3.17519   3.17548   3.17698   3.17955   3.18249
 Alpha virt. eigenvalues --    3.18667   3.18986   3.19275   3.19386   3.19464
 Alpha virt. eigenvalues --    3.19504   3.19831   3.19919   3.21293   3.21938
 Alpha virt. eigenvalues --    3.21964   3.22345   3.22415   3.22843   3.23137
 Alpha virt. eigenvalues --    3.24119   3.24157   3.24329   3.24710   3.25070
 Alpha virt. eigenvalues --    3.25706   3.27508   3.28193   3.28219   3.29132
 Alpha virt. eigenvalues --    3.29677   3.30655   3.31402   3.33585   3.34942
 Alpha virt. eigenvalues --    3.36453   3.36483   3.37112   3.38064   3.38605
 Alpha virt. eigenvalues --    3.38616   3.38805   3.45463   3.46414   3.48099
 Alpha virt. eigenvalues --    3.51531   3.52941   3.53165   3.53699   3.54865
 Alpha virt. eigenvalues --    3.55156   3.55895   3.56873   3.57314   3.57992
 Alpha virt. eigenvalues --    3.58132   3.58822   3.61126   3.61258   3.61428
 Alpha virt. eigenvalues --    3.62984   3.65231   3.65974   3.66641   3.66932
 Alpha virt. eigenvalues --    3.67703   3.68074   3.68108   3.68621   3.69699
 Alpha virt. eigenvalues --    3.69867   3.70414   3.70581   3.70940   3.71368
 Alpha virt. eigenvalues --    3.71930   3.72327   3.72387   3.74957   3.75847
 Alpha virt. eigenvalues --    3.77044   3.78154   3.81751   3.82483
          Condensed to atoms (all electrons):
 Mulliken charges:
               1
     1  C    0.066508
     2  C    0.002418
     3  O   -0.301772
     4  H   -0.018101
     5  H    0.024612
     6  H    0.032794
     7  N   -0.123334
     8  C    0.131964
     9  C    0.069462
    10  O   -0.308452
    11  C    0.091958
    12  C    0.045453
    13  O   -0.395190
    14  O   -0.342566
    15  H    0.109233
    16  H   -0.016868
    17  H    0.001316
    18  H   -0.023026
    19  N   -0.105388
    20  C    0.130801
    21  C    0.103477
    22  O   -0.208533
    23  C    0.004841
    24  C   -0.005335
    25  C   -0.012387
    26  C    0.037396
    27  N    0.120245
    28  H    0.108446
    29  H   -0.010958
    30  H   -0.038679
    31  H    0.034781
    32  H    0.023735
    33  H    0.022273
    34  H    0.020534
    35  H    0.045126
    36  H    0.054772
    37  H    0.084924
    38  H    0.129201
    39  H    0.131305
    40  H    0.153655
    41  N   -0.151386
    42  C    0.088816
    43  C    0.062505
    44  O   -0.269691
    45  C    0.117127
    46  C    0.125743
    47  O   -0.448276
    48  O   -0.440259
    49  H    0.122532
    50  H    0.035577
    51  H    0.037341
    52  H    0.019128
    53  N   -0.146393
    54  C    0.257607
    55  C    0.022985
    56  O   -0.265580
    57  H    0.124318
    58  H    0.024560
    59  H    0.015022
    60  N   -0.171113
    61  C    0.105916
    62  C    0.098507
    63  O   -0.296732
    64  C    0.119716
    65  C    0.035290
    66  N   -0.031900
    67  O   -0.315927
    68  H    0.127066
    69  H    0.049170
    70  H    0.058504
    71  H   -0.023787
    72  H    0.111630
    73  H    0.142092
    74  N   -0.108638
    75  C    0.224871
    76  C    0.036654
    77  O   -0.273370
    78  H    0.125423
    79  H   -0.014443
    80  H    0.032649
    81  N   -0.116629
    82  C    0.127674
    83  C    0.073013
    84  O   -0.315621
    85  C    0.124680
    86  C   -0.030446
    87  C   -0.023035
    88  C   -0.000171
    89  C    0.000722
    90  C   -0.035376
    91  C    0.138362
    92  O   -0.180888
    93  H    0.124809
    94  H    0.004227
    95  H    0.003516
    96  H    0.013497
    97  H   -0.035339
    98  H   -0.021743
    99  H   -0.024923
   100  H   -0.029610
   101  H    0.163801
   102  N   -0.108061
   103  C    0.143139
   104  C    0.042778
   105  O   -0.267747
   106  C   -0.049554
   107  C    0.042413
   108  C    0.070717
   109  C   -0.023365
   110  H    0.130487
   111  H   -0.003995
   112  H   -0.015643
   113  H   -0.014634
   114  H    0.009208
   115  H   -0.008635
   116  H    0.011890
   117  H    0.011013
   118  H    0.006151
   119  H    0.009821
   120  H   -0.003767
   121  N   -0.141225
   122  C    0.123337
   123  C    0.045314
   124  O   -0.281923
   125  C    0.218444
   126  O   -0.322961
   127  H    0.140745
   128  H    0.014928
   129  H    0.008327
   130  H   -0.000811
   131  H    0.165007
   132  N   -0.130337
   133  C    0.071337
   134  C    0.087364
   135  O   -0.295070
   136  C    0.061070
   137  H    0.133180
   138  H    0.021448
   139  H    0.006124
   140  H    0.034983
   141  H    0.019952
   142  N   -0.111195
   143  C    0.070069
   144  C    0.056487
   145  O   -0.272699
   146  C    0.034374
   147  H    0.145157
   148  H   -0.001969
   149  H    0.052469
   150  H   -0.012101
   151  H    0.034934
   152  N   -0.129513
   153  C    0.134753
   154  C    0.075914
   155  O   -0.298272
   156  C    0.012032
   157  C    0.068889
   158  C    0.100459
   159  O   -0.436104
   160  O   -0.454175
   161  H    0.118622
   162  H   -0.008459
   163  H    0.005136
   164  H    0.015074
   165  H    0.009276
   166  H   -0.012065
   167  N   -0.133933
   168  C    0.132878
   169  H    0.022978
   170  H    0.017820
   171  H    0.036027
   172  H    0.134264
   173  Ca   1.350372
   174  O   -0.284755
   175  H    0.171503
   176  H    0.199892
 Sum of Mulliken charges =  -0.00000
 Mulliken charges with hydrogens summed into heavy atoms:
               1
     1  C    0.105812
     2  C    0.002418
     3  O   -0.301772
     7  N   -0.014101
     8  C    0.115096
     9  C    0.069462
    10  O   -0.308452
    11  C    0.070249
    12  C    0.045453
    13  O   -0.395190
    14  O   -0.342566
    19  N    0.003058
    20  C    0.119844
    21  C    0.103477
    22  O   -0.208533
    23  C    0.000943
    24  C    0.040673
    25  C    0.053273
    26  C    0.177092
    27  N    0.534406
    41  N   -0.028854
    42  C    0.124393
    43  C    0.062505
    44  O   -0.269691
    45  C    0.173597
    46  C    0.125743
    47  O   -0.448276
    48  O   -0.440259
    53  N   -0.022075
    54  C    0.297189
    55  C    0.022985
    56  O   -0.265580
    60  N   -0.044047
    61  C    0.155086
    62  C    0.098507
    63  O   -0.296732
    64  C    0.154433
    65  C    0.035290
    66  N    0.221823
    67  O   -0.315927
    74  N    0.016785
    75  C    0.243077
    76  C    0.036654
    77  O   -0.273370
    81  N    0.008180
    82  C    0.131901
    83  C    0.073013
    84  O   -0.315621
    85  C    0.141692
    86  C   -0.030446
    87  C   -0.058374
    88  C   -0.021913
    89  C   -0.024202
    90  C   -0.064986
    91  C    0.138362
    92  O   -0.017087
   102  N    0.022426
   103  C    0.139143
   104  C    0.042778
   105  O   -0.267747
   106  C   -0.065197
   107  C    0.036987
   108  C    0.084986
   109  C   -0.011160
   121  N   -0.000480
   122  C    0.138266
   123  C    0.045314
   124  O   -0.281923
   125  C    0.225959
   126  O   -0.157953
   132  N    0.002843
   133  C    0.092785
   134  C    0.087364
   135  O   -0.295070
   136  C    0.122129
   142  N    0.033961
   143  C    0.068100
   144  C    0.056487
   145  O   -0.272699
   146  C    0.109677
   152  N   -0.010891
   153  C    0.126293
   154  C    0.075914
   155  O   -0.298272
   156  C    0.032242
   157  C    0.066100
   158  C    0.100459
   159  O   -0.436104
   160  O   -0.454175
   167  N    0.000331
   168  C    0.209702
   173  Ca   1.350372
   174  O    0.086640
 DipInt: DoE/N= T F RetVal/Mat= T F Init=T NMatP=  1 IDeriv=0 Min/MaxMlt=  0  4
 Entering OneElI...
 OneElI was handed  1333951383 working-precision words.
 Multipole integrals L=0 to 4 MinM= 0 MaxM= 0.
 Requested accuracy = 0.1000D-12
 ShPair: Thresh= 1.00D-13 NBox=     0 BxSize= 0.00D+00 RnKept= 3.30D+01
         NSMCal=               327645 NSMKep=              127163
 PrmmSu-InSpLW:  IPartL=    0 NPrtUS=    1 NPrtUL=    1 DoSpLW=F IThBeg=    0 IThEnd=    0 NThAct=    1.
 PrsmSu:  NPrtUS=   1 ThrOK=F IAlg=1 NPAlg=1 LenDen=           0 ISkipM=0 DoSpLW=F IThBeg=    0 IThEnd=    0.
 Prism:   IPart=     0 DynPar=F LinDyn=F Incr=         512.
 PRISM was handed  1325170207 working-precision words and127163 shell-pairs
 IPart=  0 NShTot=      127163 NBatch=         297 AvBLen=       428.2
 PrsmSu-ThDecC:  IPartSL=    0    0 NPrtUSL=    1    1 IThBeg=    0 IThEnd=    0 CPU=   -1 GPU=   -1 NThAct=    1.
 PrSmSu:  NxtVal=            513.
 Electronic moments (au):
       -716.00000000          4.72459277         -7.66060294          4.23112214
     -90667.29046169     -38686.47124508     -14844.34018914        233.59814398
        -38.38552557        -10.41514929     196775.93816111      -6361.47018761
       -395.20438906    -205824.61005427    -174303.00799376     192737.84989520
      90783.20387066      -1233.03686574      33380.00082252      -6946.28741243
  -21545562.98448090   -4895544.75896603   -1101129.42615331      -1521.03620164
   -1800141.49711120   -1597510.37054467     -48107.86139497    -477785.39644592
     120167.48793445   -5117985.81568688   -1911228.68613466    -434537.48394710
     549153.63622476     363450.97054526     232345.22887656
 Electronic spatial extent (au):  <R**2>=         144198.1019
 DipInt: DoE/N= F T RetVal/Mat= T F Init=T NMatP=  1 IDeriv=0 Min/MaxMlt=  0  4
 Nuclear    moments (au):
        716.00000000         -0.00000000         -0.00000000         -0.00000000
      90098.28134285      38356.68577668      14458.93053718         -0.00000000
          0.00000000         -0.00000000    -192540.24759267       6233.25974663
        965.74575086     204773.08985653     171142.44740459    -191963.83718042
     -90654.11196348        910.71499075     -33296.99899476       7014.65180514
   21131618.42040507    4777386.63481520    1056532.72101949      64593.31806300
    1783293.47727496    1619608.63998838      45236.20711879     474021.84638733
    -123399.86117667    5048392.25707714    1845083.70394556     406872.20829243
    -546445.73715406    -363887.44533858    -231328.71914404
 Total      moments (au):
         -0.00000000          4.72459277         -7.66060294          4.23112214
       -569.00911884       -329.78546841       -385.40965196        233.59814398
        -38.38552557        -10.41514929       4235.69056844       -128.21044098
        570.54136179      -1051.52019775      -3160.56058916        774.01271478
        129.09190719       -322.32187499         83.00182776         68.36439271
    -413944.56407582    -118158.12415083     -44596.70513382      63072.28186137
     -16848.01983624      22098.26944372      -2871.65427618      -3763.55005859
      -3232.37324223     -69593.55860974     -66144.98218909     -27665.27565467
       2707.89907070       -436.47479332       1016.50973252
 Traceless Quadrup. (au):
       -140.94103911         98.28261133         42.65842778        233.59814398
        -38.38552557        -10.41514929
 Charge=             -0.0000 electrons
 Dipole moment (field-independent basis, Debye):
    X=             12.0087    Y=            -19.4713    Z=             10.7544  Tot=             25.2784
 Quadrupole moment (field-independent basis, Debye-Ang):
   XX=           -765.3368   YY=           -443.5728   ZZ=           -518.3892
   XY=            314.1975   XZ=            -51.6298   YZ=            -14.0087
 Traceless Quadrupole moment (field-independent basis, Debye-Ang):
   XX=           -189.5705   YY=            132.1935   ZZ=             57.3770
   XY=            314.1975   XZ=            -51.6298   YZ=            -14.0087
 Octapole moment (field-independent basis, Debye-Ang**2):
  XXX=           3014.8014  YYY=            -91.2553  ZZZ=            406.0894  XYY=           -748.4316
  XXY=          -2249.5653  XXZ=            550.9124  XZZ=             91.8826  YZZ=           -229.4163
  YYZ=             59.0775  XYZ=             48.6591
 Hexadecapole moment (field-independent basis, Debye-Ang**3):
 XXXX=        -155911.3721 YYYY=         -44504.0154 ZZZZ=         -16797.2576 XXXY=          23756.0458
 XXXZ=          -6345.7722 YYYX=           8323.2679 YYYZ=          -1081.6027 ZZZX=          -1417.5334
 ZZZY=          -1217.4668 XXYY=         -26212.2713 XXZZ=         -24913.3720 YYZZ=         -10420.0694
 XXYZ=           1019.9246 YYXZ=           -164.3973 ZZXY=            382.8663
 N-N= 1.914714043744D+04 E-N=-5.077475598911D+04  KE= 5.290599014661D+03
 Leave Link  601 at Tue Sep 17 00:07:52 2019, MaxMem=  1342177280 cpu:              40.4 elap:               1.0
 FitSet:  NAtFit=   176 NAtPot=   176 NAtFrz=     0 MDM=   180 TotChg=   0.00000
 Merz-Kollman atomic radii used.
 Read replacement radii for each type of atom:
 Rad(20) =   1.700000000000D+00
 Atom Element Radius
    1     6    1.50
    2     6    1.50
    3     8    1.40
    4     1    1.20
    5     1    1.20
    6     1    1.20
    7     7    1.50
    8     6    1.50
    9     6    1.50
   10     8    1.40
   11     6    1.50
   12     6    1.50
   13     8    1.40
   14     8    1.40
   15     1    1.20
   16     1    1.20
   17     1    1.20
   18     1    1.20
   19     7    1.50
   20     6    1.50
   21     6    1.50
   22     8    1.40
   23     6    1.50
   24     6    1.50
   25     6    1.50
   26     6    1.50
   27     7    1.50
   28     1    1.20
   29     1    1.20
   30     1    1.20
   31     1    1.20
   32     1    1.20
   33     1    1.20
   34     1    1.20
   35     1    1.20
   36     1    1.20
   37     1    1.20
   38     1    1.20
   39     1    1.20
   40     1    1.20
   41     7    1.50
   42     6    1.50
   43     6    1.50
   44     8    1.40
   45     6    1.50
   46     6    1.50
   47     8    1.40
   48     8    1.40
   49     1    1.20
   50     1    1.20
   51     1    1.20
   52     1    1.20
   53     7    1.50
   54     6    1.50
   55     6    1.50
   56     8    1.40
   57     1    1.20
   58     1    1.20
   59     1    1.20
   60     7    1.50
   61     6    1.50
   62     6    1.50
   63     8    1.40
   64     6    1.50
   65     6    1.50
   66     7    1.50
   67     8    1.40
   68     1    1.20
   69     1    1.20
   70     1    1.20
   71     1    1.20
   72     1    1.20
   73     1    1.20
   74     7    1.50
   75     6    1.50
   76     6    1.50
   77     8    1.40
   78     1    1.20
   79     1    1.20
   80     1    1.20
   81     7    1.50
   82     6    1.50
   83     6    1.50
   84     8    1.40
   85     6    1.50
   86     6    1.50
   87     6    1.50
   88     6    1.50
   89     6    1.50
   90     6    1.50
   91     6    1.50
   92     8    1.40
   93     1    1.20
   94     1    1.20
   95     1    1.20
   96     1    1.20
   97     1    1.20
   98     1    1.20
   99     1    1.20
  100     1    1.20
  101     1    1.20
  102     7    1.50
  103     6    1.50
  104     6    1.50
  105     8    1.40
  106     6    1.50
  107     6    1.50
  108     6    1.50
  109     6    1.50
  110     1    1.20
  111     1    1.20
  112     1    1.20
  113     1    1.20
  114     1    1.20
  115     1    1.20
  116     1    1.20
  117     1    1.20
  118     1    1.20
  119     1    1.20
  120     1    1.20
  121     7    1.50
  122     6    1.50
  123     6    1.50
  124     8    1.40
  125     6    1.50
  126     8    1.40
  127     1    1.20
  128     1    1.20
  129     1    1.20
  130     1    1.20
  131     1    1.20
  132     7    1.50
  133     6    1.50
  134     6    1.50
  135     8    1.40
  136     6    1.50
  137     1    1.20
  138     1    1.20
  139     1    1.20
  140     1    1.20
  141     1    1.20
[...]
 **** Fit      -0.008190
 **** Fit      -0.009017
 **** Fit      -0.010114
 **** Fit      -0.011453
 **** Fit      -0.013025
 **** Fit      -0.004801
 **** Fit      -0.005086
 **** Fit      -0.005438
 **** Fit      -0.005911
 **** Fit      -0.006507
 **** Fit      -0.007196
 **** Fit      -0.007949
 **** Fit      -0.008755
 **** Fit      -0.009608
 **** Fit      -0.010463
 **** Fit      -0.011187
 **** Fit      -0.002425
 **** Fit      -0.002916
 **** Fit      -0.003302
 **** Fit      -0.003674
 **** Fit      -0.004060
 **** Fit      -0.004449
 **** Fit      -0.004813
 **** Fit      -0.005142
 **** Fit      -0.005437
 **** Fit      -0.005689
 **** Fit      -0.005842
 **** Fit      -0.005767
 **** Fit      -0.005287
 **** Fit      -0.000957
 **** Fit      -0.001459
 **** Fit      -0.001831
 **** Fit      -0.002129
 **** Fit      -0.002366
 **** Fit      -0.002530
 **** Fit      -0.002613
 **** Fit      -0.002620
 **** Fit      -0.002559
 **** Fit      -0.002412
 **** Fit      -0.002111
 **** Fit      -0.001547
 **** Fit       0.000581
 **** Fit      -0.000020
 **** Fit      -0.000410
 **** Fit      -0.000657
 **** Fit      -0.000783
 **** Fit      -0.000788
 **** Fit      -0.000681
 **** Fit      -0.000476
 **** Fit      -0.000174
 **** Fit       0.000263
 **** Fit       0.000918
 **** Fit       0.001936
 **** Fit       0.001241
 **** Fit       0.000829
 **** Fit       0.000623
 **** Fit       0.000589
 **** Fit       0.000708
 **** Fit       0.000962
 **** Fit       0.001336
 **** Fit       0.001849
 **** Fit       0.002243
 **** Fit       0.001857
 **** Fit       0.001747
 **** Fit       0.001865
 **** Fit       0.002175
 **** Fit       0.002660
 **** Fit       0.003342
 **** Fit       0.003009
 **** Fit       0.002788
 **** Fit       0.002969
 **** Fit       0.003481
 **** Fit       0.003782
 **** Fit       0.007206
 **** Fit       0.002150
 **** Fit       0.004065
 **** Fit      -0.001451
 **** Fit       0.002940
 **** Fit      -0.002175
 **** Fit       0.000320
 **** Fit      -0.005273
 **** Fit      -0.000161
 **** Fit      -0.005012
 **** Fit      -0.004187
 **** Fit       0.001063
 **** Fit      -0.002119
 **** Fit      -0.004456
 **** Fit       0.046186
 **** Fit       0.055268
 **** Fit       0.061367
 **** Fit       0.023324
 **** Fit       0.034221
 **** Fit       0.045122
 **** Fit       0.054356
 **** Fit       0.061142
 **** Fit       0.065432
 **** Fit       0.067748
 **** Fit       0.032914
 **** Fit       0.044175
 **** Fit       0.053606
 **** Fit       0.060849
 **** Fit       0.065885
 **** Fit       0.068901
 **** Fit       0.070251
 **** Fit       0.070500
 **** Fit       0.037558
 **** Fit       0.048542
 **** Fit       0.057341
 **** Fit       0.063976
 **** Fit       0.068572
 **** Fit       0.071310
 **** Fit       0.072422
 **** Fit       0.072204
 **** Fit       0.071073
 **** Fit       0.069675
 **** Fit       0.042637
 **** Fit       0.052826
 **** Fit       0.060837
 **** Fit       0.066841
 **** Fit       0.071005
 **** Fit       0.073490
 **** Fit       0.074460
 **** Fit       0.074093
 **** Fit       0.072594
 **** Fit       0.070237
 **** Fit       0.067430
 **** Fit       0.064848
 **** Fit       0.042263
 **** Fit       0.052756
 **** Fit       0.061036
 **** Fit       0.067340
 **** Fit       0.071851
 **** Fit       0.074722
 **** Fit       0.076090
 **** Fit       0.076087
 **** Fit       0.074840
 **** Fit       0.072477
 **** Fit       0.069149
 **** Fit       0.065078
 **** Fit       0.060641
 **** Fit       0.056494
 **** Fit       0.042295
 **** Fit       0.052784
 **** Fit       0.061135
 **** Fit       0.067600
 **** Fit       0.072354
 **** Fit       0.075534
 **** Fit       0.077263
 **** Fit       0.077653
 **** Fit       0.076802
 **** Fit       0.074796
 **** Fit       0.071698
 **** Fit       0.067563
 **** Fit       0.062467
 **** Fit       0.056575
 **** Fit       0.050241
 **** Fit       0.044135
 **** Fit       0.042755
 **** Fit       0.052941
 **** Fit       0.061173
 **** Fit       0.067662
 **** Fit       0.072552
 **** Fit       0.075954
 **** Fit       0.077971
 **** Fit       0.078701
 **** Fit       0.078236
 **** Fit       0.076653
 **** Fit       0.074003
 **** Fit       0.070300
 **** Fit       0.065524
 **** Fit       0.059629
 **** Fit       0.052603
 **** Fit       0.044557
 **** Fit       0.043558
 **** Fit       0.053561
 **** Fit       0.061740
 **** Fit       0.068239
 **** Fit       0.073157
 **** Fit       0.076578
 **** Fit       0.078592
 **** Fit       0.079294
 **** Fit       0.078784
 **** Fit       0.077148
 **** Fit       0.074446
 **** Fit       0.070689
 **** Fit       0.065824
 **** Fit       0.059726
 **** Fit       0.052208
 **** Fit       0.043089
 **** Fit       0.044505
 **** Fit       0.054108
 **** Fit       0.062103
 **** Fit       0.068524
 **** Fit       0.073405
 **** Fit       0.076794
 **** Fit       0.078764
 **** Fit       0.079405
 **** Fit       0.078823
 **** Fit       0.077124
 **** Fit       0.074391
 **** Fit       0.070659
 **** Fit       0.065890
 **** Fit       0.059941
 **** Fit       0.052537
 **** Fit       0.040184
 **** Fit       0.050128
 **** Fit       0.058709
 **** Fit       0.065807
 **** Fit       0.071365
 **** Fit       0.075374
 **** Fit       0.077868
 **** Fit       0.078924
 **** Fit       0.078651
 **** Fit       0.077182
 **** Fit       0.074646
 **** Fit       0.071143
 **** Fit       0.066711
 **** Fit       0.061285
 **** Fit       0.054645
 **** Fit       0.045681
 **** Fit       0.054661
 **** Fit       0.062346
 **** Fit       0.068552
 **** Fit       0.073189
 **** Fit       0.076236
 **** Fit       0.077733
 **** Fit       0.077780
 **** Fit       0.076519
 **** Fit       0.074119
 **** Fit       0.070745
 **** Fit       0.066530
 **** Fit       0.061535
 **** Fit       0.055697
 **** Fit       0.050019
 **** Fit       0.058476
 **** Fit       0.065433
 **** Fit       0.070701
 **** Fit       0.074196
 **** Fit       0.075917
 **** Fit       0.075954
 **** Fit       0.074471
 **** Fit       0.071693
 **** Fit       0.067865
 **** Fit       0.063219
 **** Fit       0.057944
 **** Fit       0.044054
 **** Fit       0.053331
 **** Fit       0.061098
 **** Fit       0.067074
 **** Fit       0.071098
 **** Fit       0.073112
 **** Fit       0.073169
 **** Fit       0.071437
 **** Fit       0.068188
 **** Fit       0.063749
 **** Fit       0.058472
 **** Fit       0.052704
 **** Fit       0.051314
 **** Fit       0.059105
 **** Fit       0.064811
 **** Fit       0.068235
 **** Fit       0.069304
 **** Fit       0.068097
 **** Fit       0.064863
 **** Fit       0.059988
 **** Fit       0.053940
 **** Fit       0.047866
 **** Fit       0.055439
 **** Fit       0.060634
 **** Fit       0.063191
 **** Fit       0.063008
 **** Fit       0.060194
 **** Fit       0.055093
 **** Fit       0.050136
 **** Fit       0.054324
 **** Fit       0.055189
 **** Fit       0.052613
 **** Fit       0.042128
 **** Fit       0.044551
 **** Fit       0.031052
 **** Fit       0.020693
 **** Fit       0.019376
 **** Fit       0.021967
 **** Fit       0.021697
 **** Fit       0.016928
 **** Fit       0.013667
 **** Fit       0.012618
 **** Fit       0.014315
 **** Fit       0.018845
 **** Fit       0.025580
 **** Fit       0.024216
 **** Fit       0.018955
 **** Fit       0.014056
 **** Fit       0.009955
 **** Fit       0.007115
 **** Fit       0.005993
 **** Fit       0.007011
 **** Fit       0.010438
 **** Fit       0.016170
 **** Fit       0.023573
 **** Fit       0.031601
 **** Fit       0.031105
 **** Fit       0.026337
 **** Fit       0.021231
 **** Fit       0.015986
 **** Fit       0.010911
 **** Fit       0.006359
 **** Fit       0.002677
 **** Fit       0.000207
 **** Fit      -0.000681
 **** Fit       0.000431
 **** Fit       0.003907
 **** Fit       0.009817
 **** Fit       0.017714
 **** Fit       0.026648
 **** Fit       0.035460
 **** Fit       0.032335
 **** Fit       0.028156
 **** Fit       0.023362
 **** Fit       0.018089
 **** Fit       0.012601
 **** Fit       0.007228
 **** Fit       0.002288
 **** Fit      -0.001944
 **** Fit      -0.005224
 **** Fit      -0.007264
 **** Fit      -0.007641
 **** Fit      -0.005786
 **** Fit      -0.001179
 **** Fit       0.006281
 **** Fit       0.016003
 **** Fit       0.026786
 **** Fit       0.037214
 **** Fit       0.046093
 **** Fit       0.015268
 **** Fit       0.009484
 **** Fit       0.003803
 **** Fit      -0.001497
 **** Fit      -0.006220
 **** Fit      -0.010238
 **** Fit      -0.013409
 **** Fit      -0.015421
 **** Fit      -0.015648
 **** Fit       0.014664
 **** Fit       0.028129
 **** Fit       0.040938
 **** Fit       0.063769
 **** Fit       0.005194
 **** Fit      -0.000868
 **** Fit      -0.006506
 **** Fit      -0.011625
 **** Fit      -0.016253
 **** Fit      -0.020430
 **** Fit      -0.002410
 **** Fit      -0.008852
 **** Fit      -0.014764
 **** Fit      -0.020325
 **** Fit      -0.025912
 **** Fit      -0.011278
 **** Fit      -0.017791
 **** Fit      -0.023930
 **** Fit      -0.015916
 **** Fit      -0.022762
 **** Fit      -0.029147
 **** Fit       0.015299
 **** Fit      -0.023268
 **** Fit      -0.029854
 **** Fit       0.035494
 **** Fit       0.035906
 **** Fit       0.033277
 **** Fit       0.032425
 **** Fit       0.035043
 **** Fit       0.037833
 **** Fit       0.037884
 **** Fit       0.036234
 **** Fit       0.033881
 **** Fit       0.031197
 **** Fit       0.028987
 **** Fit       0.028592
 **** Fit       0.030755
 **** Fit       0.034623
 **** Fit       0.038281
 **** Fit       0.040313
 **** Fit       0.040567
 **** Fit       0.039647
 **** Fit       0.038135
 **** Fit       0.036450
 **** Fit       0.034574
 **** Fit       0.032183
 **** Fit       0.029307
 **** Fit       0.026383
 **** Fit       0.024257
 **** Fit       0.023870
 **** Fit       0.025745
 **** Fit       0.029590
 **** Fit       0.034342
 **** Fit       0.038678
 **** Fit       0.041649
 **** Fit       0.042984
 **** Fit       0.042962
 **** Fit       0.042085
 **** Fit       0.040809
 **** Fit       0.039419
 **** Fit       0.037997
 **** Fit       0.036533
 **** Fit       0.035086
 **** Fit       0.033126
 **** Fit       0.030463
 **** Fit       0.027121
 **** Fit       0.031419
 **** Fit       0.037161
 **** Fit       0.041767
 **** Fit       0.044674
 **** Fit       0.045864
 **** Fit       0.045689
 **** Fit       0.044641
 **** Fit       0.043173
 **** Fit       0.041617
 **** Fit       0.040167
 **** Fit       0.038887
 **** Fit       0.037725
 **** Fit       0.036470
 **** Fit       0.035499
 **** Fit       0.034045
 **** Fit       0.031806
 **** Fit       0.038481
 **** Fit       0.044196
 **** Fit       0.047839
 **** Fit       0.049406
 **** Fit       0.049285
 **** Fit       0.048025
 **** Fit       0.046158
 **** Fit       0.044107
 **** Fit       0.042160
 **** Fit       0.040480
 **** Fit       0.039128
 **** Fit       0.038084
 **** Fit       0.037253
 **** Fit       0.036243
 **** Fit       0.035883
 **** Fit       0.035129
 **** Fit       0.033619
 **** Fit       0.048049
 **** Fit       0.052489
 **** Fit       0.054382
 **** Fit       0.054188
 **** Fit       0.052545
 **** Fit       0.050079
 **** Fit       0.047305
 **** Fit       0.044590
 **** Fit       0.042172
 **** Fit       0.040177
 **** Fit       0.038651
 **** Fit       0.037579
 **** Fit       0.036900
 **** Fit       0.036507
 **** Fit       0.035824
 **** Fit       0.036229
 **** Fit       0.036323
 **** Fit       0.060200
 **** Fit       0.061890
 **** Fit       0.060827
 **** Fit       0.057953
 **** Fit       0.054135
 **** Fit       0.050045
 **** Fit       0.046150
 **** Fit       0.042736
 **** Fit       0.039953
 **** Fit       0.037853
 **** Fit       0.036422
 **** Fit       0.035605
 **** Fit       0.035317
 **** Fit       0.035443
 **** Fit       0.035154
 **** Fit       0.065716
 **** Fit       0.059833
 **** Fit       0.053804
 **** Fit       0.048200
 **** Fit       0.043352
 **** Fit       0.039425
 **** Fit       0.036464
 **** Fit       0.034437
 **** Fit       0.033270
 **** Fit       0.032867
 **** Fit       0.033125
 **** Fit       0.033933
 **** Fit       0.061856
 **** Fit       0.053210
 **** Fit       0.045744
 **** Fit       0.039674
 **** Fit       0.035052
 **** Fit       0.031822
 **** Fit       0.029862
 **** Fit       0.029017
 **** Fit       0.029138
 **** Fit       0.030096
 **** Fit       0.031789
 **** Fit       0.045444
 **** Fit       0.036590
 **** Fit       0.030157
 **** Fit       0.025954
 **** Fit       0.023701
 **** Fit       0.023081
 **** Fit       0.023809
 **** Fit       0.025679
 **** Fit       0.014384
 **** Fit       0.015987
 **** Fit       0.035390
 **** Fit       0.031755
 **** Fit       0.028261
 **** Fit       0.024536
 **** Fit       0.032911
 **** Fit       0.030257
 **** Fit       0.027569
 **** Fit       0.024556
 **** Fit       0.021025
 **** Fit       0.016881
 **** Fit       0.035924
 **** Fit       0.030172
 **** Fit       0.028389
 **** Fit       0.026449
 **** Fit       0.024134
 **** Fit       0.021273
 **** Fit       0.017757
 **** Fit       0.013559
 **** Fit       0.008734
 **** Fit       0.034393
 **** Fit       0.032062
 **** Fit       0.027082
 **** Fit       0.025978
 **** Fit       0.024596
 **** Fit       0.022744
 **** Fit       0.020253
 **** Fit       0.016991
 **** Fit       0.012909
 **** Fit       0.008068
 **** Fit       0.002633
 **** Fit       0.030954
 **** Fit       0.029304
 **** Fit       0.028112
 **** Fit       0.023509
 **** Fit       0.023046
 **** Fit       0.022209
 **** Fit       0.020839
 **** Fit       0.018766
 **** Fit       0.015832
 **** Fit       0.011940
 **** Fit       0.007122
 **** Fit       0.001583
 **** Fit      -0.004360
 **** Fit       0.024676
 **** Fit       0.024133
 **** Fit       0.023898
 **** Fit       0.023745
 **** Fit       0.019298
 **** Fit       0.019418
 **** Fit       0.019062
 **** Fit       0.018097
 **** Fit       0.016347
 **** Fit       0.013613
 **** Fit       0.009730
 **** Fit       0.004679
 **** Fit      -0.001299
 **** Fit      -0.007701
 **** Fit      -0.013996
 **** Fit       0.015633
 **** Fit       0.016899
 **** Fit       0.017980
 **** Fit       0.018797
 **** Fit       0.014272
 **** Fit       0.014950
 **** Fit       0.014991
 **** Fit       0.014275
 **** Fit       0.012594
 **** Fit       0.009661
 **** Fit       0.005205
 **** Fit      -0.000817
 **** Fit      -0.007965
 **** Fit      -0.015301
 **** Fit      -0.021869
 **** Fit       0.004988
 **** Fit       0.008458
 **** Fit       0.011090
 **** Fit       0.012996
 **** Fit       0.008229
 **** Fit       0.009455
 **** Fit       0.009805
 **** Fit       0.009183
 **** Fit       0.007319
 **** Fit       0.003779
 **** Fit      -0.001858
 **** Fit      -0.009545
 **** Fit      -0.001948
 **** Fit       0.002807
 **** Fit       0.006078
 **** Fit       0.000894
 **** Fit       0.002568
 **** Fit       0.003037
 **** Fit       0.002240
 **** Fit      -0.007036
 **** Fit      -0.002163
 **** Fit      -0.008227
 **** Fit      -0.012429
 -----------------------------------------------------------------
 Leave Link  602 at Tue Sep 17 00:07:55 2019, MaxMem=  1342177280 cpu:             113.9 elap:               2.4

 Test job not archived.
 1\1\GINC-C506-121\SP\RB3LYP\SVP\C54H83Ca1N15O23\PENGZHI\17-Sep-2019\0\
 \#b3lyp/svp scf=(tight,noincore) Test #IOP(5/87=12) Density=Current Po
 p=(MK,readradii) iop(6/33=2) iop(6/42=6)\\Ng-293_loop3_15.0\\0,1\C,0,4
 7.19,69.22,69.81\C,0,48.38,69.25,68.87\O,0,49.45,69.65,69.33\H,0,46.32
 4,68.817,69.286\H,0,47.42,68.589,70.669\H,0,46.969,70.232,70.15\N,0,48
 .16,68.91,67.59\C,0,49.19,68.54,66.64\C,0,49.14,67.14,66.06\O,0,48.05,
 66.56,65.96\C,0,49.22,69.52,65.46\C,0,50.39,69.34,64.51\O,0,51.52,69.0
 4,64.94\O,0,50.2,69.61,63.3\H,0,47.19,68.79,67.35\H,0,50.1,68.64,67.22
 \H,0,49.34,70.52,65.89\H,0,48.28,69.52,64.91\N,0,50.27,66.57,65.64\C,0
 ,50.5,65.42,64.79\C,0,49.84,65.55,63.42\O,0,49.42,66.64,63.06\C,0,50.1
 ,64.17,65.57\C,0,50.81,63.87,66.89\C,0,52.3,63.59,66.82\C,0,52.53,62.3
 6,67.7\N,0,53.57,62.58,68.71\H,0,51.13,67.08,65.8\H,0,51.57,65.28,64.6
 7\H,0,50.26,63.34,64.88\H,0,49.02,64.08,65.7\H,0,50.22,63.03,67.28\H,0
 ,50.63,64.71,67.55\H,0,52.75,64.43,67.35\H,0,52.73,63.42,65.83\H,0,52.
 82,61.55,67.03\H,0,51.56,62.06,68.1\H,0,53.75,61.78,69.3\H,0,54.51,62.
 78,68.4\H,0,53.28,63.33,69.33\N,0,49.73,64.46,62.65\C,0,49.03,64.51,61
 .38\C,0,47.55,64.18,61.59\O,0,47.09,63.78,62.65\C,0,49.66,63.61,60.33\
 C,0,49.89,62.18,60.79\O,0,49.59,61.78,61.94\O,0,50.45,61.34,60.05\H,0,
 49.9,63.54,63.02\H,0,48.93,65.53,61.\H,0,50.64,64.05,60.14\H,0,49.05,6
 3.58,59.44\N,0,46.8,64.33,60.49\C,0,45.4,63.97,60.44\C,0,45.27,62.49,6
 0.11\O,0,45.89,62.,59.17\H,0,47.32,64.72,59.71\H,0,44.91,64.52,59.63\H
 ,0,44.95,64.18,61.41\N,0,44.5,61.74,60.91\C,0,44.45,60.29,60.86\C,0,43
 .06,59.73,60.62\O,0,42.74,58.61,61.02\C,0,45.14,59.68,62.08\C,0,46.64,
 59.96,62.15\N,0,47.07,60.66,63.2\O,0,47.47,59.5,61.37\H,0,43.81,62.14,
 61.53\H,0,45.,60.01,59.97\H,0,45.11,58.6,62.2\H,0,44.65,60.11,62.95\H,
 0,46.43,61.18,63.78\H,0,47.97,61.11,63.09\N,0,42.18,60.48,59.95\C,0,40
 .92,59.92,59.51\C,0,40.02,59.23,60.52\O,0,39.78,59.85,61.55\H,0,42.39,
 61.41,59.61\H,0,41.15,59.14,58.78\H,0,40.4,60.73,58.99\N,0,39.54,57.99
 ,60.31\C,0,38.93,57.21,61.37\C,0,39.68,56.87,62.65\O,0,39.15,56.27,63.
 58\C,0,37.54,57.73,61.73\C,0,36.64,58.2,60.61\C,0,36.08,57.24,59.76\C,
 0,36.14,59.5,60.56\C,0,35.16,57.7,58.82\C,0,35.21,59.99,59.63\C,0,34.6
 3,59.,58.81\O,0,33.55,59.24,58.\H,0,39.89,57.5,59.5\H,0,38.75,56.23,60
 .92\H,0,37.59,58.51,62.49\H,0,36.99,56.92,62.21\H,0,36.44,56.22,59.78\
 H,0,36.43,60.07,61.42\H,0,34.79,56.97,58.11\H,0,34.96,61.04,59.56\H,0,
 33.37,60.16,58.16\N,0,40.97,57.17,62.79\C,0,41.86,56.77,63.87\C,0,42.1
 7,55.28,63.85\O,0,43.35,54.95,63.81\C,0,41.6,57.39,65.24\C,0,41.16,58.
 85,65.12\C,0,42.72,57.16,66.25\C,0,42.03,59.83,64.35\H,0,41.44,57.57,6
 2.\H,0,42.8,57.22,63.55\H,0,40.7,56.9,65.61\H,0,41.07,59.22,66.14\H,0,
 40.2,58.89,64.6\H,0,42.41,57.47,67.24\H,0,42.99,56.1,66.25\H,0,43.66,5
 7.69,66.12\H,0,43.06,59.91,64.7\H,0,42.02,59.54,63.3\H,0,41.68,60.86,6
 4.4\N,0,41.14,54.45,63.98\C,0,41.28,53.02,63.73\C,0,42.05,52.26,64.81\
 O,0,42.67,51.3,64.37\C,0,39.89,52.44,63.52\O,0,39.07,52.7,64.64\H,0,40
 .23,54.81,64.2\H,0,41.83,52.84,62.81\H,0,39.94,51.35,63.53\H,0,39.37,5
 2.83,62.65\H,0,38.17,52.68,64.32\N,0,42.1,52.76,66.04\C,0,42.83,52.18,
 67.15\C,0,44.34,52.26,67.02\O,0,45.05,51.83,67.92\C,0,42.29,50.8,67.49
 \H,0,41.62,53.65,66.15\H,0,42.54,52.8,68.01\H,0,41.2,50.88,67.54\H,0,4
 2.61,50.03,66.79\H,0,42.59,50.54,68.51\N,0,44.91,52.96,66.03\C,0,46.32
 ,53.28,65.92\C,0,46.7,54.63,66.51\O,0,45.8,55.45,66.7\C,0,46.68,53.19,
 64.44\H,0,44.4,53.3,65.23\H,0,46.9,52.48,66.37\H,0,46.18,53.93,63.81\H
 ,0,47.75,53.36,64.37\H,0,46.53,52.15,64.15\N,0,47.97,54.9,66.79\C,0,48
 .59,56.12,67.26\C,0,48.1,56.74,68.56\O,0,48.6,57.81,68.91\C,0,48.67,57
 .14,66.12\C,0,49.23,56.57,64.82\C,0,49.23,57.59,63.7\O,0,49.22,57.22,6
 2.5\O,0,49.5,58.79,63.91\H,0,48.63,54.18,66.52\H,0,49.62,55.83,67.46\H
 ,0,49.26,58.,66.43\H,0,47.7,57.56,65.84\H,0,48.48,55.83,64.53\H,0,50.2
 2,56.14,64.97\N,0,47.14,56.1,69.23\C,0,46.49,56.68,70.39\H,0,45.484,56
 .271,70.485\H,0,47.064,56.443,71.286\H,0,46.431,57.762,70.271\H,0,46.8
 ,55.2,68.91\Ca,0,50.47,59.34,61.63\O,0,49.82,58.07,59.34\H,0,50.29,57.
 29,59.05\H,0,48.9,57.84,59.24\\Version=ES64L-G16RevA.03\State=1-A\HF=-
 5333.4266534\RMSD=1.780e-09\Dipole=3.0308746,-9.4712522,0.1348681\Quad
 rupole=177.7748976,-253.4511678,75.6762702,-116.3616268,85.6299709,12.
 8506121\PG=C01 [X(C54H83Ca1N15O23)]\\@


 FRICTION IS A DRAG,
 AND ENTROPY AIN'T WHAT IT USED TO BE.
 Job cpu time:       0 days 11 hours 17 minutes 35.2 seconds.
 Elapsed time:       0 days  0 hours 14 minutes 17.9 seconds.
 File lengths (MBytes):  RWF=   1517 Int=      0 D2E=      0 Chk=    171 Scr=      1
 Normal termination of Gaussian 16 at Tue Sep 17 00:07:56 2019.
