 Entering Gaussian System, Link 0=g16
 Initial command:
 /home1/apps/gaussian/16rA.03/g16/l1.exe "/scratch/01990/pengzhi/4350472/Gau-23372.inp" -scrdir="/scratch/01990/pengzhi/4350472/"
 Entering Link 1 = /home1/apps/gaussian/16rA.03/g16/l1.exe PID=     23373.
  
 Copyright (c) 1988,1990,1992,1993,1995,1998,2003,2009,2016,
            Gaussian, Inc.  All Rights Reserved.
  
 This is part of the Gaussian(R) 16 program.  It is based on
 the Gaussian(R) 09 system (copyright 2009, Gaussian, Inc.),
 the Gaussian(R) 03 system (copyright 2003, Gaussian, Inc.),
 the Gaussian(R) 98 system (copyright 1998, Gaussian, Inc.),
 the Gaussian(R) 94 system (copyright 1995, Gaussian, Inc.),
 the Gaussian 92(TM) system (copyright 1992, Gaussian, Inc.),
 the Gaussian 90(TM) system (copyright 1990, Gaussian, Inc.),
 the Gaussian 88(TM) system (copyright 1988, Gaussian, Inc.),
 the Gaussian 86(TM) system (copyright 1986, Carnegie Mellon
 University), and the Gaussian 82(TM) system (copyright 1983,
 Carnegie Mellon University). Gaussian is a federally registered
 trademark of Gaussian, Inc.
  
 This software contains proprietary and confidential information,
 including trade secrets, belonging to Gaussian, Inc.
  
 This software is provided under written license and may be
 used, copied, transmitted, or stored only in accord with that
 written license.
  
 The following legend is applicable only to US Government
 contracts under FAR:
  
                    RESTRICTED RIGHTS LEGEND
  
 Use, reproduction and disclosure by the US Government is
 subject to restrictions as set forth in subparagraphs (a)
 and (c) of the Commercial Computer Software - Restricted
 Rights clause in FAR 52.227-19.
  
 Gaussian, Inc.
 340 Quinnipiac St., Bldg. 40, Wallingford CT 06492
  
  
 ---------------------------------------------------------------
 Warning -- This program may not be used in any manner that
 competes with the business of Gaussian, Inc. or will provide
 assistance to any competitor of Gaussian, Inc.  The licensee
 of this program is prohibited from giving any competitor of
 Gaussian, Inc. access to this program.  By using this program,
 the user acknowledges that Gaussian, Inc. is engaged in the
 business of creating and licensing software in the field of
 computational chemistry and represents and warrants to the
 licensee that it is not a competitor of Gaussian, Inc. and that
 it will not use this program in any manner prohibited above.
 ---------------------------------------------------------------
  

 Cite this work as:
 Gaussian 16, Revision A.03,
 M. J. Frisch, G. W. Trucks, H. B. Schlegel, G. E. Scuseria, 
 M. A. Robb, J. R. Cheeseman, G. Scalmani, V. Barone, 
 G. A. Petersson, H. Nakatsuji, X. Li, M. Caricato, A. V. Marenich, 
 J. Bloino, B. G. Janesko, R. Gomperts, B. Mennucci, H. P. Hratchian, 
 J. V. Ortiz, A. F. Izmaylov, J. L. Sonnenberg, D. Williams-Young, 
 F. Ding, F. Lipparini, F. Egidi, J. Goings, B. Peng, A. Petrone, 
 T. Henderson, D. Ranasinghe, V. G. Zakrzewski, J. Gao, N. Rega, 
 G. Zheng, W. Liang, M. Hada, M. Ehara, K. Toyota, R. Fukuda, 
 J. Hasegawa, M. Ishida, T. Nakajima, Y. Honda, O. Kitao, H. Nakai, 
 T. Vreven, K. Throssell, J. A. Montgomery, Jr., J. E. Peralta, 
 F. Ogliaro, M. J. Bearpark, J. J. Heyd, E. N. Brothers, K. N. Kudin, 
 V. N. Staroverov, T. A. Keith, R. Kobayashi, J. Normand, 
 K. Raghavachari, A. P. Rendell, J. C. Burant, S. S. Iyengar, 
 J. Tomasi, M. Cossi, J. M. Millam, M. Klene, C. Adamo, R. Cammi, 
 J. W. Ochterski, R. L. Martin, K. Morokuma, O. Farkas, 
 J. B. Foresman, and D. J. Fox, Gaussian, Inc., Wallingford CT, 2016.
 
 ******************************************
 Gaussian 16:  ES64L-G16RevA.03 25-Dec-2016
                17-Sep-2019 
 ******************************************
 %chk=Ng-295_loop3_12.0.chk
 %nprocshared=48
 Will use up to   48 processors via shared memory.
 %mem=10GB
 %nosave
 ----------------------------------------------------------------------
 #b3lyp/svp scf=(tight,noincore) Test #IOP(5/87=12) Density=Current Pop
 =(MK,readradii) iop(6/33=2) iop(6/42=6)
 ----------------------------------------------------------------------
 1/30=1,38=1,172=1/1;
 2/12=2,17=6,18=5,40=1/2;
 3/5=18,7=101,11=2,25=1,30=1,74=-5/1,2,3;
 4//1;
 5/5=4,32=2,38=5,87=12/2;
 6/7=2,8=2,9=2,10=2,15=8,20=101,22=-1,28=1,33=2,42=6/1,2;
 99/5=1,9=1/99;
 -----------------
 Ng-295_loop3_12.0
 -----------------
 Symbolic Z-matrix:
 Charge =  0 Multiplicity = 1
 C                     18.469    75.75     33.66 
 C                     19.039    74.39     34.02 
 O                     19.629    74.23     35.09 
 H                     17.526    75.899    34.187 
 H                     19.174    76.529    33.951 
 H                     18.295    75.799    32.585 
 N                     18.859    73.33     33.23 
 C                     19.439    72.04     33.54 
 C                     20.929    71.99     33.28 
 O                     21.449    72.18     32.18 
 C                     18.789    70.87     32.81 
 C                     19.159    69.49     33.35 
 O                     20.279    69.2      33.83 
 O                     18.229    68.76     33.76 
 H                     18.239    73.4      32.43 
 H                     19.229    71.94     34.6 
 H                     19.059    70.79     31.75 
 H                     17.709    70.97     32.91 
 N                     21.669    71.8      34.37 
 C                     23.109    71.91     34.42 
 C                     23.959    70.82     33.77 
 O                     25.019    71.08     33.21 
 C                     23.689    72.18     35.8 
 C                     23.199    71.18     36.84 
 C                     23.219    71.78     38.24 
 C                     22.379    70.92     39.18 
 N                     22.179    71.65     40.43 
 H                     21.179    71.78     35.26 
 H                     23.389    72.76     33.81 
 H                     23.409    73.2      36.07 
 H                     24.779    72.08     35.81 
 H                     23.919    70.36     36.79 
 H                     22.169    70.88     36.62 
 H                     22.779    72.77     38.14 
 H                     24.269    71.83     38.53 
 H                     22.869    69.95     39.22 
 H                     21.439    70.7      38.66 
 H                     21.539    71.21     41.08 
 H                     23.009    71.74     41. 
 H                     21.839    72.58     40.25 
 N                     23.419    69.6      33.93 
 C                     23.939    68.37     33.39 
 C                     23.179    67.91     32.15 
 O                     23.659    67.09     31.38 
 C                     23.859    67.26     34.44 
 C                     22.439    67.3      34.98 
 O                     21.619    66.49     34.48 
 O                     22.189    68.08     35.93 
 H                     22.529    69.53     34.4 
 H                     24.979    68.52     33.1 
 H                     24.639    67.49     35.15 
 H                     23.979    66.29     33.95 
 N                     21.929    68.34     31.93 
 C                     21.179    68.05     30.73 
 C                     20.139    66.95     30.82 
 O                     19.219    66.82     30.02 
 H                     21.559    69.02     32.58 
 H                     21.949    67.73     30.02 
 H                     20.719    68.99     30.43 
 N                     20.299    66.16     31.89 
 C                     19.489    64.98     32.13 
 C                     18.299    65.21     33.06 
 O                     18.519    65.76     34.13 
 C                     20.419    63.83     32.5 
 C                     19.669    62.53     32.23 
 N                     20.349    61.38     32.26 
 O                     18.459    62.45     32.02 
 H                     20.939    66.51     32.58 
 H                     19.099    64.74     31.14 
 H                     20.629    63.84     33.57 
 H                     21.329    63.86     31.89 
 H                     21.289    61.37     32.63 
 H                     19.889    60.52     32.01 
 N                     17.099    64.83     32.62 
 C                     15.979    64.98     33.53 
 C                     15.819    63.87     34.55 
 O                     15.219    64.01     35.61 
 H                     17.039    64.74     31.61 
 H                     15.069    65.12     32.94 
 H                     16.089    65.96     33.99 
 N                     16.439    62.71     34.3 
 C                     16.359    61.55     35.16 
 C                     16.969    61.88     36.51 
 O                     18.059    62.45     36.5 
 C                     17.169    60.42     34.52 
 C                     17.329    59.11     35.24 
 C                     18.389    58.82     36.11 
 C                     16.209    58.26     35.26 
 C                     18.309    57.66     36.9 
 C                     16.089    57.12     36.05 
 C                     17.189    56.82     36.88 
 O                     17.129    55.63     37.55 
 H                     17.029    62.62     33.49 
 H                     15.329    61.25     35.31 
 H                     18.209    60.73     34.35 
 H                     16.679    60.22     33.57 
 H                     19.249    59.46     35.99 
 H                     15.319    58.49     34.7 
 H                     19.209    57.3      37.39 
 H                     15.219    56.48     36.04 
 H                     16.249    55.29     37.36 
 N                     16.279    61.41     37.55 
 C                     16.679    61.27     38.94 
 C                     17.939    60.48     39.25 
 O                     18.919    60.53     38.51 
 C                     16.609    62.63     39.63 
 C                     17.959    63.29     39.9 
 C                     15.879    62.38     40.95 
 C                     17.919    64.81     39.97 
 H                     15.459    60.86     37.32 
 H                     15.869    60.66     39.34 
 H                     15.979    63.27     39.01 
 H                     18.619    63.1      39.06 
 H                     18.489    62.89     40.77 
 H                     15.009    61.72     40.94 
 H                     16.429    61.78     41.67 
 H                     15.629    63.33     41.44 
 H                     18.899    65.27     40.03 
 H                     17.359    65.18     39.11 
 H                     17.369    65.13     40.86 
 N                     17.939    59.82     40.41 
 C                     19.029    59.04     40.95 
 C                     18.719    57.77     41.72 
 O                     19.639    57.06     42.13 
 C                     19.879    60.       41.78 
 O                     19.119    60.62     42.79 
 H                     17.069    59.96     40.91 
 H                     19.629    58.72     40.1 
 H                     20.229    60.78     41.1 
 H                     20.759    59.51     42.2 
 H                     19.789    61.12     43.27 
 N                     17.439    57.44     41.9 
 C                     16.849    56.28     42.54 
 C                     17.329    56.02     43.96 
 O                     17.429    54.83     44.25 
 C                     17.109    55.16     41.54 
 H                     16.739    58.15     41.74 
 H                     15.799    56.55     42.72 
 H                     16.939    55.55     40.53 
 H                     18.109    54.81     41.79 
 H                     16.459    54.31     41.7 
 N                     17.609    56.87     44.95 
 C                     17.759    58.31     44.96 
 C                     16.959    59.01     46.06 
 O                     16.769    58.42     47.12 
 C                     19.249    58.56     45.18 
 H                     17.709    56.44     45.85 
 H                     17.349    58.77     44.06 
 H                     19.679    58.06     46.04 
 H                     19.809    58.11     44.36 
 H                     19.399    59.64     45.25 
 N                     16.499    60.26     45.95 
 C                     16.389    61.18     44.84 
 C                     14.919    61.55     44.71 
 O                     14.379    61.45     43.61 
 C                     17.239    62.41     45.12 
 C                     17.039    63.52     44.09 
 C                     17.949    64.72     44.33 
 O                     19.159    64.56     44.08 
 O                     17.479    65.78     44.8 
 H                     16.169    60.63     46.83 
 H                     16.819    60.78     43.92 
 H                     18.289    62.13     45.19 
 H                     17.109    62.73     46.16 
 H                     16.009    63.85     44.17 
 H                     17.259    63.1      43.11 
 N                     14.129    61.88     45.74 
 C                     12.689    62.04     45.65 
 H                     12.24     61.835    46.622 
 H                     12.454    63.061    45.35 
 H                     12.291    61.344    44.912 
 H                     14.639    62.1      46.58 
 Ca                    19.61     67.62     35.67 
 O                     20.1      65.17     36.71 
 H                     20.5      65.14     37.58 
 H                     19.61     64.36     36.64 
 
 Stoichiometry    C54H83CaN15O23
 Framework group  C1[X(C54H83CaN15O23)]
 Deg. of freedom   522
 Full point group                 C1      NOp   1
 Largest Abelian subgroup         C1      NOp   1
 Largest concise Abelian subgroup C1      NOp   1
                         Standard orientation:                         
 ---------------------------------------------------------------------
 Center     Atomic      Atomic             Coordinates (Angstroms)
 Number     Number       Type             X           Y           Z
 ---------------------------------------------------------------------
      1          6           0      -10.727096    3.848369    3.932138
      2          6           0       -9.652524    3.352106    2.981813
      3          8           0       -9.046272    4.148712    2.263149
      4          1           0      -10.257857    4.272271    4.820564
      5          1           0      -11.325238    4.614058    3.437677
      6          1           0      -11.368468    3.016338    4.223118
      7          7           0       -9.292945    2.067679    2.949410
      8          6           0       -8.303649    1.575595    2.013597
      9          6           0       -8.835410    1.470000    0.600700
     10          8           0       -9.788492    0.764682    0.268043
     11          6           0       -7.696001    0.230429    2.395167
     12          6           0       -6.442029   -0.153656    1.612268
     13          8           0       -6.243482    0.145061    0.412165
     14          8           0       -5.392577   -0.356874    2.262846
     15          1           0       -9.659891    1.426249    3.644549
     16          1           0       -7.527442    2.331280    2.077966
     17          1           0       -8.354662   -0.629813    2.224728
     18          1           0       -7.411786    0.276177    3.445657
     19          7           0       -8.236048    2.277120   -0.271724
     20          6           0       -8.684943    2.508939   -1.625590
     21          6           0       -8.502176    1.406151   -2.666528
     22          8           0       -9.328445    1.215884   -3.553027
     23          6           0       -8.208013    3.811112   -2.250558
     24          6           0       -6.696195    3.977770   -2.159273
     25          6           0       -6.298459    5.448213   -2.161094
     26          6           0       -4.855106    5.591020   -1.686607
     27          7           0       -4.584618    7.003445   -1.427196
     28          1           0       -7.545432    2.923315    0.099869
     29          1           0       -9.765919    2.571226   -1.600858
     30          1           0       -8.726683    4.621502   -1.734855
     31          1           0       -8.428182    3.852881   -3.321997
     32          1           0       -6.314315    3.500950   -3.064873
     33          1           0       -6.322118    3.531853   -1.231629
     34          1           0       -6.975344    5.934933   -1.462072
     35          1           0       -6.449291    5.798537   -3.182672
     36          1           0       -4.243356    5.073589   -2.421881
     37          1           0       -4.747659    4.965421   -0.792470
     38          1           0       -3.685473    7.191384   -1.000680
     39          1           0       -4.534499    7.579568   -2.256335
     40          1           0       -5.292980    7.399260   -0.831836
     41          7           0       -7.347109    0.741112   -2.495812
     42          6           0       -6.902185   -0.389140   -3.270068
     43          6           0       -7.102876   -1.712582   -2.538615
     44          8           0       -7.092052   -2.777432   -3.140013
     45          6           0       -5.415468   -0.246003   -3.602005
     46          6           0       -4.725519    0.080140   -2.287775
     47          8           0       -4.199483   -0.879094   -1.669992
     48          8           0       -4.660684    1.282398   -1.935966
     49          1           0       -6.763956    0.991164   -1.711398
     50          1           0       -7.477007   -0.435559   -4.195068
     51          1           0       -5.370827    0.521429   -4.359934
     52          1           0       -5.023514   -1.213119   -3.928288
     53          7           0       -7.211951   -1.732431   -1.203134
     54          6           0       -7.517758   -2.919814   -0.439457
     55          6           0       -6.356649   -3.610328    0.249540
     56          8           0       -6.491821   -4.399850    1.177808
     57          1           0       -7.221704   -0.837914   -0.732449
     58          1           0       -7.923009   -3.607214   -1.189559
     59          1           0       -8.273339   -2.622868    0.285884
     60          7           0       -5.162404   -3.235382   -0.227739
     61          6           0       -3.914055   -3.836512    0.203964
     62          6           0       -3.192259   -3.067270    1.309033
     63          8           0       -3.012872   -1.869850    1.136386
     64          6           0       -3.089188   -4.165484   -1.035258
     65          6           0       -2.077730   -5.236301   -0.640666
     66          7           0       -1.390376   -5.854851   -1.605415
     67          8           0       -1.811816   -5.555834    0.517690
     68          1           0       -5.180683   -2.422703   -0.817162
     69          1           0       -4.228902   -4.796649    0.614828
     70          1           0       -2.504741   -3.298275   -1.344239
     71          1           0       -3.733086   -4.548467   -1.835146
     72          1           0       -1.417572   -5.487680   -2.546184
     73          1           0       -0.774587   -6.616319   -1.371602
     74          7           0       -2.845289   -3.750068    2.400545
     75          6           0       -2.095353   -3.039277    3.419060
     76          6           0       -0.604782   -2.926735    3.166804
     77          8           0        0.100229   -2.058625    3.669342
     78          1           0       -3.375083   -4.605750    2.538120
     79          1           0       -2.306897   -3.497843    4.388991
     80          1           0       -2.576436   -2.069673    3.530983
     81          7           0       -0.063475   -3.777160    2.285745
     82          6           0        1.345101   -3.814179    1.959949
     83          6           0        1.750834   -2.496433    1.325578
     84          8           0        1.019367   -2.061792    0.437241
     85          6           0        1.574778   -4.936968    0.945457
     86          6           0        2.943860   -5.154856    0.363874
     87          6           0        3.395819   -4.554162   -0.819130
     88          6           0        3.898279   -5.755000    1.204239
     89          6           0        4.761882   -4.646320   -1.137687
     90          6           0        5.260478   -5.838442    0.929376
     91          6           0        5.684557   -5.271873   -0.290483
     92          8           0        6.994573   -5.475109   -0.623880
     93          1           0       -0.651146   -4.418723    1.780434
     94          1           0        1.943888   -3.968650    2.849326
     95          1           0        0.953635   -4.791282    0.051278
     96          1           0        1.282015   -5.849906    1.458716
     97          1           0        2.608855   -4.183497   -1.457013
     98          1           0        3.632386   -6.133305    2.176240
     99          1           0        5.079353   -4.401569   -2.147147
    100          1           0        5.971249   -6.312378    1.590276
    101          1           0        7.375284   -5.908734    0.146269
    102          7           0        2.922982   -2.023943    1.751515
    103          6           0        3.761101   -0.979617    1.187033
    104          6           0        4.190277   -1.107565   -0.264599
    105          8           0        3.433213   -1.574657   -1.112644
    106          6           0        3.186266    0.387246    1.550146
    107          6           0        2.486063    1.119962    0.408287
    108          6           0        4.375602    1.210983    2.044857
    109          6           0        1.407208    2.098650    0.850038
    110          1           0        3.419296   -2.611929    2.411625
    111          1           0        4.681971   -1.107080    1.756202
    112          1           0        2.506746    0.234366    2.390254
    113          1           0        1.935359    0.399873   -0.187948
    114          1           0        3.166205    1.607434   -0.297106
    115          1           0        5.101272    0.724849    2.700353
    116          1           0        5.108127    1.460064    1.281793
    117          1           0        4.034416    2.154585    2.490175
    118          1           0        0.830554    2.511766    0.030035
    119          1           0        0.763767    1.598147    1.575007
    120          1           0        1.861078    2.946984    1.370932
    121          7           0        5.386476   -0.596369   -0.562903
    122          6           0        5.994792   -0.551847   -1.872892
    123          6           0        7.494118   -0.746867   -1.998938
    124          8           0        8.018236   -0.776851   -3.113838
    125          6           0        5.549146    0.761420   -2.512992
    126          8           0        5.910335    1.868964   -1.722431
    127          1           0        5.825881   -0.192869    0.256006
    128          1           0        5.551419   -1.364322   -2.445784
    129          1           0        4.458493    0.731969   -2.566941
    130          1           0        5.926472    0.870006   -3.531193
    131          1           0        5.644490    2.610322   -2.278322
    132          7           0        8.202453   -0.917766   -0.881461
    133          6           0        9.618132   -1.172471   -0.696315
    134          6           0       10.541798   -0.170737   -1.372901
    135          8           0       11.576884   -0.659369   -1.820154
    136          6           0        9.773472   -2.620606   -1.144393
    137          1           0        7.769467   -0.671708   -0.003009
    138          1           0        9.816006   -0.957415    0.363118
    139          1           0        8.916427   -3.193116   -0.771827
    140          1           0        9.910144   -2.550097   -2.222052
    141          1           0       10.683239   -3.069561   -0.768407
    142          7           0       10.432543    1.151857   -1.513649
    143          6           0        9.324426    2.051030   -1.269183
    144          6           0        9.691711    3.274776   -0.428024
    145          8           0       10.827451    3.733357   -0.515197
    146          6           0        8.860680    2.506494   -2.650665
    147          1           0       11.271896    1.607232   -1.818640
    148          1           0        8.548255    1.586967   -0.659343
    149          1           0        9.636840    2.916395   -3.286319
    150          1           0        8.543415    1.634883   -3.223496
    151          1           0        8.057204    3.233369   -2.509675
    152          7           0        8.820571    3.910449    0.361428
    153          6           0        7.491387    3.587633    0.830107
    154          6           0        7.542372    3.582933    2.350659
    155          8           0        7.097806    2.608478    2.954313
    156          6           0        6.510561    4.632340    0.319844
    157          6           0        5.113245    4.480584    0.917738
    158          6           0        4.113921    5.480709    0.346071
    159          8           0        3.747439    5.291530   -0.829557
    160          8           0        3.739340    6.456494    1.033772
    161          1           0        9.170417    4.800552    0.686275
    162          1           0        7.112007    2.656431    0.405568
    163          1           0        6.471969    4.608108   -0.768147
    164          1           0        6.939647    5.635388    0.423186
    165          1           0        5.200168    4.655204    1.984580
    166          1           0        4.770267    3.471643    0.695020
    167          7           0        8.140036    4.526753    3.089512
    168          6           0        8.363488    4.428095    4.520468
    169          1           0        9.230418    5.029621    4.794347
    170          1           0        7.485482    4.794028    5.052318
    171          1           0        8.543616    3.387651    4.789717
    172          1           0        8.345575    5.366983    2.573890
    173         20           0       -3.764314    0.572556    0.435339
    174          8           0       -1.442635   -0.059818   -0.803253
    175          1           0       -1.002276    0.641996   -1.284232
    176          1           0       -0.746500   -0.651619   -0.545829
 ---------------------------------------------------------------------
 Rotational constants (GHZ):           0.0260980           0.0083488           0.0072090
 Standard basis: SVP (5D, 7F)
 There are  1809 symmetry adapted cartesian basis functions of A   symmetry.
 There are  1717 symmetry adapted basis functions of A   symmetry.
  1717 basis functions,  2922 primitive gaussians,  1809 cartesian basis functions
   358 alpha electrons      358 beta electrons
       nuclear repulsion energy     19666.4823174000 Hartrees.
 NAtoms=  176 NActive=  176 NUniq=  176 SFac= 1.00D+00 NAtFMM=   60 NAOKFM=T Big=T
 Integral buffers will be    131072 words long.
 Raffenetti 2 integral format.
 Two-electron integral symmetry is turned on.
 One-electron integrals computed using PRISM.
 NBasis=  1717 RedAO= T EigKep=  2.70D-04  NBF=  1717
 NBsUse=  1717 1.00D-06 EigRej= -1.00D+00 NBFU=  1717
 ExpMin= 1.98D-02 ExpMax= 3.51D+04 ExpMxC= 5.28D+03 IAcc=3 IRadAn=         5 AccDes= 0.00D+00
 Harris functional with IExCor=  402 and IRadAn=       5 diagonalized for initial guess.
 HarFok:  IExCor=  402 AccDes= 0.00D+00 IRadAn=         5 IDoV= 1 UseB2=F ITyADJ=14
 ICtDFT=  3500011 ScaDFX=  1.000000  1.000000  1.000000  1.000000
 FoFCou: FMM=F IPFlag=           0 FMFlag=      100000 FMFlg1=        2001
         NFxFlg=           0 DoJE=T BraDBF=F KetDBF=T FulRan=T
         wScrn=  0.000000 ICntrl=       500 IOpCl=  0 I1Cent=   200000004 NGrid=           0
         NMat0=    1 NMatS0=      1 NMatT0=    0 NMatD0=    1 NMtDS0=    0 NMtDT0=    0
 Petite list used in FoFCou.
 Requested convergence on RMS density matrix=1.00D-08 within 128 cycles.
 Requested convergence on MAX density matrix=1.00D-06.
 Requested convergence on             energy=1.00D-06.
 No special actions if energy rises.
 EnCoef did     3 forward-backward iterations
 EnCoef did     1 forward-backward iterations
 EnCoef did    15 forward-backward iterations
 EnCoef did    34 forward-backward iterations
 EnCoef did   100 forward-backward iterations
 Rare condition: small coef for last iteration:  0.000D+00
 EnCoef did   100 forward-backward iterations
 EnCoef did   100 forward-backward iterations
 Rare condition: small coef for last iteration:  0.139D-15
 Restarting incremental Fock formation.
 EnCoef did   100 forward-backward iterations
 EnCoef did   100 forward-backward iterations
 Rare condition: small coef for last iteration:  0.417D-15
 EnCoef did   100 forward-backward iterations
 Rare condition: small coef for last iteration:  0.000D+00
 EnCoef did   100 forward-backward iterations
 Rare condition: small coef for last iteration:  0.000D+00
 EnCoef did   100 forward-backward iterations
 Rare condition: small coef for last iteration:  0.000D+00
 EnCoef did   100 forward-backward iterations
 EnCoef did   100 forward-backward iterations
 Rare condition: small coef for last iteration: -0.137D-15
 EnCoef did   100 forward-backward iterations
 Rare condition: small coef for last iteration:  0.000D+00
 Rare condition: small coef for last iteration:  0.000D+00
 EnCoef did   100 forward-backward iterations
 Rare condition: small coef for last iteration:  0.000D+00
 EnCoef did   100 forward-backward iterations
 Rare condition: small coef for last iteration:  0.000D+00
 Rare condition: small coef for last iteration:  0.000D+00
 EnCoef did   100 forward-backward iterations
 EnCoef did   100 forward-backward iterations
 Rare condition: small coef for last iteration:  0.232D-15
 EnCoef did   100 forward-backward iterations
 EnCoef did   100 forward-backward iterations
 Rare condition: small coef for last iteration:  0.765D-15
 EnCoef did   100 forward-backward iterations
 EnCoef did   100 forward-backward iterations
 Rare condition: small coef for last iteration:  0.339D-15
 Restarting incremental Fock formation.
 EnCoef did   100 forward-backward iterations
 EnCoef did   100 forward-backward iterations
 Rare condition: small coef for last iteration:  0.587D-16
 EnCoef did   100 forward-backward iterations
 EnCoef did   100 forward-backward iterations
 Rare condition: small coef for last iteration:  0.104D-14
 EnCoef did    30 forward-backward iterations
 Rare condition: small coef for last iteration:  0.000D+00
 EnCoef did   100 forward-backward iterations
 Rare condition: small coef for last iteration:  0.000D+00
 Restarting incremental Fock formation.
 SCF Done:  E(RB3LYP) =  -5333.40468904     A.U. after   66 cycles
            NFock= 66  Conv=0.35D-09     -V/T= 2.0081
 SCF density gives NOpUse=  1 NOpAll=  1.
 Hyperfine terms turned off by default for NAtoms > 100.

 **********************************************************************

            Population analysis using the SCF density.

 **********************************************************************

 Orbital symmetries:
 BldTbl:  Degeneracy threshold= 1.00D-02
       Occupied  (A) (A) (A) (A) (A) (A) (A) (A) (A) (A) (A) (A)
                 (A) (A) (A) (A) (A) (A) (A) (A) (A) (A) (A) (A)
                 (A) (A) (A) (A) (A) (A) (A) (A) (A) (A) (A) (A)
                 (A) (A) (A) (A) (A) (A) (A) (A) (A) (A) (A) (A)
                 (A) (A) (A) (A) (A) (A) (A) (A) (A) (A) (A) (A)
                 (A) (A) (A) (A) (A) (A) (A) (A) (A) (A) (A) (A)
                 (A) (A) (A) (A) (A) (A) (A) (A) (A) (A) (A) (A)
                 (A) (A) (A) (A) (A) (A) (A) (A) (A) (A) (A) (A)
                 (A) (A) (A) (A) (A) (A) (A) (A) (A) (A) (A) (A)
                 (A) (A) (A) (A) (A) (A) (A) (A) (A) (A) (A) (A)
                 (A) (A) (A) (A) (A) (A) (A) (A) (A) (A) (A) (A)
                 (A) (A) (A) (A) (A) (A) (A) (A) (A) (A) (A) (A)
                 (A) (A) (A) (A) (A) (A) (A) (A) (A) (A) (A) (A)
                 (A) (A) (A) (A) (A) (A) (A) (A) (A) (A) (A) (A)
                 (A) (A) (A) (A) (A) (A) (A) (A) (A) (A) (A) (A)
                 (A) (A) (A) (A) (A) (A) (A) (A) (A) (A) (A) (A)
                 (A) (A) (A) (A) (A) (A) (A) (A) (A) (A) (A) (A)
                 (A) (A) (A) (A) (A) (A) (A) (A) (A) (A) (A) (A)
                 (A) (A) (A) (A) (A) (A) (A) (A) (A) (A) (A) (A)
                 (A) (A) (A) (A) (A) (A) (A) (A) (A) (A) (A) (A)
                 (A) (A) (A) (A) (A) (A) (A) (A) (A) (A) (A) (A)
                 (A) (A) (A) (A) (A) (A) (A) (A) (A) (A) (A) (A)
                 (A) (A) (A) (A) (A) (A) (A) (A) (A) (A) (A) (A)
                 (A) (A) (A) (A) (A) (A) (A) (A) (A) (A) (A) (A)
                 (A) (A) (A) (A) (A) (A) (A) (A) (A) (A) (A) (A)
                 (A) (A) (A) (A) (A) (A) (A) (A) (A) (A) (A) (A)
                 (A) (A) (A) (A) (A) (A) (A) (A) (A) (A) (A) (A)
                 (A) (A) (A) (A) (A) (A) (A) (A) (A) (A) (A) (A)
                 (A) (A) (A) (A) (A) (A) (A) (A) (A) (A) (A) (A)
                 (A) (A) (A) (A) (A) (A) (A) (A) (A) (A)
       Virtual   (A) (A) (A) (A) (A) (A) (A) (A) (A) (A) (A) (A)
                 (A) (A) (A) (A) (A) (A) (A) (A) (A) (A) (A) (A)
                 (A) (A) (A) (A) (A) (A) (A) (A) (A) (A) (A) (A)
                 (A) (A) (A) (A) (A) (A) (A) (A) (A) (A) (A) (A)
                 (A) (A) (A) (A) (A) (A) (A) (A) (A) (A) (A) (A)
                 (A) (A) (A) (A) (A) (A) (A) (A) (A) (A) (A) (A)
                 (A) (A) (A) (A) (A) (A) (A) (A) (A) (A) (A) (A)
                 (A) (A) (A) (A) (A) (A) (A) (A) (A) (A) (A) (A)
                 (A) (A) (A) (A) (A) (A) (A) (A) (A) (A) (A) (A)
                 (A) (A) (A) (A) (A) (A) (A) (A) (A) (A) (A) (A)
                 (A) (A) (A) (A) (A) (A) (A) (A) (A) (A) (A) (A)
                 (A) (A) (A) (A) (A) (A) (A) (A) (A) (A) (A) (A)
                 (A) (A) (A) (A) (A) (A) (A) (A) (A) (A) (A) (A)
                 (A) (A) (A) (A) (A) (A) (A) (A) (A) (A) (A) (A)
                 (A) (A) (A) (A) (A) (A) (A) (A) (A) (A) (A) (A)
                 (A) (A) (A) (A) (A) (A) (A) (A) (A) (A) (A) (A)
                 (A) (A) (A) (A) (A) (A) (A) (A) (A) (A) (A) (A)
                 (A) (A) (A) (A) (A) (A) (A) (A) (A) (A) (A) (A)
                 (A) (A) (A) (A) (A) (A) (A) (A) (A) (A) (A) (A)
                 (A) (A) (A) (A) (A) (A) (A) (A) (A) (A) (A) (A)
                 (A) (A) (A) (A) (A) (A) (A) (A) (A) (A) (A) (A)
                 (A) (A) (A) (A) (A) (A) (A) (A) (A) (A) (A) (A)
                 (A) (A) (A) (A) (A) (A) (A) (A) (A) (A) (A) (A)
                 (A) (A) (A) (A) (A) (A) (A) (A) (A) (A) (A) (A)
                 (A) (A) (A) (A) (A) (A) (A) (A) (A) (A) (A) (A)
                 (A) (A) (A) (A) (A) (A) (A) (A) (A) (A) (A) (A)
                 (A) (A) (A) (A) (A) (A) (A) (A) (A) (A) (A) (A)
                 (A) (A) (A) (A) (A) (A) (A) (A) (A) (A) (A) (A)
                 (A) (A) (A) (A) (A) (A) (A) (A) (A) (A) (A) (A)
                 (A) (A) (A) (A) (A) (A) (A) (A) (A) (A) (A) (A)
                 (A) (A) (A) (A) (A) (A) (A) (A) (A) (A) (A) (A)
                 (A) (A) (A) (A) (A) (A) (A) (A) (A) (A) (A) (A)
                 (A) (A) (A) (A) (A) (A) (A) (A) (A) (A) (A) (A)
                 (A) (A) (A) (A) (A) (A) (A) (A) (A) (A) (A) (A)
                 (A) (A) (A) (A) (A) (A) (A) (A) (A) (A) (A) (A)
                 (A) (A) (A) (A) (A) (A) (A) (A) (A) (A) (A) (A)
                 (A) (A) (A) (A) (A) (A) (A) (A) (A) (A) (A) (A)
                 (A) (A) (A) (A) (A) (A) (A) (A) (A) (A) (A) (A)
                 (A) (A) (A) (A) (A) (A) (A) (A) (A) (A) (A) (A)
                 (A) (A) (A) (A) (A) (A) (A) (A) (A) (A) (A) (A)
                 (A) (A) (A) (A) (A) (A) (A) (A) (A) (A) (A) (A)
                 (A) (A) (A) (A) (A) (A) (A) (A) (A) (A) (A) (A)
                 (A) (A) (A) (A) (A) (A) (A) (A) (A) (A) (A) (A)
                 (A) (A) (A) (A) (A) (A) (A) (A) (A) (A) (A) (A)
                 (A) (A) (A) (A) (A) (A) (A) (A) (A) (A) (A) (A)
                 (A) (A) (A) (A) (A) (A) (A) (A) (A) (A) (A) (A)
                 (A) (A) (A) (A) (A) (A) (A) (A) (A) (A) (A) (A)
                 (A) (A) (A) (A) (A) (A) (A) (A) (A) (A) (A) (A)
                 (A) (A) (A) (A) (A) (A) (A) (A) (A) (A) (A) (A)
                 (A) (A) (A) (A) (A) (A) (A) (A) (A) (A) (A) (A)
                 (A) (A) (A) (A) (A) (A) (A) (A) (A) (A) (A) (A)
                 (A) (A) (A) (A) (A) (A) (A) (A) (A) (A) (A) (A)
                 (A) (A) (A) (A) (A) (A) (A) (A) (A) (A) (A) (A)
                 (A) (A) (A) (A) (A) (A) (A) (A) (A) (A) (A) (A)
                 (A) (A) (A) (A) (A) (A) (A) (A) (A) (A) (A) (A)
                 (A) (A) (A) (A) (A) (A) (A) (A) (A) (A) (A) (A)
                 (A) (A) (A) (A) (A) (A) (A) (A) (A) (A) (A) (A)
                 (A) (A) (A) (A) (A) (A) (A) (A) (A) (A) (A) (A)
                 (A) (A) (A) (A) (A) (A) (A) (A) (A) (A) (A) (A)
                 (A) (A) (A) (A) (A) (A) (A) (A) (A) (A) (A) (A)
                 (A) (A) (A) (A) (A) (A) (A) (A) (A) (A) (A) (A)
                 (A) (A) (A) (A) (A) (A) (A) (A) (A) (A) (A) (A)
                 (A) (A) (A) (A) (A) (A) (A) (A) (A) (A) (A) (A)
                 (A) (A) (A) (A) (A) (A) (A) (A) (A) (A) (A) (A)
                 (A) (A) (A) (A) (A) (A) (A) (A) (A) (A) (A) (A)
                 (A) (A) (A) (A) (A) (A) (A) (A) (A) (A) (A) (A)
                 (A) (A) (A) (A) (A) (A) (A) (A) (A) (A) (A) (A)
                 (A) (A) (A) (A) (A) (A) (A) (A) (A) (A) (A) (A)
                 (A) (A) (A) (A) (A) (A) (A) (A) (A) (A) (A) (A)
                 (A) (A) (A) (A) (A) (A) (A) (A) (A) (A) (A) (A)
                 (A) (A) (A) (A) (A) (A) (A) (A) (A) (A) (A) (A)
                 (A) (A) (A) (A) (A) (A) (A) (A) (A) (A) (A) (A)
                 (A) (A) (A) (A) (A) (A) (A) (A) (A) (A) (A) (A)
                 (A) (A) (A) (A) (A) (A) (A) (A) (A) (A) (A) (A)
                 (A) (A) (A) (A) (A) (A) (A) (A) (A) (A) (A) (A)
                 (A) (A) (A) (A) (A) (A) (A) (A) (A) (A) (A) (A)
                 (A) (A) (A) (A) (A) (A) (A) (A) (A) (A) (A) (A)
                 (A) (A) (A) (A) (A) (A) (A) (A) (A) (A) (A) (A)
                 (A) (A) (A) (A) (A) (A) (A) (A) (A) (A) (A) (A)
                 (A) (A) (A) (A) (A) (A) (A) (A) (A) (A) (A) (A)
                 (A) (A) (A) (A) (A) (A) (A) (A) (A) (A) (A) (A)
                 (A) (A) (A) (A) (A) (A) (A) (A) (A) (A) (A) (A)
                 (A) (A) (A) (A) (A) (A) (A) (A) (A) (A) (A) (A)
                 (A) (A) (A) (A) (A) (A) (A) (A) (A) (A) (A) (A)
                 (A) (A) (A) (A) (A) (A) (A) (A) (A) (A) (A) (A)
                 (A) (A) (A) (A) (A) (A) (A) (A) (A) (A) (A) (A)
                 (A) (A) (A) (A) (A) (A) (A) (A) (A) (A) (A) (A)
                 (A) (A) (A) (A) (A) (A) (A) (A) (A) (A) (A) (A)
                 (A) (A) (A) (A) (A) (A) (A) (A) (A) (A) (A) (A)
                 (A) (A) (A) (A) (A) (A) (A) (A) (A) (A) (A) (A)
                 (A) (A) (A) (A) (A) (A) (A) (A) (A) (A) (A) (A)
                 (A) (A) (A) (A) (A) (A) (A) (A) (A) (A) (A) (A)
                 (A) (A) (A) (A) (A) (A) (A) (A) (A) (A) (A) (A)
                 (A) (A) (A) (A) (A) (A) (A) (A) (A) (A) (A) (A)
                 (A) (A) (A) (A) (A) (A) (A) (A) (A) (A) (A) (A)
                 (A) (A) (A) (A) (A) (A) (A) (A) (A) (A) (A) (A)
                 (A) (A) (A) (A) (A) (A) (A) (A) (A) (A) (A) (A)
                 (A) (A) (A) (A) (A) (A) (A) (A) (A) (A) (A) (A)
                 (A) (A) (A) (A) (A) (A) (A) (A) (A) (A) (A) (A)
                 (A) (A) (A) (A) (A) (A) (A) (A) (A) (A) (A) (A)
                 (A) (A) (A) (A) (A) (A) (A) (A) (A) (A) (A) (A)
                 (A) (A) (A) (A) (A) (A) (A) (A) (A) (A) (A) (A)
                 (A) (A) (A) (A) (A) (A) (A) (A) (A) (A) (A) (A)
                 (A) (A) (A) (A) (A) (A) (A) (A) (A) (A) (A) (A)
                 (A) (A) (A) (A) (A) (A) (A) (A) (A) (A) (A) (A)
                 (A) (A) (A) (A) (A) (A) (A) (A) (A) (A) (A) (A)
                 (A) (A) (A) (A) (A) (A) (A) (A) (A) (A) (A) (A)
                 (A) (A) (A) (A) (A) (A) (A) (A) (A) (A) (A) (A)
                 (A) (A) (A) (A) (A) (A) (A) (A) (A) (A) (A) (A)
                 (A) (A) (A) (A) (A) (A) (A) (A) (A) (A) (A) (A)
                 (A) (A) (A) (A) (A) (A) (A) (A) (A) (A) (A) (A)
                 (A) (A) (A) (A) (A) (A) (A) (A) (A) (A) (A) (A)
                 (A) (A) (A) (A) (A) (A) (A) (A) (A) (A) (A) (A)
                 (A) (A) (A)
 The electronic state is 1-A.
 Alpha  occ. eigenvalues -- -145.44984 -19.18018 -19.16825 -19.13578 -19.13216
 Alpha  occ. eigenvalues --  -19.11706 -19.11665 -19.11512 -19.11430 -19.11402
 Alpha  occ. eigenvalues --  -19.10230 -19.10115 -19.10009 -19.09468 -19.09415
 Alpha  occ. eigenvalues --  -19.09384 -19.09293 -19.08480 -19.07769 -19.07263
 Alpha  occ. eigenvalues --  -19.07141 -19.06006 -18.97115 -18.96992 -15.50839
 Alpha  occ. eigenvalues --  -14.58702 -14.38528 -14.37867 -14.37540 -14.36828
 Alpha  occ. eigenvalues --  -14.36337 -14.35807 -14.35679 -14.35219 -14.34501
 Alpha  occ. eigenvalues --  -14.34264 -14.33928 -14.33398 -14.32985 -14.32775
 Alpha  occ. eigenvalues --  -12.64438 -12.64397 -12.64375 -10.35627 -10.31019
 Alpha  occ. eigenvalues --  -10.30572 -10.30546 -10.30543 -10.29984 -10.29378
 Alpha  occ. eigenvalues --  -10.28639 -10.28608 -10.28475 -10.28298 -10.28253
 Alpha  occ. eigenvalues --  -10.27917 -10.26959 -10.26524 -10.26397 -10.26322
 Alpha  occ. eigenvalues --  -10.26225 -10.26066 -10.25405 -10.24778 -10.24568
 Alpha  occ. eigenvalues --  -10.24181 -10.23679 -10.23664 -10.23348 -10.23339
 Alpha  occ. eigenvalues --  -10.23291 -10.23226 -10.23223 -10.22867 -10.22097
 Alpha  occ. eigenvalues --  -10.22047 -10.21935 -10.21591 -10.21428 -10.21387
 Alpha  occ. eigenvalues --  -10.21331 -10.19662 -10.19479 -10.19433 -10.19399
 Alpha  occ. eigenvalues --  -10.19131 -10.19088 -10.18946 -10.18320 -10.16754
 Alpha  occ. eigenvalues --  -10.16630 -10.16313 -10.16294 -10.16228 -10.15573
 Alpha  occ. eigenvalues --  -10.15285 -10.11496  -1.87705  -1.15146  -1.14943
 Alpha  occ. eigenvalues --   -1.14857  -1.14172  -1.06960  -1.05907  -1.05694
 Alpha  occ. eigenvalues --   -1.05451  -1.05317  -1.04601  -1.04150  -1.04012
 Alpha  occ. eigenvalues --   -1.03315  -1.02963  -1.02531  -1.02270  -1.01696
 Alpha  occ. eigenvalues --   -1.01644  -1.01364  -1.01234  -1.00977  -1.00700
 Alpha  occ. eigenvalues --   -1.00012  -0.95710  -0.95017  -0.94650  -0.94569
 Alpha  occ. eigenvalues --   -0.94550  -0.93375  -0.92849  -0.92778  -0.92083
 Alpha  occ. eigenvalues --   -0.91543  -0.91525  -0.91422  -0.91294  -0.90998
 Alpha  occ. eigenvalues --   -0.90227  -0.89466  -0.89389  -0.89337  -0.85259
 Alpha  occ. eigenvalues --   -0.83840  -0.81694  -0.81379  -0.81356  -0.79781
 Alpha  occ. eigenvalues --   -0.79066  -0.78757  -0.77931  -0.76941  -0.76485
 Alpha  occ. eigenvalues --   -0.75699  -0.75387  -0.75237  -0.74643  -0.74515
 Alpha  occ. eigenvalues --   -0.73657  -0.73628  -0.72527  -0.72424  -0.71870
 Alpha  occ. eigenvalues --   -0.70424  -0.70283  -0.69240  -0.68470  -0.67766
 Alpha  occ. eigenvalues --   -0.66549  -0.66118  -0.65992  -0.65326  -0.65090
 Alpha  occ. eigenvalues --   -0.64145  -0.63754  -0.63739  -0.62803  -0.62387
 Alpha  occ. eigenvalues --   -0.62157  -0.61574  -0.61382  -0.60996  -0.60013
 Alpha  occ. eigenvalues --   -0.59845  -0.59772  -0.59065  -0.58774  -0.58468
 Alpha  occ. eigenvalues --   -0.58222  -0.58021  -0.57961  -0.57814  -0.57636
 Alpha  occ. eigenvalues --   -0.57211  -0.57189  -0.56932  -0.56346  -0.56315
 Alpha  occ. eigenvalues --   -0.55769  -0.55220  -0.54918  -0.54909  -0.54550
 Alpha  occ. eigenvalues --   -0.53813  -0.53668  -0.53587  -0.52816  -0.52506
 Alpha  occ. eigenvalues --   -0.52112  -0.51978  -0.51939  -0.51225  -0.51142
 Alpha  occ. eigenvalues --   -0.50999  -0.50599  -0.50447  -0.50113  -0.49817
 Alpha  occ. eigenvalues --   -0.49747  -0.49388  -0.48835  -0.48794  -0.48261
 Alpha  occ. eigenvalues --   -0.48084  -0.47727  -0.47290  -0.47219  -0.47110
 Alpha  occ. eigenvalues --   -0.47012  -0.46740  -0.46621  -0.46540  -0.46398
 Alpha  occ. eigenvalues --   -0.45976  -0.45705  -0.45520  -0.45410  -0.45276
 Alpha  occ. eigenvalues --   -0.45249  -0.45190  -0.45104  -0.44880  -0.44649
 Alpha  occ. eigenvalues --   -0.44553  -0.44325  -0.44247  -0.44170  -0.44013
 Alpha  occ. eigenvalues --   -0.43748  -0.43455  -0.43337  -0.43180  -0.42978
 Alpha  occ. eigenvalues --   -0.42921  -0.42882  -0.42772  -0.42743  -0.42387
 Alpha  occ. eigenvalues --   -0.42296  -0.42270  -0.42032  -0.41992  -0.41651
 Alpha  occ. eigenvalues --   -0.41624  -0.41443  -0.41292  -0.41137  -0.41131
 Alpha  occ. eigenvalues --   -0.40965  -0.40711  -0.40353  -0.40226  -0.40126
 Alpha  occ. eigenvalues --   -0.39969  -0.39882  -0.39807  -0.39726  -0.39495
 Alpha  occ. eigenvalues --   -0.39448  -0.39368  -0.39247  -0.39018  -0.38889
 Alpha  occ. eigenvalues --   -0.38584  -0.38472  -0.38376  -0.38327  -0.38037
 Alpha  occ. eigenvalues --   -0.37989  -0.37773  -0.37572  -0.37300  -0.37163
 Alpha  occ. eigenvalues --   -0.37043  -0.36972  -0.36476  -0.36173  -0.35966
 Alpha  occ. eigenvalues --   -0.35933  -0.35796  -0.35624  -0.35471  -0.35398
 Alpha  occ. eigenvalues --   -0.35285  -0.35079  -0.35070  -0.34703  -0.34530
 Alpha  occ. eigenvalues --   -0.34289  -0.34071  -0.33832  -0.33728  -0.33605
 Alpha  occ. eigenvalues --   -0.33119  -0.32838  -0.32564  -0.31673  -0.30865
 Alpha  occ. eigenvalues --   -0.30854  -0.30391  -0.30246  -0.30039  -0.29286
 Alpha  occ. eigenvalues --   -0.29185  -0.29022  -0.28727  -0.28309  -0.28173
 Alpha  occ. eigenvalues --   -0.28106  -0.27783  -0.27639  -0.27524  -0.27402
 Alpha  occ. eigenvalues --   -0.27325  -0.27184  -0.26950  -0.26909  -0.26707
 Alpha  occ. eigenvalues --   -0.26491  -0.26374  -0.26246  -0.25832  -0.25677
 Alpha  occ. eigenvalues --   -0.25337  -0.25209  -0.25071  -0.24993  -0.24629
 Alpha  occ. eigenvalues --   -0.24522  -0.24337  -0.23596  -0.23414  -0.23196
 Alpha  occ. eigenvalues --   -0.22904  -0.22470  -0.22310  -0.21903  -0.21610
 Alpha  occ. eigenvalues --   -0.14584  -0.14408  -0.12142
 Alpha virt. eigenvalues --   -0.10908  -0.10179  -0.05066  -0.04619  -0.02993
 Alpha virt. eigenvalues --   -0.02049  -0.01565  -0.01209  -0.00785  -0.00496
 Alpha virt. eigenvalues --    0.00252   0.00433   0.00518   0.00778   0.01115
 Alpha virt. eigenvalues --    0.01168   0.01390   0.01716   0.01818   0.02009
 Alpha virt. eigenvalues --    0.02454   0.02765   0.03018   0.03074   0.03157
 Alpha virt. eigenvalues --    0.03375   0.03548   0.03655   0.03933   0.03977
 Alpha virt. eigenvalues --    0.04082   0.04272   0.04649   0.04682   0.05210
 Alpha virt. eigenvalues --    0.05520   0.05601   0.06163   0.06316   0.06707
 Alpha virt. eigenvalues --    0.06880   0.07042   0.07215   0.07555   0.08125
 Alpha virt. eigenvalues --    0.08258   0.08417   0.08756   0.08918   0.09068
 Alpha virt. eigenvalues --    0.09367   0.09692   0.10016   0.10162   0.10228
 Alpha virt. eigenvalues --    0.10573   0.10813   0.10934   0.11127   0.11198
 Alpha virt. eigenvalues --    0.11528   0.11617   0.11836   0.12143   0.12278
 Alpha virt. eigenvalues --    0.12381   0.12495   0.12737   0.12905   0.13007
 Alpha virt. eigenvalues --    0.13229   0.13405   0.13582   0.13690   0.13753
 Alpha virt. eigenvalues --    0.13875   0.14203   0.14310   0.14353   0.14499
 Alpha virt. eigenvalues --    0.14542   0.14609   0.14746   0.14896   0.15002
 Alpha virt. eigenvalues --    0.15285   0.15475   0.15642   0.15695   0.15721
 Alpha virt. eigenvalues --    0.15930   0.16268   0.16485   0.16585   0.16800
 Alpha virt. eigenvalues --    0.16838   0.16936   0.17067   0.17316   0.17583
 Alpha virt. eigenvalues --    0.17758   0.17901   0.18211   0.18357   0.18444
 Alpha virt. eigenvalues --    0.18659   0.18716   0.18985   0.19056   0.19305
 Alpha virt. eigenvalues --    0.19537   0.19759   0.19882   0.20032   0.20142
 Alpha virt. eigenvalues --    0.20536   0.20735   0.20826   0.21292   0.21398
 Alpha virt. eigenvalues --    0.21654   0.21802   0.22148   0.22260   0.22415
 Alpha virt. eigenvalues --    0.22782   0.23108   0.23178   0.23270   0.23301
 Alpha virt. eigenvalues --    0.23435   0.23671   0.23993   0.24157   0.24278
 Alpha virt. eigenvalues --    0.24337   0.24512   0.24540   0.25325   0.25436
 Alpha virt. eigenvalues --    0.25734   0.26050   0.26175   0.26391   0.26423
 Alpha virt. eigenvalues --    0.26686   0.27040   0.27159   0.27333   0.27596
 Alpha virt. eigenvalues --    0.27792   0.27834   0.28071   0.28132   0.28235
 Alpha virt. eigenvalues --    0.28704   0.28713   0.29112   0.29279   0.29679
 Alpha virt. eigenvalues --    0.29996   0.30272   0.30461   0.30786   0.30857
 Alpha virt. eigenvalues --    0.31007   0.31845   0.31890   0.32200   0.32400
 Alpha virt. eigenvalues --    0.32702   0.32811   0.33073   0.33183   0.33410
 Alpha virt. eigenvalues --    0.33869   0.34212   0.34332   0.34885   0.35024
 Alpha virt. eigenvalues --    0.35286   0.35734   0.36117   0.36457   0.36634
 Alpha virt. eigenvalues --    0.36832   0.37400   0.37566   0.37620   0.38272
 Alpha virt. eigenvalues --    0.38537   0.38649   0.39155   0.39662   0.39988
 Alpha virt. eigenvalues --    0.40215   0.40459   0.40566   0.40917   0.41183
 Alpha virt. eigenvalues --    0.41209   0.41400   0.41639   0.42029   0.42176
 Alpha virt. eigenvalues --    0.42395   0.42775   0.42918   0.43125   0.43561
 Alpha virt. eigenvalues --    0.43727   0.43789   0.43946   0.44300   0.44363
 Alpha virt. eigenvalues --    0.44797   0.44852   0.45259   0.45321   0.45416
 Alpha virt. eigenvalues --    0.45797   0.46019   0.46063   0.46226   0.46339
 Alpha virt. eigenvalues --    0.46524   0.46712   0.46792   0.47103   0.47175
 Alpha virt. eigenvalues --    0.47450   0.47557   0.47751   0.47854   0.47961
 Alpha virt. eigenvalues --    0.48059   0.48539   0.48602   0.49090   0.49172
 Alpha virt. eigenvalues --    0.49357   0.49571   0.49850   0.49924   0.50126
 Alpha virt. eigenvalues --    0.50286   0.50438   0.50649   0.50870   0.50959
 Alpha virt. eigenvalues --    0.51195   0.51540   0.51627   0.52058   0.52206
 Alpha virt. eigenvalues --    0.52269   0.52370   0.52494   0.52693   0.52995
 Alpha virt. eigenvalues --    0.53436   0.53538   0.53652   0.53886   0.53922
 Alpha virt. eigenvalues --    0.54133   0.54426   0.54629   0.54749   0.54947
 Alpha virt. eigenvalues --    0.55068   0.55182   0.55411   0.55685   0.56019
 Alpha virt. eigenvalues --    0.56262   0.56521   0.56660   0.56779   0.56926
 Alpha virt. eigenvalues --    0.57460   0.57520   0.57714   0.58194   0.58250
 Alpha virt. eigenvalues --    0.58316   0.58649   0.58801   0.59057   0.59185
 Alpha virt. eigenvalues --    0.59291   0.59441   0.59474   0.59680   0.59854
 Alpha virt. eigenvalues --    0.60003   0.60102   0.60143   0.60419   0.60563
 Alpha virt. eigenvalues --    0.60699   0.60751   0.60793   0.60985   0.61041
 Alpha virt. eigenvalues --    0.61244   0.61441   0.61460   0.61573   0.61853
 Alpha virt. eigenvalues --    0.61939   0.62158   0.62332   0.62513   0.62638
 Alpha virt. eigenvalues --    0.62887   0.62911   0.62993   0.63077   0.63246
 Alpha virt. eigenvalues --    0.63401   0.63465   0.63547   0.63633   0.63647
 Alpha virt. eigenvalues --    0.63897   0.63917   0.64067   0.64194   0.64244
 Alpha virt. eigenvalues --    0.64436   0.64514   0.64589   0.64674   0.64775
 Alpha virt. eigenvalues --    0.64886   0.64973   0.65063   0.65173   0.65223
 Alpha virt. eigenvalues --    0.65319   0.65399   0.65544   0.65608   0.65734
 Alpha virt. eigenvalues --    0.65873   0.65943   0.66111   0.66181   0.66320
 Alpha virt. eigenvalues --    0.66465   0.66549   0.66598   0.66777   0.66915
 Alpha virt. eigenvalues --    0.66987   0.67038   0.67255   0.67370   0.67417
 Alpha virt. eigenvalues --    0.67557   0.67673   0.67994   0.68104   0.68148
 Alpha virt. eigenvalues --    0.68243   0.68349   0.68553   0.68721   0.68770
 Alpha virt. eigenvalues --    0.68996   0.69093   0.69196   0.69281   0.69529
 Alpha virt. eigenvalues --    0.69589   0.69778   0.69915   0.70114   0.70211
 Alpha virt. eigenvalues --    0.70382   0.70429   0.70689   0.70820   0.70964
 Alpha virt. eigenvalues --    0.71133   0.71176   0.71256   0.71378   0.71576
 Alpha virt. eigenvalues --    0.71626   0.71765   0.72086   0.72435   0.72472
 Alpha virt. eigenvalues --    0.72632   0.72698   0.72827   0.73008   0.73166
 Alpha virt. eigenvalues --    0.73202   0.73352   0.73570   0.73740   0.73948
 Alpha virt. eigenvalues --    0.74276   0.74378   0.74404   0.74503   0.74876
 Alpha virt. eigenvalues --    0.74925   0.75148   0.75250   0.75515   0.75705
 Alpha virt. eigenvalues --    0.75856   0.76076   0.76459   0.76718   0.76809
 Alpha virt. eigenvalues --    0.76959   0.77253   0.77396   0.77537   0.77730
 Alpha virt. eigenvalues --    0.78117   0.78468   0.78529   0.78847   0.79209
 Alpha virt. eigenvalues --    0.79231   0.79406   0.79828   0.80042   0.80272
 Alpha virt. eigenvalues --    0.80581   0.80842   0.80948   0.81321   0.81554
 Alpha virt. eigenvalues --    0.81699   0.82289   0.82506   0.82924   0.83137
 Alpha virt. eigenvalues --    0.83231   0.83738   0.83978   0.84082   0.84392
 Alpha virt. eigenvalues --    0.84587   0.84730   0.84965   0.85298   0.85386
 Alpha virt. eigenvalues --    0.85902   0.86084   0.86757   0.86965   0.87156
 Alpha virt. eigenvalues --    0.87351   0.88004   0.88218   0.88520   0.88710
 Alpha virt. eigenvalues --    0.88916   0.89128   0.89699   0.89839   0.89986
 Alpha virt. eigenvalues --    0.89993   0.90298   0.90844   0.90958   0.91228
 Alpha virt. eigenvalues --    0.91460   0.91949   0.92193   0.92310   0.92592
 Alpha virt. eigenvalues --    0.92851   0.93292   0.93566   0.93908   0.94118
 Alpha virt. eigenvalues --    0.94413   0.94673   0.94928   0.95573   0.95596
 Alpha virt. eigenvalues --    0.95879   0.96142   0.96401   0.96554   0.96743
 Alpha virt. eigenvalues --    0.96893   0.97155   0.97274   0.97663   0.98164
 Alpha virt. eigenvalues --    0.98511   0.98754   0.98983   0.99277   0.99542
 Alpha virt. eigenvalues --    0.99713   0.99814   1.00105   1.00478   1.01212
 Alpha virt. eigenvalues --    1.01442   1.01837   1.01927   1.01982   1.02523
 Alpha virt. eigenvalues --    1.02812   1.02868   1.03172   1.03545   1.03765
 Alpha virt. eigenvalues --    1.04411   1.04653   1.04736   1.04858   1.05207
 Alpha virt. eigenvalues --    1.05315   1.05692   1.06041   1.06180   1.06646
 Alpha virt. eigenvalues --    1.06701   1.07066   1.07312   1.07372   1.07786
 Alpha virt. eigenvalues --    1.08024   1.08516   1.08695   1.08832   1.09050
 Alpha virt. eigenvalues --    1.09276   1.09512   1.10138   1.10295   1.10576
 Alpha virt. eigenvalues --    1.10796   1.10954   1.11504   1.11742   1.12034
 Alpha virt. eigenvalues --    1.12136   1.12343   1.12619   1.12788   1.13136
 Alpha virt. eigenvalues --    1.13287   1.13631   1.13955   1.14495   1.14932
 Alpha virt. eigenvalues --    1.15221   1.15438   1.15592   1.15661   1.15887
 Alpha virt. eigenvalues --    1.16543   1.16676   1.17047   1.17301   1.17645
 Alpha virt. eigenvalues --    1.17906   1.18095   1.18193   1.18264   1.18501
 Alpha virt. eigenvalues --    1.19353   1.19509   1.19782   1.19886   1.20032
 Alpha virt. eigenvalues --    1.20226   1.20670   1.21204   1.21387   1.21842
 Alpha virt. eigenvalues --    1.22000   1.22093   1.22705   1.23047   1.23469
 Alpha virt. eigenvalues --    1.23574   1.23702   1.23884   1.23941   1.24296
 Alpha virt. eigenvalues --    1.24539   1.24747   1.25191   1.25252   1.25596
 Alpha virt. eigenvalues --    1.25749   1.25816   1.26363   1.26544   1.27285
 Alpha virt. eigenvalues --    1.27552   1.27864   1.28022   1.28157   1.28452
 Alpha virt. eigenvalues --    1.28639   1.28988   1.29094   1.29246   1.29482
 Alpha virt. eigenvalues --    1.29658   1.30000   1.30222   1.30540   1.30762
 Alpha virt. eigenvalues --    1.30900   1.31312   1.31661   1.31865   1.32224
 Alpha virt. eigenvalues --    1.32675   1.32939   1.33154   1.33350   1.33615
 Alpha virt. eigenvalues --    1.34003   1.34472   1.34696   1.34780   1.35439
 Alpha virt. eigenvalues --    1.35870   1.36525   1.36747   1.36809   1.37025
 Alpha virt. eigenvalues --    1.37320   1.37568   1.37990   1.38463   1.38574
 Alpha virt. eigenvalues --    1.38728   1.38804   1.38915   1.38986   1.39329
 Alpha virt. eigenvalues --    1.39745   1.40025   1.40297   1.40457   1.40752
 Alpha virt. eigenvalues --    1.41168   1.41620   1.41748   1.42342   1.42585
 Alpha virt. eigenvalues --    1.43037   1.43334   1.43439   1.43505   1.43769
 Alpha virt. eigenvalues --    1.44227   1.44687   1.44784   1.44987   1.45430
 Alpha virt. eigenvalues --    1.45579   1.45670   1.45946   1.46155   1.46519
 Alpha virt. eigenvalues --    1.46883   1.47110   1.47258   1.47808   1.48192
 Alpha virt. eigenvalues --    1.48405   1.48567   1.49040   1.49485   1.49760
 Alpha virt. eigenvalues --    1.50343   1.50601   1.50994   1.51265   1.51813
 Alpha virt. eigenvalues --    1.52018   1.52152   1.52767   1.52839   1.52997
 Alpha virt. eigenvalues --    1.53276   1.53443   1.53762   1.54171   1.54542
 Alpha virt. eigenvalues --    1.54683   1.55100   1.55633   1.55892   1.56170
 Alpha virt. eigenvalues --    1.56332   1.56392   1.56796   1.56851   1.57085
 Alpha virt. eigenvalues --    1.57423   1.57699   1.57754   1.58191   1.58481
 Alpha virt. eigenvalues --    1.58936   1.59375   1.59717   1.59895   1.60177
 Alpha virt. eigenvalues --    1.60590   1.60936   1.61050   1.61400   1.61467
 Alpha virt. eigenvalues --    1.61611   1.61993   1.62577   1.62711   1.62760
 Alpha virt. eigenvalues --    1.63112   1.63355   1.63915   1.64625   1.64773
 Alpha virt. eigenvalues --    1.65850   1.65996   1.66771   1.66810   1.67141
 Alpha virt. eigenvalues --    1.67461   1.67631   1.67940   1.68623   1.68853
 Alpha virt. eigenvalues --    1.69113   1.69423   1.69581   1.69813   1.70360
 Alpha virt. eigenvalues --    1.70616   1.70677   1.70871   1.71299   1.71658
 Alpha virt. eigenvalues --    1.71739   1.71896   1.72109   1.72437   1.72536
 Alpha virt. eigenvalues --    1.73031   1.73135   1.73173   1.73407   1.74288
 Alpha virt. eigenvalues --    1.74554   1.74694   1.74779   1.74960   1.75075
 Alpha virt. eigenvalues --    1.75186   1.75442   1.75719   1.75790   1.75962
 Alpha virt. eigenvalues --    1.76215   1.76342   1.76438   1.76499   1.76613
 Alpha virt. eigenvalues --    1.76729   1.76834   1.77054   1.77491   1.77643
 Alpha virt. eigenvalues --    1.77797   1.78397   1.78594   1.78707   1.78760
 Alpha virt. eigenvalues --    1.78831   1.79121   1.79297   1.79406   1.79686
 Alpha virt. eigenvalues --    1.79807   1.79886   1.79911   1.80447   1.80525
 Alpha virt. eigenvalues --    1.81041   1.81107   1.81253   1.81453   1.81563
 Alpha virt. eigenvalues --    1.81632   1.81765   1.82076   1.82103   1.82400
 Alpha virt. eigenvalues --    1.82535   1.82630   1.82717   1.82916   1.83102
 Alpha virt. eigenvalues --    1.83132   1.83226   1.83406   1.83566   1.83898
 Alpha virt. eigenvalues --    1.83992   1.84118   1.84255   1.84379   1.84740
 Alpha virt. eigenvalues --    1.84828   1.84999   1.85401   1.85711   1.85803
 Alpha virt. eigenvalues --    1.85842   1.86044   1.86116   1.86359   1.86500
 Alpha virt. eigenvalues --    1.86608   1.86760   1.86844   1.87188   1.87286
 Alpha virt. eigenvalues --    1.87473   1.87587   1.87885   1.88020   1.88223
 Alpha virt. eigenvalues --    1.88266   1.88534   1.88668   1.88848   1.89052
 Alpha virt. eigenvalues --    1.89079   1.89404   1.89601   1.90192   1.90324
 Alpha virt. eigenvalues --    1.90454   1.90524   1.90691   1.90890   1.91032
 Alpha virt. eigenvalues --    1.91276   1.91393   1.91587   1.91904   1.91982
 Alpha virt. eigenvalues --    1.92176   1.92650   1.92724   1.92925   1.93001
 Alpha virt. eigenvalues --    1.93246   1.93840   1.94087   1.94198   1.94733
 Alpha virt. eigenvalues --    1.94819   1.94901   1.95122   1.95391   1.95476
 Alpha virt. eigenvalues --    1.95531   1.95847   1.96063   1.96328   1.96604
 Alpha virt. eigenvalues --    1.96879   1.96964   1.97204   1.97415   1.97587
 Alpha virt. eigenvalues --    1.97660   1.97983   1.98297   1.98414   1.98742
 Alpha virt. eigenvalues --    1.98847   1.99117   1.99255   1.99563   2.00182
 Alpha virt. eigenvalues --    2.00475   2.00536   2.00556   2.00866   2.00983
 Alpha virt. eigenvalues --    2.01207   2.01517   2.01565   2.01702   2.01841
 Alpha virt. eigenvalues --    2.02091   2.02535   2.02686   2.02805   2.03017
 Alpha virt. eigenvalues --    2.03452   2.03634   2.03957   2.04315   2.04846
 Alpha virt. eigenvalues --    2.05078   2.05126   2.05419   2.05905   2.05986
 Alpha virt. eigenvalues --    2.06246   2.06384   2.06934   2.07187   2.07451
 Alpha virt. eigenvalues --    2.07610   2.07739   2.07980   2.08276   2.08408
 Alpha virt. eigenvalues --    2.09051   2.09265   2.09356   2.09890   2.10519
 Alpha virt. eigenvalues --    2.10771   2.10909   2.11097   2.11196   2.11403
 Alpha virt. eigenvalues --    2.11748   2.12019   2.12235   2.12441   2.12515
 Alpha virt. eigenvalues --    2.12778   2.12880   2.13376   2.13464   2.13626
 Alpha virt. eigenvalues --    2.14021   2.14236   2.14863   2.15077   2.15605
 Alpha virt. eigenvalues --    2.15762   2.16039   2.16238   2.16364   2.16574
 Alpha virt. eigenvalues --    2.16855   2.17337   2.17785   2.18031   2.18615
 Alpha virt. eigenvalues --    2.18930   2.18985   2.19243   2.19534   2.19955
 Alpha virt. eigenvalues --    2.20419   2.20671   2.20878   2.21068   2.21244
 Alpha virt. eigenvalues --    2.21354   2.21797   2.22369   2.22520   2.23473
 Alpha virt. eigenvalues --    2.23835   2.24090   2.24294   2.24500   2.24791
 Alpha virt. eigenvalues --    2.25650   2.26037   2.26186   2.26532   2.26748
 Alpha virt. eigenvalues --    2.26962   2.27212   2.27318   2.28021   2.28476
 Alpha virt. eigenvalues --    2.28663   2.28774   2.29191   2.29233   2.29642
 Alpha virt. eigenvalues --    2.30087   2.30505   2.30696   2.30799   2.30934
 Alpha virt. eigenvalues --    2.31277   2.31550   2.32242   2.32667   2.32994
 Alpha virt. eigenvalues --    2.33314   2.33374   2.33414   2.33880   2.34340
 Alpha virt. eigenvalues --    2.34416   2.34692   2.35050   2.35620   2.35653
 Alpha virt. eigenvalues --    2.36000   2.36362   2.37264   2.37330   2.38035
 Alpha virt. eigenvalues --    2.38047   2.38253   2.38613   2.38778   2.39326
 Alpha virt. eigenvalues --    2.39530   2.40042   2.40175   2.40710   2.40732
 Alpha virt. eigenvalues --    2.41114   2.41242   2.41269   2.41840   2.41948
 Alpha virt. eigenvalues --    2.42964   2.43288   2.43410   2.43965   2.44015
 Alpha virt. eigenvalues --    2.44245   2.44489   2.45151   2.45256   2.45515
 Alpha virt. eigenvalues --    2.45799   2.46156   2.46230   2.46787   2.47225
 Alpha virt. eigenvalues --    2.47751   2.48087   2.48173   2.48759   2.48833
 Alpha virt. eigenvalues --    2.48988   2.49632   2.49679   2.50783   2.51326
 Alpha virt. eigenvalues --    2.51796   2.51856   2.52070   2.53062   2.53224
 Alpha virt. eigenvalues --    2.53696   2.53710   2.53879   2.54448   2.54713
 Alpha virt. eigenvalues --    2.54938   2.55320   2.55336   2.55478   2.55866
 Alpha virt. eigenvalues --    2.57124   2.57452   2.57508   2.57641   2.57887
 Alpha virt. eigenvalues --    2.58091   2.58320   2.58412   2.58952   2.59348
 Alpha virt. eigenvalues --    2.59538   2.59744   2.59942   2.60468   2.60509
 Alpha virt. eigenvalues --    2.60667   2.60817   2.61069   2.61407   2.62045
 Alpha virt. eigenvalues --    2.62226   2.62366   2.62529   2.63064   2.63487
 Alpha virt. eigenvalues --    2.63882   2.64179   2.64246   2.64709   2.65003
 Alpha virt. eigenvalues --    2.65154   2.65473   2.65852   2.66082   2.66206
 Alpha virt. eigenvalues --    2.66913   2.67098   2.67532   2.67799   2.68024
 Alpha virt. eigenvalues --    2.68204   2.68691   2.68930   2.69202   2.69356
 Alpha virt. eigenvalues --    2.69510   2.69785   2.70051   2.70390   2.70807
 Alpha virt. eigenvalues --    2.71455   2.71713   2.71783   2.71902   2.72163
 Alpha virt. eigenvalues --    2.72558   2.72858   2.72960   2.73787   2.73867
 Alpha virt. eigenvalues --    2.74149   2.74713   2.74752   2.74914   2.75228
 Alpha virt. eigenvalues --    2.75413   2.75710   2.75767   2.77047   2.77143
 Alpha virt. eigenvalues --    2.77429   2.77531   2.78152   2.78203   2.78429
 Alpha virt. eigenvalues --    2.78735   2.78843   2.78888   2.79230   2.79390
 Alpha virt. eigenvalues --    2.79630   2.79834   2.80350   2.80439   2.80665
 Alpha virt. eigenvalues --    2.80782   2.81076   2.81264   2.81291   2.81465
 Alpha virt. eigenvalues --    2.82400   2.82556   2.83070   2.83219   2.83648
 Alpha virt. eigenvalues --    2.83961   2.84956   2.85082   2.85434   2.85588
 Alpha virt. eigenvalues --    2.86254   2.86396   2.86473   2.86569   2.86796
 Alpha virt. eigenvalues --    2.87232   2.87730   2.88427   2.88623   2.88822
 Alpha virt. eigenvalues --    2.89100   2.89240   2.89587   2.89816   2.90132
 Alpha virt. eigenvalues --    2.90277   2.90359   2.90618   2.91509   2.91878
 Alpha virt. eigenvalues --    2.91964   2.92201   2.92493   2.92636   2.92704
 Alpha virt. eigenvalues --    2.93074   2.93119   2.93230   2.93452   2.93902
 Alpha virt. eigenvalues --    2.94344   2.95092   2.95216   2.95874   2.95877
 Alpha virt. eigenvalues --    2.96210   2.96357   2.96420   2.96544   2.97067
 Alpha virt. eigenvalues --    2.97165   2.97726   2.97759   2.98241   2.98603
 Alpha virt. eigenvalues --    2.98953   2.99678   2.99872   3.00174   3.00286
 Alpha virt. eigenvalues --    3.00809   3.00997   3.01082   3.01935   3.02118
 Alpha virt. eigenvalues --    3.02402   3.02488   3.02846   3.03240   3.03263
 Alpha virt. eigenvalues --    3.03471   3.03607   3.04070   3.04355   3.04875
 Alpha virt. eigenvalues --    3.05117   3.06726   3.07339   3.08119   3.08326
 Alpha virt. eigenvalues --    3.08866   3.09038   3.09709   3.10028   3.12546
 Alpha virt. eigenvalues --    3.13195   3.13478   3.13569   3.13865   3.14256
 Alpha virt. eigenvalues --    3.14766   3.15204   3.15532   3.15663   3.15754
 Alpha virt. eigenvalues --    3.15781   3.15902   3.16569   3.16691   3.16960
 Alpha virt. eigenvalues --    3.17143   3.17555   3.17919   3.18148   3.18653
 Alpha virt. eigenvalues --    3.19135   3.19177   3.19362   3.19488   3.19597
 Alpha virt. eigenvalues --    3.20094   3.20190   3.20519   3.20845   3.20875
 Alpha virt. eigenvalues --    3.21044   3.21274   3.22466   3.22988   3.23264
 Alpha virt. eigenvalues --    3.23710   3.24194   3.24295   3.24763   3.24841
 Alpha virt. eigenvalues --    3.27046   3.27340   3.27650   3.29405   3.29938
 Alpha virt. eigenvalues --    3.30212   3.31752   3.32300   3.33181   3.34716
 Alpha virt. eigenvalues --    3.35476   3.35909   3.37070   3.37480   3.38807
 Alpha virt. eigenvalues --    3.41095   3.41716   3.42845   3.43815   3.50110
 Alpha virt. eigenvalues --    3.52524   3.52689   3.53820   3.53849   3.54213
 Alpha virt. eigenvalues --    3.54346   3.55265   3.55849   3.56597   3.57842
 Alpha virt. eigenvalues --    3.58165   3.59188   3.59426   3.59709   3.60044
 Alpha virt. eigenvalues --    3.62302   3.63196   3.63285   3.64287   3.65159
 Alpha virt. eigenvalues --    3.67295   3.67665   3.67972   3.68318   3.68703
 Alpha virt. eigenvalues --    3.69211   3.69447   3.69714   3.69830   3.69837
 Alpha virt. eigenvalues --    3.70340   3.70689   3.72561   3.73947   3.75707
 Alpha virt. eigenvalues --    3.80275   3.81208   3.81287   3.81827
          Condensed to atoms (all electrons):
 Mulliken charges:
               1
     1  C    0.077451
     2  C    0.022764
     3  O   -0.325601
     4  H    0.045707
     5  H    0.044576
     6  H    0.011988
     7  N   -0.113497
     8  C    0.109067
     9  C    0.089990
    10  O   -0.263594
    11  C    0.106726
    12  C    0.112289
    13  O   -0.477586
    14  O   -0.418555
    15  H    0.123427
    16  H   -0.030559
    17  H    0.041555
    18  H    0.015928
    19  N   -0.096281
    20  C    0.111532
    21  C    0.051667
    22  O   -0.256351
    23  C    0.049862
    24  C   -0.032835
    25  C   -0.055239
    26  C    0.057063
    27  N    0.135246
    28  H    0.104767
    29  H    0.016186
    30  H    0.012804
    31  H    0.025087
    32  H    0.045628
    33  H   -0.012161
    34  H    0.016460
    35  H    0.039822
    36  H    0.090232
    37  H    0.046029
    38  H    0.155149
    39  H    0.158210
    40  H    0.156166
    41  N   -0.166801
    42  C    0.051273
    43  C    0.060575
    44  O   -0.282094
    45  C    0.212989
    46  C    0.071251
    47  O   -0.394586
    48  O   -0.458306
    49  H    0.161362
    50  H    0.026769
    51  H   -0.008824
    52  H    0.024035
    53  N   -0.204708
    54  C    0.222090
    55  C    0.017123
    56  O   -0.286114
    57  H    0.146095
    58  H    0.046026
    59  H    0.023265
    60  N   -0.158946
    61  C    0.110610
    62  C    0.152691
    63  O   -0.360534
    64  C    0.091458
    65  C    0.008207
    66  N   -0.030534
    67  O   -0.310536
    68  H    0.163538
    69  H   -0.005342
    70  H    0.054421
    71  H    0.046462
    72  H    0.121240
    73  H    0.133594
    74  N   -0.131310
    75  C    0.211070
    76  C    0.045699
    77  O   -0.287133
    78  H    0.154262
    79  H    0.029998
    80  H    0.026140
    81  N   -0.128363
    82  C    0.135803
    83  C    0.114506
    84  O   -0.298238
    85  C    0.118022
    86  C   -0.075200
    87  C    0.054088
    88  C   -0.026169
    89  C   -0.025093
    90  C   -0.051593
    91  C    0.149817
    92  O   -0.178522
    93  H    0.138149
    94  H   -0.029637
    95  H    0.001646
    96  H    0.005876
    97  H   -0.016299
    98  H   -0.038093
    99  H   -0.007610
   100  H   -0.043894
   101  H    0.171787
   102  N   -0.102276
   103  C    0.120277
   104  C    0.073841
   105  O   -0.271394
   106  C   -0.075201
   107  C    0.039211
   108  C    0.030448
   109  C    0.035531
   110  H    0.126983
   111  H   -0.030543
   112  H    0.008000
   113  H   -0.016981
   114  H    0.024850
   115  H   -0.006902
   116  H    0.007440
   117  H    0.028818
   118  H   -0.024332
   119  H   -0.017437
   120  H    0.034694
   121  N   -0.137717
   122  C    0.108853
   123  C    0.098206
   124  O   -0.271727
   125  C    0.216004
   126  O   -0.306662
   127  H    0.123874
   128  H    0.039430
   129  H    0.001259
   130  H    0.015348
   131  H    0.191903
   132  N   -0.134577
   133  C    0.004460
   134  C    0.052408
   135  O   -0.284658
   136  C    0.100901
   137  H    0.105959
   138  H    0.021055
   139  H    0.002557
   140  H    0.047620
   141  H    0.005628
   142  N   -0.069052
   143  C    0.062264
   144  C    0.037672
   145  O   -0.286734
   146  C    0.078894
   147  H    0.126942
   148  H   -0.031294
   149  H    0.003974
   150  H    0.034428
   151  H   -0.003890
   152  N   -0.083837
   153  C    0.096093
   154  C    0.078944
   155  O   -0.298515
   156  C    0.013326
   157  C    0.085547
   158  C    0.020800
   159  O   -0.397688
   160  O   -0.370711
   161  H    0.108142
   162  H    0.026146
   163  H   -0.019308
   164  H   -0.036875
   165  H   -0.022910
   166  H   -0.022947
   167  N   -0.158509
   168  C    0.145811
   169  H    0.014886
   170  H    0.029781
   171  H    0.036894
   172  H    0.106977
   173  Ca   1.342643
   174  O   -0.299765
   175  H    0.179817
   176  H    0.198320
 Sum of Mulliken charges =  -0.00000
 Mulliken charges with hydrogens summed into heavy atoms:
               1
     1  C    0.179722
     2  C    0.022764
     3  O   -0.325601
     7  N    0.009930
     8  C    0.078508
     9  C    0.089990
    10  O   -0.263594
    11  C    0.164209
    12  C    0.112289
    13  O   -0.477586
    14  O   -0.418555
    19  N    0.008487
    20  C    0.127718
    21  C    0.051667
    22  O   -0.256351
    23  C    0.087754
    24  C    0.000633
    25  C    0.001042
    26  C    0.193324
    27  N    0.604771
    41  N   -0.005439
    42  C    0.078042
    43  C    0.060575
    44  O   -0.282094
    45  C    0.228199
    46  C    0.071251
    47  O   -0.394586
    48  O   -0.458306
    53  N   -0.058612
    54  C    0.291382
    55  C    0.017123
    56  O   -0.286114
    60  N    0.004592
    61  C    0.105268
    62  C    0.152691
    63  O   -0.360534
    64  C    0.192341
    65  C    0.008207
    66  N    0.224300
    67  O   -0.310536
    74  N    0.022952
    75  C    0.267209
    76  C    0.045699
    77  O   -0.287133
    81  N    0.009786
    82  C    0.106167
    83  C    0.114506
    84  O   -0.298238
    85  C    0.125544
    86  C   -0.075200
    87  C    0.037790
    88  C   -0.064262
    89  C   -0.032702
    90  C   -0.095487
    91  C    0.149817
    92  O   -0.006734
   102  N    0.024708
   103  C    0.089734
   104  C    0.073841
   105  O   -0.271394
   106  C   -0.067201
   107  C    0.047079
   108  C    0.059804
   109  C    0.028456
   121  N   -0.013843
   122  C    0.148283
   123  C    0.098206
   124  O   -0.271727
   125  C    0.232612
   126  O   -0.114759
   132  N   -0.028619
   133  C    0.025515
   134  C    0.052408
   135  O   -0.284658
   136  C    0.156705
   142  N    0.057890
   143  C    0.030969
   144  C    0.037672
   145  O   -0.286734
   146  C    0.113406
   152  N    0.024305
   153  C    0.122239
   154  C    0.078944
   155  O   -0.298515
   156  C   -0.042858
   157  C    0.039690
   158  C    0.020800
   159  O   -0.397688
   160  O   -0.370711
   167  N   -0.051532
   168  C    0.227372
   173  Ca   1.342643
   174  O    0.078372
 DipInt: DoE/N= T F RetVal/Mat= T F Init=T NMatP=  1 IDeriv=0 Min/MaxMlt=  0  4
 Entering OneElI...
 OneElI was handed  1333951383 working-precision words.
 Multipole integrals L=0 to 4 MinM= 0 MaxM= 0.
 Requested accuracy = 0.1000D-12
 ShPair: Thresh= 1.00D-13 NBox=     0 BxSize= 0.00D+00 RnKept= 2.94D+01
         NSMCal=               327645 NSMKep=              131529
 PrmmSu-InSpLW:  IPartL=    0 NPrtUS=    1 NPrtUL=    1 DoSpLW=F IThBeg=    0 IThEnd=    0 NThAct=    1.
 PrsmSu:  NPrtUS=   1 ThrOK=F IAlg=1 NPAlg=1 LenDen=           0 ISkipM=0 DoSpLW=F IThBeg=    0 IThEnd=    0.
 Prism:   IPart=     0 DynPar=F LinDyn=F Incr=         512.
 PRISM was handed  1324933995 working-precision words and131529 shell-pairs
 IPart=  0 NShTot=      131529 NBatch=         311 AvBLen=       422.9
 PrsmSu-ThDecC:  IPartSL=    0    0 NPrtUSL=    1    1 IThBeg=    0 IThEnd=    0 CPU=   -1 GPU=   -1 NThAct=    1.
 PrSmSu:  NxtVal=            513.
 Electronic moments (au):
       -716.00000000         -8.32255681          4.24776339          2.05973123
    -106102.25703157     -28232.55409477      -9979.41187867       -154.80342702
         11.97405709        -31.33427683     -98127.35161394      -6781.60994483
      -7391.16720958     -28277.77357596    -198294.05357465      42771.69913756
      22076.14148100     -12436.98451564     -11826.39584690     -18931.60657683
  -26386469.80761684   -2445583.26982988    -340420.16098537     357994.57443576
    1041960.95746478     161086.47512072      28060.32415055     -85883.03712864
     -55826.63673554   -3406606.51649117   -1760401.61871280    -332628.10526428
    -518810.68958096    -196260.03022541      12288.80925993
 Electronic spatial extent (au):  <R**2>=         144314.2230
 DipInt: DoE/N= F T RetVal/Mat= T F Init=T NMatP=  1 IDeriv=0 Min/MaxMlt=  0  4
 Nuclear    moments (au):
        716.00000000          0.00000000         -0.00000000         -0.00000000
     105546.95917659      27891.82891816       9568.60863355         -0.00000000
          0.00000000         -0.00000000      96489.64697867       7458.52335683
       7531.65852357      26962.77380700     199173.65219273     -41062.22181985
     -22243.50421060      12608.44456845      11498.04816548      19051.33193245
   25932861.00601935    2363471.48206004     306692.72545652    -372357.71467221
   -1041942.20350616    -183934.20289013     -33212.93049501      83648.37011409
      55667.60403195    3336420.52032353    1693083.73592510     313354.28878684
     517369.70703324     202363.44395663     -12978.62661543
 Total      moments (au):
         -0.00000000         -8.32255681          4.24776339          2.05973123
       -555.29785498       -340.72517661       -410.80324512       -154.80342702
         11.97405709        -31.33427683      -1637.70463527        676.91341200
        140.49131399      -1314.99976896        879.59861808       1709.47731771
       -167.36272959        171.46005281       -328.34768142        119.72535562
    -453608.80159749     -82111.78776984     -33727.43552885     -14363.14023644
         18.75395862     -22847.72776941      -5152.60634446      -2234.66701455
       -159.03270359     -70185.99616764     -67317.88278770     -19273.81647744
      -1440.98254772       6103.41373122       -689.81735550
 Traceless Quadrup. (au):
       -119.68909607         94.88358229         24.80551378       -154.80342702
         11.97405709        -31.33427683
 Charge=             -0.0000 electrons
 Dipole moment (field-independent basis, Debye):
    X=            -21.1538    Y=             10.7967    Z=              5.2353  Tot=             24.3200
 Quadrupole moment (field-independent basis, Debye-Ang):
   XX=           -746.8946   YY=           -458.2870   ZZ=           -552.5444
   XY=           -208.2159   XZ=             16.1055   YZ=            -42.1457
 Traceless Quadrupole moment (field-independent basis, Debye-Ang):
   XX=           -160.9859   YY=            127.6217   ZZ=             33.3643
   XY=           -208.2159   XZ=             16.1055   YZ=            -42.1457
 Octapole moment (field-independent basis, Debye-Ang**2):
  XXX=          -1165.6551  YYY=            481.8009  ZZZ=             99.9963  XYY=           -935.9662
  XXY=            626.0644  XXZ=           1216.7401  XZZ=           -119.1223  YZZ=            122.0387
  YYZ=           -233.7052  XYZ=             85.2159
 Hexadecapole moment (field-independent basis, Debye-Ang**3):
 XXXX=        -170850.8259 YYYY=         -30927.2367 ZZZZ=         -12703.3695 XXXY=          -5409.8473
 XXXZ=              7.0636 YYYX=          -8605.5499 YYYZ=          -1940.7186 ZZZX=           -841.6828
 ZZZY=            -59.8993 XXYY=         -26435.4117 XXZZ=         -25355.1427 YYZZ=          -7259.4435
 XXYZ=           -542.7431 YYXZ=           2298.8383 ZZXY=           -259.8183
 N-N= 1.966648231740D+04 E-N=-5.180778525094D+04  KE= 5.290787508516D+03
 Leave Link  601 at Wed Sep 18 00:07:57 2019, MaxMem=  1342177280 cpu:              42.3 elap:               1.1
 FitSet:  NAtFit=   176 NAtPot=   176 NAtFrz=     0 MDM=   180 TotChg=   0.00000
 Merz-Kollman atomic radii used.
 Read replacement radii for each type of atom:
 Rad(20) =   1.700000000000D+00
 Atom Element Radius
    1     6    1.50
    2     6    1.50
    3     8    1.40
    4     1    1.20
    5     1    1.20
    6     1    1.20
    7     7    1.50
    8     6    1.50
    9     6    1.50
   10     8    1.40
   11     6    1.50
   12     6    1.50
   13     8    1.40
   14     8    1.40
   15     1    1.20
   16     1    1.20
   17     1    1.20
   18     1    1.20
   19     7    1.50
   20     6    1.50
   21     6    1.50
   22     8    1.40
   23     6    1.50
   24     6    1.50
   25     6    1.50
   26     6    1.50
   27     7    1.50
   28     1    1.20
   29     1    1.20
   30     1    1.20
   31     1    1.20
   32     1    1.20
   33     1    1.20
   34     1    1.20
   35     1    1.20
   36     1    1.20
   37     1    1.20
   38     1    1.20
   39     1    1.20
   40     1    1.20
   41     7    1.50
   42     6    1.50
   43     6    1.50
   44     8    1.40
   45     6    1.50
   46     6    1.50
   47     8    1.40
   48     8    1.40
[...]
 **** Fit       0.000575
 **** Fit       0.000532
 **** Fit       0.000275
 **** Fit      -0.000126
 **** Fit      -0.000216
 **** Fit      -0.000045
 **** Fit       0.000343
 **** Fit       0.000631
 **** Fit       0.000757
 **** Fit       0.000682
 **** Fit       0.000402
 **** Fit      -0.000043
 **** Fit      -0.000786
 **** Fit      -0.000451
 **** Fit      -0.000338
 **** Fit       0.000141
 **** Fit       0.000544
 **** Fit       0.000811
 **** Fit       0.000898
 **** Fit       0.000778
 **** Fit       0.000450
 **** Fit      -0.000055
 **** Fit      -0.001242
 **** Fit      -0.000825
 **** Fit      -0.000778
 **** Fit      -0.000215
 **** Fit       0.000293
 **** Fit       0.000694
 **** Fit       0.000945
 **** Fit       0.001012
 **** Fit       0.000874
 **** Fit       0.000528
 **** Fit      -0.000007
 **** Fit      -0.000677
 **** Fit      -0.002179
 **** Fit      -0.001827
 **** Fit      -0.001336
 **** Fit      -0.001373
 **** Fit      -0.000693
 **** Fit      -0.000054
 **** Fit       0.000491
 **** Fit       0.000893
 **** Fit       0.001115
 **** Fit       0.001127
 **** Fit       0.000912
 **** Fit       0.000467
 **** Fit      -0.000187
 **** Fit      -0.003043
 **** Fit      -0.002613
 **** Fit      -0.002034
 **** Fit      -0.002122
 **** Fit      -0.001319
 **** Fit      -0.000538
 **** Fit       0.000167
 **** Fit       0.000745
 **** Fit       0.001157
 **** Fit       0.001367
 **** Fit       0.001351
 **** Fit       0.001089
 **** Fit       0.000578
 **** Fit      -0.000167
 **** Fit      -0.004065
 **** Fit      -0.003557
 **** Fit      -0.002889
 **** Fit      -0.003011
 **** Fit      -0.002046
 **** Fit      -0.001083
 **** Fit      -0.000180
 **** Fit       0.000610
 **** Fit       0.001242
 **** Fit       0.001679
 **** Fit       0.001889
 **** Fit       0.001847
 **** Fit       0.001529
 **** Fit       0.000926
 **** Fit      -0.005285
 **** Fit      -0.004692
 **** Fit      -0.003914
 **** Fit      -0.003995
 **** Fit      -0.002774
 **** Fit      -0.001531
 **** Fit      -0.000337
 **** Fit       0.000745
 **** Fit       0.001663
 **** Fit       0.002375
 **** Fit       0.002845
 **** Fit       0.003037
 **** Fit       0.002913
 **** Fit      -0.006055
 **** Fit      -0.005114
 **** Fit      -0.004979
 **** Fit      -0.003384
 **** Fit      -0.001733
 **** Fit      -0.000116
 **** Fit       0.001392
 **** Fit       0.002735
 **** Fit       0.003872
 **** Fit       0.004763
 **** Fit       0.005364
 **** Fit      -0.007587
 **** Fit      -0.006412
 **** Fit      -0.005769
 **** Fit      -0.003676
 **** Fit      -0.001477
 **** Fit       0.000722
 **** Fit       0.002845
 **** Fit       0.004850
 **** Fit       0.006719
 **** Fit      -0.007628
 **** Fit      -0.003038
 **** Fit       0.000117
 **** Fit       0.003347
 **** Fit      -0.003737
 **** Fit      -0.002975
 **** Fit      -0.003944
 **** Fit      -0.004779
 **** Fit      -0.004732
 **** Fit      -0.002379
 **** Fit      -0.003309
 **** Fit      -0.004302
 **** Fit      -0.005217
 **** Fit      -0.005934
 **** Fit      -0.006290
 **** Fit      -0.006035
 **** Fit      -0.002865
 **** Fit      -0.003875
 **** Fit      -0.004861
 **** Fit      -0.005780
 **** Fit      -0.006598
 **** Fit      -0.007293
 **** Fit      -0.007816
 **** Fit      -0.008036
 **** Fit      -0.007747
 **** Fit      -0.002748
 **** Fit      -0.003871
 **** Fit      -0.004970
 **** Fit      -0.006016
 **** Fit      -0.006974
 **** Fit      -0.007829
 **** Fit      -0.008592
 **** Fit      -0.009279
 **** Fit      -0.009864
 **** Fit      -0.010231
 **** Fit      -0.010168
 **** Fit      -0.002967
 **** Fit      -0.004277
 **** Fit      -0.005561
 **** Fit      -0.006792
 **** Fit      -0.007929
 **** Fit      -0.008936
 **** Fit      -0.009813
 **** Fit      -0.010601
 **** Fit      -0.011357
 **** Fit      -0.012105
 **** Fit      -0.012778
 **** Fit      -0.013184
 **** Fit      -0.013034
 **** Fit      -0.003265
 **** Fit      -0.004796
 **** Fit      -0.006312
 **** Fit      -0.007784
 **** Fit      -0.009160
 **** Fit      -0.010385
 **** Fit      -0.011428
 **** Fit      -0.012307
 **** Fit      -0.013093
 **** Fit      -0.013887
 **** Fit      -0.014766
 **** Fit      -0.015723
 **** Fit      -0.016619
 **** Fit      -0.017172
 **** Fit      -0.004449
 **** Fit      -0.006359
 **** Fit      -0.008259
 **** Fit      -0.010092
 **** Fit      -0.011772
 **** Fit      -0.013220
 **** Fit      -0.014391
 **** Fit      -0.015318
 **** Fit      -0.016119
 **** Fit      -0.016966
 **** Fit      -0.018018
 **** Fit      -0.019342
 **** Fit      -0.020842
 **** Fit      -0.022207
 **** Fit      -0.005989
 **** Fit      -0.008382
 **** Fit      -0.010759
 **** Fit      -0.013024
 **** Fit      -0.015058
 **** Fit      -0.016746
 **** Fit      -0.018033
 **** Fit      -0.018971
 **** Fit      -0.019738
 **** Fit      -0.020595
 **** Fit      -0.021810
 **** Fit      -0.023564
 **** Fit      -0.025860
 **** Fit      -0.028426
 **** Fit      -0.008725
 **** Fit      -0.011790
 **** Fit      -0.014767
 **** Fit      -0.017500
 **** Fit      -0.019812
 **** Fit      -0.021566
 **** Fit      -0.022749
 **** Fit      -0.023530
 **** Fit      -0.024252
 **** Fit      -0.025344
 **** Fit      -0.027214
 **** Fit      -0.030143
 **** Fit      -0.010643
 **** Fit      -0.014705
 **** Fit      -0.018580
 **** Fit      -0.022019
 **** Fit      -0.024749
 **** Fit      -0.026588
 **** Fit      -0.027617
 **** Fit      -0.028244
 **** Fit      -0.029128
 **** Fit      -0.031004
 **** Fit      -0.019573
 **** Fit      -0.024296
 **** Fit      -0.028061
 **** Fit      -0.030512
 **** Fit      -0.003602
 **** Fit      -0.006145
 **** Fit      -0.005109
 **** Fit      -0.003959
 **** Fit      -0.002933
 **** Fit      -0.008765
 **** Fit      -0.007977
 **** Fit      -0.006757
 **** Fit      -0.005476
 **** Fit      -0.004359
 **** Fit      -0.003444
 **** Fit      -0.002632
 **** Fit      -0.011700
 **** Fit      -0.010709
 **** Fit      -0.009240
 **** Fit      -0.007650
 **** Fit      -0.006202
 **** Fit      -0.005024
 **** Fit      -0.004112
 **** Fit      -0.003372
 **** Fit      -0.002657
 **** Fit      -0.015843
 **** Fit      -0.014871
 **** Fit      -0.013173
 **** Fit      -0.011151
 **** Fit      -0.009155
 **** Fit      -0.007420
 **** Fit      -0.006045
 **** Fit      -0.005022
 **** Fit      -0.004261
 **** Fit      -0.003626
 **** Fit      -0.002954
 **** Fit      -0.021371
 **** Fit      -0.020515
 **** Fit      -0.018630
 **** Fit      -0.016148
 **** Fit      -0.013506
 **** Fit      -0.011044
 **** Fit      -0.008964
 **** Fit      -0.007339
 **** Fit      -0.006149
 **** Fit      -0.005305
 **** Fit      -0.004680
 **** Fit      -0.004126
 **** Fit      -0.003481
 **** Fit      -0.025553
 **** Fit      -0.022182
 **** Fit      -0.018517
 **** Fit      -0.015052
 **** Fit      -0.012087
 **** Fit      -0.009748
 **** Fit      -0.008027
 **** Fit      -0.006835
 **** Fit      -0.006033
 **** Fit      -0.005457
 **** Fit      -0.004937
 **** Fit      -0.004288
 **** Fit      -0.020916
 **** Fit      -0.016649
 **** Fit      -0.013240
 **** Fit      -0.010697
 **** Fit      -0.008919
 **** Fit      -0.007746
 **** Fit      -0.006993
 **** Fit      -0.006468
 **** Fit      -0.005979
 **** Fit      -0.019498
 **** Fit      -0.015301
 **** Fit      -0.012300
 **** Fit      -0.010288
 **** Fit      -0.009023
 **** Fit      -0.008256
 **** Fit      -0.007752
 **** Fit      -0.007287
 **** Fit      -0.015403
 **** Fit      -0.012557
 **** Fit      -0.010844
 **** Fit      -0.009883
 **** Fit      -0.009330
 **** Fit      -0.008881
 **** Fit      -0.015995
 **** Fit      -0.013285
 **** Fit      -0.011853
 **** Fit      -0.011148
 **** Fit      -0.010709
 **** Fit      -0.016401
 **** Fit      -0.014136
 **** Fit      -0.013128
 **** Fit       0.006046
 **** Fit       0.003890
 **** Fit       0.007437
 **** Fit       0.007037
 **** Fit       0.005946
 **** Fit       0.004132
 **** Fit       0.001549
 **** Fit      -0.001848
 **** Fit      -0.006074
 **** Fit       0.005686
 **** Fit       0.006482
 **** Fit       0.006531
 **** Fit       0.005834
 **** Fit       0.004374
 **** Fit       0.002113
 **** Fit      -0.001008
 **** Fit      -0.005048
 **** Fit      -0.010039
 **** Fit      -0.015908
 **** Fit       0.002873
 **** Fit       0.004772
 **** Fit       0.005851
 **** Fit       0.006127
 **** Fit       0.005611
 **** Fit       0.004295
 **** Fit       0.002145
 **** Fit      -0.000903
 **** Fit      -0.004929
 **** Fit      -0.010012
 **** Fit      -0.016167
 **** Fit      -0.023221
 **** Fit       0.002699
 **** Fit       0.004732
 **** Fit       0.005810
 **** Fit       0.005977
 **** Fit       0.005261
 **** Fit       0.003658
 **** Fit       0.001124
 **** Fit      -0.002424
 **** Fit      -0.007090
 **** Fit      -0.012971
 **** Fit      -0.020061
 **** Fit       0.006430
 **** Fit       0.006120
 **** Fit       0.004859
 **** Fit       0.002628
 **** Fit      -0.000639
 **** Fit      -0.005044
 **** Fit       0.006607
 **** Fit       0.004567
 **** Fit       0.001592
 **** Fit      -0.002396
 **** Fit       0.032316
 **** Fit       0.039260
 **** Fit       0.042992
 **** Fit       0.041432
 **** Fit       0.034242
 **** Fit       0.041535
 **** Fit       0.047639
 **** Fit       0.051481
 **** Fit       0.052199
 **** Fit       0.048992
 **** Fit       0.034004
 **** Fit       0.041676
 **** Fit       0.048698
 **** Fit       0.054455
 **** Fit       0.058533
 **** Fit       0.060508
 **** Fit       0.059939
 **** Fit       0.056417
 **** Fit       0.032282
 **** Fit       0.040685
 **** Fit       0.048419
 **** Fit       0.055164
 **** Fit       0.060763
 **** Fit       0.064995
 **** Fit       0.067550
 **** Fit       0.068090
 **** Fit       0.066329
 **** Fit       0.062086
 **** Fit       0.029891
 **** Fit       0.038834
 **** Fit       0.046950
 **** Fit       0.054194
 **** Fit       0.060622
 **** Fit       0.066162
 **** Fit       0.070611
 **** Fit       0.073686
 **** Fit       0.075088
 **** Fit       0.074570
 **** Fit       0.072013
 **** Fit       0.067453
 **** Fit       0.061042
 **** Fit       0.020739
 **** Fit       0.027566
 **** Fit       0.045190
 **** Fit       0.052668
 **** Fit       0.059591
 **** Fit       0.065967
 **** Fit       0.071620
 **** Fit       0.076294
 **** Fit       0.079692
 **** Fit       0.081511
 **** Fit       0.081510
 **** Fit       0.079587
 **** Fit       0.075846
 **** Fit       0.070608
 **** Fit       0.057328
 **** Fit       0.064240
 **** Fit       0.070766
 **** Fit       0.076647
 **** Fit       0.081617
 **** Fit       0.085376
 **** Fit       0.087614
 **** Fit       0.088079
 **** Fit       0.086656
 **** Fit       0.083453
 **** Fit       0.078849
 **** Fit       0.061298
 **** Fit       0.068471
 **** Fit       0.075251
 **** Fit       0.081414
 **** Fit       0.086719
 **** Fit       0.090870
 **** Fit       0.093548
 **** Fit       0.094472
 **** Fit       0.093496
 **** Fit       0.090702
 **** Fit       0.086459
 **** Fit       0.067049
 **** Fit       0.074681
 **** Fit       0.081805
 **** Fit       0.088241
 **** Fit       0.093716
 **** Fit       0.097872
 **** Fit       0.100329
 **** Fit       0.100775
 **** Fit       0.099102
 **** Fit       0.095553
 **** Fit       0.090751
 **** Fit       0.073469
 **** Fit       0.081299
 **** Fit       0.088632
 **** Fit       0.095258
 **** Fit       0.100839
 **** Fit       0.104949
 **** Fit       0.107128
 **** Fit       0.100158
 **** Fit       0.073197
 **** Fit       0.081414
 **** Fit       0.089341
 **** Fit       0.096803
 **** Fit       0.103485
 **** Fit       0.073091
 **** Fit       0.081126
 **** Fit       0.089171
 **** Fit       0.097061
 **** Fit       0.104520
 **** Fit       0.075187
 **** Fit       0.082785
 **** Fit       0.090737
 **** Fit       0.098775
 **** Fit       0.076633
 **** Fit       0.083320
 **** Fit       0.090687
 **** Fit       0.077365
 **** Fit       0.082998
 **** Fit       0.089460
 **** Fit       0.075418
 **** Fit       0.079592
 **** Fit       0.084478
 **** Fit       0.070477
 **** Fit       0.002441
 **** Fit      -0.000087
 **** Fit      -0.001774
 **** Fit       0.002112
 **** Fit       0.002615
 **** Fit       0.002348
 **** Fit       0.001721
 **** Fit       0.001706
 **** Fit       0.003157
 **** Fit      -0.005509
 **** Fit      -0.000885
 **** Fit       0.001672
 **** Fit       0.002929
 **** Fit       0.003957
 **** Fit       0.005769
 **** Fit       0.009058
 **** Fit      -0.002395
 **** Fit       0.001185
 **** Fit       0.003797
 **** Fit       0.006319
 **** Fit       0.009782
 **** Fit      -0.001199
 **** Fit       0.001705
 **** Fit       0.005179
 **** Fit       0.009099
 **** Fit       0.013209
 **** Fit       0.006817
 **** Fit       0.004261
 **** Fit       0.007230
 **** Fit       0.009955
 **** Fit       0.070517
 **** Fit       0.062499
 **** Fit       0.070588
 **** Fit       0.052054
 **** Fit       0.059021
 **** Fit       0.063438
 **** Fit       0.037800
 **** Fit       0.044911
 **** Fit       0.050964
 **** Fit       0.054519
 **** Fit       0.053817
 **** Fit       0.008828
 **** Fit       0.012257
 **** Fit       0.015356
 **** Fit       0.018544
 **** Fit       0.022399
 **** Fit       0.027233
 **** Fit       0.032898
 **** Fit       0.038800
 **** Fit       0.043969
 **** Fit       0.047122
 **** Fit       0.046748
 **** Fit       0.002313
 **** Fit       0.005226
 **** Fit       0.012131
 **** Fit       0.015323
 **** Fit       0.018508
 **** Fit       0.021998
 **** Fit       0.026147
 **** Fit       0.030936
 **** Fit       0.035804
 **** Fit       0.039713
 **** Fit       0.041295
 **** Fit       0.039145
 **** Fit       0.006845
 **** Fit       0.009093
 **** Fit       0.014972
 **** Fit       0.018009
 **** Fit       0.021265
 **** Fit       0.024881
 **** Fit       0.028860
 **** Fit       0.032720
 **** Fit       0.035443
 **** Fit       0.035741
 **** Fit       0.032608
 **** Fit       0.010287
 **** Fit       0.012278
 **** Fit       0.017175
 **** Fit       0.020263
 **** Fit       0.023631
 **** Fit       0.027104
 **** Fit       0.030068
 **** Fit       0.031358
 **** Fit       0.029810
 **** Fit       0.025307
 **** Fit       0.012449
 **** Fit       0.014522
 **** Fit       0.018664
 **** Fit       0.022014
 **** Fit       0.025235
 **** Fit       0.027110
 **** Fit       0.026040
 **** Fit       0.021826
 **** Fit       0.016390
 **** Fit       0.013353
 **** Fit       0.015748
 **** Fit       0.019385
 **** Fit       0.022620
 **** Fit       0.022555
 **** Fit       0.018305
 **** Fit       0.015194
 **** Fit       0.016216
 **** Fit       0.019285
 **** Fit      -0.003128
 **** Fit       0.001760
 **** Fit      -0.002638
 **** Fit      -0.007115
 **** Fit      -0.009784
 **** Fit      -0.008739
 -----------------------------------------------------------------
 Leave Link  602 at Wed Sep 18 00:07:59 2019, MaxMem=  1342177280 cpu:             122.2 elap:               2.6

 Test job not archived.
 1\1\GINC-C497-022\SP\RB3LYP\SVP\C54H83Ca1N15O23\PENGZHI\18-Sep-2019\0\
 \#b3lyp/svp scf=(tight,noincore) Test #IOP(5/87=12) Density=Current Po
 p=(MK,readradii) iop(6/33=2) iop(6/42=6)\\Ng-295_loop3_12.0\\0,1\C,0,1
 8.469,75.75,33.66\C,0,19.039,74.39,34.02\O,0,19.629,74.23,35.09\H,0,17
 .526,75.899,34.187\H,0,19.174,76.529,33.951\H,0,18.295,75.799,32.585\N
 ,0,18.859,73.33,33.23\C,0,19.439,72.04,33.54\C,0,20.929,71.99,33.28\O,
 0,21.449,72.18,32.18\C,0,18.789,70.87,32.81\C,0,19.159,69.49,33.35\O,0
 ,20.279,69.2,33.83\O,0,18.229,68.76,33.76\H,0,18.239,73.4,32.43\H,0,19
 .229,71.94,34.6\H,0,19.059,70.79,31.75\H,0,17.709,70.97,32.91\N,0,21.6
 69,71.8,34.37\C,0,23.109,71.91,34.42\C,0,23.959,70.82,33.77\O,0,25.019
 ,71.08,33.21\C,0,23.689,72.18,35.8\C,0,23.199,71.18,36.84\C,0,23.219,7
 1.78,38.24\C,0,22.379,70.92,39.18\N,0,22.179,71.65,40.43\H,0,21.179,71
 .78,35.26\H,0,23.389,72.76,33.81\H,0,23.409,73.2,36.07\H,0,24.779,72.0
 8,35.81\H,0,23.919,70.36,36.79\H,0,22.169,70.88,36.62\H,0,22.779,72.77
 ,38.14\H,0,24.269,71.83,38.53\H,0,22.869,69.95,39.22\H,0,21.439,70.7,3
 8.66\H,0,21.539,71.21,41.08\H,0,23.009,71.74,41.\H,0,21.839,72.58,40.2
 5\N,0,23.419,69.6,33.93\C,0,23.939,68.37,33.39\C,0,23.179,67.91,32.15\
 O,0,23.659,67.09,31.38\C,0,23.859,67.26,34.44\C,0,22.439,67.3,34.98\O,
 0,21.619,66.49,34.48\O,0,22.189,68.08,35.93\H,0,22.529,69.53,34.4\H,0,
 24.979,68.52,33.1\H,0,24.639,67.49,35.15\H,0,23.979,66.29,33.95\N,0,21
 .929,68.34,31.93\C,0,21.179,68.05,30.73\C,0,20.139,66.95,30.82\O,0,19.
 219,66.82,30.02\H,0,21.559,69.02,32.58\H,0,21.949,67.73,30.02\H,0,20.7
 19,68.99,30.43\N,0,20.299,66.16,31.89\C,0,19.489,64.98,32.13\C,0,18.29
 9,65.21,33.06\O,0,18.519,65.76,34.13\C,0,20.419,63.83,32.5\C,0,19.669,
 62.53,32.23\N,0,20.349,61.38,32.26\O,0,18.459,62.45,32.02\H,0,20.939,6
 6.51,32.58\H,0,19.099,64.74,31.14\H,0,20.629,63.84,33.57\H,0,21.329,63
 .86,31.89\H,0,21.289,61.37,32.63\H,0,19.889,60.52,32.01\N,0,17.099,64.
 83,32.62\C,0,15.979,64.98,33.53\C,0,15.819,63.87,34.55\O,0,15.219,64.0
 1,35.61\H,0,17.039,64.74,31.61\H,0,15.069,65.12,32.94\H,0,16.089,65.96
 ,33.99\N,0,16.439,62.71,34.3\C,0,16.359,61.55,35.16\C,0,16.969,61.88,3
 6.51\O,0,18.059,62.45,36.5\C,0,17.169,60.42,34.52\C,0,17.329,59.11,35.
 24\C,0,18.389,58.82,36.11\C,0,16.209,58.26,35.26\C,0,18.309,57.66,36.9
 \C,0,16.089,57.12,36.05\C,0,17.189,56.82,36.88\O,0,17.129,55.63,37.55\
 H,0,17.029,62.62,33.49\H,0,15.329,61.25,35.31\H,0,18.209,60.73,34.35\H
 ,0,16.679,60.22,33.57\H,0,19.249,59.46,35.99\H,0,15.319,58.49,34.7\H,0
 ,19.209,57.3,37.39\H,0,15.219,56.48,36.04\H,0,16.249,55.29,37.36\N,0,1
 6.279,61.41,37.55\C,0,16.679,61.27,38.94\C,0,17.939,60.48,39.25\O,0,18
 .919,60.53,38.51\C,0,16.609,62.63,39.63\C,0,17.959,63.29,39.9\C,0,15.8
 79,62.38,40.95\C,0,17.919,64.81,39.97\H,0,15.459,60.86,37.32\H,0,15.86
 9,60.66,39.34\H,0,15.979,63.27,39.01\H,0,18.619,63.1,39.06\H,0,18.489,
 62.89,40.77\H,0,15.009,61.72,40.94\H,0,16.429,61.78,41.67\H,0,15.629,6
 3.33,41.44\H,0,18.899,65.27,40.03\H,0,17.359,65.18,39.11\H,0,17.369,65
 .13,40.86\N,0,17.939,59.82,40.41\C,0,19.029,59.04,40.95\C,0,18.719,57.
 77,41.72\O,0,19.639,57.06,42.13\C,0,19.879,60.,41.78\O,0,19.119,60.62,
 42.79\H,0,17.069,59.96,40.91\H,0,19.629,58.72,40.1\H,0,20.229,60.78,41
 .1\H,0,20.759,59.51,42.2\H,0,19.789,61.12,43.27\N,0,17.439,57.44,41.9\
 C,0,16.849,56.28,42.54\C,0,17.329,56.02,43.96\O,0,17.429,54.83,44.25\C
 ,0,17.109,55.16,41.54\H,0,16.739,58.15,41.74\H,0,15.799,56.55,42.72\H,
 0,16.939,55.55,40.53\H,0,18.109,54.81,41.79\H,0,16.459,54.31,41.7\N,0,
 17.609,56.87,44.95\C,0,17.759,58.31,44.96\C,0,16.959,59.01,46.06\O,0,1
 6.769,58.42,47.12\C,0,19.249,58.56,45.18\H,0,17.709,56.44,45.85\H,0,17
 .349,58.77,44.06\H,0,19.679,58.06,46.04\H,0,19.809,58.11,44.36\H,0,19.
 399,59.64,45.25\N,0,16.499,60.26,45.95\C,0,16.389,61.18,44.84\C,0,14.9
 19,61.55,44.71\O,0,14.379,61.45,43.61\C,0,17.239,62.41,45.12\C,0,17.03
 9,63.52,44.09\C,0,17.949,64.72,44.33\O,0,19.159,64.56,44.08\O,0,17.479
 ,65.78,44.8\H,0,16.169,60.63,46.83\H,0,16.819,60.78,43.92\H,0,18.289,6
 2.13,45.19\H,0,17.109,62.73,46.16\H,0,16.009,63.85,44.17\H,0,17.259,63
 .1,43.11\N,0,14.129,61.88,45.74\C,0,12.689,62.04,45.65\H,0,12.24,61.83
 5,46.622\H,0,12.454,63.061,45.35\H,0,12.291,61.344,44.912\H,0,14.639,6
 2.1,46.58\Ca,0,19.61,67.62,35.67\O,0,20.1,65.17,36.71\H,0,20.5,65.14,3
 7.58\H,0,19.61,64.36,36.64\\Version=ES64L-G16RevA.03\State=1-A\HF=-533
 3.404689\RMSD=3.549e-10\Dipole=0.6943912,9.3475244,-1.9216\Quadrupole=
 33.3192268,96.2010521,-129.5202789,35.3100845,71.7664735,130.7431563\P
 G=C01 [X(C54H83Ca1N15O23)]\\@


 SCIENCE IS LONG AND LIFE IS SHORT.

                     DON MOSER IN THE FEBRUARY 1979 SMITHSONIAN
 Job cpu time:       0 days 22 hours 46 minutes 20.6 seconds.
 Elapsed time:       0 days  0 hours 28 minutes 49.6 seconds.
 File lengths (MBytes):  RWF=   1517 Int=      0 D2E=      0 Chk=    171 Scr=      1
 Normal termination of Gaussian 16 at Wed Sep 18 00:08:01 2019.
