 Entering Gaussian System, Link 0=g16
 Initial command:
 /home1/apps/gaussian/16rA.03/g16/l1.exe "/scratch/01990/pengzhi/4350482/Gau-3468.inp" -scrdir="/scratch/01990/pengzhi/4350482/"
 Entering Link 1 = /home1/apps/gaussian/16rA.03/g16/l1.exe PID=      3469.
  
 Copyright (c) 1988,1990,1992,1993,1995,1998,2003,2009,2016,
            Gaussian, Inc.  All Rights Reserved.
  
 This is part of the Gaussian(R) 16 program.  It is based on
 the Gaussian(R) 09 system (copyright 2009, Gaussian, Inc.),
 the Gaussian(R) 03 system (copyright 2003, Gaussian, Inc.),
 the Gaussian(R) 98 system (copyright 1998, Gaussian, Inc.),
 the Gaussian(R) 94 system (copyright 1995, Gaussian, Inc.),
 the Gaussian 92(TM) system (copyright 1992, Gaussian, Inc.),
 the Gaussian 90(TM) system (copyright 1990, Gaussian, Inc.),
 the Gaussian 88(TM) system (copyright 1988, Gaussian, Inc.),
 the Gaussian 86(TM) system (copyright 1986, Carnegie Mellon
 University), and the Gaussian 82(TM) system (copyright 1983,
 Carnegie Mellon University). Gaussian is a federally registered
 trademark of Gaussian, Inc.
  
 This software contains proprietary and confidential information,
 including trade secrets, belonging to Gaussian, Inc.
  
 This software is provided under written license and may be
 used, copied, transmitted, or stored only in accord with that
 written license.
  
 The following legend is applicable only to US Government
 contracts under FAR:
  
                    RESTRICTED RIGHTS LEGEND
  
 Use, reproduction and disclosure by the US Government is
 subject to restrictions as set forth in subparagraphs (a)
 and (c) of the Commercial Computer Software - Restricted
 Rights clause in FAR 52.227-19.
  
 Gaussian, Inc.
 340 Quinnipiac St., Bldg. 40, Wallingford CT 06492
  
  
 ---------------------------------------------------------------
 Warning -- This program may not be used in any manner that
 competes with the business of Gaussian, Inc. or will provide
 assistance to any competitor of Gaussian, Inc.  The licensee
 of this program is prohibited from giving any competitor of
 Gaussian, Inc. access to this program.  By using this program,
 the user acknowledges that Gaussian, Inc. is engaged in the
 business of creating and licensing software in the field of
 computational chemistry and represents and warrants to the
 licensee that it is not a competitor of Gaussian, Inc. and that
 it will not use this program in any manner prohibited above.
 ---------------------------------------------------------------
  

 Cite this work as:
 Gaussian 16, Revision A.03,
 M. J. Frisch, G. W. Trucks, H. B. Schlegel, G. E. Scuseria, 
 M. A. Robb, J. R. Cheeseman, G. Scalmani, V. Barone, 
 G. A. Petersson, H. Nakatsuji, X. Li, M. Caricato, A. V. Marenich, 
 J. Bloino, B. G. Janesko, R. Gomperts, B. Mennucci, H. P. Hratchian, 
 J. V. Ortiz, A. F. Izmaylov, J. L. Sonnenberg, D. Williams-Young, 
 F. Ding, F. Lipparini, F. Egidi, J. Goings, B. Peng, A. Petrone, 
 T. Henderson, D. Ranasinghe, V. G. Zakrzewski, J. Gao, N. Rega, 
 G. Zheng, W. Liang, M. Hada, M. Ehara, K. Toyota, R. Fukuda, 
 J. Hasegawa, M. Ishida, T. Nakajima, Y. Honda, O. Kitao, H. Nakai, 
 T. Vreven, K. Throssell, J. A. Montgomery, Jr., J. E. Peralta, 
 F. Ogliaro, M. J. Bearpark, J. J. Heyd, E. N. Brothers, K. N. Kudin, 
 V. N. Staroverov, T. A. Keith, R. Kobayashi, J. Normand, 
 K. Raghavachari, A. P. Rendell, J. C. Burant, S. S. Iyengar, 
 J. Tomasi, M. Cossi, J. M. Millam, M. Klene, C. Adamo, R. Cammi, 
 J. W. Ochterski, R. L. Martin, K. Morokuma, O. Farkas, 
 J. B. Foresman, and D. J. Fox, Gaussian, Inc., Wallingford CT, 2016.
 
 ******************************************
 Gaussian 16:  ES64L-G16RevA.03 25-Dec-2016
                17-Sep-2019 
 ******************************************
 %chk=Ng-295_loop3_21.0.chk
 %nprocshared=48
 Will use up to   48 processors via shared memory.
 %mem=10GB
 %nosave
 ----------------------------------------------------------------------
 #b3lyp/svp scf=(tight,noincore) Test #IOP(5/87=12) Density=Current Pop
 =(MK,readradii) iop(6/33=2) iop(6/42=6)
 ----------------------------------------------------------------------
 1/30=1,38=1,172=1/1;
 2/12=2,17=6,18=5,40=1/2;
 3/5=18,7=101,11=2,25=1,30=1,74=-5/1,2,3;
 4//1;
 5/5=4,32=2,38=5,87=12/2;
 6/7=2,8=2,9=2,10=2,15=8,20=101,22=-1,28=1,33=2,42=6/1,2;
 99/5=1,9=1/99;
 -----------------
 Ng-295_loop3_21.0
 -----------------
 Symbolic Z-matrix:
 Charge =  0 Multiplicity = 1
 C                     85.78     35.06     45.56 
 C                     85.83     34.25     46.85 
 O                     86.23     34.79     47.88 
 H                     85.642    36.115    45.799 
 H                     86.714    34.931    45.013 
 H                     84.948    34.715    44.946 
 N                     85.42     32.99     46.96 
 C                     85.58     32.17     48.15 
 C                     86.24     30.82     47.94 
 O                     85.95     30.21     46.92 
 C                     84.17     31.94     48.7 
 C                     84.16     31.21     50.04 
 O                     84.32     31.89     51.08 
 O                     84.16     29.96     50.08 
 H                     85.13     32.51     46.12 
 H                     86.17     32.66     48.92 
 H                     83.7      31.41     47.88 
 H                     83.65     32.89     48.73 
 N                     87.23     30.44     48.77 
 C                     88.05     29.26     48.66 
 C                     87.26     27.95     48.67 
 O                     87.71     27.       48.04 
 C                     89.21     29.4      49.64 
 C                     90.37     28.45     49.38 
 C                     91.49     28.69     50.38 
 C                     92.71     27.89     49.91 
 N                     93.9      28.07     50.75 
 H                     87.47     31.02     49.56 
 H                     88.56     29.32     47.7 
 H                     88.87     29.2      50.66 
 H                     89.66     30.39     49.66 
 H                     90.75     28.63     48.38 
 H                     90.07     27.4      49.32 
 H                     91.06     28.55     51.37 
 H                     91.69     29.76     50.4 
 H                     92.94     28.05     48.86 
 H                     92.46     26.85     50.12 
 H                     93.82     27.7      51.69 
 H                     94.66     27.58     50.3 
 H                     94.27     29.01     50.74 
 N                     86.11     27.78     49.32 
 C                     85.13     26.73     49.16 
 C                     83.89     27.08     48.35 
 O                     82.98     26.26     48.16 
 C                     84.64     26.13     50.47 
 C                     84.22     27.2      51.47 
 O                     83.03     27.6      51.56 
 O                     85.08     27.77     52.17 
 H                     85.85     28.54     49.94 
 H                     85.69     25.9      48.73 
 H                     85.43     25.45     50.81 
 H                     83.88     25.36     50.37 
 N                     83.89     28.27     47.75 
 C                     82.77     28.68     46.93 
 C                     81.48     28.97     47.68 
 O                     80.46     29.15     47.02 
 H                     84.66     28.88     47.99 
 H                     82.56     28.02     46.09 
 H                     83.       29.6      46.39 
 N                     81.46     28.93     49.02 
 C                     80.33     29.4      49.78 
 C                     80.79     30.65     50.53 
 O                     81.66     30.51     51.39 
 C                     79.77     28.27     50.63 
 C                     78.45     28.58     51.31 
 N                     77.64     27.61     51.72 
 O                     78.21     29.77     51.53 
 H                     82.34     28.84     49.51 
 H                     79.55     29.69     49.08 
 H                     80.49     27.87     51.36 
 H                     79.61     27.44     49.94 
 H                     78.       26.68     51.55 
 H                     76.84     27.77     52.32 
 N                     80.02     31.74     50.5 
 C                     80.48     33.03     50.97 
 C                     80.32     33.25     52.47 
 O                     80.39     34.42     52.84 
 H                     79.16     31.63     49.99 
 H                     80.11     33.81     50.3 
 H                     81.54     33.06     50.72 
 N                     80.21     32.22     53.31 
 C                     80.57     32.29     54.71 
 C                     82.06     32.28     55.03 
 O                     82.81     31.43     54.54 
 C                     79.86     31.13     55.39 
 C                     78.35     31.23     55.47 
 C                     77.6      30.38     54.65 
 C                     77.75     32.1      56.39 
 C                     76.2      30.47     54.64 
 C                     76.35     32.12     56.38 
 C                     75.55     31.43     55.44 
 O                     74.2      31.6      55.47 
 H                     80.11     31.31     52.89 
 H                     80.13     33.21     55.09 
 H                     80.07     30.97     56.45 
 H                     80.17     30.15     55.02 
 H                     78.11     29.63     54.06 
 H                     78.4      32.68     57.02 
 H                     75.56     29.91     53.97 
 H                     75.82     32.81     57.03 
 H                     73.86     32.17     56.17 
 N                     82.43     33.26     55.85 
 C                     83.66     33.59     56.56 
 C                     84.23     32.44     57.37 
 O                     84.06     31.25     57.12 
 C                     84.73     34.35     55.8 
 C                     84.34     35.78     55.42 
 C                     85.29     33.6      54.59 
 C                     84.12     36.82     56.51 
 H                     81.63     33.79     56.16 
 H                     83.33     34.29     57.33 
 H                     85.49     34.51     56.56 
 H                     83.39     35.76     54.88 
 H                     85.11     36.24     54.82 
 H                     85.57     32.58     54.87 
 H                     84.54     33.43     53.82 
 H                     86.11     34.15     54.13 
 H                     83.2      36.76     57.09 
 H                     84.92     36.71     57.24 
 H                     84.23     37.83     56.12 
 N                     84.89     32.83     58.47 
 C                     85.5      31.99     59.48 
 C                     85.19     32.39     60.91 
 O                     85.6      31.69     61.84 
 C                     86.97     31.76     59.15 
 O                     87.76     32.93     59.23 
 H                     85.11     33.81     58.56 
 H                     85.03     31.01     59.33 
 H                     87.08     31.26     58.19 
 H                     87.33     31.       59.85 
 H                     88.67     32.77     58.96 
 N                     84.61     33.55     61.22 
 C                     84.46     34.16     62.53 
 C                     85.59     34.18     63.54 
 O                     85.68     33.25     64.34 
 C                     83.15     33.59     63.06 
 H                     84.18     34.08     60.47 
 H                     84.25     35.22     62.43 
 H                     82.33     33.84     62.38 
 H                     83.17     32.51     63.19 
 H                     82.91     33.98     64.05 
 N                     86.53     35.13     63.51 
 C                     86.73     36.19     62.54 
 C                     86.62     37.59     63.12 
 O                     86.69     37.75     64.34 
 C                     88.13     35.81     62.06 
 H                     87.26     34.98     64.19 
 H                     85.99     36.16     61.74 
 H                     88.76     35.82     62.94 
 H                     88.23     34.79     61.68 
 H                     88.61     36.46     61.33 
 N                     86.62     38.65     62.31 
 C                     86.32     38.7      60.89 
 C                     84.94     39.27     60.62 
 O                     84.17     38.78     59.8 
 C                     87.43     39.47     60.18 
 C                     86.88     39.94     58.84 
 C                     88.03     40.38     57.93 
 O                     88.8      39.56     57.39 
 O                     88.19     41.61     57.82 
 H                     86.92     39.51     62.73 
 H                     86.37     37.76     60.35 
 H                     88.19     38.7      60.02 
 H                     87.71     40.37     60.72 
 H                     86.17     40.76     58.97 
 H                     86.4      39.08     58.38 
 N                     84.65     40.35     61.37 
 C                     83.42     41.1      61.43 
 H                     82.643    40.487    61.887 
 H                     83.571    41.999    62.027 
 H                     83.115    41.38     60.422 
 H                     85.43     40.74     61.88 
 Ca                    83.8      29.95     52.73 
 O                     86.45     30.46     52.71 
 H                     87.01     29.72     52.97 
 H                     87.05     31.05     52.25 
 
 Stoichiometry    C54H83CaN15O23
 Framework group  C1[X(C54H83CaN15O23)]
 Deg. of freedom   522
 Full point group                 C1      NOp   1
 Largest Abelian subgroup         C1      NOp   1
 Largest concise Abelian subgroup C1      NOp   1
                         Standard orientation:                         
 ---------------------------------------------------------------------
 Center     Atomic      Atomic             Coordinates (Angstroms)
 Number     Number       Type             X           Y           Z
 ---------------------------------------------------------------------
      1          6           0        5.591543   -3.289077    6.538434
      2          6           0        4.934117   -3.054610    5.183622
      3          8           0        3.740241   -3.315368    5.045187
      4          1           0        4.842912   -3.196728    7.325970
      5          1           0        6.024285   -4.289205    6.564598
      6          1           0        6.376239   -2.548784    6.694844
      7          7           0        5.554784   -2.533091    4.129776
      8          6           0        4.975447   -2.422871    2.800746
      9          6           0        5.803463   -2.999587    1.667615
     10          8           0        7.014975   -2.839614    1.724618
     11          6           0        4.780091   -0.926162    2.545406
     12          6           0        4.044182   -0.630618    1.241684
     13          8           0        2.791877   -0.665061    1.253805
     14          8           0        4.676399   -0.524511    0.167839
     15          1           0        6.545826   -2.352857    4.203603
     16          1           0        4.007205   -2.910469    2.724220
     17          1           0        5.799372   -0.561752    2.595110
     18          1           0        4.302043   -0.485771    3.412197
     19          7           0        5.207318   -3.800767    0.764221
     20          6           0        5.844406   -4.531154   -0.302341
     21          6           0        6.614582   -3.649404   -1.287047
     22          8           0        7.603866   -4.123004   -1.833783
     23          6           0        4.827873   -5.515138   -0.871583
     24          6           0        5.433697   -6.623253   -1.720558
     25          6           0        4.351186   -7.572493   -2.209552
     26          6           0        5.047402   -8.787148   -2.833408
     27          7           0        4.124112   -9.827569   -3.301554
     28          1           0        4.210130   -3.948331    0.808270
     29          1           0        6.566811   -5.200012    0.162481
     30          1           0        4.112246   -4.991942   -1.512008
     31          1           0        4.237717   -6.032403   -0.118488
     32          1           0        6.139084   -7.180751   -1.113577
     33          1           0        6.074077   -6.255356   -2.527196
     34          1           0        3.638008   -6.970760   -2.769815
     35          1           0        3.743985   -7.850552   -1.349732
     36          1           0        5.820789   -9.204217   -2.193934
     37          1           0        5.450507   -8.423273   -3.778553
     38          1           0        3.539657   -9.559847   -4.084903
     39          1           0        4.685446  -10.611621   -3.602164
     40          1           0        3.593974  -10.267381   -2.562554
     41          7           0        6.276662   -2.395852   -1.584229
     42          6           0        7.070600   -1.377021   -2.232417
     43          6           0        7.691490   -0.324497   -1.325285
     44          8           0        8.380962    0.602205   -1.775233
     45          6           0        6.339740   -0.625426   -3.335661
     46          6           0        4.972621   -0.127949   -2.883110
     47          8           0        4.805649    1.024440   -2.405281
     48          8           0        3.992962   -0.899005   -2.898636
     49          1           0        5.377553   -2.095483   -1.222316
     50          1           0        7.816689   -1.934213   -2.798357
     51          1           0        6.335509   -1.289596   -4.207992
     52          1           0        6.911626    0.165261   -3.813427
     53          7           0        7.561704   -0.521006   -0.013554
     54          6           0        8.146764    0.407182    0.930412
     55          6           0        7.494127    1.778698    0.991333
     56          8           0        8.057050    2.654125    1.643363
     57          1           0        6.956403   -1.285012    0.255714
     58          1           0        9.225503    0.523137    0.839991
     59          1           0        8.086865    0.016404    1.947567
     60          7           0        6.391706    2.029245    0.270572
     61          6           0        5.618426    3.230999    0.452846
     62          6           0        4.275462    2.807314    1.047437
     63          8           0        3.538548    2.110034    0.349686
     64          6           0        5.563493    4.015285   -0.849029
     65          6           0        4.962080    5.402782   -0.730483
     66          7           0        5.217146    6.345143   -1.631592
     67          8           0        4.167934    5.581366    0.196631
     68          1           0        5.937984    1.255291   -0.196044
     69          1           0        6.131817    3.855151    1.180421
     70          1           0        5.089627    3.463905   -1.675305
     71          1           0        6.601651    4.121125   -1.167816
     72          1           0        5.818522    6.036530   -2.384258
     73          1           0        4.709661    7.220194   -1.680009
     74          7           0        3.798818    3.471947    2.102413
     75          6           0        2.669784    2.997500    2.874929
     76          6           0        1.308770    3.392096    2.312848
     77          8           0        0.367553    3.293264    3.097095
     78          1           0        4.373829    4.238747    2.407667
     79          1           0        2.855037    3.185099    3.935442
     80          1           0        2.755428    1.911450    2.862272
     81          7           0        1.162950    3.724726    1.029613
     82          6           0       -0.087334    3.603477    0.310871
     83          6           0       -0.503233    2.195107   -0.096709
     84          8           0        0.284485    1.442681   -0.678477
     85          6           0        0.031875    4.508593   -0.905129
     86          6           0        0.065829    5.997435   -0.624601
     87          6           0        1.284197    6.662296   -0.800491
     88          6           0       -1.109139    6.674011   -0.271054
     89          6           0        1.387839    8.028591   -0.499332
     90          6           0       -0.968211    8.045867   -0.028876
     91          6           0        0.270861    8.726736   -0.000279
     92          8           0        0.293172   10.044360    0.339821
     93          1           0        2.010750    3.823872    0.494911
     94          1           0       -0.851629    4.027152    0.959526
     95          1           0       -0.794913    4.495173   -1.618951
     96          1           0        0.833023    4.219076   -1.589045
     97          1           0        2.127208    6.120670   -1.208748
     98          1           0       -2.013838    6.096536   -0.209072
     99          1           0        2.314468    8.587857   -0.525432
    100          1           0       -1.827625    8.622102    0.301066
    101          1           0       -0.563761   10.451999    0.513017
    102          7           0       -1.751984    1.893171    0.248481
    103          6           0       -2.650046    0.779450   -0.032607
    104          6           0       -2.776288    0.448589   -1.508444
    105          8           0       -1.915007    0.667628   -2.355625
    106          6           0       -2.525800   -0.461090    0.830945
    107          6           0       -2.928366   -0.256203    2.292917
    108          6           0       -1.167023   -1.157194    0.734172
    109          6           0       -4.375571    0.062504    2.642380
    110          1           0       -2.212915    2.689543    0.661196
    111          1           0       -3.636056    1.178834    0.212498
    112          1           0       -3.327249   -1.091152    0.454778
    113          1           0       -2.366886    0.586750    2.703611
    114          1           0       -2.748061   -1.151045    2.868459
    115          1           0       -0.887583   -1.303602   -0.313529
    116          1           0       -0.352868   -0.537860    1.105491
    117          1           0       -1.157388   -2.084506    1.305574
    118          1           0       -4.736796    1.069504    2.437767
    119          1           0       -5.012089   -0.590495    2.047874
    120          1           0       -4.597155   -0.192063    3.676979
    121          7           0       -3.975666   -0.043740   -1.850213
    122          6           0       -4.439148   -0.404531   -3.174152
    123          6           0       -5.821891    0.111205   -3.524920
    124          8           0       -6.272281   -0.077855   -4.658236
    125          6           0       -4.189733   -1.886241   -3.429157
    126          8           0       -4.960948   -2.741574   -2.608771
    127          1           0       -4.595782   -0.322398   -1.105427
    128          1           0       -3.743056    0.109491   -3.848716
    129          1           0       -3.128131   -2.117710   -3.373280
    130          1           0       -4.409821   -2.060509   -4.486698
    131          1           0       -4.741955   -3.668591   -2.747629
    132          7           0       -6.640897    0.641431   -2.615970
    133          6           0       -8.051046    0.962930   -2.753148
    134          6           0       -9.025795    0.023046   -3.434236
    135          8           0       -9.211730    0.144485   -4.644062
    136          6           0       -8.058723    2.385028   -3.300395
    137          1           0       -6.249132    0.894232   -1.715463
    138          1           0       -8.510173    1.067993   -1.775465
    139          1           0       -7.536737    3.055046   -2.610535
    140          1           0       -7.594714    2.473279   -4.280501
    141          1           0       -9.073642    2.758026   -3.443965
    142          7           0       -9.602752   -0.980839   -2.766152
    143          6           0       -9.372899   -1.426348   -1.404833
    144          6           0      -10.594646   -1.330960   -0.506647
    145          8           0      -11.711987   -1.205098   -1.011234
    146          6           0       -8.910408   -2.852875   -1.697957
    147          1           0      -10.168799   -1.570400   -3.357598
    148          1           0       -8.609136   -0.833057   -0.901671
    149          1           0       -9.719479   -3.322934   -2.241877
    150          1           0       -8.058075   -2.934641   -2.377400
    151          1           0       -8.692432   -3.500053   -0.849754
    152          7           0      -10.478759   -1.552829    0.803714
    153          6           0       -9.281728   -1.503447    1.624432
    154          6           0       -9.217374   -0.239118    2.460810
    155          8           0       -8.188717    0.416788    2.591398
    156          6           0       -9.208905   -2.775575    2.464365
    157          6           0       -8.277233   -2.500404    3.637083
    158          6           0       -7.864698   -3.819593    4.295685
    159          8           0       -7.052998   -4.602544    3.761804
    160          8           0       -8.443817   -4.093166    5.363571
    161          1           0      -11.320381   -1.844452    1.264831
    162          1           0       -8.332474   -1.569648    1.102672
    163          1           0       -8.742064   -3.488098    1.778457
    164          1           0      -10.170603   -3.030337    2.900523
    165          1           0       -8.750617   -1.846064    4.372710
    166          1           0       -7.383598   -2.038775    3.224877
    167          7           0      -10.393082    0.087388    3.030112
    168          6           0      -10.717190    1.246161    3.824592
    169          1           0      -10.695144    2.135732    3.194889
    170          1           0      -11.713049    1.127875    4.250835
    171          1           0       -9.988292    1.352198    4.627681
    172          1           0      -11.109056   -0.623078    2.973365
    173         20           0        2.492203    0.280242   -1.148922
    174          8           0        1.966331   -2.366627   -1.125658
    175          1           0        2.084792   -2.813708   -1.971167
    176          1           0        1.977158   -3.081023   -0.485954
 ---------------------------------------------------------------------
 Rotational constants (GHZ):           0.0195448           0.0090594           0.0076896
 Standard basis: SVP (5D, 7F)
 There are  1809 symmetry adapted cartesian basis functions of A   symmetry.
 There are  1717 symmetry adapted basis functions of A   symmetry.
  1717 basis functions,  2922 primitive gaussians,  1809 cartesian basis functions
   358 alpha electrons      358 beta electrons
       nuclear repulsion energy     19449.5750911507 Hartrees.
 NAtoms=  176 NActive=  176 NUniq=  176 SFac= 1.00D+00 NAtFMM=   60 NAOKFM=T Big=T
 Integral buffers will be    131072 words long.
 Raffenetti 2 integral format.
 Two-electron integral symmetry is turned on.
 One-electron integrals computed using PRISM.
 NBasis=  1717 RedAO= T EigKep=  3.17D-04  NBF=  1717
 NBsUse=  1717 1.00D-06 EigRej= -1.00D+00 NBFU=  1717
 ExpMin= 1.98D-02 ExpMax= 3.51D+04 ExpMxC= 5.28D+03 IAcc=3 IRadAn=         5 AccDes= 0.00D+00
 Harris functional with IExCor=  402 and IRadAn=       5 diagonalized for initial guess.
 HarFok:  IExCor=  402 AccDes= 0.00D+00 IRadAn=         5 IDoV= 1 UseB2=F ITyADJ=14
 ICtDFT=  3500011 ScaDFX=  1.000000  1.000000  1.000000  1.000000
 FoFCou: FMM=F IPFlag=           0 FMFlag=      100000 FMFlg1=        2001
         NFxFlg=           0 DoJE=T BraDBF=F KetDBF=T FulRan=T
         wScrn=  0.000000 ICntrl=       500 IOpCl=  0 I1Cent=   200000004 NGrid=           0
         NMat0=    1 NMatS0=      1 NMatT0=    0 NMatD0=    1 NMtDS0=    0 NMtDT0=    0
 Petite list used in FoFCou.
 Requested convergence on RMS density matrix=1.00D-08 within 128 cycles.
 Requested convergence on MAX density matrix=1.00D-06.
 Requested convergence on             energy=1.00D-06.
 No special actions if energy rises.
 EnCoef did     2 forward-backward iterations
 EnCoef did     3 forward-backward iterations
 EnCoef did     2 forward-backward iterations
 EnCoef did     3 forward-backward iterations
 EnCoef did     3 forward-backward iterations
 EnCoef did    33 forward-backward iterations
 EnCoef did   100 forward-backward iterations
 Rare condition: small coef for last iteration:  0.000D+00
 EnCoef did   100 forward-backward iterations
 EnCoef did   100 forward-backward iterations
 Rare condition: small coef for last iteration:  0.235D-14
 EnCoef did   100 forward-backward iterations
 EnCoef did   100 forward-backward iterations
 Rare condition: small coef for last iteration:  0.276D-14
 EnCoef did   100 forward-backward iterations
 EnCoef did   100 forward-backward iterations
 Restarting incremental Fock formation.
 EnCoef did   100 forward-backward iterations
 EnCoef did   100 forward-backward iterations
 EnCoef did    92 forward-backward iterations
 Rare condition: small coef for last iteration:  0.141D-15
 EnCoef did    40 forward-backward iterations
 Rare condition: small coef for last iteration:  0.000D+00
 EnCoef did    98 forward-backward iterations
 Rare condition: small coef for last iteration:  0.000D+00
 EnCoef did    93 forward-backward iterations
 Rare condition: small coef for last iteration:  0.000D+00
 EnCoef did   100 forward-backward iterations
 EnCoef did    11 forward-backward iterations
 Rare condition: small coef for last iteration:  0.000D+00
 EnCoef did   100 forward-backward iterations
 Rare condition: small coef for last iteration:  0.000D+00
 Restarting incremental Fock formation.
 SCF Done:  E(RB3LYP) =  -5333.39792954     A.U. after   44 cycles
            NFock= 44  Conv=0.75D-09     -V/T= 2.0081
 SCF density gives NOpUse=  1 NOpAll=  1.
 Hyperfine terms turned off by default for NAtoms > 100.

 **********************************************************************

            Population analysis using the SCF density.

 **********************************************************************

 Orbital symmetries:
 BldTbl:  Degeneracy threshold= 1.00D-02
       Occupied  (A) (A) (A) (A) (A) (A) (A) (A) (A) (A) (A) (A)
                 (A) (A) (A) (A) (A) (A) (A) (A) (A) (A) (A) (A)
                 (A) (A) (A) (A) (A) (A) (A) (A) (A) (A) (A) (A)
                 (A) (A) (A) (A) (A) (A) (A) (A) (A) (A) (A) (A)
                 (A) (A) (A) (A) (A) (A) (A) (A) (A) (A) (A) (A)
                 (A) (A) (A) (A) (A) (A) (A) (A) (A) (A) (A) (A)
                 (A) (A) (A) (A) (A) (A) (A) (A) (A) (A) (A) (A)
                 (A) (A) (A) (A) (A) (A) (A) (A) (A) (A) (A) (A)
                 (A) (A) (A) (A) (A) (A) (A) (A) (A) (A) (A) (A)
                 (A) (A) (A) (A) (A) (A) (A) (A) (A) (A) (A) (A)
                 (A) (A) (A) (A) (A) (A) (A) (A) (A) (A) (A) (A)
                 (A) (A) (A) (A) (A) (A) (A) (A) (A) (A) (A) (A)
                 (A) (A) (A) (A) (A) (A) (A) (A) (A) (A) (A) (A)
                 (A) (A) (A) (A) (A) (A) (A) (A) (A) (A) (A) (A)
                 (A) (A) (A) (A) (A) (A) (A) (A) (A) (A) (A) (A)
                 (A) (A) (A) (A) (A) (A) (A) (A) (A) (A) (A) (A)
                 (A) (A) (A) (A) (A) (A) (A) (A) (A) (A) (A) (A)
                 (A) (A) (A) (A) (A) (A) (A) (A) (A) (A) (A) (A)
                 (A) (A) (A) (A) (A) (A) (A) (A) (A) (A) (A) (A)
                 (A) (A) (A) (A) (A) (A) (A) (A) (A) (A) (A) (A)
                 (A) (A) (A) (A) (A) (A) (A) (A) (A) (A) (A) (A)
                 (A) (A) (A) (A) (A) (A) (A) (A) (A) (A) (A) (A)
                 (A) (A) (A) (A) (A) (A) (A) (A) (A) (A) (A) (A)
                 (A) (A) (A) (A) (A) (A) (A) (A) (A) (A) (A) (A)
                 (A) (A) (A) (A) (A) (A) (A) (A) (A) (A) (A) (A)
                 (A) (A) (A) (A) (A) (A) (A) (A) (A) (A) (A) (A)
                 (A) (A) (A) (A) (A) (A) (A) (A) (A) (A) (A) (A)
                 (A) (A) (A) (A) (A) (A) (A) (A) (A) (A) (A) (A)
                 (A) (A) (A) (A) (A) (A) (A) (A) (A) (A) (A) (A)
                 (A) (A) (A) (A) (A) (A) (A) (A) (A) (A)
       Virtual   (A) (A) (A) (A) (A) (A) (A) (A) (A) (A) (A) (A)
                 (A) (A) (A) (A) (A) (A) (A) (A) (A) (A) (A) (A)
                 (A) (A) (A) (A) (A) (A) (A) (A) (A) (A) (A) (A)
                 (A) (A) (A) (A) (A) (A) (A) (A) (A) (A) (A) (A)
                 (A) (A) (A) (A) (A) (A) (A) (A) (A) (A) (A) (A)
                 (A) (A) (A) (A) (A) (A) (A) (A) (A) (A) (A) (A)
                 (A) (A) (A) (A) (A) (A) (A) (A) (A) (A) (A) (A)
                 (A) (A) (A) (A) (A) (A) (A) (A) (A) (A) (A) (A)
                 (A) (A) (A) (A) (A) (A) (A) (A) (A) (A) (A) (A)
                 (A) (A) (A) (A) (A) (A) (A) (A) (A) (A) (A) (A)
                 (A) (A) (A) (A) (A) (A) (A) (A) (A) (A) (A) (A)
                 (A) (A) (A) (A) (A) (A) (A) (A) (A) (A) (A) (A)
                 (A) (A) (A) (A) (A) (A) (A) (A) (A) (A) (A) (A)
                 (A) (A) (A) (A) (A) (A) (A) (A) (A) (A) (A) (A)
                 (A) (A) (A) (A) (A) (A) (A) (A) (A) (A) (A) (A)
                 (A) (A) (A) (A) (A) (A) (A) (A) (A) (A) (A) (A)
                 (A) (A) (A) (A) (A) (A) (A) (A) (A) (A) (A) (A)
                 (A) (A) (A) (A) (A) (A) (A) (A) (A) (A) (A) (A)
                 (A) (A) (A) (A) (A) (A) (A) (A) (A) (A) (A) (A)
                 (A) (A) (A) (A) (A) (A) (A) (A) (A) (A) (A) (A)
                 (A) (A) (A) (A) (A) (A) (A) (A) (A) (A) (A) (A)
                 (A) (A) (A) (A) (A) (A) (A) (A) (A) (A) (A) (A)
                 (A) (A) (A) (A) (A) (A) (A) (A) (A) (A) (A) (A)
                 (A) (A) (A) (A) (A) (A) (A) (A) (A) (A) (A) (A)
                 (A) (A) (A) (A) (A) (A) (A) (A) (A) (A) (A) (A)
                 (A) (A) (A) (A) (A) (A) (A) (A) (A) (A) (A) (A)
                 (A) (A) (A) (A) (A) (A) (A) (A) (A) (A) (A) (A)
                 (A) (A) (A) (A) (A) (A) (A) (A) (A) (A) (A) (A)
                 (A) (A) (A) (A) (A) (A) (A) (A) (A) (A) (A) (A)
                 (A) (A) (A) (A) (A) (A) (A) (A) (A) (A) (A) (A)
                 (A) (A) (A) (A) (A) (A) (A) (A) (A) (A) (A) (A)
                 (A) (A) (A) (A) (A) (A) (A) (A) (A) (A) (A) (A)
                 (A) (A) (A) (A) (A) (A) (A) (A) (A) (A) (A) (A)
                 (A) (A) (A) (A) (A) (A) (A) (A) (A) (A) (A) (A)
                 (A) (A) (A) (A) (A) (A) (A) (A) (A) (A) (A) (A)
                 (A) (A) (A) (A) (A) (A) (A) (A) (A) (A) (A) (A)
                 (A) (A) (A) (A) (A) (A) (A) (A) (A) (A) (A) (A)
                 (A) (A) (A) (A) (A) (A) (A) (A) (A) (A) (A) (A)
                 (A) (A) (A) (A) (A) (A) (A) (A) (A) (A) (A) (A)
                 (A) (A) (A) (A) (A) (A) (A) (A) (A) (A) (A) (A)
                 (A) (A) (A) (A) (A) (A) (A) (A) (A) (A) (A) (A)
                 (A) (A) (A) (A) (A) (A) (A) (A) (A) (A) (A) (A)
                 (A) (A) (A) (A) (A) (A) (A) (A) (A) (A) (A) (A)
                 (A) (A) (A) (A) (A) (A) (A) (A) (A) (A) (A) (A)
                 (A) (A) (A) (A) (A) (A) (A) (A) (A) (A) (A) (A)
                 (A) (A) (A) (A) (A) (A) (A) (A) (A) (A) (A) (A)
                 (A) (A) (A) (A) (A) (A) (A) (A) (A) (A) (A) (A)
                 (A) (A) (A) (A) (A) (A) (A) (A) (A) (A) (A) (A)
                 (A) (A) (A) (A) (A) (A) (A) (A) (A) (A) (A) (A)
                 (A) (A) (A) (A) (A) (A) (A) (A) (A) (A) (A) (A)
                 (A) (A) (A) (A) (A) (A) (A) (A) (A) (A) (A) (A)
                 (A) (A) (A) (A) (A) (A) (A) (A) (A) (A) (A) (A)
                 (A) (A) (A) (A) (A) (A) (A) (A) (A) (A) (A) (A)
                 (A) (A) (A) (A) (A) (A) (A) (A) (A) (A) (A) (A)
                 (A) (A) (A) (A) (A) (A) (A) (A) (A) (A) (A) (A)
                 (A) (A) (A) (A) (A) (A) (A) (A) (A) (A) (A) (A)
                 (A) (A) (A) (A) (A) (A) (A) (A) (A) (A) (A) (A)
                 (A) (A) (A) (A) (A) (A) (A) (A) (A) (A) (A) (A)
                 (A) (A) (A) (A) (A) (A) (A) (A) (A) (A) (A) (A)
                 (A) (A) (A) (A) (A) (A) (A) (A) (A) (A) (A) (A)
                 (A) (A) (A) (A) (A) (A) (A) (A) (A) (A) (A) (A)
                 (A) (A) (A) (A) (A) (A) (A) (A) (A) (A) (A) (A)
                 (A) (A) (A) (A) (A) (A) (A) (A) (A) (A) (A) (A)
                 (A) (A) (A) (A) (A) (A) (A) (A) (A) (A) (A) (A)
                 (A) (A) (A) (A) (A) (A) (A) (A) (A) (A) (A) (A)
                 (A) (A) (A) (A) (A) (A) (A) (A) (A) (A) (A) (A)
                 (A) (A) (A) (A) (A) (A) (A) (A) (A) (A) (A) (A)
                 (A) (A) (A) (A) (A) (A) (A) (A) (A) (A) (A) (A)
                 (A) (A) (A) (A) (A) (A) (A) (A) (A) (A) (A) (A)
                 (A) (A) (A) (A) (A) (A) (A) (A) (A) (A) (A) (A)
                 (A) (A) (A) (A) (A) (A) (A) (A) (A) (A) (A) (A)
                 (A) (A) (A) (A) (A) (A) (A) (A) (A) (A) (A) (A)
                 (A) (A) (A) (A) (A) (A) (A) (A) (A) (A) (A) (A)
                 (A) (A) (A) (A) (A) (A) (A) (A) (A) (A) (A) (A)
                 (A) (A) (A) (A) (A) (A) (A) (A) (A) (A) (A) (A)
                 (A) (A) (A) (A) (A) (A) (A) (A) (A) (A) (A) (A)
                 (A) (A) (A) (A) (A) (A) (A) (A) (A) (A) (A) (A)
                 (A) (A) (A) (A) (A) (A) (A) (A) (A) (A) (A) (A)
                 (A) (A) (A) (A) (A) (A) (A) (A) (A) (A) (A) (A)
                 (A) (A) (A) (A) (A) (A) (A) (A) (A) (A) (A) (A)
                 (A) (A) (A) (A) (A) (A) (A) (A) (A) (A) (A) (A)
                 (A) (A) (A) (A) (A) (A) (A) (A) (A) (A) (A) (A)
                 (A) (A) (A) (A) (A) (A) (A) (A) (A) (A) (A) (A)
                 (A) (A) (A) (A) (A) (A) (A) (A) (A) (A) (A) (A)
                 (A) (A) (A) (A) (A) (A) (A) (A) (A) (A) (A) (A)
                 (A) (A) (A) (A) (A) (A) (A) (A) (A) (A) (A) (A)
                 (A) (A) (A) (A) (A) (A) (A) (A) (A) (A) (A) (A)
                 (A) (A) (A) (A) (A) (A) (A) (A) (A) (A) (A) (A)
                 (A) (A) (A) (A) (A) (A) (A) (A) (A) (A) (A) (A)
                 (A) (A) (A) (A) (A) (A) (A) (A) (A) (A) (A) (A)
                 (A) (A) (A) (A) (A) (A) (A) (A) (A) (A) (A) (A)
                 (A) (A) (A) (A) (A) (A) (A) (A) (A) (A) (A) (A)
                 (A) (A) (A) (A) (A) (A) (A) (A) (A) (A) (A) (A)
                 (A) (A) (A) (A) (A) (A) (A) (A) (A) (A) (A) (A)
                 (A) (A) (A) (A) (A) (A) (A) (A) (A) (A) (A) (A)
                 (A) (A) (A) (A) (A) (A) (A) (A) (A) (A) (A) (A)
                 (A) (A) (A) (A) (A) (A) (A) (A) (A) (A) (A) (A)
                 (A) (A) (A) (A) (A) (A) (A) (A) (A) (A) (A) (A)
                 (A) (A) (A) (A) (A) (A) (A) (A) (A) (A) (A) (A)
                 (A) (A) (A) (A) (A) (A) (A) (A) (A) (A) (A) (A)
                 (A) (A) (A) (A) (A) (A) (A) (A) (A) (A) (A) (A)
                 (A) (A) (A) (A) (A) (A) (A) (A) (A) (A) (A) (A)
                 (A) (A) (A) (A) (A) (A) (A) (A) (A) (A) (A) (A)
                 (A) (A) (A) (A) (A) (A) (A) (A) (A) (A) (A) (A)
                 (A) (A) (A) (A) (A) (A) (A) (A) (A) (A) (A) (A)
                 (A) (A) (A) (A) (A) (A) (A) (A) (A) (A) (A) (A)
                 (A) (A) (A) (A) (A) (A) (A) (A) (A) (A) (A) (A)
                 (A) (A) (A) (A) (A) (A) (A) (A) (A) (A) (A) (A)
                 (A) (A) (A) (A) (A) (A) (A) (A) (A) (A) (A) (A)
                 (A) (A) (A) (A) (A) (A) (A) (A) (A) (A) (A) (A)
                 (A) (A) (A) (A) (A) (A) (A) (A) (A) (A) (A) (A)
                 (A) (A) (A) (A) (A) (A) (A) (A) (A) (A) (A) (A)
                 (A) (A) (A) (A) (A) (A) (A) (A) (A) (A) (A) (A)
                 (A) (A) (A)
 The electronic state is 1-A.
 Alpha  occ. eigenvalues -- -145.39681 -19.19764 -19.16881 -19.14750 -19.14696
 Alpha  occ. eigenvalues --  -19.12846 -19.12511 -19.11901 -19.10439 -19.10277
 Alpha  occ. eigenvalues --  -19.09719 -19.08719 -19.08464 -19.08275 -19.08263
 Alpha  occ. eigenvalues --  -19.08101 -19.08011 -19.07276 -19.07263 -19.07190
 Alpha  occ. eigenvalues --  -19.06684 -19.06603 -18.97670 -18.97634 -15.45507
 Alpha  occ. eigenvalues --  -14.57227 -14.39697 -14.39435 -14.37599 -14.37157
 Alpha  occ. eigenvalues --  -14.37038 -14.36396 -14.36206 -14.36126 -14.35705
 Alpha  occ. eigenvalues --  -14.34474 -14.33922 -14.33811 -14.33233 -14.33229
 Alpha  occ. eigenvalues --  -12.59102 -12.59098 -12.59040 -10.35929 -10.32772
 Alpha  occ. eigenvalues --  -10.31248 -10.30778 -10.30345 -10.29825 -10.29670
 Alpha  occ. eigenvalues --  -10.28906 -10.28899 -10.28682 -10.28345 -10.27609
 Alpha  occ. eigenvalues --  -10.27460 -10.27174 -10.26480 -10.26386 -10.26286
 Alpha  occ. eigenvalues --  -10.26269 -10.26171 -10.26058 -10.25884 -10.25855
 Alpha  occ. eigenvalues --  -10.25803 -10.25668 -10.24961 -10.24891 -10.24689
 Alpha  occ. eigenvalues --  -10.24013 -10.23520 -10.23334 -10.23218 -10.22864
 Alpha  occ. eigenvalues --  -10.21357 -10.21207 -10.21123 -10.21028 -10.20907
 Alpha  occ. eigenvalues --  -10.20254 -10.20025 -10.19848 -10.19778 -10.19736
 Alpha  occ. eigenvalues --  -10.19595 -10.19508 -10.18839 -10.18426 -10.18170
 Alpha  occ. eigenvalues --  -10.17825 -10.17521 -10.16945 -10.16748 -10.16616
 Alpha  occ. eigenvalues --  -10.15786 -10.11523  -1.82377  -1.13165  -1.10007
 Alpha  occ. eigenvalues --   -1.09921  -1.09636  -1.06632  -1.06295  -1.05550
 Alpha  occ. eigenvalues --   -1.05424  -1.05280  -1.04830  -1.03966  -1.03383
 Alpha  occ. eigenvalues --   -1.03223  -1.02807  -1.02759  -1.02385  -1.02091
 Alpha  occ. eigenvalues --   -1.01969  -1.01562  -1.00843  -1.00474  -0.99919
 Alpha  occ. eigenvalues --   -0.99726  -0.96485  -0.96484  -0.94543  -0.94027
 Alpha  occ. eigenvalues --   -0.93211  -0.93044  -0.92432  -0.92119  -0.92037
 Alpha  occ. eigenvalues --   -0.91968  -0.91851  -0.91839  -0.90929  -0.90804
 Alpha  occ. eigenvalues --   -0.90720  -0.90372  -0.89789  -0.89210  -0.85733
 Alpha  occ. eigenvalues --   -0.84520  -0.83946  -0.82046  -0.80266  -0.80129
 Alpha  occ. eigenvalues --   -0.78951  -0.78404  -0.78054  -0.77415  -0.77171
 Alpha  occ. eigenvalues --   -0.76599  -0.75811  -0.75410  -0.74842  -0.74583
 Alpha  occ. eigenvalues --   -0.73397  -0.73107  -0.73099  -0.72460  -0.72062
 Alpha  occ. eigenvalues --   -0.71942  -0.70645  -0.69498  -0.67769  -0.67606
 Alpha  occ. eigenvalues --   -0.67314  -0.66788  -0.66567  -0.66392  -0.65882
 Alpha  occ. eigenvalues --   -0.65117  -0.65034  -0.63980  -0.63551  -0.63187
 Alpha  occ. eigenvalues --   -0.63039  -0.61522  -0.61252  -0.61164  -0.60858
 Alpha  occ. eigenvalues --   -0.60144  -0.59980  -0.59641  -0.59618  -0.59440
 Alpha  occ. eigenvalues --   -0.59315  -0.58501  -0.58091  -0.58028  -0.57799
 Alpha  occ. eigenvalues --   -0.57662  -0.57521  -0.57090  -0.56857  -0.56369
 Alpha  occ. eigenvalues --   -0.56292  -0.56175  -0.55957  -0.55630  -0.55383
 Alpha  occ. eigenvalues --   -0.54835  -0.53948  -0.53553  -0.52949  -0.52633
 Alpha  occ. eigenvalues --   -0.52507  -0.52243  -0.51935  -0.51486  -0.51449
 Alpha  occ. eigenvalues --   -0.50902  -0.50794  -0.50722  -0.50343  -0.50136
 Alpha  occ. eigenvalues --   -0.49994  -0.49391  -0.49282  -0.49006  -0.48629
 Alpha  occ. eigenvalues --   -0.48503  -0.48082  -0.47890  -0.47863  -0.47830
 Alpha  occ. eigenvalues --   -0.47513  -0.47064  -0.47019  -0.46597  -0.46193
 Alpha  occ. eigenvalues --   -0.46150  -0.46004  -0.45807  -0.45549  -0.45447
 Alpha  occ. eigenvalues --   -0.45203  -0.45190  -0.45075  -0.44852  -0.44717
 Alpha  occ. eigenvalues --   -0.44638  -0.44534  -0.44329  -0.44311  -0.44008
 Alpha  occ. eigenvalues --   -0.43949  -0.43764  -0.43681  -0.43510  -0.43352
 Alpha  occ. eigenvalues --   -0.43170  -0.43091  -0.42969  -0.42827  -0.42539
 Alpha  occ. eigenvalues --   -0.42466  -0.42266  -0.41986  -0.41785  -0.41669
 Alpha  occ. eigenvalues --   -0.41628  -0.41454  -0.41231  -0.41216  -0.41065
 Alpha  occ. eigenvalues --   -0.41028  -0.40794  -0.40752  -0.40732  -0.40570
 Alpha  occ. eigenvalues --   -0.40374  -0.40331  -0.40290  -0.39912  -0.39881
 Alpha  occ. eigenvalues --   -0.39663  -0.39576  -0.39057  -0.38723  -0.38573
 Alpha  occ. eigenvalues --   -0.38459  -0.38398  -0.38207  -0.38090  -0.37862
 Alpha  occ. eigenvalues --   -0.37811  -0.37652  -0.37538  -0.37355  -0.37199
 Alpha  occ. eigenvalues --   -0.37098  -0.36963  -0.36959  -0.36626  -0.36523
 Alpha  occ. eigenvalues --   -0.36457  -0.36313  -0.36076  -0.36052  -0.35645
 Alpha  occ. eigenvalues --   -0.35431  -0.35180  -0.35003  -0.34932  -0.34348
 Alpha  occ. eigenvalues --   -0.34302  -0.34218  -0.34021  -0.33972  -0.33801
 Alpha  occ. eigenvalues --   -0.33780  -0.33664  -0.32917  -0.32396  -0.32101
 Alpha  occ. eigenvalues --   -0.31969  -0.31204  -0.30691  -0.30581  -0.29734
 Alpha  occ. eigenvalues --   -0.29089  -0.29041  -0.28972  -0.28867  -0.28588
 Alpha  occ. eigenvalues --   -0.28496  -0.27959  -0.27691  -0.27364  -0.27041
 Alpha  occ. eigenvalues --   -0.26756  -0.26586  -0.26493  -0.26267  -0.26094
 Alpha  occ. eigenvalues --   -0.25909  -0.25832  -0.25769  -0.25625  -0.25234
 Alpha  occ. eigenvalues --   -0.24868  -0.24787  -0.24388  -0.24256  -0.24244
 Alpha  occ. eigenvalues --   -0.23974  -0.23954  -0.23634  -0.23277  -0.22902
 Alpha  occ. eigenvalues --   -0.22724  -0.22366  -0.22334  -0.22242  -0.22091
 Alpha  occ. eigenvalues --   -0.14814  -0.14631  -0.11908
 Alpha virt. eigenvalues --   -0.11224  -0.05002  -0.04333  -0.04103  -0.02856
 Alpha virt. eigenvalues --   -0.02554  -0.02264  -0.02108  -0.01614  -0.00989
 Alpha virt. eigenvalues --   -0.00711  -0.00521  -0.00246   0.00368   0.00481
 Alpha virt. eigenvalues --    0.00586   0.01117   0.01273   0.01378   0.01913
 Alpha virt. eigenvalues --    0.02248   0.02464   0.02977   0.03103   0.03288
 Alpha virt. eigenvalues --    0.03350   0.03455   0.03614   0.03801   0.04055
 Alpha virt. eigenvalues --    0.04164   0.04296   0.04605   0.04865   0.04970
 Alpha virt. eigenvalues --    0.05401   0.05650   0.05804   0.06015   0.06151
 Alpha virt. eigenvalues --    0.06570   0.06740   0.07145   0.07487   0.07633
 Alpha virt. eigenvalues --    0.07726   0.08037   0.08133   0.08185   0.08647
 Alpha virt. eigenvalues --    0.08781   0.09423   0.09467   0.09653   0.09703
 Alpha virt. eigenvalues --    0.10158   0.10480   0.10582   0.10784   0.11035
 Alpha virt. eigenvalues --    0.11086   0.11244   0.11585   0.11836   0.11893
 Alpha virt. eigenvalues --    0.12051   0.12148   0.12470   0.12698   0.12832
 Alpha virt. eigenvalues --    0.12981   0.13177   0.13290   0.13368   0.13443
 Alpha virt. eigenvalues --    0.13570   0.13806   0.13931   0.14070   0.14133
 Alpha virt. eigenvalues --    0.14194   0.14315   0.14391   0.14488   0.14655
 Alpha virt. eigenvalues --    0.14742   0.14886   0.14947   0.15112   0.15337
 Alpha virt. eigenvalues --    0.15390   0.15472   0.15590   0.15759   0.16034
 Alpha virt. eigenvalues --    0.16153   0.16333   0.16449   0.16762   0.16927
 Alpha virt. eigenvalues --    0.17322   0.17397   0.17579   0.17809   0.17969
 Alpha virt. eigenvalues --    0.18152   0.18459   0.18623   0.18833   0.19033
 Alpha virt. eigenvalues --    0.19250   0.19563   0.19606   0.19911   0.20186
 Alpha virt. eigenvalues --    0.20296   0.20418   0.20570   0.20623   0.20817
 Alpha virt. eigenvalues --    0.21046   0.21140   0.21309   0.21486   0.21772
 Alpha virt. eigenvalues --    0.22051   0.22326   0.22634   0.22978   0.23038
 Alpha virt. eigenvalues --    0.23096   0.23421   0.23567   0.24046   0.24257
 Alpha virt. eigenvalues --    0.24473   0.24575   0.24645   0.25020   0.25221
 Alpha virt. eigenvalues --    0.25477   0.25549   0.25766   0.25781   0.26234
 Alpha virt. eigenvalues --    0.26526   0.26547   0.26593   0.26839   0.26970
 Alpha virt. eigenvalues --    0.27411   0.27891   0.27952   0.28135   0.28453
 Alpha virt. eigenvalues --    0.28480   0.28589   0.28938   0.29177   0.29232
 Alpha virt. eigenvalues --    0.29446   0.29729   0.30076   0.30136   0.30374
 Alpha virt. eigenvalues --    0.30619   0.30642   0.30805   0.31339   0.31664
 Alpha virt. eigenvalues --    0.31921   0.32288   0.32608   0.33207   0.33325
 Alpha virt. eigenvalues --    0.33627   0.33751   0.34093   0.34240   0.34430
 Alpha virt. eigenvalues --    0.34668   0.34829   0.35337   0.35406   0.35791
 Alpha virt. eigenvalues --    0.36043   0.36101   0.36869   0.37139   0.37528
 Alpha virt. eigenvalues --    0.37843   0.37889   0.38166   0.38748   0.38950
 Alpha virt. eigenvalues --    0.39254   0.39674   0.39979   0.40021   0.40553
 Alpha virt. eigenvalues --    0.40667   0.40995   0.41172   0.41503   0.41559
 Alpha virt. eigenvalues --    0.42179   0.42350   0.42654   0.42869   0.42923
 Alpha virt. eigenvalues --    0.43124   0.43523   0.43658   0.43816   0.44128
 Alpha virt. eigenvalues --    0.44625   0.44772   0.44919   0.44985   0.45102
 Alpha virt. eigenvalues --    0.45217   0.45435   0.45529   0.45572   0.45719
 Alpha virt. eigenvalues --    0.45764   0.46076   0.46149   0.46569   0.46611
 Alpha virt. eigenvalues --    0.46625   0.46873   0.47457   0.47548   0.47839
 Alpha virt. eigenvalues --    0.48082   0.48297   0.48392   0.48775   0.48979
 Alpha virt. eigenvalues --    0.49411   0.49530   0.49730   0.49882   0.50077
 Alpha virt. eigenvalues --    0.50148   0.50290   0.50401   0.50682   0.50757
 Alpha virt. eigenvalues --    0.51026   0.51115   0.51243   0.51635   0.51875
 Alpha virt. eigenvalues --    0.51911   0.52032   0.52280   0.52317   0.52599
 Alpha virt. eigenvalues --    0.52723   0.52904   0.52928   0.53219   0.53393
 Alpha virt. eigenvalues --    0.53518   0.53652   0.53873   0.53935   0.54145
 Alpha virt. eigenvalues --    0.54430   0.54539   0.54692   0.54939   0.55018
 Alpha virt. eigenvalues --    0.55279   0.55647   0.55808   0.55867   0.55896
 Alpha virt. eigenvalues --    0.56242   0.56318   0.56657   0.56779   0.57162
 Alpha virt. eigenvalues --    0.57497   0.57663   0.57872   0.58342   0.58490
 Alpha virt. eigenvalues --    0.58493   0.58595   0.58703   0.58883   0.59034
 Alpha virt. eigenvalues --    0.59159   0.59423   0.59588   0.59630   0.59804
 Alpha virt. eigenvalues --    0.59988   0.60162   0.60222   0.60290   0.60399
 Alpha virt. eigenvalues --    0.60514   0.60563   0.61111   0.61326   0.61424
 Alpha virt. eigenvalues --    0.61635   0.61689   0.61766   0.61860   0.62028
 Alpha virt. eigenvalues --    0.62171   0.62432   0.62459   0.62495   0.62632
 Alpha virt. eigenvalues --    0.62736   0.62882   0.63109   0.63225   0.63373
 Alpha virt. eigenvalues --    0.63506   0.63656   0.63759   0.63893   0.64042
 Alpha virt. eigenvalues --    0.64110   0.64180   0.64270   0.64401   0.64453
 Alpha virt. eigenvalues --    0.64663   0.64720   0.64762   0.64902   0.65050
 Alpha virt. eigenvalues --    0.65078   0.65198   0.65263   0.65464   0.65577
 Alpha virt. eigenvalues --    0.65669   0.65764   0.65789   0.65954   0.66059
 Alpha virt. eigenvalues --    0.66096   0.66205   0.66436   0.66518   0.66588
 Alpha virt. eigenvalues --    0.66614   0.66755   0.66825   0.66916   0.67110
 Alpha virt. eigenvalues --    0.67195   0.67253   0.67405   0.67422   0.67569
 Alpha virt. eigenvalues --    0.67624   0.67791   0.67877   0.67969   0.68122
 Alpha virt. eigenvalues --    0.68332   0.68335   0.68428   0.68523   0.68661
 Alpha virt. eigenvalues --    0.68738   0.68872   0.69074   0.69272   0.69377
 Alpha virt. eigenvalues --    0.69578   0.69613   0.69691   0.69834   0.69924
 Alpha virt. eigenvalues --    0.70043   0.70219   0.70382   0.70587   0.70709
 Alpha virt. eigenvalues --    0.70877   0.70978   0.70989   0.71274   0.71342
 Alpha virt. eigenvalues --    0.71587   0.71724   0.71834   0.72041   0.72161
 Alpha virt. eigenvalues --    0.72488   0.72723   0.72903   0.73113   0.73311
 Alpha virt. eigenvalues --    0.73438   0.73629   0.73804   0.73884   0.73984
 Alpha virt. eigenvalues --    0.74198   0.74334   0.74478   0.74710   0.74942
 Alpha virt. eigenvalues --    0.75107   0.75244   0.75446   0.75496   0.75861
 Alpha virt. eigenvalues --    0.75949   0.76022   0.76350   0.76542   0.76801
 Alpha virt. eigenvalues --    0.77008   0.77286   0.77448   0.77567   0.77726
 Alpha virt. eigenvalues --    0.78381   0.78430   0.78609   0.79137   0.79385
 Alpha virt. eigenvalues --    0.79455   0.79913   0.80129   0.80454   0.80553
 Alpha virt. eigenvalues --    0.80873   0.80970   0.81126   0.81252   0.81570
 Alpha virt. eigenvalues --    0.81663   0.82033   0.82171   0.82533   0.82693
 Alpha virt. eigenvalues --    0.82966   0.83176   0.83464   0.83990   0.84148
 Alpha virt. eigenvalues --    0.84430   0.85349   0.85463   0.85555   0.85743
 Alpha virt. eigenvalues --    0.86123   0.87290   0.87453   0.87586   0.87966
 Alpha virt. eigenvalues --    0.88156   0.88350   0.88765   0.89004   0.89197
 Alpha virt. eigenvalues --    0.89509   0.89724   0.90033   0.90172   0.90372
 Alpha virt. eigenvalues --    0.90523   0.90675   0.90877   0.91078   0.91512
 Alpha virt. eigenvalues --    0.92074   0.92442   0.92756   0.93103   0.93287
 Alpha virt. eigenvalues --    0.93407   0.93448   0.94058   0.94235   0.94580
 Alpha virt. eigenvalues --    0.94854   0.95082   0.95399   0.95881   0.96006
 Alpha virt. eigenvalues --    0.96053   0.96432   0.96717   0.96840   0.97169
 Alpha virt. eigenvalues --    0.97222   0.97530   0.97740   0.98116   0.98477
 Alpha virt. eigenvalues --    0.99156   0.99321   0.99687   0.99755   1.00153
 Alpha virt. eigenvalues --    1.00331   1.00551   1.00637   1.01341   1.01577
 Alpha virt. eigenvalues --    1.01949   1.02166   1.02395   1.02456   1.02568
 Alpha virt. eigenvalues --    1.02955   1.03164   1.03592   1.03708   1.03764
 Alpha virt. eigenvalues --    1.04369   1.04677   1.04993   1.05111   1.05445
 Alpha virt. eigenvalues --    1.05878   1.06076   1.06541   1.06647   1.06892
 Alpha virt. eigenvalues --    1.07152   1.07404   1.07746   1.08049   1.08347
 Alpha virt. eigenvalues --    1.08687   1.08869   1.09107   1.09336   1.09480
 Alpha virt. eigenvalues --    1.10012   1.10444   1.10673   1.10861   1.11129
 Alpha virt. eigenvalues --    1.11395   1.11718   1.12040   1.12351   1.12616
 Alpha virt. eigenvalues --    1.12783   1.13049   1.13099   1.13404   1.13954
 Alpha virt. eigenvalues --    1.14127   1.14368   1.14610   1.14852   1.15248
 Alpha virt. eigenvalues --    1.15621   1.15715   1.15939   1.16283   1.16310
 Alpha virt. eigenvalues --    1.16937   1.17088   1.17619   1.17665   1.18099
 Alpha virt. eigenvalues --    1.18271   1.18485   1.18820   1.18925   1.19008
 Alpha virt. eigenvalues --    1.19334   1.19483   1.19552   1.20100   1.20995
 Alpha virt. eigenvalues --    1.21081   1.21506   1.22076   1.22163   1.22223
 Alpha virt. eigenvalues --    1.22512   1.22761   1.23015   1.23269   1.23412
 Alpha virt. eigenvalues --    1.23726   1.23845   1.24154   1.24261   1.24316
 Alpha virt. eigenvalues --    1.24733   1.24893   1.25023   1.25256   1.25501
 Alpha virt. eigenvalues --    1.25768   1.26176   1.26558   1.26690   1.27056
 Alpha virt. eigenvalues --    1.27386   1.27512   1.27773   1.28115   1.28291
 Alpha virt. eigenvalues --    1.28367   1.28870   1.29306   1.29850   1.30015
 Alpha virt. eigenvalues --    1.30461   1.30794   1.30989   1.31064   1.31399
 Alpha virt. eigenvalues --    1.31663   1.31721   1.32094   1.32413   1.32485
 Alpha virt. eigenvalues --    1.32734   1.32844   1.33513   1.33989   1.34154
 Alpha virt. eigenvalues --    1.34740   1.34793   1.35066   1.35283   1.35485
 Alpha virt. eigenvalues --    1.35918   1.36412   1.36765   1.36949   1.37263
 Alpha virt. eigenvalues --    1.37490   1.37824   1.37963   1.38090   1.38178
 Alpha virt. eigenvalues --    1.38296   1.38714   1.39088   1.39200   1.39317
 Alpha virt. eigenvalues --    1.39581   1.39888   1.40616   1.40750   1.40857
 Alpha virt. eigenvalues --    1.41014   1.41528   1.41643   1.41929   1.42145
 Alpha virt. eigenvalues --    1.42384   1.43242   1.43359   1.43623   1.44051
 Alpha virt. eigenvalues --    1.44378   1.44968   1.45268   1.45580   1.45763
 Alpha virt. eigenvalues --    1.45900   1.46306   1.46926   1.46969   1.47323
 Alpha virt. eigenvalues --    1.48021   1.48091   1.48464   1.48598   1.48801
 Alpha virt. eigenvalues --    1.49431   1.49701   1.49806   1.50156   1.50363
 Alpha virt. eigenvalues --    1.50573   1.50893   1.51422   1.51849   1.52272
 Alpha virt. eigenvalues --    1.52679   1.52720   1.52773   1.52958   1.53362
 Alpha virt. eigenvalues --    1.53584   1.54178   1.54464   1.54899   1.55618
 Alpha virt. eigenvalues --    1.55828   1.56038   1.56221   1.56486   1.56983
 Alpha virt. eigenvalues --    1.57374   1.57455   1.58023   1.58184   1.58519
 Alpha virt. eigenvalues --    1.58846   1.58946   1.59093   1.59355   1.59608
 Alpha virt. eigenvalues --    1.59925   1.60142   1.60180   1.60479   1.61226
 Alpha virt. eigenvalues --    1.61285   1.61763   1.62034   1.62163   1.62936
 Alpha virt. eigenvalues --    1.63192   1.63426   1.63559   1.64051   1.64704
 Alpha virt. eigenvalues --    1.65189   1.65723   1.66060   1.66358   1.66820
 Alpha virt. eigenvalues --    1.67265   1.67543   1.67713   1.67980   1.68346
 Alpha virt. eigenvalues --    1.68534   1.68919   1.69492   1.69585   1.69875
 Alpha virt. eigenvalues --    1.70466   1.70591   1.70763   1.70988   1.71245
 Alpha virt. eigenvalues --    1.71478   1.71617   1.71694   1.71912   1.72168
 Alpha virt. eigenvalues --    1.72481   1.72576   1.72760   1.72918   1.73108
 Alpha virt. eigenvalues --    1.73302   1.73624   1.73679   1.73906   1.74272
 Alpha virt. eigenvalues --    1.74473   1.74618   1.74874   1.74952   1.75140
 Alpha virt. eigenvalues --    1.75354   1.75571   1.75680   1.75943   1.76080
 Alpha virt. eigenvalues --    1.76161   1.76587   1.76640   1.76835   1.77002
 Alpha virt. eigenvalues --    1.77164   1.77251   1.77417   1.77528   1.77758
 Alpha virt. eigenvalues --    1.77972   1.78023   1.78141   1.78369   1.78409
 Alpha virt. eigenvalues --    1.78611   1.78867   1.78965   1.79334   1.79524
 Alpha virt. eigenvalues --    1.79821   1.79968   1.80245   1.80756   1.80776
 Alpha virt. eigenvalues --    1.80811   1.80898   1.81088   1.81157   1.81260
 Alpha virt. eigenvalues --    1.81443   1.81602   1.81720   1.81914   1.82229
 Alpha virt. eigenvalues --    1.82433   1.82508   1.82625   1.82699   1.82832
 Alpha virt. eigenvalues --    1.83337   1.83530   1.83718   1.83895   1.84310
 Alpha virt. eigenvalues --    1.84376   1.84456   1.84606   1.84802   1.84984
 Alpha virt. eigenvalues --    1.85119   1.85323   1.85524   1.85655   1.85826
 Alpha virt. eigenvalues --    1.85890   1.86190   1.86386   1.86583   1.86726
 Alpha virt. eigenvalues --    1.86791   1.87056   1.87160   1.87388   1.87458
 Alpha virt. eigenvalues --    1.87600   1.87689   1.87761   1.87892   1.87983
 Alpha virt. eigenvalues --    1.88154   1.88315   1.88586   1.88673   1.88801
 Alpha virt. eigenvalues --    1.89031   1.89376   1.89412   1.89524   1.89698
 Alpha virt. eigenvalues --    1.89887   1.90074   1.90395   1.90493   1.90778
 Alpha virt. eigenvalues --    1.91309   1.91608   1.91733   1.91905   1.92067
 Alpha virt. eigenvalues --    1.92302   1.92543   1.92756   1.92867   1.92959
 Alpha virt. eigenvalues --    1.93101   1.93276   1.93602   1.93684   1.93969
 Alpha virt. eigenvalues --    1.94118   1.94636   1.94886   1.95094   1.95416
 Alpha virt. eigenvalues --    1.95532   1.95660   1.95815   1.96044   1.96503
 Alpha virt. eigenvalues --    1.96937   1.97055   1.97314   1.97531   1.97575
 Alpha virt. eigenvalues --    1.97966   1.98055   1.98393   1.98547   1.98848
 Alpha virt. eigenvalues --    1.99185   1.99421   1.99466   1.99853   2.00054
 Alpha virt. eigenvalues --    2.00370   2.00705   2.00730   2.00971   2.01455
 Alpha virt. eigenvalues --    2.01956   2.02198   2.02499   2.02674   2.02906
 Alpha virt. eigenvalues --    2.03022   2.03352   2.03552   2.03603   2.03849
 Alpha virt. eigenvalues --    2.04284   2.04567   2.04762   2.05086   2.05631
 Alpha virt. eigenvalues --    2.05787   2.06070   2.06482   2.06520   2.06751
 Alpha virt. eigenvalues --    2.06939   2.07148   2.07251   2.07316   2.07480
 Alpha virt. eigenvalues --    2.07811   2.08171   2.08326   2.08637   2.08812
 Alpha virt. eigenvalues --    2.09080   2.09325   2.09565   2.09779   2.10270
 Alpha virt. eigenvalues --    2.10439   2.10517   2.10832   2.10921   2.11421
 Alpha virt. eigenvalues --    2.11493   2.11651   2.12043   2.12339   2.12628
 Alpha virt. eigenvalues --    2.12836   2.13034   2.13233   2.13584   2.14038
 Alpha virt. eigenvalues --    2.14238   2.14698   2.15319   2.15428   2.16254
 Alpha virt. eigenvalues --    2.16573   2.16705   2.16951   2.17106   2.17300
 Alpha virt. eigenvalues --    2.17426   2.17613   2.18234   2.18531   2.19017
 Alpha virt. eigenvalues --    2.19216   2.19262   2.19512   2.19769   2.20131
 Alpha virt. eigenvalues --    2.20149   2.20852   2.20928   2.21524   2.21750
 Alpha virt. eigenvalues --    2.22020   2.22307   2.22587   2.23642   2.24050
 Alpha virt. eigenvalues --    2.24445   2.24518   2.25092   2.25218   2.25481
 Alpha virt. eigenvalues --    2.26195   2.26557   2.26838   2.26941   2.27512
 Alpha virt. eigenvalues --    2.27659   2.27883   2.28238   2.28697   2.28921
 Alpha virt. eigenvalues --    2.29589   2.29912   2.30213   2.30311   2.30498
 Alpha virt. eigenvalues --    2.30755   2.31030   2.31621   2.31801   2.31943
 Alpha virt. eigenvalues --    2.32019   2.32709   2.33623   2.33722   2.33780
 Alpha virt. eigenvalues --    2.34081   2.34191   2.34561   2.34814   2.35580
 Alpha virt. eigenvalues --    2.35889   2.36273   2.36984   2.36996   2.37349
 Alpha virt. eigenvalues --    2.37592   2.37808   2.38496   2.38631   2.38834
 Alpha virt. eigenvalues --    2.39265   2.39314   2.39622   2.40188   2.40756
 Alpha virt. eigenvalues --    2.40917   2.41185   2.41268   2.41411   2.41727
 Alpha virt. eigenvalues --    2.42172   2.42464   2.42633   2.43121   2.44153
 Alpha virt. eigenvalues --    2.44355   2.44399   2.44455   2.44769   2.44913
 Alpha virt. eigenvalues --    2.45492   2.45895   2.46049   2.46254   2.46464
 Alpha virt. eigenvalues --    2.47156   2.47702   2.48562   2.48800   2.49255
 Alpha virt. eigenvalues --    2.49315   2.49830   2.50302   2.50587   2.50825
 Alpha virt. eigenvalues --    2.51330   2.51606   2.51838   2.52474   2.52689
 Alpha virt. eigenvalues --    2.52989   2.53172   2.53479   2.53699   2.54084
 Alpha virt. eigenvalues --    2.54361   2.54427   2.54955   2.55464   2.55576
 Alpha virt. eigenvalues --    2.55812   2.56452   2.56759   2.56952   2.57492
 Alpha virt. eigenvalues --    2.57528   2.57834   2.57955   2.58237   2.58504
 Alpha virt. eigenvalues --    2.58606   2.58861   2.58899   2.59522   2.59614
 Alpha virt. eigenvalues --    2.60008   2.60142   2.60962   2.61243   2.61423
 Alpha virt. eigenvalues --    2.61487   2.61974   2.62109   2.62250   2.62633
 Alpha virt. eigenvalues --    2.63109   2.63286   2.63961   2.64020   2.64242
 Alpha virt. eigenvalues --    2.64915   2.65572   2.65893   2.66383   2.66518
 Alpha virt. eigenvalues --    2.66974   2.67222   2.67419   2.67441   2.67626
 Alpha virt. eigenvalues --    2.67910   2.68301   2.68698   2.68813   2.68892
 Alpha virt. eigenvalues --    2.69489   2.69618   2.69904   2.70067   2.70346
 Alpha virt. eigenvalues --    2.70419   2.70749   2.70939   2.71539   2.72030
 Alpha virt. eigenvalues --    2.72087   2.72786   2.72983   2.73284   2.73866
 Alpha virt. eigenvalues --    2.73983   2.74100   2.74204   2.74658   2.74780
 Alpha virt. eigenvalues --    2.74858   2.74924   2.75163   2.75486   2.75629
 Alpha virt. eigenvalues --    2.76300   2.76622   2.77013   2.77206   2.77294
 Alpha virt. eigenvalues --    2.77640   2.77662   2.78532   2.78558   2.78775
 Alpha virt. eigenvalues --    2.78857   2.79450   2.79492   2.80073   2.80230
 Alpha virt. eigenvalues --    2.80271   2.80551   2.80690   2.81137   2.81417
 Alpha virt. eigenvalues --    2.81588   2.81953   2.82201   2.82253   2.82469
 Alpha virt. eigenvalues --    2.82512   2.83114   2.83131   2.83727   2.84010
 Alpha virt. eigenvalues --    2.84779   2.85794   2.86063   2.86214   2.86374
 Alpha virt. eigenvalues --    2.86815   2.87083   2.88053   2.88133   2.88524
 Alpha virt. eigenvalues --    2.88847   2.88888   2.89009   2.89086   2.89478
 Alpha virt. eigenvalues --    2.89528   2.89584   2.90055   2.90194   2.90369
 Alpha virt. eigenvalues --    2.90924   2.91338   2.91436   2.91802   2.92014
 Alpha virt. eigenvalues --    2.92338   2.93164   2.93298   2.93341   2.93713
 Alpha virt. eigenvalues --    2.93822   2.93889   2.94147   2.94391   2.94607
 Alpha virt. eigenvalues --    2.95122   2.96036   2.96186   2.96597   2.97084
 Alpha virt. eigenvalues --    2.97687   2.98054   2.98453   2.98503   2.99002
 Alpha virt. eigenvalues --    2.99452   2.99753   3.00128   3.00363   3.00506
 Alpha virt. eigenvalues --    3.00739   3.00771   3.00868   3.01117   3.01144
 Alpha virt. eigenvalues --    3.01435   3.02287   3.02484   3.03393   3.04044
 Alpha virt. eigenvalues --    3.04455   3.04799   3.04912   3.05317   3.05442
 Alpha virt. eigenvalues --    3.05647   3.06131   3.06558   3.07498   3.07819
 Alpha virt. eigenvalues --    3.08222   3.08225   3.10180   3.10574   3.10893
 Alpha virt. eigenvalues --    3.10951   3.11609   3.11857   3.11898   3.12505
 Alpha virt. eigenvalues --    3.12551   3.12706   3.14293   3.14438   3.15141
 Alpha virt. eigenvalues --    3.15492   3.15598   3.15629   3.16022   3.16109
 Alpha virt. eigenvalues --    3.16165   3.16704   3.17018   3.17056   3.17177
 Alpha virt. eigenvalues --    3.17181   3.17650   3.18075   3.18218   3.18267
 Alpha virt. eigenvalues --    3.18496   3.19377   3.19775   3.20296   3.20717
 Alpha virt. eigenvalues --    3.21084   3.21175   3.21577   3.21848   3.22365
 Alpha virt. eigenvalues --    3.22860   3.24300   3.24729   3.25096   3.25956
 Alpha virt. eigenvalues --    3.26283   3.26350   3.27359   3.27993   3.28384
 Alpha virt. eigenvalues --    3.28535   3.29866   3.30860   3.31077   3.33660
 Alpha virt. eigenvalues --    3.35120   3.36685   3.37063   3.37904   3.38456
 Alpha virt. eigenvalues --    3.39534   3.43279   3.45248   3.48212   3.48946
 Alpha virt. eigenvalues --    3.52034   3.52275   3.52632   3.52842   3.53006
 Alpha virt. eigenvalues --    3.53489   3.53577   3.55947   3.57384   3.57826
 Alpha virt. eigenvalues --    3.57895   3.58124   3.58977   3.61196   3.61913
 Alpha virt. eigenvalues --    3.62012   3.64815   3.65991   3.66245   3.66499
 Alpha virt. eigenvalues --    3.67208   3.67686   3.67886   3.68166   3.68638
 Alpha virt. eigenvalues --    3.68918   3.69091   3.69560   3.69665   3.70135
 Alpha virt. eigenvalues --    3.70266   3.70462   3.71167   3.73537   3.73943
 Alpha virt. eigenvalues --    3.74601   3.78481   3.78551   3.79666
          Condensed to atoms (all electrons):
 Mulliken charges:
               1
     1  C    0.078187
     2  C   -0.004790
     3  O   -0.297393
     4  H    0.045261
     5  H    0.038220
     6  H    0.009072
     7  N   -0.109280
     8  C    0.114978
     9  C    0.070044
    10  O   -0.285400
    11  C    0.147292
    12  C    0.110924
    13  O   -0.426337
    14  O   -0.430252
    15  H    0.115936
    16  H   -0.001503
    17  H   -0.029174
    18  H    0.003076
    19  N   -0.112646
    20  C    0.158766
    21  C    0.056133
    22  O   -0.284265
    23  C    0.010520
    24  C   -0.023319
    25  C   -0.010758
    26  C    0.065375
    27  N    0.164997
    28  H    0.113508
    29  H    0.015000
    30  H   -0.014300
    31  H    0.008856
    32  H    0.003967
    33  H    0.042119
    34  H    0.021861
    35  H    0.005079
    36  H    0.070351
    37  H    0.049271
    38  H    0.114093
    39  H    0.102056
    40  H    0.110384
    41  N   -0.139678
    42  C    0.105362
    43  C    0.056548
    44  O   -0.284338
    45  C    0.141089
    46  C    0.112123
    47  O   -0.403354
    48  O   -0.462099
    49  H    0.133121
    50  H    0.028327
    51  H   -0.029080
    52  H    0.014085
    53  N   -0.148483
    54  C    0.241548
    55  C    0.014725
    56  O   -0.300785
    57  H    0.155404
    58  H    0.027493
    59  H    0.016081
    60  N   -0.156568
    61  C    0.137818
    62  C    0.112036
    63  O   -0.391390
    64  C    0.088724
    65  C   -0.004513
    66  N   -0.018263
    67  O   -0.309064
    68  H    0.184459
    69  H   -0.010279
    70  H    0.055207
    71  H    0.025690
    72  H    0.126879
    73  H    0.136226
    74  N   -0.125561
    75  C    0.187275
    76  C    0.061482
    77  O   -0.283187
    78  H    0.137804
    79  H    0.030681
    80  H    0.053001
    81  N   -0.108752
    82  C    0.115303
    83  C    0.206655
    84  O   -0.402613
    85  C    0.074672
    86  C   -0.055007
    87  C    0.053324
    88  C    0.031546
    89  C   -0.036180
    90  C   -0.041252
    91  C    0.169155
    92  O   -0.200024
    93  H    0.142845
    94  H   -0.006161
    95  H    0.007870
    96  H   -0.006445
    97  H   -0.037062
    98  H   -0.041494
    99  H   -0.028806
   100  H   -0.041489
   101  H    0.182372
   102  N   -0.097597
   103  C    0.104911
   104  C    0.083964
   105  O   -0.258781
   106  C   -0.049467
   107  C    0.009578
   108  C    0.071166
   109  C    0.008305
   110  H    0.138880
   111  H   -0.011486
   112  H   -0.022392
   113  H    0.005614
   114  H    0.016466
   115  H   -0.014390
   116  H    0.034048
   117  H    0.014719
   118  H    0.005963
   119  H   -0.001576
   120  H    0.040276
   121  N   -0.171618
   122  C    0.115843
   123  C    0.075757
   124  O   -0.262610
   125  C    0.241071
   126  O   -0.315444
   127  H    0.127343
   128  H    0.036432
   129  H   -0.016080
   130  H    0.004325
   131  H    0.176350
   132  N   -0.125070
   133  C    0.051343
   134  C    0.062215
   135  O   -0.251940
   136  C    0.064333
   137  H    0.106066
   138  H    0.013173
   139  H   -0.015596
   140  H    0.037338
   141  H    0.008205
   142  N   -0.087956
   143  C    0.028567
   144  C    0.072780
   145  O   -0.264726
   146  C    0.044735
   147  H    0.127501
   148  H    0.020504
   149  H    0.000592
   150  H    0.026824
   151  H    0.019700
   152  N   -0.084156
   153  C    0.020258
   154  C    0.074853
   155  O   -0.266394
   156  C    0.038369
   157  C    0.047482
   158  C    0.059114
   159  O   -0.355918
   160  O   -0.338069
   161  H    0.121314
   162  H    0.011382
   163  H    0.014421
   164  H   -0.013737
   165  H   -0.014541
   166  H   -0.022211
   167  N   -0.159994
   168  C    0.137326
   169  H    0.022641
   170  H    0.018161
   171  H    0.036185
   172  H    0.103687
   173  Ca   1.331426
   174  O   -0.276326
   175  H    0.181199
   176  H    0.174461
 Sum of Mulliken charges =  -0.00000
 Mulliken charges with hydrogens summed into heavy atoms:
               1
     1  C    0.170740
     2  C   -0.004790
     3  O   -0.297393
     7  N    0.006656
     8  C    0.113475
     9  C    0.070044
    10  O   -0.285400
    11  C    0.121195
    12  C    0.110924
    13  O   -0.426337
    14  O   -0.430252
    19  N    0.000862
    20  C    0.173766
    21  C    0.056133
    22  O   -0.284265
    23  C    0.005077
    24  C    0.022766
    25  C    0.016182
    26  C    0.184997
    27  N    0.491529
    41  N   -0.006557
    42  C    0.133689
    43  C    0.056548
    44  O   -0.284338
    45  C    0.126094
    46  C    0.112123
    47  O   -0.403354
    48  O   -0.462099
    53  N    0.006921
    54  C    0.285122
    55  C    0.014725
    56  O   -0.300785
    60  N    0.027890
    61  C    0.127539
    62  C    0.112036
    63  O   -0.391390
    64  C    0.169622
    65  C   -0.004513
    66  N    0.244843
    67  O   -0.309064
    74  N    0.012243
    75  C    0.270957
    76  C    0.061482
    77  O   -0.283187
    81  N    0.034094
    82  C    0.109142
    83  C    0.206655
    84  O   -0.402613
    85  C    0.076097
    86  C   -0.055007
    87  C    0.016262
    88  C   -0.009947
    89  C   -0.064987
    90  C   -0.082741
    91  C    0.169155
    92  O   -0.017652
   102  N    0.041283
   103  C    0.093425
   104  C    0.083964
   105  O   -0.258781
   106  C   -0.071859
   107  C    0.031657
   108  C    0.105543
   109  C    0.052968
   121  N   -0.044275
   122  C    0.152274
   123  C    0.075757
   124  O   -0.262610
   125  C    0.229316
   126  O   -0.139094
   132  N   -0.019003
   133  C    0.064515
   134  C    0.062215
   135  O   -0.251940
   136  C    0.094279
   142  N    0.039545
   143  C    0.049072
   144  C    0.072780
   145  O   -0.264726
   146  C    0.091851
   152  N    0.037158
   153  C    0.031640
   154  C    0.074853
   155  O   -0.266394
   156  C    0.039052
   157  C    0.010731
   158  C    0.059114
   159  O   -0.355918
   160  O   -0.338069
   167  N   -0.056307
   168  C    0.214313
   173  Ca   1.331426
   174  O    0.079333
 DipInt: DoE/N= T F RetVal/Mat= T F Init=T NMatP=  1 IDeriv=0 Min/MaxMlt=  0  4
 Entering OneElI...
 OneElI was handed  1333951383 working-precision words.
 Multipole integrals L=0 to 4 MinM= 0 MaxM= 0.
 Requested accuracy = 0.1000D-12
 ShPair: Thresh= 1.00D-13 NBox=     0 BxSize= 0.00D+00 RnKept= 2.88D+01
         NSMCal=               327645 NSMKep=              127548
 PrmmSu-InSpLW:  IPartL=    0 NPrtUS=    1 NPrtUL=    1 DoSpLW=F IThBeg=    0 IThEnd=    0 NThAct=    1.
 PrsmSu:  NPrtUS=   1 ThrOK=F IAlg=1 NPAlg=1 LenDen=           0 ISkipM=0 DoSpLW=F IThBeg=    0 IThEnd=    0.
 Prism:   IPart=     0 DynPar=F LinDyn=F Incr=         512.
 PRISM was handed  1325119009 working-precision words and127548 shell-pairs
 IPart=  0 NShTot=      127548 NBatch=         303 AvBLen=       421.0
 PrsmSu-ThDecC:  IPartSL=    0    0 NPrtUSL=    1    1 IThBeg=    0 IThEnd=    0 CPU=   -1 GPU=   -1 NThAct=    1.
 PrSmSu:  NxtVal=            513.
 Electronic moments (au):
       -716.00000000          9.42131698         -7.11321118         -6.76003432
     -91421.45143130     -34902.68228641     -15805.16785296       -169.41366120
          2.68724765        120.12512469     473923.96923227     -45494.90391079
     -29490.85714251    -126199.99852169     157828.36727196     -19046.42607172
      44082.24050720      46054.59686247      25580.59238742     -34355.55542924
  -21663650.10453117   -6199205.40875896    -941148.06939322    -955586.04156967
     590557.70651652     817207.15277923    -549785.32854893    -176201.41434310
     223185.64313064   -2474987.92416059   -2455512.14634191    -617464.86858195
     270993.19228770     489591.59988009      86065.08484837
 Electronic spatial extent (au):  <R**2>=         142129.3016
 DipInt: DoE/N= F T RetVal/Mat= T F Init=T NMatP=  1 IDeriv=0 Min/MaxMlt=  0  4
 Nuclear    moments (au):
        716.00000000          0.00000000         -0.00000000          0.00000000
      90827.13461719      34726.38114158      15332.88795996          0.00000000
         -0.00000000          0.00000000    -472880.41193737      41905.86747962
      29194.99740846     128595.46768236    -157577.91436640      19165.74049981
     -42552.72323811     -46123.56268043     -27659.92959119      33963.02555331
   21284963.81687014    6168659.04027827     881420.29200788     935846.80330064
    -596759.93338586    -859543.78037335     580090.49965436     178793.57518526
    -215253.47289605    2410262.30470426    2380003.70832867     593936.50019085
    -258279.62234633    -495327.26627700     -96111.27416949
 Total      moments (au):
         -0.00000000          9.42131698         -7.11321118         -6.76003432
       -594.31681411       -176.30114482       -472.27989300       -169.41366120
          2.68724765        120.12512469       1043.55729490      -3589.03643117
       -295.85973405       2395.46916067        250.45290557        119.31442809
       1529.51726909        -68.96581796      -2079.33720376       -392.52987593
    -378686.28766103     -30546.36848069     -59727.77738534     -19739.23826903
      -6202.22686934     -42336.62759412      30305.17110543       2592.16084216
       7932.17023459     -64725.61945634     -75508.43801324     -23528.36839110
      12713.56994137      -5735.66639690     -10046.18932111
 Traceless Quadrup. (au):
       -180.01753013        237.99813915        -57.98060902       -169.41366120
          2.68724765        120.12512469
 Charge=             -0.0000 electrons
 Dipole moment (field-independent basis, Debye):
    X=             23.9466    Y=            -18.0800    Z=            -17.1823  Tot=             34.5768
 Quadrupole moment (field-independent basis, Debye-Ang):
   XX=           -799.3765   YY=           -237.1311   ZZ=           -635.2326
   XY=           -227.8672   XZ=              3.6144   YZ=            161.5724
 Traceless Quadrupole moment (field-independent basis, Debye-Ang):
   XX=           -242.1297   YY=            320.1156   ZZ=            -77.9859
   XY=           -227.8672   XZ=              3.6144   YZ=            161.5724
 Octapole moment (field-independent basis, Debye-Ang**2):
  XXX=            742.7639  YYY=          -2554.5379  ZZZ=           -210.5816  XYY=           1705.0027
  XXY=            178.2627  XXZ=             84.9234  XZZ=           1088.6515  YZZ=            -49.0872
  YYZ=          -1479.9921  XYZ=           -279.3876
 Hexadecapole moment (field-independent basis, Debye-Ang**3):
 XXXX=        -142631.4145 YYYY=         -11505.2271 ZZZZ=         -22496.3450 XXXY=          -7434.7437
 XXXZ=          -2336.0560 YYYX=         -15946.0041 YYYZ=          11414.3806 ZZZX=            976.3321
 ZZZY=           2987.6357 XXYY=         -24378.7720 XXZZ=         -28440.0985 YYZZ=          -8861.9118
 XXYZ=           4788.5401 YYXZ=          -2160.3270 ZZXY=          -3783.8766
 N-N= 1.944957509115D+04 E-N=-5.137326371801D+04  KE= 5.290479443986D+03
 Leave Link  601 at Tue Sep 17 23:57:10 2019, MaxMem=  1342177280 cpu:              43.2 elap:               1.1
 FitSet:  NAtFit=   176 NAtPot=   176 NAtFrz=     0 MDM=   180 TotChg=   0.00000
 Merz-Kollman atomic radii used.
 Read replacement radii for each type of atom:
 Rad(20) =   1.700000000000D+00
 Atom Element Radius
    1     6    1.50
    2     6    1.50
    3     8    1.40
    4     1    1.20
    5     1    1.20
    6     1    1.20
    7     7    1.50
    8     6    1.50
    9     6    1.50
   10     8    1.40
   11     6    1.50
   12     6    1.50
   13     8    1.40
   14     8    1.40
   15     1    1.20
   16     1    1.20
   17     1    1.20
   18     1    1.20
   19     7    1.50
   20     6    1.50
   21     6    1.50
   22     8    1.40
   23     6    1.50
   24     6    1.50
   25     6    1.50
   26     6    1.50
   27     7    1.50
   28     1    1.20
   29     1    1.20
   30     1    1.20
   31     1    1.20
   32     1    1.20
   33     1    1.20
   34     1    1.20
   35     1    1.20
   36     1    1.20
   37     1    1.20
   38     1    1.20
   39     1    1.20
   40     1    1.20
   41     7    1.50
   42     6    1.50
   43     6    1.50
   44     8    1.40
   45     6    1.50
   46     6    1.50
   47     8    1.40
   48     8    1.40
   49     1    1.20
   50     1    1.20
   51     1    1.20
   52     1    1.20
   53     7    1.50
   54     6    1.50
   55     6    1.50
   56     8    1.40
   57     1    1.20
   58     1    1.20
   59     1    1.20
   60     7    1.50
   61     6    1.50
   62     6    1.50
   63     8    1.40
   64     6    1.50
   65     6    1.50
   66     7    1.50
   67     8    1.40
   68     1    1.20
   69     1    1.20
   70     1    1.20
   71     1    1.20
   72     1    1.20
   73     1    1.20
   74     7    1.50
   75     6    1.50
   76     6    1.50
   77     8    1.40
   78     1    1.20
   79     1    1.20
   80     1    1.20
   81     7    1.50
   82     6    1.50
   83     6    1.50
   84     8    1.40
   85     6    1.50
   86     6    1.50
   87     6    1.50
   88     6    1.50
   89     6    1.50
   90     6    1.50
   91     6    1.50
   92     8    1.40
   93     1    1.20
   94     1    1.20
   95     1    1.20
[...]
 **** Fit      -0.002515
 **** Fit      -0.002131
 **** Fit      -0.024797
 **** Fit      -0.002935
 **** Fit      -0.002757
 **** Fit      -0.002362
 **** Fit      -0.003495
 **** Fit      -0.003354
 **** Fit      -0.002959
 **** Fit      -0.004378
 **** Fit      -0.004129
 **** Fit      -0.003545
 **** Fit      -0.002513
 **** Fit      -0.000803
 **** Fit      -0.005695
 **** Fit      -0.005640
 **** Fit      -0.005195
 **** Fit      -0.004165
 **** Fit      -0.007127
 **** Fit      -0.007539
 **** Fit      -0.007603
 **** Fit      -0.009460
 **** Fit      -0.010181
 **** Fit      -0.011030
 **** Fit      -0.006087
 **** Fit      -0.005006
 **** Fit      -0.010245
 **** Fit      -0.008060
 **** Fit      -0.006463
 **** Fit      -0.005301
 **** Fit      -0.004456
 **** Fit      -0.003826
 **** Fit      -0.003319
 **** Fit      -0.014470
 **** Fit      -0.011010
 **** Fit      -0.008548
 **** Fit      -0.006789
 **** Fit      -0.005540
 **** Fit      -0.004662
 **** Fit      -0.004054
 **** Fit      -0.003629
 **** Fit      -0.003306
 **** Fit      -0.002997
 **** Fit      -0.020448
 **** Fit      -0.014974
 **** Fit      -0.011227
 **** Fit      -0.008624
 **** Fit      -0.006804
 **** Fit      -0.005541
 **** Fit      -0.004681
 **** Fit      -0.004116
 **** Fit      -0.003763
 **** Fit      -0.003548
 **** Fit      -0.003400
 **** Fit      -0.003238
 **** Fit      -0.019617
 **** Fit      -0.014098
 **** Fit      -0.010428
 **** Fit      -0.007952
 **** Fit      -0.006278
 **** Fit      -0.005166
 **** Fit      -0.004456
 **** Fit      -0.004041
 **** Fit      -0.003836
 **** Fit      -0.003770
 **** Fit      -0.003772
 **** Fit      -0.003761
 **** Fit      -0.003641
 **** Fit      -0.017449
 **** Fit      -0.012432
 **** Fit      -0.009170
 **** Fit      -0.007036
 **** Fit      -0.005659
 **** Fit      -0.004808
 **** Fit      -0.004336
 **** Fit      -0.004140
 **** Fit      -0.004140
 **** Fit      -0.004262
 **** Fit      -0.004432
 **** Fit      -0.004562
 **** Fit      -0.004545
 **** Fit      -0.014903
 **** Fit      -0.010749
 **** Fit      -0.008073
 **** Fit      -0.006373
 **** Fit      -0.005338
 **** Fit      -0.004775
 **** Fit      -0.004557
 **** Fit      -0.004592
 **** Fit      -0.004806
 **** Fit      -0.005131
 **** Fit      -0.005491
 **** Fit      -0.005799
 **** Fit      -0.016288
 **** Fit      -0.011600
 **** Fit      -0.008599
 **** Fit      -0.006753
 **** Fit      -0.005696
 **** Fit      -0.005196
 **** Fit      -0.005102
 **** Fit      -0.005311
 **** Fit      -0.005740
 **** Fit      -0.006315
 **** Fit      -0.006958
 **** Fit      -0.007585
 **** Fit      -0.012184
 **** Fit      -0.009140
 **** Fit      -0.007244
 **** Fit      -0.006209
 **** Fit      -0.005804
 **** Fit      -0.005872
 **** Fit      -0.006301
 **** Fit      -0.007009
 **** Fit      -0.007924
 **** Fit      -0.008985
 **** Fit      -0.011739
 **** Fit      -0.009257
 **** Fit      -0.007578
 **** Fit      -0.006747
 **** Fit      -0.006619
 **** Fit      -0.007050
 **** Fit      -0.007929
 **** Fit      -0.009170
 **** Fit      -0.010708
 **** Fit      -0.009129
 **** Fit      -0.007894
 **** Fit      -0.007512
 **** Fit      -0.008029
 **** Fit      -0.009290
 **** Fit      -0.011075
 **** Fit      -0.009397
 **** Fit      -0.008582
 **** Fit      -0.008978
 **** Fit      -0.010649
 **** Fit      -0.009820
 **** Fit      -0.007313
 **** Fit      -0.007591
 **** Fit      -0.009247
 **** Fit      -0.005902
 **** Fit      -0.005745
 **** Fit      -0.006218
 **** Fit      -0.007413
 **** Fit      -0.009277
 **** Fit      -0.011359
 **** Fit      -0.004707
 **** Fit      -0.004453
 **** Fit      -0.004496
 **** Fit      -0.004900
 **** Fit      -0.005741
 **** Fit      -0.007084
 **** Fit      -0.008944
 **** Fit      -0.011175
 **** Fit      -0.003989
 **** Fit      -0.003622
 **** Fit      -0.003397
 **** Fit      -0.003347
 **** Fit      -0.003514
 **** Fit      -0.003948
 **** Fit      -0.004707
 **** Fit      -0.005861
 **** Fit      -0.007485
 **** Fit      -0.009606
 **** Fit      -0.012101
 **** Fit      -0.002963
 **** Fit      -0.002693
 **** Fit      -0.002511
 **** Fit      -0.002447
 **** Fit      -0.002530
 **** Fit      -0.002793
 **** Fit      -0.003274
 **** Fit      -0.004031
 **** Fit      -0.005145
 **** Fit      -0.006723
 **** Fit      -0.008860
 **** Fit      -0.002489
 **** Fit      -0.002234
 **** Fit      -0.002011
 **** Fit      -0.001839
 **** Fit      -0.001737
 **** Fit      -0.001722
 **** Fit      -0.001809
 **** Fit      -0.002014
 **** Fit      -0.002367
 **** Fit      -0.002918
 **** Fit      -0.003757
 **** Fit      -0.005026
 **** Fit      -0.006899
 **** Fit      -0.002032
 **** Fit      -0.001812
 **** Fit      -0.001593
 **** Fit      -0.001394
 **** Fit      -0.001228
 **** Fit      -0.001102
 **** Fit      -0.001013
 **** Fit      -0.000958
 **** Fit      -0.000936
 **** Fit      -0.000961
 **** Fit      -0.001089
 **** Fit      -0.001445
 **** Fit      -0.002264
 **** Fit      -0.001782
 **** Fit      -0.001591
 **** Fit      -0.001375
 **** Fit      -0.001150
 **** Fit      -0.000920
 **** Fit      -0.000679
 **** Fit      -0.000409
 **** Fit      -0.000080
 **** Fit       0.000346
 **** Fit       0.000906
 **** Fit       0.001618
 **** Fit       0.002443
 **** Fit      -0.001668
 **** Fit      -0.001480
 **** Fit      -0.001246
 **** Fit      -0.000972
 **** Fit      -0.000647
 **** Fit      -0.000244
 **** Fit       0.000287
 **** Fit       0.001017
 **** Fit       0.002043
 **** Fit       0.003479
 **** Fit       0.005447
 **** Fit      -0.001774
 **** Fit      -0.001580
 **** Fit      -0.001304
 **** Fit      -0.000939
 **** Fit      -0.000450
 **** Fit       0.000230
 **** Fit       0.001208
 **** Fit       0.002645
 **** Fit       0.004770
 **** Fit      -0.001960
 **** Fit      -0.001689
 **** Fit      -0.001270
 **** Fit      -0.000652
 **** Fit       0.000273
 **** Fit       0.001687
 **** Fit       0.003877
 **** Fit       0.007287
 **** Fit      -0.002213
 **** Fit      -0.001773
 **** Fit      -0.001051
 **** Fit       0.000108
 **** Fit       0.001971
 **** Fit       0.004986
 **** Fit      -0.001669
 **** Fit      -0.000234
 **** Fit       0.002261
 **** Fit      -0.015917
 **** Fit      -0.017576
 **** Fit      -0.015029
 **** Fit      -0.013514
 **** Fit      -0.014210
 **** Fit      -0.016856
 **** Fit      -0.018730
 **** Fit      -0.019264
 **** Fit      -0.016668
 **** Fit      -0.014272
 **** Fit      -0.012476
 **** Fit      -0.011459
 **** Fit      -0.011355
 **** Fit      -0.012363
 **** Fit      -0.014607
 **** Fit      -0.017726
 **** Fit      -0.020625
 **** Fit      -0.021987
 **** Fit      -0.021341
 **** Fit      -0.021064
 **** Fit      -0.018426
 **** Fit      -0.015898
 **** Fit      -0.013695
 **** Fit      -0.011917
 **** Fit      -0.010582
 **** Fit      -0.009686
 **** Fit      -0.009252
 **** Fit      -0.018345
 **** Fit      -0.021866
 **** Fit      -0.024534
 **** Fit      -0.025668
 **** Fit      -0.025182
 **** Fit      -0.023470
 **** Fit      -0.023085
 **** Fit      -0.020281
 **** Fit      -0.017570
 **** Fit      -0.015115
 **** Fit      -0.013003
 **** Fit      -0.011254
 **** Fit      -0.009842
 **** Fit      -0.008726
 **** Fit      -0.025275
 **** Fit      -0.028195
 **** Fit      -0.029562
 **** Fit      -0.029377
 **** Fit      -0.027968
 **** Fit      -0.025747
 **** Fit      -0.025492
 **** Fit      -0.022439
 **** Fit      -0.019453
 **** Fit      -0.016699
 **** Fit      -0.014273
 **** Fit      -0.012205
 **** Fit      -0.010470
 **** Fit      -0.009018
 **** Fit      -0.007789
 **** Fit      -0.031094
 **** Fit      -0.033094
 **** Fit      -0.033563
 **** Fit      -0.032733
 **** Fit      -0.030905
 **** Fit      -0.028397
 **** Fit      -0.028555
 **** Fit      -0.025237
 **** Fit      -0.021935
 **** Fit      -0.018839
 **** Fit      -0.016069
 **** Fit      -0.013668
 **** Fit      -0.011621
 **** Fit      -0.009881
 **** Fit      -0.008381
 **** Fit      -0.036123
 **** Fit      -0.034251
 **** Fit      -0.031645
 **** Fit      -0.032723
 **** Fit      -0.028793
 **** Fit      -0.024824
 **** Fit      -0.021101
 **** Fit      -0.017786
 **** Fit      -0.014928
 **** Fit      -0.012505
 **** Fit      -0.010450
 **** Fit      -0.038935
 **** Fit      -0.036233
 **** Fit      -0.033854
 **** Fit      -0.028884
 **** Fit      -0.024265
 **** Fit      -0.020205
 **** Fit      -0.016748
 **** Fit      -0.013845
 **** Fit      -0.011402
 **** Fit      -0.028222
 **** Fit      -0.023034
 **** Fit      -0.018735
 **** Fit      -0.015198
 **** Fit      -0.025493
 **** Fit      -0.000569
 **** Fit      -0.004457
 **** Fit      -0.009233
 **** Fit      -0.015069
 **** Fit       0.002391
 **** Fit      -0.000533
 **** Fit      -0.004125
 **** Fit      -0.008643
 **** Fit       0.006454
 **** Fit       0.004644
 **** Fit       0.002677
 **** Fit       0.000257
 **** Fit      -0.002849
 **** Fit       0.007166
 **** Fit       0.006119
 **** Fit       0.004969
 **** Fit       0.003472
 **** Fit       0.001406
 **** Fit       0.007717
 **** Fit       0.007329
 **** Fit       0.007092
 **** Fit       0.006847
 **** Fit       0.006398
 **** Fit       0.005520
 **** Fit       0.006468
 **** Fit       0.006729
 **** Fit       0.007245
 **** Fit       0.007961
 **** Fit       0.008758
 **** Fit       0.003985
 **** Fit       0.004818
 **** Fit       0.006050
 **** Fit       0.007754
 **** Fit       0.000770
 **** Fit       0.002289
 **** Fit       0.004526
 **** Fit       0.017694
 **** Fit       0.025826
 **** Fit       0.014480
 **** Fit       0.020355
 **** Fit       0.023211
 **** Fit       0.023234
 **** Fit       0.020653
 **** Fit       0.015885
 **** Fit       0.022262
 **** Fit       0.029147
 **** Fit       0.011649
 **** Fit       0.017980
 **** Fit       0.021204
 **** Fit       0.021703
 **** Fit       0.019905
 **** Fit       0.016408
 **** Fit       0.012085
 **** Fit       0.019549
 **** Fit       0.025107
 **** Fit       0.029296
 **** Fit       0.011219
 **** Fit       0.017116
 **** Fit       0.019974
 **** Fit       0.020313
 **** Fit       0.018853
 **** Fit       0.016598
 **** Fit       0.014846
 **** Fit       0.014849
 **** Fit       0.017016
 **** Fit       0.020467
 **** Fit       0.023687
 **** Fit       0.025385
 **** Fit       0.024471
 **** Fit       0.011047
 **** Fit       0.016344
 **** Fit       0.018838
 **** Fit       0.019249
 **** Fit       0.018632
 **** Fit       0.018185
 **** Fit       0.018728
 **** Fit       0.020076
 **** Fit       0.021046
 **** Fit       0.020064
 **** Fit       0.005213
 **** Fit       0.012289
 **** Fit       0.016303
 **** Fit       0.017872
 **** Fit       0.018212
 **** Fit       0.018301
 **** Fit       0.017945
 **** Fit       0.015599
 **** Fit       0.006895
 **** Fit       0.012589
 **** Fit       0.014911
 **** Fit       0.014831
 **** Fit       0.012068
 **** Fit       0.007357
 **** Fit       0.037004
 **** Fit       0.044309
 **** Fit       0.032715
 **** Fit       0.039073
 **** Fit       0.046010
 **** Fit       0.053372
 **** Fit       0.032890
 **** Fit       0.038753
 **** Fit       0.045242
 **** Fit       0.052226
 **** Fit       0.059513
 **** Fit       0.033263
 **** Fit       0.038725
 **** Fit       0.044768
 **** Fit       0.051318
 **** Fit       0.024507
 **** Fit       0.029092
 **** Fit       0.034084
 **** Fit       0.039562
 **** Fit       0.023522
 **** Fit       0.024260
 **** Fit       0.027706
 **** Fit       0.032355
 **** Fit       0.037669
 **** Fit       0.028555
 **** Fit       0.031253
 **** Fit       0.032033
 **** Fit       0.060658
 **** Fit       0.066965
 **** Fit       0.072970
 **** Fit       0.078411
 **** Fit       0.052130
 **** Fit       0.058044
 **** Fit       0.063968
 **** Fit       0.069757
 **** Fit       0.075165
 **** Fit       0.042796
 **** Fit       0.048059
 **** Fit       0.053469
 **** Fit       0.058979
 **** Fit       0.064480
 **** Fit       0.069754
 **** Fit       0.074439
 **** Fit       0.035325
 **** Fit       0.039595
 **** Fit       0.044252
 **** Fit       0.049101
 **** Fit       0.054068
 **** Fit       0.059063
 **** Fit       0.063903
 **** Fit       0.068253
 **** Fit       0.071584
 **** Fit       0.032161
 **** Fit       0.033492
 **** Fit       0.036665
 **** Fit       0.040811
 **** Fit       0.045374
 **** Fit       0.050097
 **** Fit       0.054820
 **** Fit       0.059308
 **** Fit       0.063152
 **** Fit       0.065701
 **** Fit       0.066073
 **** Fit       0.063346
 **** Fit       0.032142
 **** Fit       0.029774
 **** Fit       0.031620
 **** Fit       0.033819
 **** Fit       0.037121
 **** Fit       0.041210
 **** Fit       0.045637
 **** Fit       0.050069
 **** Fit       0.054176
 **** Fit       0.057463
 **** Fit       0.059183
 **** Fit       0.058390
 **** Fit       0.054194
 **** Fit       0.046067
 **** Fit       0.033801
 **** Fit       0.025461
 **** Fit       0.030453
 **** Fit       0.034409
 **** Fit       0.038594
 **** Fit       0.042999
 **** Fit       0.047196
 **** Fit       0.050574
 **** Fit       0.052256
 **** Fit       0.051117
 **** Fit       0.046109
 **** Fit       0.036683
 **** Fit       0.024820
 **** Fit       0.031579
 **** Fit       0.036979
 **** Fit       0.041666
 **** Fit       0.044801
 **** Fit       0.044737
 **** Fit       0.039717
 **** Fit       0.029191
 **** Fit       0.023338
 **** Fit       0.026340
 **** Fit       0.034045
 **** Fit       0.037916
 **** Fit       0.034125
 **** Fit       0.029566
 **** Fit       0.021431
 **** Fit       0.011288
 **** Fit       0.020531
 **** Fit       0.028543
 **** Fit       0.035928
 **** Fit       0.021233
 **** Fit       0.028027
 **** Fit       0.034678
 **** Fit       0.041479
 **** Fit       0.031870
 **** Fit       0.037975
 **** Fit       0.044320
 **** Fit       0.051134
 **** Fit       0.032957
 **** Fit       0.038775
 **** Fit       0.044833
 **** Fit       0.051144
 **** Fit       0.057892
 **** Fit       0.033741
 **** Fit       0.039361
 **** Fit       0.045170
 **** Fit       0.051149
 **** Fit       0.057294
 **** Fit       0.063705
 **** Fit       0.035142
 **** Fit       0.041027
 **** Fit       0.046997
 **** Fit       0.053079
 **** Fit       0.059244
 **** Fit       0.065455
 **** Fit       0.036496
 **** Fit       0.042556
 **** Fit       0.048590
 **** Fit       0.054673
 **** Fit       0.060787
 **** Fit       0.066846
 **** Fit       0.072714
 **** Fit       0.041626
 **** Fit       0.047787
 **** Fit       0.053914
 **** Fit       0.060047
 **** Fit       0.066126
 **** Fit       0.071989
 **** Fit       0.048224
 **** Fit       0.054628
 **** Fit       0.060986
 **** Fit       0.067261
 **** Fit       0.073282
 **** Fit       0.059339
 **** Fit       0.065896
 **** Fit       0.072232
 **** Fit       0.078069
 -----------------------------------------------------------------
 Leave Link  602 at Tue Sep 17 23:57:13 2019, MaxMem=  1342177280 cpu:             121.1 elap:               2.6

 Test job not archived.
 1\1\GINC-C506-071\SP\RB3LYP\SVP\C54H83Ca1N15O23\PENGZHI\17-Sep-2019\0\
 \#b3lyp/svp scf=(tight,noincore) Test #IOP(5/87=12) Density=Current Po
 p=(MK,readradii) iop(6/33=2) iop(6/42=6)\\Ng-295_loop3_21.0\\0,1\C,0,8
 5.78,35.06,45.56\C,0,85.83,34.25,46.85\O,0,86.23,34.79,47.88\H,0,85.64
 2,36.115,45.799\H,0,86.714,34.931,45.013\H,0,84.948,34.715,44.946\N,0,
 85.42,32.99,46.96\C,0,85.58,32.17,48.15\C,0,86.24,30.82,47.94\O,0,85.9
 5,30.21,46.92\C,0,84.17,31.94,48.7\C,0,84.16,31.21,50.04\O,0,84.32,31.
 89,51.08\O,0,84.16,29.96,50.08\H,0,85.13,32.51,46.12\H,0,86.17,32.66,4
 8.92\H,0,83.7,31.41,47.88\H,0,83.65,32.89,48.73\N,0,87.23,30.44,48.77\
 C,0,88.05,29.26,48.66\C,0,87.26,27.95,48.67\O,0,87.71,27.,48.04\C,0,89
 .21,29.4,49.64\C,0,90.37,28.45,49.38\C,0,91.49,28.69,50.38\C,0,92.71,2
 7.89,49.91\N,0,93.9,28.07,50.75\H,0,87.47,31.02,49.56\H,0,88.56,29.32,
 47.7\H,0,88.87,29.2,50.66\H,0,89.66,30.39,49.66\H,0,90.75,28.63,48.38\
 H,0,90.07,27.4,49.32\H,0,91.06,28.55,51.37\H,0,91.69,29.76,50.4\H,0,92
 .94,28.05,48.86\H,0,92.46,26.85,50.12\H,0,93.82,27.7,51.69\H,0,94.66,2
 7.58,50.3\H,0,94.27,29.01,50.74\N,0,86.11,27.78,49.32\C,0,85.13,26.73,
 49.16\C,0,83.89,27.08,48.35\O,0,82.98,26.26,48.16\C,0,84.64,26.13,50.4
 7\C,0,84.22,27.2,51.47\O,0,83.03,27.6,51.56\O,0,85.08,27.77,52.17\H,0,
 85.85,28.54,49.94\H,0,85.69,25.9,48.73\H,0,85.43,25.45,50.81\H,0,83.88
 ,25.36,50.37\N,0,83.89,28.27,47.75\C,0,82.77,28.68,46.93\C,0,81.48,28.
 97,47.68\O,0,80.46,29.15,47.02\H,0,84.66,28.88,47.99\H,0,82.56,28.02,4
 6.09\H,0,83.,29.6,46.39\N,0,81.46,28.93,49.02\C,0,80.33,29.4,49.78\C,0
 ,80.79,30.65,50.53\O,0,81.66,30.51,51.39\C,0,79.77,28.27,50.63\C,0,78.
 45,28.58,51.31\N,0,77.64,27.61,51.72\O,0,78.21,29.77,51.53\H,0,82.34,2
 8.84,49.51\H,0,79.55,29.69,49.08\H,0,80.49,27.87,51.36\H,0,79.61,27.44
 ,49.94\H,0,78.,26.68,51.55\H,0,76.84,27.77,52.32\N,0,80.02,31.74,50.5\
 C,0,80.48,33.03,50.97\C,0,80.32,33.25,52.47\O,0,80.39,34.42,52.84\H,0,
 79.16,31.63,49.99\H,0,80.11,33.81,50.3\H,0,81.54,33.06,50.72\N,0,80.21
 ,32.22,53.31\C,0,80.57,32.29,54.71\C,0,82.06,32.28,55.03\O,0,82.81,31.
 43,54.54\C,0,79.86,31.13,55.39\C,0,78.35,31.23,55.47\C,0,77.6,30.38,54
 .65\C,0,77.75,32.1,56.39\C,0,76.2,30.47,54.64\C,0,76.35,32.12,56.38\C,
 0,75.55,31.43,55.44\O,0,74.2,31.6,55.47\H,0,80.11,31.31,52.89\H,0,80.1
 3,33.21,55.09\H,0,80.07,30.97,56.45\H,0,80.17,30.15,55.02\H,0,78.11,29
 .63,54.06\H,0,78.4,32.68,57.02\H,0,75.56,29.91,53.97\H,0,75.82,32.81,5
 7.03\H,0,73.86,32.17,56.17\N,0,82.43,33.26,55.85\C,0,83.66,33.59,56.56
 \C,0,84.23,32.44,57.37\O,0,84.06,31.25,57.12\C,0,84.73,34.35,55.8\C,0,
 84.34,35.78,55.42\C,0,85.29,33.6,54.59\C,0,84.12,36.82,56.51\H,0,81.63
 ,33.79,56.16\H,0,83.33,34.29,57.33\H,0,85.49,34.51,56.56\H,0,83.39,35.
 76,54.88\H,0,85.11,36.24,54.82\H,0,85.57,32.58,54.87\H,0,84.54,33.43,5
 3.82\H,0,86.11,34.15,54.13\H,0,83.2,36.76,57.09\H,0,84.92,36.71,57.24\
 H,0,84.23,37.83,56.12\N,0,84.89,32.83,58.47\C,0,85.5,31.99,59.48\C,0,8
 5.19,32.39,60.91\O,0,85.6,31.69,61.84\C,0,86.97,31.76,59.15\O,0,87.76,
 32.93,59.23\H,0,85.11,33.81,58.56\H,0,85.03,31.01,59.33\H,0,87.08,31.2
 6,58.19\H,0,87.33,31.,59.85\H,0,88.67,32.77,58.96\N,0,84.61,33.55,61.2
 2\C,0,84.46,34.16,62.53\C,0,85.59,34.18,63.54\O,0,85.68,33.25,64.34\C,
 0,83.15,33.59,63.06\H,0,84.18,34.08,60.47\H,0,84.25,35.22,62.43\H,0,82
 .33,33.84,62.38\H,0,83.17,32.51,63.19\H,0,82.91,33.98,64.05\N,0,86.53,
 35.13,63.51\C,0,86.73,36.19,62.54\C,0,86.62,37.59,63.12\O,0,86.69,37.7
 5,64.34\C,0,88.13,35.81,62.06\H,0,87.26,34.98,64.19\H,0,85.99,36.16,61
 .74\H,0,88.76,35.82,62.94\H,0,88.23,34.79,61.68\H,0,88.61,36.46,61.33\
 N,0,86.62,38.65,62.31\C,0,86.32,38.7,60.89\C,0,84.94,39.27,60.62\O,0,8
 4.17,38.78,59.8\C,0,87.43,39.47,60.18\C,0,86.88,39.94,58.84\C,0,88.03,
 40.38,57.93\O,0,88.8,39.56,57.39\O,0,88.19,41.61,57.82\H,0,86.92,39.51
 ,62.73\H,0,86.37,37.76,60.35\H,0,88.19,38.7,60.02\H,0,87.71,40.37,60.7
 2\H,0,86.17,40.76,58.97\H,0,86.4,39.08,58.38\N,0,84.65,40.35,61.37\C,0
 ,83.42,41.1,61.43\H,0,82.643,40.487,61.887\H,0,83.571,41.999,62.027\H,
 0,83.115,41.38,60.422\H,0,85.43,40.74,61.88\Ca,0,83.8,29.95,52.73\O,0,
 86.45,30.46,52.71\H,0,87.01,29.72,52.97\H,0,87.05,31.05,52.25\\Version
 =ES64L-G16RevA.03\State=1-A\HF=-5333.3979295\RMSD=7.541e-10\Dipole=7.0
 865282,-10.1491722,-5.6420273\Quadrupole=229.4675469,-123.5709635,-105
 .8965834,-171.4898566,-138.688886,-33.6281642\PG=C01 [X(C54H83Ca1N15O2
 3)]\\@


 SOME PHYSICISTS WOULD PREFER TO COME BACK TO THE IDEA OF AN OBJECTIVE
 REAL WORLD WHOSE SMALLEST PARTS EXIST OBJECTIVELY IN THE SAME SENSE AS
 STONES OR TREES EXIST INDEPENDENTLY OF WHETHER WE OBSERVE THEM.
 THIS, HOWEVER, IS IMPOSSIBLE.  -- WERNER HEISENBERG
 Job cpu time:       0 days 14 hours 16 minutes  3.0 seconds.
 Elapsed time:       0 days  0 hours 18 minutes  3.4 seconds.
 File lengths (MBytes):  RWF=   1517 Int=      0 D2E=      0 Chk=    171 Scr=      1
 Normal termination of Gaussian 16 at Tue Sep 17 23:57:14 2019.
