 Entering Gaussian System, Link 0=g16
 Initial command:
 /home1/apps/gaussian/16rA.03/g16/l1.exe "/scratch/01990/pengzhi/4345054/Gau-440580.inp" -scrdir="/scratch/01990/pengzhi/4345054/"
 Entering Link 1 = /home1/apps/gaussian/16rA.03/g16/l1.exe PID=    440581.
  
 Copyright (c) 1988,1990,1992,1993,1995,1998,2003,2009,2016,
            Gaussian, Inc.  All Rights Reserved.
  
 This is part of the Gaussian(R) 16 program.  It is based on
 the Gaussian(R) 09 system (copyright 2009, Gaussian, Inc.),
 the Gaussian(R) 03 system (copyright 2003, Gaussian, Inc.),
 the Gaussian(R) 98 system (copyright 1998, Gaussian, Inc.),
 the Gaussian(R) 94 system (copyright 1995, Gaussian, Inc.),
 the Gaussian 92(TM) system (copyright 1992, Gaussian, Inc.),
 the Gaussian 90(TM) system (copyright 1990, Gaussian, Inc.),
 the Gaussian 88(TM) system (copyright 1988, Gaussian, Inc.),
 the Gaussian 86(TM) system (copyright 1986, Carnegie Mellon
 University), and the Gaussian 82(TM) system (copyright 1983,
 Carnegie Mellon University). Gaussian is a federally registered
 trademark of Gaussian, Inc.
  
 This software contains proprietary and confidential information,
 including trade secrets, belonging to Gaussian, Inc.
  
 This software is provided under written license and may be
 used, copied, transmitted, or stored only in accord with that
 written license.
  
 The following legend is applicable only to US Government
 contracts under FAR:
  
                    RESTRICTED RIGHTS LEGEND
  
 Use, reproduction and disclosure by the US Government is
 subject to restrictions as set forth in subparagraphs (a)
 and (c) of the Commercial Computer Software - Restricted
 Rights clause in FAR 52.227-19.
  
 Gaussian, Inc.
 340 Quinnipiac St., Bldg. 40, Wallingford CT 06492
  
  
 ---------------------------------------------------------------
 Warning -- This program may not be used in any manner that
 competes with the business of Gaussian, Inc. or will provide
 assistance to any competitor of Gaussian, Inc.  The licensee
 of this program is prohibited from giving any competitor of
 Gaussian, Inc. access to this program.  By using this program,
 the user acknowledges that Gaussian, Inc. is engaged in the
 business of creating and licensing software in the field of
 computational chemistry and represents and warrants to the
 licensee that it is not a competitor of Gaussian, Inc. and that
 it will not use this program in any manner prohibited above.
 ---------------------------------------------------------------
  

 Cite this work as:
 Gaussian 16, Revision A.03,
 M. J. Frisch, G. W. Trucks, H. B. Schlegel, G. E. Scuseria, 
 M. A. Robb, J. R. Cheeseman, G. Scalmani, V. Barone, 
 G. A. Petersson, H. Nakatsuji, X. Li, M. Caricato, A. V. Marenich, 
 J. Bloino, B. G. Janesko, R. Gomperts, B. Mennucci, H. P. Hratchian, 
 J. V. Ortiz, A. F. Izmaylov, J. L. Sonnenberg, D. Williams-Young, 
 F. Ding, F. Lipparini, F. Egidi, J. Goings, B. Peng, A. Petrone, 
 T. Henderson, D. Ranasinghe, V. G. Zakrzewski, J. Gao, N. Rega, 
 G. Zheng, W. Liang, M. Hada, M. Ehara, K. Toyota, R. Fukuda, 
 J. Hasegawa, M. Ishida, T. Nakajima, Y. Honda, O. Kitao, H. Nakai, 
 T. Vreven, K. Throssell, J. A. Montgomery, Jr., J. E. Peralta, 
 F. Ogliaro, M. J. Bearpark, J. J. Heyd, E. N. Brothers, K. N. Kudin, 
 V. N. Staroverov, T. A. Keith, R. Kobayashi, J. Normand, 
 K. Raghavachari, A. P. Rendell, J. C. Burant, S. S. Iyengar, 
 J. Tomasi, M. Cossi, J. M. Millam, M. Klene, C. Adamo, R. Cammi, 
 J. W. Ochterski, R. L. Martin, K. Morokuma, O. Farkas, 
 J. B. Foresman, and D. J. Fox, Gaussian, Inc., Wallingford CT, 2016.
 
 ******************************************
 Gaussian 16:  ES64L-G16RevA.03 25-Dec-2016
                17-Sep-2019 
 ******************************************
 %chk=Ng-293_loop3_37.0.chk
 %nprocshared=48
 Will use up to   48 processors via shared memory.
 %mem=10GB
 %nosave
 ----------------------------------------------------------------------
 #b3lyp/svp scf=(tight,noincore) Test #IOP(5/87=12) Density=Current Pop
 =(MK,readradii) iop(6/33=2) iop(6/42=6)
 ----------------------------------------------------------------------
 1/30=1,38=1,172=1/1;
 2/12=2,17=6,18=5,40=1/2;
 3/5=18,7=101,11=2,25=1,30=1,74=-5/1,2,3;
 4//1;
 5/5=4,32=2,38=5,87=12/2;
 6/7=2,8=2,9=2,10=2,15=8,20=101,22=-1,28=1,33=2,42=6/1,2;
 99/5=1,9=1/99;
 -----------------
 Ng-293_loop3_37.0
 -----------------
 Symbolic Z-matrix:
 Charge =  0 Multiplicity = 1
 C                     66.43     27.5      21.38 
 C                     67.52     28.36     20.76 
 O                     67.43     29.59     20.71 
 H                     65.53     27.557    20.767 
 H                     66.768    26.465    21.432 
 H                     66.209    27.861    22.384 
 N                     68.58     27.67     20.32 
 C                     69.74     28.2      19.64 
 C                     69.56     29.2      18.5 
 O                     70.3      30.13     18.2 
 C                     70.74     28.76     20.66 
 C                     72.22     28.8      20.31 
 O                     72.97     29.57     20.94 
 O                     72.68     28.13     19.35 
 H                     68.51     26.66     20.25 
 H                     70.14     27.3      19.18 
 H                     70.56     28.17     21.56 
 H                     70.29     29.71     20.94 
 N                     68.4      29.07     17.84 
 C                     67.96     29.83     16.69 
 C                     67.71     31.31     16.89 
 O                     67.85     31.97     15.86 
 C                     66.64     29.27     16.16 
 C                     66.72     27.89     15.52 
 C                     65.51     27.57     14.65 
 C                     65.82     26.42     13.69 
 N                     66.24     25.26     14.49 
 H                     67.74     28.43     18.27 
 H                     68.73     29.82     15.91 
 H                     66.4      29.94     15.34 
 H                     65.88     29.28     16.95 
 H                     66.74     27.15     16.32 
 H                     67.67     27.78     15. 
 H                     65.36     28.38     13.93 
 H                     64.66     27.34     15.29 
 H                     66.61     26.73     13.01 
 H                     65.01     26.23     12.99 
 H                     66.36     24.48     13.86 
 H                     67.14     25.44     14.92 
 H                     65.57     24.91     15.16 
 N                     67.46     31.84     18.09 
 C                     67.54     33.27     18.32 
 C                     68.06     33.6      19.72 
 O                     67.67     32.97     20.7 
 C                     66.14     33.88     18.18 
 C                     66.01     35.38     18.36 
 O                     64.98     35.9      18.85 
 O                     66.93     36.1      17.91 
 H                     67.37     31.24     18.9 
 H                     68.31     33.68     17.67 
 H                     65.4      33.43     18.84 
 H                     65.79     33.55     17.2 
 N                     68.82     34.68     19.89 
 C                     69.22     35.17     21.19 
 C                     68.37     36.31     21.71 
 O                     67.47     36.81     21.04 
 H                     69.18     35.02     19.01 
 H                     70.18     35.62     20.94 
 H                     69.29     34.36     21.92 
 N                     68.61     36.65     22.98 
 C                     67.72     37.52     23.73 
 C                     68.3      38.8      24.31 
 O                     67.6      39.55     24.99 
 C                     66.84     36.73     24.69 
 C                     66.02     35.65     23.99 
 N                     65.21     36.05     23.01 
 O                     66.05     34.49     24.39 
 H                     69.55     36.53     23.33 
 H                     67.03     37.96     23.02 
 H                     66.19     37.42     25.23 
 H                     67.48     36.28     25.44 
 H                     65.21     37.04     22.78 
 H                     64.54     35.44     22.58 
 N                     69.57     39.11     24.06 
 C                     70.37     40.2      24.58 
 C                     70.08     40.61     26.02 
 O                     69.85     39.77     26.88 
 H                     70.09     38.42     23.52 
 H                     70.13     41.08     23.98 
 H                     71.44     40.08     24.42 
 N                     69.95     41.91     26.29 
 C                     69.47     42.47     27.54 
 C                     68.07     42.06     27.98 
 O                     67.68     42.29     29.12 
 C                     70.52     42.28     28.63 
 C                     71.92     42.53     28.13 
 C                     72.79     41.45     27.94 
 C                     72.31     43.84     27.86 
 C                     74.05     41.71     27.39 
 C                     73.6      44.12     27.4 
 C                     74.46     43.03     27.12 
 O                     75.75     43.28     26.76 
 H                     69.96     42.56     25.52 
 H                     69.44     43.55     27.37 
 H                     70.41     41.27     29.02 
 H                     70.38     42.93     29.5 
 H                     72.49     40.42     28.09 
 H                     71.61     44.65     28.01 
 H                     74.77     40.94     27.17 
 H                     73.92     45.14     27.29 
 H                     76.01     44.16     27.03 
 N                     67.38     41.3      27.12 
 C                     66.03     40.78     27.14 
 C                     64.96     41.85     27.2 
 O                     64.07     41.82     26.36 
 C                     65.89     39.74     28.26 
 C                     66.63     38.45     27.92 
 C                     64.43     39.42     28.55 
 C                     66.95     37.56     29.12 
 H                     67.77     41.15     26.2 
 H                     65.91     40.22     26.21 
 H                     66.28     40.21     29.16 
 H                     67.58     38.62     27.42 
 H                     66.05     37.91     27.17 
 H                     63.81     39.43     27.66 
 H                     64.37     38.39     28.91 
 H                     64.1      40.16     29.29 
 H                     66.       37.2      29.53 
 H                     67.49     36.66     28.82 
 H                     67.57     38.13     29.8 
 N                     65.01     42.81     28.13 
 C                     64.29     44.07     28.06 
 C                     62.78     43.98     28.19 
 O                     62.08     44.92     27.83 
 C                     64.79     45.04     29.13 
 O                     66.2      44.97     29.27 
 H                     65.77     42.8      28.8 
 H                     64.39     44.55     27.09 
 H                     64.28     44.68     30.02 
 H                     64.49     46.08     29.07 
 H                     66.58     45.       28.38 
 N                     62.24     42.82     28.59 
 C                     60.85     42.45     28.49 
 C                     60.13     42.68     27.17 
 O                     58.91     42.83     27.21 
 C                     60.17     43.08     29.7 
 H                     62.85     42.21     29.13 
 H                     60.77     41.36     28.56 
 H                     60.22     44.16     29.59 
 H                     59.13     42.73     29.76 
 H                     60.68     42.8      30.62 
 N                     60.86     42.69     26.05 
 C                     60.51     42.97     24.67 
 C                     60.62     41.73     23.8 
 O                     61.06     40.7      24.3 
 C                     61.46     44.09     24.24 
 H                     61.83     42.43     26.15 
 H                     59.48     43.28     24.5 
 H                     61.14     44.57     23.32 
 H                     61.46     44.86     25.02 
 H                     62.46     43.67     24.17 
 N                     60.24     41.7      22.52 
 C                     60.1      40.61     21.57 
 C                     59.17     39.47     21.98 
 O                     59.22     38.39     21.4 
 C                     61.53     40.24     21.22 
 C                     61.75     39.63     19.83 
 C                     63.18     39.14     19.64 
 O                     63.75     38.26     20.32 
 O                     63.92     39.68     18.79 
 H                     59.89     42.55     22.11 
 H                     59.67     40.99     20.64 
 H                     61.98     39.61     21.98 
 H                     62.12     41.15     21.32 
 H                     61.56     40.46     19.16 
 H                     61.03     38.84     19.63 
 N                     58.37     39.62     23.04 
 C                     57.66     38.62     23.8 
 H                     56.678    38.457    23.356 
 H                     58.223    37.687    23.789 
 H                     57.541    38.961    24.828 
 H                     58.46     40.52     23.51 
 Ca                    66.07     38.15     19.15 
 O                     65.59     38.32     16.64 
 H                     65.6      37.8      15.84 
 H                     65.46     39.22     16.34 
 
 Stoichiometry    C54H83CaN15O23
 Framework group  C1[X(C54H83CaN15O23)]
 Deg. of freedom   522
 Full point group                 C1      NOp   1
 Largest Abelian subgroup         C1      NOp   1
 Largest concise Abelian subgroup C1      NOp   1
                         Standard orientation:                         
 ---------------------------------------------------------------------
 Center     Atomic      Atomic             Coordinates (Angstroms)
 Number     Number       Type             X           Y           Z
 ---------------------------------------------------------------------
      1          6           0        8.815559   -0.199281    4.744784
      2          6           0        8.679873    0.622173    3.472423
      3          8           0        7.713939    0.494880    2.714618
      4          1           0        8.968839   -1.247301    4.485599
      5          1           0        9.668240    0.159876    5.321078
      6          1           0        7.907824   -0.101270    5.339417
      7          7           0        9.668662    1.504676    3.280631
      8          6           0        9.842656    2.380737    2.144345
      9          6           0        9.675888    1.830449    0.729647
     10          8           0        9.238112    2.418761   -0.252566
     11          6           0        8.979680    3.638420    2.310196
     12          6           0        9.408211    4.932304    1.634382
     13          8           0        8.560571    5.825706    1.445600
     14          8           0       10.578041    5.081530    1.196969
     15          1           0       10.501150    1.437728    3.857156
     16          1           0       10.895379    2.635002    2.237737
     17          1           0        8.896481    3.762897    3.390975
     18          1           0        7.982769    3.279080    2.064343
     19          7           0        9.960043    0.524868    0.616447
     20          6           0        9.944902   -0.270229   -0.592392
     21          6           0        8.607204   -0.476152   -1.271405
     22          8           0        8.703055   -0.680928   -2.481768
     23          6           0       10.468213   -1.677678   -0.305807
     24          6           0       11.951721   -1.773476    0.026501
     25          6           0       12.500148   -3.188451   -0.116580
     26          6           0       14.026023   -3.171383   -0.224347
     27          7           0       14.558983   -2.496727    0.968461
     28          1           0       10.105518    0.047161    1.500039
     29          1           0       10.538903    0.215741   -1.374949
     30          1           0       10.368274   -2.177354   -1.264575
     31          1           0        9.870157   -2.151015    0.481645
     32          1           0       12.080699   -1.487402    1.070305
     33          1           0       12.505973   -1.032848   -0.547324
     34          1           0       12.246454   -3.574264   -1.108441
     35          1           0       12.164437   -3.789232    0.726842
     36          1           0       14.310784   -2.641819   -1.130478
     37          1           0       14.442031   -4.156063   -0.423202
     38          1           0       15.565972   -2.564180    0.934946
     39          1           0       14.323077   -1.511244    0.946720
     40          1           0       14.332744   -2.914688    1.859766
     41          7           0        7.446282   -0.347680   -0.623983
     42          6           0        6.188427   -0.229904   -1.336814
     43          6           0        5.204808    0.696485   -0.620156
     44          8           0        5.070548    0.647632    0.600085
     45          6           0        5.540308   -1.615636   -1.443525
     46          6           0        4.219159   -1.714374   -2.181167
     47          8           0        3.341956   -2.549079   -1.856846
     48          8           0        4.066827   -0.997881   -3.196417
     49          1           0        7.438865   -0.165846    0.371548
     50          1           0        6.372707    0.287977   -2.275611
     51          1           0        5.387298   -2.101051   -0.480892
     52          1           0        6.310095   -2.248715   -1.888991
     53          7           0        4.378700    1.448257   -1.344920
     54          6           0        3.304774    2.225929   -0.768718
     55          6           0        1.947900    1.558304   -0.844022
     56          8           0        1.781525    0.482953   -1.413968
     57          1           0        4.680665    1.506223   -2.306719
     58          1           0        3.258448    3.048967   -1.480801
     59          1           0        3.538751    2.538954    0.251659
     60          7           0        0.982940    2.177881   -0.157672
     61          6           0       -0.299235    1.550298    0.113747
     62          6           0       -1.553510    2.255792   -0.376430
     63          8           0       -2.666517    1.789102   -0.134946
     64          6           0       -0.379786    1.033495    1.544316
     65          6           0        0.743046    0.058256    1.886304
     66          7           0        0.851608   -1.026947    1.120112
     67          8           0        1.439965    0.237079    2.880702
     68          1           0        1.039200    3.182575   -0.068644
     69          1           0       -0.358118    0.662971   -0.505109
     70          1           0       -1.355187    0.571551    1.703690
     71          1           0       -0.344824    1.886147    2.212420
     72          1           0        0.196728   -1.120268    0.348475
     73          1           0        1.469875   -1.784984    1.341524
     74          7           0       -1.434433    3.376036   -1.085213
     75          6           0       -2.464386    4.275527   -1.563348
     76          6           0       -3.675825    4.443992   -0.652394
     77          8           0       -3.545508    4.513764    0.562616
     78          1           0       -0.481653    3.714595   -1.210467
     79          1           0       -2.859017    3.840507   -2.483686
     80          1           0       -2.089932    5.243370   -1.891926
     81          7           0       -4.889907    4.377785   -1.201415
     82          6           0       -6.143712    4.303031   -0.474171
     83          6           0       -6.315911    3.121224    0.472073
     84          8           0       -7.227579    3.104349    1.292547
     85          6           0       -6.441452    5.646116    0.184747
     86          6           0       -6.107098    6.812476   -0.709856
     87          6           0       -4.985765    7.601488   -0.427948
     88          6           0       -6.925696    7.069938   -1.807448
     89          6           0       -4.654755    8.619048   -1.329449
     90          6           0       -6.657549    8.143823   -2.661244
     91          6           0       -5.477835    8.895280   -2.438338
     92          8           0       -5.243759   10.001223   -3.198799
     93          1           0       -4.959399    4.131526   -2.176108
     94          1           0       -6.910238    4.198173   -1.247245
     95          1           0       -5.882520    5.685730    1.117659
     96          1           0       -7.487517    5.772757    0.482591
     97          1           0       -4.304878    7.385789    0.386464
     98          1           0       -7.779308    6.435451   -2.000772
     99          1           0       -3.788940    9.249673   -1.218199
    100          1           0       -7.350177    8.391285   -3.444781
    101          1           0       -6.055599   10.314107   -3.596190
    102          7           0       -5.332494    2.212293    0.466116
    103          6           0       -5.165005    0.948322    1.149947
    104          6           0       -6.237835   -0.071147    0.828829
    105          8           0       -5.881992   -1.179146    0.448943
    106          6           0       -5.010483    1.189458    2.657786
    107          6           0       -3.657649    1.812423    2.988020
    108          6           0       -5.177842   -0.098339    3.452562
    109          6           0       -3.588869    2.512100    4.344568
    110          1           0       -4.612019    2.296588   -0.237312
    111          1           0       -4.201062    0.554144    0.820801
    112          1           0       -5.838405    1.832388    2.947935
    113          1           0       -3.337907    2.553379    2.259906
    114          1           0       -2.893993    1.037777    2.902860
    115          1           0       -4.777885   -0.966636    2.940024
    116          1           0       -4.576900   -0.020270    4.361888
    117          1           0       -6.253278   -0.194791    3.648097
    118          1           0       -3.705185    1.746908    5.119908
    119          1           0       -2.604514    2.949513    4.521523
    120          1           0       -4.328881    3.302079    4.348451
    121          7           0       -7.532414    0.248085    0.934452
    122          6           0       -8.620266   -0.484077    0.308819
    123          6           0       -8.886709   -1.874493    0.857319
    124          8           0       -9.548245   -2.671981    0.201893
    125          6           0       -9.925641    0.306033    0.395555
    126          8           0       -9.705697    1.689771    0.173081
    127          1           0       -7.780509    1.180137    1.244820
    128          1           0       -8.422843   -0.704138   -0.737077
    129          1           0      -10.243579    0.109266    1.416338
    130          1           0      -10.771054   -0.019677   -0.199751
    131          1           0       -9.147654    1.770171   -0.614017
    132          7           0       -8.288974   -2.236670    2.001321
    133          6           0       -8.178319   -3.579499    2.514709
    134          6           0       -7.721704   -4.682488    1.572044
    135          8           0       -8.076597   -5.831040    1.831617
    136          6           0       -9.499474   -3.858134    3.222036
    137          1           0       -8.010144   -1.475068    2.616152
    138          1           0       -7.365017   -3.610250    3.247508
    139          1           0      -10.286852   -3.868211    2.473081
    140          1           0       -9.436567   -4.818925    3.751775
    141          1           0       -9.721002   -3.079072    3.949283
    142          7           0       -6.953538   -4.341732    0.532233
    143          6           0       -6.437573   -5.113461   -0.582897
    144          6           0       -4.927007   -5.256026   -0.516071
    145          8           0       -4.320198   -4.659409    0.367292
    146          6           0       -6.914732   -4.370719   -1.832879
    147          1           0       -6.635709   -3.384135    0.510067
    148          1           0       -6.765080   -6.151063   -0.627856
    149          1           0       -6.819370   -4.973702   -2.730942
    150          1           0       -7.979812   -4.142031   -1.712022
    151          1           0       -6.365776   -3.434657   -1.893988
    152          7           0       -4.227416   -6.018216   -1.360665
    153          6           0       -2.833408   -6.426387   -1.379088
    154          6           0       -2.325255   -7.156005   -0.137299
    155          8           0       -1.120583   -7.267806    0.066576
    156          6           0       -2.087161   -5.171238   -1.793835
    157          6           0       -0.757652   -5.386178   -2.527871
    158          6           0       -0.008597   -4.078207   -2.749741
    159          8           0        0.397092   -3.304841   -1.855861
    160          8           0        0.182876   -3.654403   -3.909667
    161          1           0       -4.727419   -6.497306   -2.091123
    162          1           0       -2.671778   -7.134788   -2.195326
    163          1           0       -1.947751   -4.491949   -0.959490
    164          1           0       -2.766937   -4.599193   -2.423810
    165          1           0       -1.063207   -5.794672   -3.483732
    166          1           0       -0.138078   -6.115580   -2.011538
    167          7           0       -3.198211   -7.585454    0.779009
    168          6           0       -2.966081   -7.999276    2.141568
    169          1           0       -2.749864   -9.067347    2.164024
    170          1           0       -2.118941   -7.448531    2.549751
    171          1           0       -3.854054   -7.796489    2.739571
    172          1           0       -4.171466   -7.371508    0.564529
    173         20           0        1.566447   -1.468138   -3.278019
    174          8           0        2.802263   -2.715946   -5.142190
    175          1           0        3.681639   -2.946745   -5.431895
    176          1           0        2.236983   -2.952732   -5.877915
 ---------------------------------------------------------------------
 Rotational constants (GHZ):           0.0194510           0.0078247           0.0063006
 Standard basis: SVP (5D, 7F)
 There are  1809 symmetry adapted cartesian basis functions of A   symmetry.
 There are  1717 symmetry adapted basis functions of A   symmetry.
  1717 basis functions,  2922 primitive gaussians,  1809 cartesian basis functions
   358 alpha electrons      358 beta electrons
       nuclear repulsion energy     18630.3878381098 Hartrees.
 NAtoms=  176 NActive=  176 NUniq=  176 SFac= 1.00D+00 NAtFMM=   60 NAOKFM=T Big=T
 Integral buffers will be    131072 words long.
 Raffenetti 2 integral format.
 Two-electron integral symmetry is turned on.
 One-electron integrals computed using PRISM.
 NBasis=  1717 RedAO= T EigKep=  2.70D-04  NBF=  1717
 NBsUse=  1717 1.00D-06 EigRej= -1.00D+00 NBFU=  1717
 ExpMin= 1.98D-02 ExpMax= 3.51D+04 ExpMxC= 5.28D+03 IAcc=3 IRadAn=         5 AccDes= 0.00D+00
 Harris functional with IExCor=  402 and IRadAn=       5 diagonalized for initial guess.
 HarFok:  IExCor=  402 AccDes= 0.00D+00 IRadAn=         5 IDoV= 1 UseB2=F ITyADJ=14
 ICtDFT=  3500011 ScaDFX=  1.000000  1.000000  1.000000  1.000000
 FoFCou: FMM=F IPFlag=           0 FMFlag=      100000 FMFlg1=        2001
         NFxFlg=           0 DoJE=T BraDBF=F KetDBF=T FulRan=T
         wScrn=  0.000000 ICntrl=       500 IOpCl=  0 I1Cent=   200000004 NGrid=           0
         NMat0=    1 NMatS0=      1 NMatT0=    0 NMatD0=    1 NMtDS0=    0 NMtDT0=    0
 Petite list used in FoFCou.
 Requested convergence on RMS density matrix=1.00D-08 within 128 cycles.
 Requested convergence on MAX density matrix=1.00D-06.
 Requested convergence on             energy=1.00D-06.
 No special actions if energy rises.
 EnCoef did   100 forward-backward iterations
 EnCoef did    11 forward-backward iterations
 EnCoef did   100 forward-backward iterations
 Rare condition: small coef for last iteration:  0.000D+00
 Rare condition: small coef for last iteration:  0.000D+00
 EnCoef did    87 forward-backward iterations
 Rare condition: small coef for last iteration: -0.222D-14
 EnCoef did   100 forward-backward iterations
 Rare condition: small coef for last iteration:  0.000D+00
 EnCoef did    86 forward-backward iterations
 Restarting incremental Fock formation.
 SCF Done:  E(RB3LYP) =  -5333.37104597     A.U. after   34 cycles
            NFock= 34  Conv=0.17D-08     -V/T= 2.0081
 SCF density gives NOpUse=  1 NOpAll=  1.
 Hyperfine terms turned off by default for NAtoms > 100.

 **********************************************************************

            Population analysis using the SCF density.

 **********************************************************************

 Orbital symmetries:
 BldTbl:  Degeneracy threshold= 1.00D-02
       Occupied  (A) (A) (A) (A) (A) (A) (A) (A) (A) (A) (A) (A)
                 (A) (A) (A) (A) (A) (A) (A) (A) (A) (A) (A) (A)
                 (A) (A) (A) (A) (A) (A) (A) (A) (A) (A) (A) (A)
                 (A) (A) (A) (A) (A) (A) (A) (A) (A) (A) (A) (A)
                 (A) (A) (A) (A) (A) (A) (A) (A) (A) (A) (A) (A)
                 (A) (A) (A) (A) (A) (A) (A) (A) (A) (A) (A) (A)
                 (A) (A) (A) (A) (A) (A) (A) (A) (A) (A) (A) (A)
                 (A) (A) (A) (A) (A) (A) (A) (A) (A) (A) (A) (A)
                 (A) (A) (A) (A) (A) (A) (A) (A) (A) (A) (A) (A)
                 (A) (A) (A) (A) (A) (A) (A) (A) (A) (A) (A) (A)
                 (A) (A) (A) (A) (A) (A) (A) (A) (A) (A) (A) (A)
                 (A) (A) (A) (A) (A) (A) (A) (A) (A) (A) (A) (A)
                 (A) (A) (A) (A) (A) (A) (A) (A) (A) (A) (A) (A)
                 (A) (A) (A) (A) (A) (A) (A) (A) (A) (A) (A) (A)
                 (A) (A) (A) (A) (A) (A) (A) (A) (A) (A) (A) (A)
                 (A) (A) (A) (A) (A) (A) (A) (A) (A) (A) (A) (A)
                 (A) (A) (A) (A) (A) (A) (A) (A) (A) (A) (A) (A)
                 (A) (A) (A) (A) (A) (A) (A) (A) (A) (A) (A) (A)
                 (A) (A) (A) (A) (A) (A) (A) (A) (A) (A) (A) (A)
                 (A) (A) (A) (A) (A) (A) (A) (A) (A) (A) (A) (A)
                 (A) (A) (A) (A) (A) (A) (A) (A) (A) (A) (A) (A)
                 (A) (A) (A) (A) (A) (A) (A) (A) (A) (A) (A) (A)
                 (A) (A) (A) (A) (A) (A) (A) (A) (A) (A) (A) (A)
                 (A) (A) (A) (A) (A) (A) (A) (A) (A) (A) (A) (A)
                 (A) (A) (A) (A) (A) (A) (A) (A) (A) (A) (A) (A)
                 (A) (A) (A) (A) (A) (A) (A) (A) (A) (A) (A) (A)
                 (A) (A) (A) (A) (A) (A) (A) (A) (A) (A) (A) (A)
                 (A) (A) (A) (A) (A) (A) (A) (A) (A) (A) (A) (A)
                 (A) (A) (A) (A) (A) (A) (A) (A) (A) (A) (A) (A)
                 (A) (A) (A) (A) (A) (A) (A) (A) (A) (A)
       Virtual   (A) (A) (A) (A) (A) (A) (A) (A) (A) (A) (A) (A)
                 (A) (A) (A) (A) (A) (A) (A) (A) (A) (A) (A) (A)
                 (A) (A) (A) (A) (A) (A) (A) (A) (A) (A) (A) (A)
                 (A) (A) (A) (A) (A) (A) (A) (A) (A) (A) (A) (A)
                 (A) (A) (A) (A) (A) (A) (A) (A) (A) (A) (A) (A)
                 (A) (A) (A) (A) (A) (A) (A) (A) (A) (A) (A) (A)
                 (A) (A) (A) (A) (A) (A) (A) (A) (A) (A) (A) (A)
                 (A) (A) (A) (A) (A) (A) (A) (A) (A) (A) (A) (A)
                 (A) (A) (A) (A) (A) (A) (A) (A) (A) (A) (A) (A)
                 (A) (A) (A) (A) (A) (A) (A) (A) (A) (A) (A) (A)
                 (A) (A) (A) (A) (A) (A) (A) (A) (A) (A) (A) (A)
                 (A) (A) (A) (A) (A) (A) (A) (A) (A) (A) (A) (A)
                 (A) (A) (A) (A) (A) (A) (A) (A) (A) (A) (A) (A)
                 (A) (A) (A) (A) (A) (A) (A) (A) (A) (A) (A) (A)
                 (A) (A) (A) (A) (A) (A) (A) (A) (A) (A) (A) (A)
                 (A) (A) (A) (A) (A) (A) (A) (A) (A) (A) (A) (A)
                 (A) (A) (A) (A) (A) (A) (A) (A) (A) (A) (A) (A)
                 (A) (A) (A) (A) (A) (A) (A) (A) (A) (A) (A) (A)
                 (A) (A) (A) (A) (A) (A) (A) (A) (A) (A) (A) (A)
                 (A) (A) (A) (A) (A) (A) (A) (A) (A) (A) (A) (A)
                 (A) (A) (A) (A) (A) (A) (A) (A) (A) (A) (A) (A)
                 (A) (A) (A) (A) (A) (A) (A) (A) (A) (A) (A) (A)
                 (A) (A) (A) (A) (A) (A) (A) (A) (A) (A) (A) (A)
                 (A) (A) (A) (A) (A) (A) (A) (A) (A) (A) (A) (A)
                 (A) (A) (A) (A) (A) (A) (A) (A) (A) (A) (A) (A)
                 (A) (A) (A) (A) (A) (A) (A) (A) (A) (A) (A) (A)
                 (A) (A) (A) (A) (A) (A) (A) (A) (A) (A) (A) (A)
                 (A) (A) (A) (A) (A) (A) (A) (A) (A) (A) (A) (A)
                 (A) (A) (A) (A) (A) (A) (A) (A) (A) (A) (A) (A)
                 (A) (A) (A) (A) (A) (A) (A) (A) (A) (A) (A) (A)
                 (A) (A) (A) (A) (A) (A) (A) (A) (A) (A) (A) (A)
                 (A) (A) (A) (A) (A) (A) (A) (A) (A) (A) (A) (A)
                 (A) (A) (A) (A) (A) (A) (A) (A) (A) (A) (A) (A)
                 (A) (A) (A) (A) (A) (A) (A) (A) (A) (A) (A) (A)
                 (A) (A) (A) (A) (A) (A) (A) (A) (A) (A) (A) (A)
                 (A) (A) (A) (A) (A) (A) (A) (A) (A) (A) (A) (A)
                 (A) (A) (A) (A) (A) (A) (A) (A) (A) (A) (A) (A)
                 (A) (A) (A) (A) (A) (A) (A) (A) (A) (A) (A) (A)
                 (A) (A) (A) (A) (A) (A) (A) (A) (A) (A) (A) (A)
                 (A) (A) (A) (A) (A) (A) (A) (A) (A) (A) (A) (A)
                 (A) (A) (A) (A) (A) (A) (A) (A) (A) (A) (A) (A)
                 (A) (A) (A) (A) (A) (A) (A) (A) (A) (A) (A) (A)
                 (A) (A) (A) (A) (A) (A) (A) (A) (A) (A) (A) (A)
                 (A) (A) (A) (A) (A) (A) (A) (A) (A) (A) (A) (A)
                 (A) (A) (A) (A) (A) (A) (A) (A) (A) (A) (A) (A)
                 (A) (A) (A) (A) (A) (A) (A) (A) (A) (A) (A) (A)
                 (A) (A) (A) (A) (A) (A) (A) (A) (A) (A) (A) (A)
                 (A) (A) (A) (A) (A) (A) (A) (A) (A) (A) (A) (A)
                 (A) (A) (A) (A) (A) (A) (A) (A) (A) (A) (A) (A)
                 (A) (A) (A) (A) (A) (A) (A) (A) (A) (A) (A) (A)
                 (A) (A) (A) (A) (A) (A) (A) (A) (A) (A) (A) (A)
                 (A) (A) (A) (A) (A) (A) (A) (A) (A) (A) (A) (A)
                 (A) (A) (A) (A) (A) (A) (A) (A) (A) (A) (A) (A)
                 (A) (A) (A) (A) (A) (A) (A) (A) (A) (A) (A) (A)
                 (A) (A) (A) (A) (A) (A) (A) (A) (A) (A) (A) (A)
                 (A) (A) (A) (A) (A) (A) (A) (A) (A) (A) (A) (A)
                 (A) (A) (A) (A) (A) (A) (A) (A) (A) (A) (A) (A)
                 (A) (A) (A) (A) (A) (A) (A) (A) (A) (A) (A) (A)
                 (A) (A) (A) (A) (A) (A) (A) (A) (A) (A) (A) (A)
                 (A) (A) (A) (A) (A) (A) (A) (A) (A) (A) (A) (A)
                 (A) (A) (A) (A) (A) (A) (A) (A) (A) (A) (A) (A)
                 (A) (A) (A) (A) (A) (A) (A) (A) (A) (A) (A) (A)
                 (A) (A) (A) (A) (A) (A) (A) (A) (A) (A) (A) (A)
                 (A) (A) (A) (A) (A) (A) (A) (A) (A) (A) (A) (A)
                 (A) (A) (A) (A) (A) (A) (A) (A) (A) (A) (A) (A)
                 (A) (A) (A) (A) (A) (A) (A) (A) (A) (A) (A) (A)
                 (A) (A) (A) (A) (A) (A) (A) (A) (A) (A) (A) (A)
                 (A) (A) (A) (A) (A) (A) (A) (A) (A) (A) (A) (A)
                 (A) (A) (A) (A) (A) (A) (A) (A) (A) (A) (A) (A)
                 (A) (A) (A) (A) (A) (A) (A) (A) (A) (A) (A) (A)
                 (A) (A) (A) (A) (A) (A) (A) (A) (A) (A) (A) (A)
                 (A) (A) (A) (A) (A) (A) (A) (A) (A) (A) (A) (A)
                 (A) (A) (A) (A) (A) (A) (A) (A) (A) (A) (A) (A)
                 (A) (A) (A) (A) (A) (A) (A) (A) (A) (A) (A) (A)
                 (A) (A) (A) (A) (A) (A) (A) (A) (A) (A) (A) (A)
                 (A) (A) (A) (A) (A) (A) (A) (A) (A) (A) (A) (A)
                 (A) (A) (A) (A) (A) (A) (A) (A) (A) (A) (A) (A)
                 (A) (A) (A) (A) (A) (A) (A) (A) (A) (A) (A) (A)
                 (A) (A) (A) (A) (A) (A) (A) (A) (A) (A) (A) (A)
                 (A) (A) (A) (A) (A) (A) (A) (A) (A) (A) (A) (A)
                 (A) (A) (A) (A) (A) (A) (A) (A) (A) (A) (A) (A)
                 (A) (A) (A) (A) (A) (A) (A) (A) (A) (A) (A) (A)
                 (A) (A) (A) (A) (A) (A) (A) (A) (A) (A) (A) (A)
                 (A) (A) (A) (A) (A) (A) (A) (A) (A) (A) (A) (A)
                 (A) (A) (A) (A) (A) (A) (A) (A) (A) (A) (A) (A)
                 (A) (A) (A) (A) (A) (A) (A) (A) (A) (A) (A) (A)
                 (A) (A) (A) (A) (A) (A) (A) (A) (A) (A) (A) (A)
                 (A) (A) (A) (A) (A) (A) (A) (A) (A) (A) (A) (A)
                 (A) (A) (A) (A) (A) (A) (A) (A) (A) (A) (A) (A)
                 (A) (A) (A) (A) (A) (A) (A) (A) (A) (A) (A) (A)
                 (A) (A) (A) (A) (A) (A) (A) (A) (A) (A) (A) (A)
                 (A) (A) (A) (A) (A) (A) (A) (A) (A) (A) (A) (A)
                 (A) (A) (A) (A) (A) (A) (A) (A) (A) (A) (A) (A)
                 (A) (A) (A) (A) (A) (A) (A) (A) (A) (A) (A) (A)
                 (A) (A) (A) (A) (A) (A) (A) (A) (A) (A) (A) (A)
                 (A) (A) (A) (A) (A) (A) (A) (A) (A) (A) (A) (A)
                 (A) (A) (A) (A) (A) (A) (A) (A) (A) (A) (A) (A)
                 (A) (A) (A) (A) (A) (A) (A) (A) (A) (A) (A) (A)
                 (A) (A) (A) (A) (A) (A) (A) (A) (A) (A) (A) (A)
                 (A) (A) (A) (A) (A) (A) (A) (A) (A) (A) (A) (A)
                 (A) (A) (A) (A) (A) (A) (A) (A) (A) (A) (A) (A)
                 (A) (A) (A) (A) (A) (A) (A) (A) (A) (A) (A) (A)
                 (A) (A) (A) (A) (A) (A) (A) (A) (A) (A) (A) (A)
                 (A) (A) (A) (A) (A) (A) (A) (A) (A) (A) (A) (A)
                 (A) (A) (A) (A) (A) (A) (A) (A) (A) (A) (A) (A)
                 (A) (A) (A) (A) (A) (A) (A) (A) (A) (A) (A) (A)
                 (A) (A) (A) (A) (A) (A) (A) (A) (A) (A) (A) (A)
                 (A) (A) (A) (A) (A) (A) (A) (A) (A) (A) (A) (A)
                 (A) (A) (A) (A) (A) (A) (A) (A) (A) (A) (A) (A)
                 (A) (A) (A) (A) (A) (A) (A) (A) (A) (A) (A) (A)
                 (A) (A) (A) (A) (A) (A) (A) (A) (A) (A) (A) (A)
                 (A) (A) (A) (A) (A) (A) (A) (A) (A) (A) (A) (A)
                 (A) (A) (A) (A) (A) (A) (A) (A) (A) (A) (A) (A)
                 (A) (A) (A)
 The electronic state is 1-A.
 Alpha  occ. eigenvalues -- -145.40033 -19.16764 -19.16242 -19.15563 -19.14011
 Alpha  occ. eigenvalues --  -19.13909 -19.12099 -19.10643 -19.09886 -19.08966
 Alpha  occ. eigenvalues --  -19.08334 -19.07833 -19.07323 -19.07216 -19.07110
 Alpha  occ. eigenvalues --  -19.06864 -19.06787 -19.06755 -19.05109 -19.04178
 Alpha  occ. eigenvalues --  -19.03906 -19.03651 -18.96381 -18.96031 -15.45978
 Alpha  occ. eigenvalues --  -14.56043 -14.40985 -14.40432 -14.38757 -14.35243
 Alpha  occ. eigenvalues --  -14.35187 -14.35144 -14.35019 -14.34718 -14.34600
 Alpha  occ. eigenvalues --  -14.33671 -14.33246 -14.33210 -14.33155 -14.32792
 Alpha  occ. eigenvalues --  -12.59565 -12.59545 -12.59487 -10.34083 -10.33277
 Alpha  occ. eigenvalues --  -10.33098 -10.31515 -10.29418 -10.28198 -10.28001
 Alpha  occ. eigenvalues --  -10.27590 -10.27517 -10.27280 -10.27134 -10.27118
 Alpha  occ. eigenvalues --  -10.26914 -10.26312 -10.26128 -10.26061 -10.25961
 Alpha  occ. eigenvalues --  -10.25888 -10.25686 -10.25615 -10.25017 -10.24873
 Alpha  occ. eigenvalues --  -10.24173 -10.23979 -10.23547 -10.23334 -10.23084
 Alpha  occ. eigenvalues --  -10.22877 -10.22624 -10.22074 -10.22055 -10.22043
 Alpha  occ. eigenvalues --  -10.21279 -10.20415 -10.20222 -10.20186 -10.20149
 Alpha  occ. eigenvalues --  -10.20038 -10.19914 -10.19849 -10.19653 -10.19343
 Alpha  occ. eigenvalues --  -10.19106 -10.17886 -10.17678 -10.16627 -10.16106
 Alpha  occ. eigenvalues --  -10.16078 -10.16060 -10.16012 -10.15866 -10.15681
 Alpha  occ. eigenvalues --  -10.14871 -10.11514  -1.82956  -1.11831  -1.10420
 Alpha  occ. eigenvalues --   -1.10363  -1.09961  -1.08093  -1.07372  -1.05741
 Alpha  occ. eigenvalues --   -1.05620  -1.03919  -1.03112  -1.02416  -1.02132
 Alpha  occ. eigenvalues --   -1.01993  -1.01790  -1.01372  -1.01048  -1.00471
 Alpha  occ. eigenvalues --   -1.00049  -0.99973  -0.99716  -0.99531  -0.99512
 Alpha  occ. eigenvalues --   -0.99505  -0.97799  -0.96190  -0.95484  -0.92612
 Alpha  occ. eigenvalues --   -0.92123  -0.91755  -0.91738  -0.91120  -0.91102
 Alpha  occ. eigenvalues --   -0.90706  -0.90382  -0.89758  -0.89639  -0.89112
 Alpha  occ. eigenvalues --   -0.89109  -0.88472  -0.88340  -0.87441  -0.85972
 Alpha  occ. eigenvalues --   -0.82321  -0.81979  -0.81180  -0.80176  -0.80113
 Alpha  occ. eigenvalues --   -0.78360  -0.77604  -0.77536  -0.77159  -0.76205
 Alpha  occ. eigenvalues --   -0.75747  -0.75503  -0.75095  -0.74511  -0.73963
 Alpha  occ. eigenvalues --   -0.73521  -0.72508  -0.71675  -0.71250  -0.70759
 Alpha  occ. eigenvalues --   -0.69845  -0.69800  -0.69345  -0.68136  -0.67672
 Alpha  occ. eigenvalues --   -0.66904  -0.65667  -0.65288  -0.65128  -0.64392
 Alpha  occ. eigenvalues --   -0.63806  -0.63734  -0.63280  -0.62983  -0.62144
 Alpha  occ. eigenvalues --   -0.61982  -0.61818  -0.61727  -0.61029  -0.60677
 Alpha  occ. eigenvalues --   -0.60374  -0.59479  -0.59212  -0.58856  -0.58658
 Alpha  occ. eigenvalues --   -0.58030  -0.57748  -0.57511  -0.56857  -0.56366
 Alpha  occ. eigenvalues --   -0.56299  -0.56028  -0.55857  -0.55676  -0.55460
 Alpha  occ. eigenvalues --   -0.55420  -0.55062  -0.54912  -0.54366  -0.54113
 Alpha  occ. eigenvalues --   -0.53750  -0.53373  -0.53144  -0.52719  -0.52531
 Alpha  occ. eigenvalues --   -0.52343  -0.51526  -0.51263  -0.50661  -0.50427
 Alpha  occ. eigenvalues --   -0.49989  -0.49567  -0.49237  -0.49117  -0.48994
 Alpha  occ. eigenvalues --   -0.48847  -0.48231  -0.48086  -0.47894  -0.47814
 Alpha  occ. eigenvalues --   -0.47675  -0.47460  -0.46991  -0.46810  -0.46621
 Alpha  occ. eigenvalues --   -0.46484  -0.46350  -0.46100  -0.46025  -0.45548
 Alpha  occ. eigenvalues --   -0.45468  -0.45385  -0.45300  -0.45176  -0.45116
 Alpha  occ. eigenvalues --   -0.44894  -0.44834  -0.44638  -0.44294  -0.44162
 Alpha  occ. eigenvalues --   -0.43988  -0.43796  -0.43615  -0.43471  -0.43313
 Alpha  occ. eigenvalues --   -0.43145  -0.43030  -0.42737  -0.42521  -0.42458
 Alpha  occ. eigenvalues --   -0.42326  -0.42122  -0.42109  -0.41700  -0.41590
 Alpha  occ. eigenvalues --   -0.41580  -0.41274  -0.41041  -0.40919  -0.40837
 Alpha  occ. eigenvalues --   -0.40822  -0.40226  -0.40153  -0.39884  -0.39807
 Alpha  occ. eigenvalues --   -0.39775  -0.39513  -0.39447  -0.39299  -0.39281
 Alpha  occ. eigenvalues --   -0.39042  -0.38935  -0.38839  -0.38729  -0.38629
 Alpha  occ. eigenvalues --   -0.38484  -0.38352  -0.38274  -0.37932  -0.37874
 Alpha  occ. eigenvalues --   -0.37733  -0.37470  -0.37185  -0.36990  -0.36929
 Alpha  occ. eigenvalues --   -0.36880  -0.36663  -0.36632  -0.36568  -0.36442
 Alpha  occ. eigenvalues --   -0.36325  -0.36136  -0.35919  -0.35789  -0.35769
 Alpha  occ. eigenvalues --   -0.35620  -0.35376  -0.35250  -0.35087  -0.34798
 Alpha  occ. eigenvalues --   -0.34680  -0.33782  -0.33708  -0.33645  -0.33531
 Alpha  occ. eigenvalues --   -0.33117  -0.33052  -0.32931  -0.32579  -0.32510
 Alpha  occ. eigenvalues --   -0.32297  -0.32164  -0.32008  -0.31782  -0.31606
 Alpha  occ. eigenvalues --   -0.31332  -0.31016  -0.30973  -0.30267  -0.30105
 Alpha  occ. eigenvalues --   -0.29351  -0.29144  -0.28126  -0.27985  -0.27525
 Alpha  occ. eigenvalues --   -0.27380  -0.27045  -0.26442  -0.26146  -0.25859
 Alpha  occ. eigenvalues --   -0.25748  -0.25240  -0.25113  -0.25055  -0.24965
 Alpha  occ. eigenvalues --   -0.24900  -0.24318  -0.24245  -0.23927  -0.23809
 Alpha  occ. eigenvalues --   -0.23627  -0.23394  -0.23200  -0.23097  -0.23091
 Alpha  occ. eigenvalues --   -0.22925  -0.22782  -0.22673  -0.22394  -0.22248
 Alpha  occ. eigenvalues --   -0.22086  -0.21736  -0.21150  -0.20475  -0.18657
 Alpha  occ. eigenvalues --   -0.14106  -0.13142  -0.10506
 Alpha virt. eigenvalues --   -0.09345  -0.06093  -0.03676  -0.03386  -0.03185
 Alpha virt. eigenvalues --   -0.02918  -0.02405  -0.02025  -0.01359  -0.01022
 Alpha virt. eigenvalues --   -0.00409   0.00186   0.00923   0.01287   0.01600
 Alpha virt. eigenvalues --    0.02289   0.02334   0.02444   0.02719   0.02777
 Alpha virt. eigenvalues --    0.03201   0.03322   0.03335   0.03525   0.03630
 Alpha virt. eigenvalues --    0.03813   0.04159   0.04273   0.04465   0.04726
 Alpha virt. eigenvalues --    0.04919   0.05315   0.05672   0.05769   0.05899
 Alpha virt. eigenvalues --    0.06275   0.06378   0.06628   0.07315   0.07387
 Alpha virt. eigenvalues --    0.07517   0.07662   0.07953   0.08156   0.08409
 Alpha virt. eigenvalues --    0.08557   0.08704   0.09017   0.09180   0.09330
 Alpha virt. eigenvalues --    0.09710   0.09910   0.10095   0.10219   0.10388
 Alpha virt. eigenvalues --    0.10577   0.10773   0.10866   0.11221   0.11333
 Alpha virt. eigenvalues --    0.11585   0.11667   0.11729   0.11965   0.12156
 Alpha virt. eigenvalues --    0.12361   0.12466   0.12764   0.13100   0.13141
 Alpha virt. eigenvalues --    0.13300   0.13400   0.13513   0.13759   0.13938
 Alpha virt. eigenvalues --    0.14061   0.14201   0.14281   0.14395   0.14554
 Alpha virt. eigenvalues --    0.14570   0.14799   0.14865   0.14905   0.15087
 Alpha virt. eigenvalues --    0.15216   0.15231   0.15368   0.15428   0.15539
 Alpha virt. eigenvalues --    0.15766   0.15970   0.16103   0.16189   0.16539
 Alpha virt. eigenvalues --    0.16652   0.16925   0.17000   0.17163   0.17290
 Alpha virt. eigenvalues --    0.17489   0.17798   0.17917   0.18020   0.18208
 Alpha virt. eigenvalues --    0.18291   0.18692   0.18868   0.19190   0.19278
 Alpha virt. eigenvalues --    0.19614   0.19894   0.20174   0.20325   0.20407
 Alpha virt. eigenvalues --    0.20817   0.20925   0.21074   0.21161   0.21347
 Alpha virt. eigenvalues --    0.21691   0.21806   0.21905   0.22053   0.22408
 Alpha virt. eigenvalues --    0.22556   0.22625   0.23127   0.23461   0.23562
 Alpha virt. eigenvalues --    0.23704   0.24227   0.24304   0.24415   0.24555
 Alpha virt. eigenvalues --    0.24608   0.24927   0.25343   0.25718   0.25821
 Alpha virt. eigenvalues --    0.26023   0.26328   0.26403   0.26632   0.26954
 Alpha virt. eigenvalues --    0.27180   0.27233   0.27366   0.27801   0.27920
 Alpha virt. eigenvalues --    0.28182   0.28358   0.28440   0.28543   0.28897
 Alpha virt. eigenvalues --    0.29187   0.29261   0.29414   0.30049   0.30279
 Alpha virt. eigenvalues --    0.30440   0.30766   0.30890   0.31061   0.31116
 Alpha virt. eigenvalues --    0.31328   0.31612   0.31804   0.32088   0.32289
 Alpha virt. eigenvalues --    0.32423   0.32561   0.33214   0.33618   0.34141
 Alpha virt. eigenvalues --    0.34327   0.34547   0.35046   0.35272   0.35640
 Alpha virt. eigenvalues --    0.35772   0.36222   0.36448   0.36800   0.37354
 Alpha virt. eigenvalues --    0.37806   0.38118   0.38263   0.38366   0.38809
 Alpha virt. eigenvalues --    0.38875   0.38987   0.39408   0.39632   0.39797
 Alpha virt. eigenvalues --    0.40294   0.40453   0.40683   0.41004   0.41342
 Alpha virt. eigenvalues --    0.41467   0.41617   0.42010   0.42235   0.42336
 Alpha virt. eigenvalues --    0.42417   0.42638   0.42712   0.42928   0.43249
 Alpha virt. eigenvalues --    0.43693   0.43853   0.44009   0.44466   0.44665
 Alpha virt. eigenvalues --    0.44970   0.45037   0.45113   0.45207   0.45248
 Alpha virt. eigenvalues --    0.45468   0.45585   0.46016   0.46083   0.46184
 Alpha virt. eigenvalues --    0.46241   0.46338   0.46655   0.46745   0.46929
 Alpha virt. eigenvalues --    0.47452   0.47627   0.47688   0.47867   0.48110
 Alpha virt. eigenvalues --    0.48186   0.48337   0.48463   0.48549   0.49100
 Alpha virt. eigenvalues --    0.49209   0.49319   0.49878   0.49968   0.50194
 Alpha virt. eigenvalues --    0.50294   0.50714   0.51009   0.51231   0.51570
 Alpha virt. eigenvalues --    0.51678   0.51768   0.52104   0.52271   0.52485
 Alpha virt. eigenvalues --    0.52610   0.52845   0.53058   0.53192   0.53460
 Alpha virt. eigenvalues --    0.53545   0.53783   0.53957   0.54092   0.54224
 Alpha virt. eigenvalues --    0.54415   0.54587   0.54878   0.55201   0.55234
 Alpha virt. eigenvalues --    0.55550   0.55775   0.56216   0.56398   0.56554
 Alpha virt. eigenvalues --    0.56850   0.57074   0.57266   0.57336   0.57511
 Alpha virt. eigenvalues --    0.57761   0.57798   0.57837   0.57939   0.58152
 Alpha virt. eigenvalues --    0.58241   0.58440   0.58629   0.58833   0.59173
 Alpha virt. eigenvalues --    0.59256   0.59358   0.59502   0.59645   0.59821
 Alpha virt. eigenvalues --    0.59880   0.60211   0.60275   0.60475   0.60513
 Alpha virt. eigenvalues --    0.60593   0.60795   0.60868   0.61060   0.61234
 Alpha virt. eigenvalues --    0.61238   0.61415   0.61529   0.61836   0.61909
 Alpha virt. eigenvalues --    0.61963   0.62079   0.62230   0.62295   0.62583
 Alpha virt. eigenvalues --    0.62700   0.62737   0.62885   0.62921   0.63142
 Alpha virt. eigenvalues --    0.63231   0.63375   0.63499   0.63650   0.63691
 Alpha virt. eigenvalues --    0.64053   0.64148   0.64339   0.64464   0.64528
 Alpha virt. eigenvalues --    0.64605   0.64797   0.64846   0.64914   0.65025
 Alpha virt. eigenvalues --    0.65113   0.65198   0.65447   0.65566   0.65621
 Alpha virt. eigenvalues --    0.65700   0.65917   0.66012   0.66078   0.66187
 Alpha virt. eigenvalues --    0.66297   0.66400   0.66507   0.66621   0.66696
 Alpha virt. eigenvalues --    0.66741   0.66809   0.66926   0.66962   0.67165
 Alpha virt. eigenvalues --    0.67180   0.67243   0.67407   0.67550   0.67609
 Alpha virt. eigenvalues --    0.67661   0.67719   0.67789   0.67893   0.67918
 Alpha virt. eigenvalues --    0.68105   0.68277   0.68295   0.68490   0.68537
 Alpha virt. eigenvalues --    0.68722   0.68789   0.68846   0.68873   0.68988
 Alpha virt. eigenvalues --    0.69054   0.69285   0.69342   0.69506   0.69619
 Alpha virt. eigenvalues --    0.69789   0.69906   0.69957   0.70170   0.70259
 Alpha virt. eigenvalues --    0.70418   0.70539   0.70576   0.70791   0.70873
 Alpha virt. eigenvalues --    0.70950   0.71109   0.71260   0.71349   0.71468
 Alpha virt. eigenvalues --    0.71542   0.71685   0.71869   0.72097   0.72268
 Alpha virt. eigenvalues --    0.72383   0.72648   0.72887   0.73027   0.73077
 Alpha virt. eigenvalues --    0.73224   0.73314   0.73344   0.73749   0.73853
 Alpha virt. eigenvalues --    0.74064   0.74110   0.74400   0.74674   0.74731
 Alpha virt. eigenvalues --    0.74999   0.75057   0.75228   0.75638   0.76000
 Alpha virt. eigenvalues --    0.76205   0.76419   0.76519   0.76612   0.76696
 Alpha virt. eigenvalues --    0.77066   0.77108   0.77274   0.77485   0.77678
 Alpha virt. eigenvalues --    0.77829   0.78076   0.78635   0.78967   0.79047
 Alpha virt. eigenvalues --    0.79115   0.79317   0.79688   0.79898   0.80359
 Alpha virt. eigenvalues --    0.80447   0.80917   0.81201   0.81434   0.81648
 Alpha virt. eigenvalues --    0.81810   0.82096   0.82355   0.82589   0.82867
 Alpha virt. eigenvalues --    0.82892   0.83348   0.83679   0.84101   0.84477
 Alpha virt. eigenvalues --    0.84551   0.84833   0.84869   0.85491   0.85780
 Alpha virt. eigenvalues --    0.86131   0.86316   0.86518   0.86790   0.87046
 Alpha virt. eigenvalues --    0.87301   0.87651   0.88044   0.88215   0.88587
 Alpha virt. eigenvalues --    0.89229   0.89627   0.89780   0.90385   0.90521
 Alpha virt. eigenvalues --    0.90628   0.91140   0.91313   0.91745   0.92327
 Alpha virt. eigenvalues --    0.92515   0.92632   0.93045   0.93369   0.93602
 Alpha virt. eigenvalues --    0.93967   0.94140   0.94306   0.94478   0.95001
 Alpha virt. eigenvalues --    0.95336   0.95567   0.96020   0.96661   0.96935
 Alpha virt. eigenvalues --    0.97065   0.97403   0.97671   0.97797   0.97972
 Alpha virt. eigenvalues --    0.98083   0.98518   0.98842   0.99243   0.99259
 Alpha virt. eigenvalues --    0.99843   0.99950   1.00248   1.00449   1.00650
 Alpha virt. eigenvalues --    1.00959   1.01101   1.01490   1.01658   1.01705
 Alpha virt. eigenvalues --    1.01891   1.02350   1.02927   1.03226   1.03589
 Alpha virt. eigenvalues --    1.03962   1.04406   1.04929   1.05102   1.05246
 Alpha virt. eigenvalues --    1.05399   1.06040   1.06138   1.06192   1.06647
 Alpha virt. eigenvalues --    1.06919   1.06934   1.07228   1.07617   1.07732
 Alpha virt. eigenvalues --    1.08071   1.08404   1.08832   1.09143   1.09425
 Alpha virt. eigenvalues --    1.09819   1.09915   1.10372   1.10698   1.10932
 Alpha virt. eigenvalues --    1.10952   1.11202   1.11643   1.11822   1.11971
 Alpha virt. eigenvalues --    1.12251   1.12579   1.12937   1.13065   1.13487
 Alpha virt. eigenvalues --    1.13628   1.13914   1.13934   1.14217   1.14660
 Alpha virt. eigenvalues --    1.14747   1.15022   1.15291   1.15622   1.16063
 Alpha virt. eigenvalues --    1.16302   1.16402   1.16697   1.16766   1.17270
 Alpha virt. eigenvalues --    1.17339   1.17725   1.17879   1.18073   1.18357
 Alpha virt. eigenvalues --    1.18452   1.18524   1.18711   1.19119   1.19432
 Alpha virt. eigenvalues --    1.19537   1.19911   1.20431   1.20535   1.20760
 Alpha virt. eigenvalues --    1.21243   1.21559   1.21779   1.21916   1.22331
 Alpha virt. eigenvalues --    1.22438   1.22588   1.22813   1.23122   1.23199
 Alpha virt. eigenvalues --    1.23389   1.23720   1.24053   1.24405   1.24576
 Alpha virt. eigenvalues --    1.24806   1.24917   1.25224   1.25454   1.25923
 Alpha virt. eigenvalues --    1.26245   1.26349   1.26571   1.26867   1.26991
 Alpha virt. eigenvalues --    1.27567   1.27774   1.27919   1.28167   1.28435
 Alpha virt. eigenvalues --    1.28513   1.28699   1.28901   1.29284   1.29650
 Alpha virt. eigenvalues --    1.29790   1.29866   1.30252   1.30766   1.30881
 Alpha virt. eigenvalues --    1.30984   1.31124   1.31440   1.31805   1.32064
 Alpha virt. eigenvalues --    1.32399   1.32755   1.32904   1.33188   1.33730
 Alpha virt. eigenvalues --    1.34006   1.34446   1.34666   1.34787   1.35195
 Alpha virt. eigenvalues --    1.35466   1.35705   1.36481   1.36922   1.37060
 Alpha virt. eigenvalues --    1.37736   1.37850   1.38180   1.38808   1.39055
 Alpha virt. eigenvalues --    1.39230   1.39738   1.39914   1.40306   1.40601
 Alpha virt. eigenvalues --    1.40928   1.41160   1.41319   1.41852   1.42119
 Alpha virt. eigenvalues --    1.42266   1.42579   1.42647   1.43062   1.43643
 Alpha virt. eigenvalues --    1.43730   1.43875   1.44413   1.44756   1.45264
 Alpha virt. eigenvalues --    1.45395   1.45524   1.45991   1.46466   1.46747
 Alpha virt. eigenvalues --    1.47225   1.47454   1.47764   1.47839   1.48135
 Alpha virt. eigenvalues --    1.48840   1.48938   1.49107   1.49829   1.50084
 Alpha virt. eigenvalues --    1.50299   1.50545   1.50742   1.50967   1.51142
 Alpha virt. eigenvalues --    1.51440   1.51815   1.51989   1.52337   1.52695
 Alpha virt. eigenvalues --    1.53279   1.53617   1.53856   1.53988   1.54208
 Alpha virt. eigenvalues --    1.54348   1.54484   1.54580   1.55152   1.55307
 Alpha virt. eigenvalues --    1.55452   1.55997   1.56223   1.57045   1.57215
 Alpha virt. eigenvalues --    1.57435   1.57967   1.58310   1.59000   1.59450
 Alpha virt. eigenvalues --    1.59651   1.60106   1.60349   1.60534   1.60720
 Alpha virt. eigenvalues --    1.61045   1.61486   1.61886   1.62965   1.63084
 Alpha virt. eigenvalues --    1.63658   1.64018   1.64505   1.64869   1.65208
 Alpha virt. eigenvalues --    1.65296   1.65557   1.65729   1.66056   1.66380
 Alpha virt. eigenvalues --    1.66601   1.66872   1.67177   1.67349   1.67405
 Alpha virt. eigenvalues --    1.67578   1.67730   1.68031   1.68305   1.68374
 Alpha virt. eigenvalues --    1.68681   1.69320   1.69392   1.69470   1.69906
 Alpha virt. eigenvalues --    1.69981   1.70415   1.70878   1.71186   1.71414
 Alpha virt. eigenvalues --    1.71451   1.71629   1.71839   1.72029   1.72487
 Alpha virt. eigenvalues --    1.72715   1.72786   1.73040   1.73333   1.73693
 Alpha virt. eigenvalues --    1.73819   1.73976   1.74194   1.74253   1.74571
 Alpha virt. eigenvalues --    1.74788   1.74876   1.75031   1.75098   1.75195
 Alpha virt. eigenvalues --    1.75452   1.75543   1.75702   1.75880   1.75912
 Alpha virt. eigenvalues --    1.76257   1.76724   1.76907   1.77152   1.77314
 Alpha virt. eigenvalues --    1.77517   1.77761   1.77832   1.77881   1.78115
 Alpha virt. eigenvalues --    1.78392   1.78512   1.78614   1.78756   1.78818
 Alpha virt. eigenvalues --    1.78876   1.79089   1.79224   1.79598   1.79702
 Alpha virt. eigenvalues --    1.79738   1.79971   1.80079   1.80261   1.80381
 Alpha virt. eigenvalues --    1.80481   1.81008   1.81054   1.81168   1.81326
 Alpha virt. eigenvalues --    1.81405   1.81488   1.81981   1.82143   1.82277
 Alpha virt. eigenvalues --    1.82319   1.82730   1.82796   1.82901   1.83152
 Alpha virt. eigenvalues --    1.83264   1.83349   1.83629   1.83877   1.84061
 Alpha virt. eigenvalues --    1.84175   1.84249   1.84418   1.84651   1.84941
 Alpha virt. eigenvalues --    1.85212   1.85443   1.85876   1.86088   1.86247
 Alpha virt. eigenvalues --    1.86270   1.86545   1.86769   1.86840   1.86933
 Alpha virt. eigenvalues --    1.87280   1.87449   1.87648   1.87998   1.88080
 Alpha virt. eigenvalues --    1.88269   1.88300   1.88460   1.88731   1.88909
 Alpha virt. eigenvalues --    1.89002   1.89011   1.89282   1.89602   1.89801
 Alpha virt. eigenvalues --    1.90035   1.90130   1.90202   1.90483   1.90843
 Alpha virt. eigenvalues --    1.90917   1.91090   1.91206   1.91519   1.91690
 Alpha virt. eigenvalues --    1.92037   1.92087   1.92219   1.92386   1.92550
 Alpha virt. eigenvalues --    1.92790   1.92896   1.92957   1.93040   1.93421
 Alpha virt. eigenvalues --    1.93526   1.93999   1.94418   1.94501   1.94687
 Alpha virt. eigenvalues --    1.94874   1.95259   1.95510   1.95772   1.95812
 Alpha virt. eigenvalues --    1.95884   1.96310   1.96468   1.96917   1.97201
 Alpha virt. eigenvalues --    1.97403   1.97519   1.97737   1.98070   1.98305
 Alpha virt. eigenvalues --    1.98452   1.98587   1.98842   1.98998   1.99238
 Alpha virt. eigenvalues --    1.99659   2.00236   2.00404   2.00604   2.00781
 Alpha virt. eigenvalues --    2.01008   2.01153   2.01427   2.01739   2.01861
 Alpha virt. eigenvalues --    2.02009   2.02184   2.02559   2.02876   2.03004
 Alpha virt. eigenvalues --    2.03191   2.03379   2.03774   2.04155   2.04740
 Alpha virt. eigenvalues --    2.05330   2.05437   2.05723   2.05870   2.06096
 Alpha virt. eigenvalues --    2.06295   2.06385   2.06826   2.07626   2.07919
 Alpha virt. eigenvalues --    2.07988   2.08082   2.08228   2.08679   2.08757
 Alpha virt. eigenvalues --    2.08948   2.09144   2.09291   2.09366   2.09576
 Alpha virt. eigenvalues --    2.10076   2.10481   2.10612   2.10933   2.11123
 Alpha virt. eigenvalues --    2.11338   2.11704   2.12055   2.12230   2.12442
 Alpha virt. eigenvalues --    2.12902   2.13189   2.13514   2.13542   2.13841
 Alpha virt. eigenvalues --    2.14088   2.14431   2.14680   2.15133   2.15341
 Alpha virt. eigenvalues --    2.15620   2.15911   2.16182   2.16386   2.16560
 Alpha virt. eigenvalues --    2.16792   2.16817   2.17305   2.17703   2.17945
 Alpha virt. eigenvalues --    2.18233   2.18371   2.18949   2.19444   2.19489
 Alpha virt. eigenvalues --    2.20009   2.20198   2.20386   2.21083   2.21222
 Alpha virt. eigenvalues --    2.21298   2.21759   2.21806   2.22050   2.22241
 Alpha virt. eigenvalues --    2.22868   2.22971   2.23001   2.23733   2.24457
 Alpha virt. eigenvalues --    2.24806   2.24893   2.25426   2.25741   2.26304
 Alpha virt. eigenvalues --    2.26850   2.27311   2.27501   2.27612   2.27948
 Alpha virt. eigenvalues --    2.28281   2.28662   2.28768   2.29269   2.29542
 Alpha virt. eigenvalues --    2.29954   2.30136   2.30193   2.30682   2.31119
 Alpha virt. eigenvalues --    2.31434   2.31710   2.32321   2.32640   2.32812
 Alpha virt. eigenvalues --    2.33068   2.33356   2.34044   2.34234   2.34458
 Alpha virt. eigenvalues --    2.34536   2.34965   2.35201   2.35465   2.35521
 Alpha virt. eigenvalues --    2.35791   2.35971   2.36421   2.36668   2.36923
 Alpha virt. eigenvalues --    2.37634   2.37930   2.38156   2.38337   2.39056
 Alpha virt. eigenvalues --    2.39266   2.39330   2.39597   2.40390   2.40605
 Alpha virt. eigenvalues --    2.40828   2.41200   2.41805   2.41941   2.42377
 Alpha virt. eigenvalues --    2.42382   2.42757   2.43059   2.43198   2.43842
 Alpha virt. eigenvalues --    2.43868   2.44190   2.44903   2.45158   2.45392
 Alpha virt. eigenvalues --    2.45687   2.46023   2.46563   2.46611   2.47076
 Alpha virt. eigenvalues --    2.47356   2.47804   2.48054   2.49034   2.49394
 Alpha virt. eigenvalues --    2.49468   2.49500   2.49648   2.50436   2.50778
 Alpha virt. eigenvalues --    2.50930   2.51745   2.52191   2.52228   2.52973
 Alpha virt. eigenvalues --    2.53602   2.53859   2.54160   2.54463   2.54684
 Alpha virt. eigenvalues --    2.55075   2.55433   2.55801   2.55897   2.56141
 Alpha virt. eigenvalues --    2.56256   2.56906   2.56941   2.57694   2.57887
 Alpha virt. eigenvalues --    2.58476   2.58644   2.58807   2.59130   2.59540
 Alpha virt. eigenvalues --    2.59670   2.60029   2.60342   2.60461   2.60548
 Alpha virt. eigenvalues --    2.60632   2.60900   2.61676   2.61726   2.61854
 Alpha virt. eigenvalues --    2.62364   2.62859   2.63163   2.63439   2.63731
 Alpha virt. eigenvalues --    2.63804   2.64278   2.64572   2.64697   2.64887
 Alpha virt. eigenvalues --    2.65023   2.65249   2.65843   2.66241   2.66975
 Alpha virt. eigenvalues --    2.67549   2.67833   2.67994   2.68655   2.68943
 Alpha virt. eigenvalues --    2.69354   2.69597   2.70139   2.70195   2.70807
 Alpha virt. eigenvalues --    2.71176   2.71320   2.71820   2.71951   2.71993
 Alpha virt. eigenvalues --    2.72178   2.72384   2.72433   2.72790   2.73036
 Alpha virt. eigenvalues --    2.73279   2.73642   2.73711   2.73797   2.74103
 Alpha virt. eigenvalues --    2.74251   2.74457   2.75000   2.75020   2.75425
 Alpha virt. eigenvalues --    2.75712   2.76608   2.76749   2.76909   2.77166
 Alpha virt. eigenvalues --    2.77606   2.77729   2.78182   2.78890   2.79104
 Alpha virt. eigenvalues --    2.79262   2.79373   2.79583   2.80091   2.80247
 Alpha virt. eigenvalues --    2.80674   2.80804   2.80848   2.81020   2.81169
 Alpha virt. eigenvalues --    2.81279   2.81419   2.81474   2.81928   2.81943
 Alpha virt. eigenvalues --    2.82269   2.82948   2.83166   2.83366   2.83970
 Alpha virt. eigenvalues --    2.83993   2.84348   2.84517   2.84752   2.85502
 Alpha virt. eigenvalues --    2.85698   2.85887   2.86110   2.86842   2.87246
 Alpha virt. eigenvalues --    2.87576   2.87628   2.87820   2.88165   2.88301
 Alpha virt. eigenvalues --    2.88694   2.88717   2.89381   2.89441   2.89867
 Alpha virt. eigenvalues --    2.90021   2.90851   2.91086   2.91205   2.91379
 Alpha virt. eigenvalues --    2.91543   2.91599   2.91649   2.92047   2.92333
 Alpha virt. eigenvalues --    2.92583   2.93155   2.93338   2.94217   2.94390
 Alpha virt. eigenvalues --    2.94990   2.95143   2.95449   2.95759   2.96066
 Alpha virt. eigenvalues --    2.96290   2.96502   2.96765   2.97040   2.97434
 Alpha virt. eigenvalues --    2.97896   2.98344   2.98618   2.98643   2.99184
 Alpha virt. eigenvalues --    2.99279   2.99432   2.99591   2.99788   2.99954
 Alpha virt. eigenvalues --    3.00462   3.00892   3.01035   3.01100   3.01467
 Alpha virt. eigenvalues --    3.02134   3.02558   3.02954   3.03619   3.04254
 Alpha virt. eigenvalues --    3.04984   3.05103   3.05519   3.05546   3.05847
 Alpha virt. eigenvalues --    3.06532   3.06828   3.07072   3.07836   3.08387
 Alpha virt. eigenvalues --    3.09764   3.10018   3.10750   3.11158   3.11907
 Alpha virt. eigenvalues --    3.11981   3.12472   3.13842   3.13963   3.14096
 Alpha virt. eigenvalues --    3.14218   3.14537   3.14656   3.15130   3.15265
 Alpha virt. eigenvalues --    3.15437   3.15780   3.16043   3.16906   3.17363
 Alpha virt. eigenvalues --    3.17547   3.18235   3.18404   3.18821   3.19186
 Alpha virt. eigenvalues --    3.19373   3.19452   3.19466   3.19830   3.20196
 Alpha virt. eigenvalues --    3.20268   3.20465   3.20647   3.21242   3.21384
 Alpha virt. eigenvalues --    3.21831   3.21978   3.22192   3.23396   3.23917
 Alpha virt. eigenvalues --    3.24194   3.24577   3.24701   3.24869   3.25052
 Alpha virt. eigenvalues --    3.25889   3.26183   3.26926   3.27247   3.27301
 Alpha virt. eigenvalues --    3.27339   3.27986   3.28946   3.29246   3.30656
 Alpha virt. eigenvalues --    3.33222   3.35025   3.35647   3.35739   3.36193
 Alpha virt. eigenvalues --    3.37040   3.37784   3.48271   3.48562   3.50011
 Alpha virt. eigenvalues --    3.51338   3.52869   3.54091   3.54889   3.55533
 Alpha virt. eigenvalues --    3.55975   3.56504   3.56529   3.58296   3.58647
 Alpha virt. eigenvalues --    3.59415   3.59901   3.60070   3.60656   3.62395
 Alpha virt. eigenvalues --    3.62578   3.63848   3.66752   3.68391   3.68487
 Alpha virt. eigenvalues --    3.69095   3.69200   3.69454   3.69528   3.69555
 Alpha virt. eigenvalues --    3.70017   3.70185   3.70654   3.70786   3.71031
 Alpha virt. eigenvalues --    3.71389   3.71614   3.73142   3.73622   3.74660
 Alpha virt. eigenvalues --    3.76252   3.78911   3.79137   3.81879
          Condensed to atoms (all electrons):
 Mulliken charges:
               1
     1  C    0.068307
     2  C    0.011017
     3  O   -0.264202
     4  H    0.018513
     5  H   -0.016441
     6  H    0.058575
     7  N   -0.139683
     8  C    0.060671
     9  C    0.084544
    10  O   -0.229846
    11  C    0.073070
    12  C    0.092086
    13  O   -0.343557
    14  O   -0.367952
    15  H    0.113520
    16  H   -0.021194
    17  H   -0.029692
    18  H    0.005871
    19  N   -0.139607
    20  C    0.145096
    21  C    0.079518
    22  O   -0.310446
    23  C   -0.000964
    24  C   -0.007847
    25  C    0.012113
    26  C    0.024783
    27  N    0.142740
    28  H    0.094245
    29  H    0.016740
    30  H    0.019478
    31  H    0.015527
    32  H   -0.035412
    33  H    0.007857
    34  H    0.045194
    35  H    0.036288
    36  H    0.064840
    37  H    0.063053
    38  H    0.106741
    39  H    0.145251
    40  H    0.115414
    41  N   -0.129186
    42  C    0.150973
    43  C    0.033581
    44  O   -0.267008
    45  C    0.135494
    46  C    0.085892
    47  O   -0.399298
    48  O   -0.475128
    49  H    0.144865
    50  H   -0.001115
    51  H    0.003116
    52  H    0.009388
    53  N   -0.125972
    54  C    0.217424
    55  C    0.100263
    56  O   -0.333036
    57  H    0.122688
    58  H    0.010298
    59  H    0.087033
    60  N   -0.150043
    61  C    0.064030
    62  C    0.078955
    63  O   -0.281490
    64  C    0.101321
    65  C   -0.015612
    66  N   -0.036424
    67  O   -0.231533
    68  H    0.134332
    69  H    0.013505
    70  H    0.067853
    71  H    0.008069
    72  H    0.120317
    73  H    0.151448
    74  N   -0.108343
    75  C    0.211494
    76  C    0.036945
    77  O   -0.252413
    78  H    0.105562
    79  H   -0.008049
    80  H    0.053689
    81  N   -0.133537
    82  C    0.101642
    83  C    0.071522
    84  O   -0.284831
    85  C    0.155666
    86  C   -0.031009
    87  C    0.013708
    88  C   -0.023381
    89  C   -0.030986
    90  C   -0.047255
    91  C    0.163658
    92  O   -0.204124
    93  H    0.120682
    94  H    0.002149
    95  H    0.006197
    96  H    0.023210
    97  H   -0.009316
    98  H   -0.033255
    99  H   -0.024648
   100  H   -0.041788
   101  H    0.175158
   102  N   -0.095779
   103  C    0.184822
   104  C    0.032302
   105  O   -0.257675
   106  C   -0.156791
   107  C   -0.015759
   108  C    0.105381
   109  C    0.049432
   110  H    0.117908
   111  H    0.012109
   112  H    0.000985
   113  H    0.016368
   114  H   -0.019025
   115  H    0.022834
   116  H    0.004000
   117  H   -0.011557
   118  H    0.000753
   119  H    0.003084
   120  H    0.015761
   121  N   -0.134862
   122  C    0.053912
   123  C    0.029623
   124  O   -0.274030
   125  C    0.269287
   126  O   -0.305542
   127  H    0.142876
   128  H    0.006357
   129  H   -0.011621
   130  H    0.020717
   131  H    0.165214
   132  N   -0.126136
   133  C    0.050700
   134  C    0.059295
   135  O   -0.283418
   136  C    0.074902
   137  H    0.129028
   138  H    0.028484
   139  H    0.028914
   140  H    0.022509
   141  H   -0.017494
   142  N   -0.111588
   143  C    0.104526
   144  C    0.028406
   145  O   -0.257755
   146  C    0.035994
   147  H    0.138970
   148  H    0.005900
   149  H   -0.005002
   150  H    0.050286
   151  H    0.018608
   152  N   -0.129362
   153  C    0.103254
   154  C    0.059121
   155  O   -0.267284
   156  C    0.000895
   157  C    0.141376
   158  C    0.112507
   159  O   -0.436213
   160  O   -0.461857
   161  H    0.104462
   162  H    0.010072
   163  H    0.027477
   164  H   -0.017783
   165  H   -0.036549
   166  H    0.029223
   167  N   -0.138038
   168  C    0.134414
   169  H    0.019569
   170  H    0.037957
   171  H    0.025384
   172  H    0.114276
   173  Ca   1.330199
   174  O   -0.280186
   175  H    0.184588
   176  H    0.168731
 Sum of Mulliken charges =  -0.00000
 Mulliken charges with hydrogens summed into heavy atoms:
               1
     1  C    0.128954
     2  C    0.011017
     3  O   -0.264202
     7  N   -0.026163
     8  C    0.039477
     9  C    0.084544
    10  O   -0.229846
    11  C    0.049249
    12  C    0.092086
    13  O   -0.343557
    14  O   -0.367952
    19  N   -0.045362
    20  C    0.161836
    21  C    0.079518
    22  O   -0.310446
    23  C    0.034042
    24  C   -0.035402
    25  C    0.093595
    26  C    0.152676
    27  N    0.510146
    41  N    0.015679
    42  C    0.149858
    43  C    0.033581
    44  O   -0.267008
    45  C    0.147998
    46  C    0.085892
    47  O   -0.399298
    48  O   -0.475128
    53  N   -0.003285
    54  C    0.314755
    55  C    0.100263
    56  O   -0.333036
    60  N   -0.015710
    61  C    0.077535
    62  C    0.078955
    63  O   -0.281490
    64  C    0.177243
    65  C   -0.015612
    66  N    0.235342
    67  O   -0.231533
    74  N   -0.002782
    75  C    0.257134
    76  C    0.036945
    77  O   -0.252413
    81  N   -0.012855
    82  C    0.103791
    83  C    0.071522
    84  O   -0.284831
    85  C    0.185073
    86  C   -0.031009
    87  C    0.004392
    88  C   -0.056637
    89  C   -0.055634
    90  C   -0.089043
    91  C    0.163658
    92  O   -0.028966
   102  N    0.022129
   103  C    0.196930
   104  C    0.032302
   105  O   -0.257675
   106  C   -0.155806
   107  C   -0.018416
   108  C    0.120657
   109  C    0.069030
   121  N    0.008014
   122  C    0.060269
   123  C    0.029623
   124  O   -0.274030
   125  C    0.278383
   126  O   -0.140328
   132  N    0.002892
   133  C    0.079184
   134  C    0.059295
   135  O   -0.283418
   136  C    0.108831
   142  N    0.027382
   143  C    0.110425
   144  C    0.028406
   145  O   -0.257755
   146  C    0.099886
   152  N   -0.024900
   153  C    0.113325
   154  C    0.059121
   155  O   -0.267284
   156  C    0.010589
   157  C    0.134050
   158  C    0.112507
   159  O   -0.436213
   160  O   -0.461857
   167  N   -0.023762
   168  C    0.217324
   173  Ca   1.330199
   174  O    0.073133
 DipInt: DoE/N= T F RetVal/Mat= T F Init=T NMatP=  1 IDeriv=0 Min/MaxMlt=  0  4
 Entering OneElI...
 OneElI was handed  1333951383 working-precision words.
 Multipole integrals L=0 to 4 MinM= 0 MaxM= 0.
 Requested accuracy = 0.1000D-12
 PrtBox:  NBox=     1 Levels=  1 BoxLen=   98.75 SMaxX=       49.77
          Shift=           20.354342           17.134803           11.107650
 Box      1 Number                   0 centers from      1 to    809:
 ShPair: Thresh= 1.00D-13 NBox=     1 BxSize= 9.87D+01 RnKept= 2.77D+01
         NSMCal=               327645 NSMKep=              118119
 PrmmSu-InSpLW:  IPartL=    0 NPrtUS=    1 NPrtUL=    1 DoSpLW=F IThBeg=    0 IThEnd=    0 NThAct=    1.
 PrsmSu:  NPrtUS=   1 ThrOK=F IAlg=1 NPAlg=1 LenDen=           0 ISkipM=0 DoSpLW=F IThBeg=    0 IThEnd=    0.
 Prism:   IPart=     0 DynPar=F LinDyn=F Incr=         512.
 PRISM was handed  1325500845 working-precision words and118119 shell-pairs
 IPart=  0 NShTot=      118119 NBatch=         281 AvBLen=       420.4
 PrsmSu-ThDecC:  IPartSL=    0    0 NPrtUSL=    1    1 IThBeg=    0 IThEnd=    0 CPU=   -1 GPU=   -1 NThAct=    1.
 PrSmSu:  NxtVal=            513.
 Electronic moments (au):
       -716.00000000          7.04864864         -4.80231913         -4.41159346
    -114476.38609565     -40048.92294873     -10546.47174574       -258.56042394
         64.27383256        -35.94513555    -628165.32547705     -67097.72068094
      -1405.48349175     209978.96837638       -790.54887266    -123742.80170847
     -12766.60754016       3501.52210190      43421.26846191     -70435.66755886
  -36954071.19631706   -6293108.45644435    -455786.52211369     349773.08125512
    -820080.63322690     765817.81102496     765333.12922713     -27925.28323021
     -59391.49941289   -4970334.34901366   -1344093.09988513    -545479.83263641
     192080.36069072    -490852.50909194      28223.01092575
 Electronic spatial extent (au):  <R**2>=         165071.7808
 DipInt: DoE/N= F T RetVal/Mat= T F Init=T NMatP=  1 IDeriv=0 Min/MaxMlt=  0  4
 Nuclear    moments (au):
        716.00000000         -0.00000000         -0.00000000         -0.00000000
     114354.18083197      39569.29921956      10174.82512400         -0.00000000
          0.00000000         -0.00000000     640308.52124511      66480.31950190
       1079.28722835    -210976.00638272      -3784.01688071     124386.46627697
      12875.83171656      -3592.17768855     -43991.75450936      70240.35086934
   36885212.64236227    6148247.85172246     424402.62810769    -482059.19996567
     854434.42237685    -789177.63036903    -769233.53016017      28917.85665069
      59773.35325522    4867634.72675149    1279551.81199603     518691.82935740
    -201364.11360646     494362.92497870     -30271.36743976
 Total      moments (au):
         -0.00000000          7.04864864         -4.80231913         -4.41159346
       -122.20526368       -479.62372917       -371.64662174       -258.56042394
         64.27383256        -35.94513555      12143.19576805       -617.40117904
       -326.19626340       -997.03800634      -4574.56575337        643.66456850
        109.22417639        -90.65558665       -570.48604745       -195.31668951
     -68858.55395479    -144860.60472189     -31383.89400600    -132286.11871055
      34353.78914995     -23359.81934407      -3900.40093304        992.57342048
        381.85384233    -102699.62226216     -64541.28788910     -26788.00327901
      -9283.75291575       3510.41588676      -2048.35651400
 Traceless Quadrup. (au):
        202.28660785       -155.13185764        -47.15475021       -258.56042394
         64.27383256        -35.94513555
 Charge=             -0.0000 electrons
 Dipole moment (field-independent basis, Debye):
    X=             17.9159    Y=            -12.2063    Z=            -11.2132  Tot=             24.4071
 Quadrupole moment (field-independent basis, Debye-Ang):
   XX=           -164.3703   YY=           -645.1103   ZZ=           -499.8774
   XY=           -347.7726   XZ=             86.4505   YZ=            -48.3474
 Traceless Quadrupole moment (field-independent basis, Debye-Ang):
   XX=            272.0824   YY=           -208.6577   ZZ=            -63.4248
   XY=           -347.7726   XZ=             86.4505   YZ=            -48.3474
 Octapole moment (field-independent basis, Debye-Ang**2):
  XXX=           8643.0589  YYY=           -439.4424  ZZZ=           -232.1739  XYY=           -709.6532
  XXY=          -3255.9997  XXZ=            458.1356  XZZ=             77.7416  YZZ=            -64.5252
  YYZ=           -406.0500  XYZ=           -139.0189
 Hexadecapole moment (field-independent basis, Debye-Ang**3):
 XXXX=         -25935.4333 YYYY=         -54561.4500 ZZZZ=         -11820.6794 XXXY=         -49825.2956
 XXXZ=          12939.2843 YYYX=          -8798.4281 YYYZ=          -1469.0780 ZZZX=            373.8507
 ZZZY=            143.8245 XXYY=         -38681.6024 XXZZ=         -24309.3439 YYZZ=         -10089.6466
 XXYZ=          -3496.7065 YYXZ=           1322.1910 ZZXY=           -771.5093
 N-N= 1.863038783811D+04 E-N=-4.974126143146D+04  KE= 5.290656273034D+03
 Leave Link  601 at Tue Sep 17 10:19:53 2019, MaxMem=  1342177280 cpu:              42.8 elap:               1.1
 FitSet:  NAtFit=   176 NAtPot=   176 NAtFrz=     0 MDM=   180 TotChg=   0.00000
 Merz-Kollman atomic radii used.
 Read replacement radii for each type of atom:
 Rad(20) =   1.700000000000D+00
 Atom Element Radius
    1     6    1.50
    2     6    1.50
    3     8    1.40
    4     1    1.20
    5     1    1.20
    6     1    1.20
    7     7    1.50
    8     6    1.50
    9     6    1.50
   10     8    1.40
   11     6    1.50
   12     6    1.50
   13     8    1.40
   14     8    1.40
   15     1    1.20
   16     1    1.20
   17     1    1.20
   18     1    1.20
   19     7    1.50
   20     6    1.50
   21     6    1.50
   22     8    1.40
   23     6    1.50
   24     6    1.50
   25     6    1.50
   26     6    1.50
   27     7    1.50
   28     1    1.20
   29     1    1.20
   30     1    1.20
   31     1    1.20
   32     1    1.20
   33     1    1.20
   34     1    1.20
   35     1    1.20
   36     1    1.20
   37     1    1.20
   38     1    1.20
   39     1    1.20
   40     1    1.20
   41     7    1.50
   42     6    1.50
   43     6    1.50
   44     8    1.40
   45     6    1.50
   46     6    1.50
   47     8    1.40
   48     8    1.40
   49     1    1.20
   50     1    1.20
   51     1    1.20
   52     1    1.20
   53     7    1.50
   54     6    1.50
   55     6    1.50
   56     8    1.40
   57     1    1.20
   58     1    1.20
   59     1    1.20
   60     7    1.50
   61     6    1.50
   62     6    1.50
   63     8    1.40
   64     6    1.50
   65     6    1.50
   66     7    1.50
   67     8    1.40
   68     1    1.20
   69     1    1.20
   70     1    1.20
   71     1    1.20
   72     1    1.20
   73     1    1.20
   74     7    1.50
   75     6    1.50
   76     6    1.50
   77     8    1.40
   78     1    1.20
   79     1    1.20
   80     1    1.20
   81     7    1.50
   82     6    1.50
   83     6    1.50
   84     8    1.40
   85     6    1.50
   86     6    1.50
   87     6    1.50
   88     6    1.50
   89     6    1.50
   90     6    1.50
   91     6    1.50
   92     8    1.40
   93     1    1.20
   94     1    1.20
   95     1    1.20
   96     1    1.20
   97     1    1.20
   98     1    1.20
   99     1    1.20
  100     1    1.20
  101     1    1.20
  102     7    1.50
  103     6    1.50
  104     6    1.50
  105     8    1.40
  106     6    1.50
  107     6    1.50
  108     6    1.50
  109     6    1.50
  110     1    1.20
  111     1    1.20
  112     1    1.20
  113     1    1.20
  114     1    1.20
  115     1    1.20
  116     1    1.20
  117     1    1.20
  118     1    1.20
  119     1    1.20
  120     1    1.20
  121     7    1.50
  122     6    1.50
  123     6    1.50
  124     8    1.40
  125     6    1.50
  126     8    1.40
  127     1    1.20
  128     1    1.20
  129     1    1.20
  130     1    1.20
  131     1    1.20
  132     7    1.50
  133     6    1.50
  134     6    1.50
  135     8    1.40
  136     6    1.50
  137     1    1.20
  138     1    1.20
[...]
 **** Fit      -0.033157
 **** Fit      -0.033287
 **** Fit      -0.033778
 **** Fit      -0.026630
 **** Fit      -0.029132
 **** Fit      -0.031261
 **** Fit      -0.040340
 **** Fit      -0.041601
 **** Fit      -0.042074
 **** Fit      -0.041813
 **** Fit      -0.040982
 **** Fit      -0.039849
 **** Fit      -0.038763
 **** Fit      -0.038094
 **** Fit      -0.038152
 **** Fit      -0.039061
 **** Fit      -0.032481
 **** Fit      -0.035664
 **** Fit      -0.038327
 **** Fit      -0.044775
 **** Fit      -0.043506
 **** Fit      -0.043630
 **** Fit      -0.009343
 **** Fit      -0.009409
 **** Fit      -0.010222
 **** Fit      -0.010215
 **** Fit      -0.009503
 **** Fit      -0.008698
 **** Fit      -0.008625
 **** Fit      -0.011363
 **** Fit      -0.011541
 **** Fit      -0.011274
 **** Fit      -0.010753
 **** Fit      -0.009978
 **** Fit      -0.009037
 **** Fit      -0.008253
 **** Fit      -0.007890
 **** Fit      -0.013057
 **** Fit      -0.012910
 **** Fit      -0.012566
 **** Fit      -0.012179
 **** Fit      -0.011668
 **** Fit      -0.010867
 **** Fit      -0.009822
 **** Fit      -0.008780
 **** Fit      -0.007968
 **** Fit      -0.007487
 **** Fit      -0.014950
 **** Fit      -0.014802
 **** Fit      -0.014408
 **** Fit      -0.014039
 **** Fit      -0.013799
 **** Fit      -0.013486
 **** Fit      -0.012794
 **** Fit      -0.011662
 **** Fit      -0.010319
 **** Fit      -0.009056
 **** Fit      -0.008059
 **** Fit      -0.007385
 **** Fit      -0.017141
 **** Fit      -0.016601
 **** Fit      -0.016100
 **** Fit      -0.015929
 **** Fit      -0.015996
 **** Fit      -0.015816
 **** Fit      -0.014968
 **** Fit      -0.013480
 **** Fit      -0.011711
 **** Fit      -0.010039
 **** Fit      -0.008679
 **** Fit      -0.007692
 **** Fit      -0.007042
 **** Fit      -0.020236
 **** Fit      -0.019518
 **** Fit      -0.018735
 **** Fit      -0.018395
 **** Fit      -0.018693
 **** Fit      -0.019183
 **** Fit      -0.019054
 **** Fit      -0.017862
 **** Fit      -0.015829
 **** Fit      -0.013498
 **** Fit      -0.011330
 **** Fit      -0.009558
 **** Fit      -0.008238
 **** Fit      -0.007320
 **** Fit      -0.024023
 **** Fit      -0.022807
 **** Fit      -0.021677
 **** Fit      -0.021445
 **** Fit      -0.022304
 **** Fit      -0.023342
 **** Fit      -0.023204
 **** Fit      -0.021379
 **** Fit      -0.018434
 **** Fit      -0.015246
 **** Fit      -0.012411
 **** Fit      -0.010171
 **** Fit      -0.008539
 **** Fit      -0.007415
 **** Fit      -0.028947
 **** Fit      -0.026900
 **** Fit      -0.025194
 **** Fit      -0.025028
 **** Fit      -0.024859
 **** Fit      -0.020837
 **** Fit      -0.016751
 **** Fit      -0.013276
 **** Fit      -0.010613
 **** Fit      -0.008713
 **** Fit      -0.024577
 **** Fit      -0.019513
 **** Fit      -0.015090
 **** Fit      -0.011677
 **** Fit      -0.009243
 **** Fit      -0.020603
 **** Fit      -0.015510
 **** Fit      -0.011558
 **** Fit      -0.008794
 **** Fit      -0.015634
 **** Fit      -0.011309
 **** Fit      -0.008119
 **** Fit      -0.015846
 **** Fit      -0.009761
 **** Fit      -0.016379
 **** Fit      -0.010149
 **** Fit      -0.005914
 **** Fit      -0.013801
 **** Fit      -0.008562
 **** Fit      -0.004958
 **** Fit      -0.002835
 **** Fit      -0.003497
 **** Fit      -0.001674
 **** Fit      -0.000879
 **** Fit       0.000438
 **** Fit       0.001148
 **** Fit       0.001324
 **** Fit       0.004900
 **** Fit       0.003940
 **** Fit       0.008518
 **** Fit       0.006636
 **** Fit       0.020435
 **** Fit       0.041966
 **** Fit       0.033029
 **** Fit       0.022870
 **** Fit       0.011477
 **** Fit       0.059495
 **** Fit       0.054395
 **** Fit       0.047800
 **** Fit       0.039926
 **** Fit       0.030830
 **** Fit       0.020527
 **** Fit       0.009133
 **** Fit       0.066607
 **** Fit       0.065396
 **** Fit       0.062761
 **** Fit       0.058608
 **** Fit       0.053011
 **** Fit       0.046091
 **** Fit       0.037913
 **** Fit       0.028479
 **** Fit       0.017784
 **** Fit       0.065846
 **** Fit       0.067663
 **** Fit       0.068334
 **** Fit       0.067809
 **** Fit       0.065998
 **** Fit       0.062794
 **** Fit       0.058158
 **** Fit       0.052120
 **** Fit       0.044712
 **** Fit       0.035916
 **** Fit       0.025646
 **** Fit       0.013758
 **** Fit       0.032802
 **** Fit       0.042076
 **** Fit       0.049600
 **** Fit       0.055744
 **** Fit       0.060691
 **** Fit       0.064504
 **** Fit       0.067174
 **** Fit       0.068666
 **** Fit       0.068948
 **** Fit       0.067976
 **** Fit       0.065685
 **** Fit       0.062016
 **** Fit       0.056941
 **** Fit       0.050445
 **** Fit       0.042485
 **** Fit       0.032941
 **** Fit       0.021577
 **** Fit       0.036616
 **** Fit       0.045450
 **** Fit       0.052602
 **** Fit       0.058344
 **** Fit       0.062813
 **** Fit       0.066050
 **** Fit       0.068051
 **** Fit       0.068792
 **** Fit       0.068238
 **** Fit       0.066340
 **** Fit       0.063049
 **** Fit       0.058318
 **** Fit       0.052098
 **** Fit       0.044304
 **** Fit       0.034757
 **** Fit       0.023130
 **** Fit       0.030920
 **** Fit       0.040739
 **** Fit       0.048746
 **** Fit       0.055205
 **** Fit       0.060282
 **** Fit       0.064057
 **** Fit       0.066554
 **** Fit       0.067762
 **** Fit       0.067656
 **** Fit       0.066195
 **** Fit       0.063332
 **** Fit       0.059016
 **** Fit       0.053179
 **** Fit       0.045710
 **** Fit       0.036408
 **** Fit       0.024922
 **** Fit       0.029490
 **** Fit       0.039489
 **** Fit       0.047738
 **** Fit       0.054376
 **** Fit       0.059515
 **** Fit       0.063219
 **** Fit       0.065506
 **** Fit       0.066361
 **** Fit       0.065752
 **** Fit       0.063634
 **** Fit       0.059950
 **** Fit       0.054626
 **** Fit       0.047545
 **** Fit       0.038509
 **** Fit       0.027183
 **** Fit       0.017617
 **** Fit       0.028646
 **** Fit       0.038417
 **** Fit       0.046653
 **** Fit       0.053303
 **** Fit       0.058386
 **** Fit       0.061920
 **** Fit       0.063903
 **** Fit       0.064308
 **** Fit       0.063095
 **** Fit       0.060212
 **** Fit       0.055590
 **** Fit       0.049131
 **** Fit       0.040680
 **** Fit       0.029999
 **** Fit       0.018468
 **** Fit       0.028314
 **** Fit       0.037522
 **** Fit       0.045509
 **** Fit       0.052012
 **** Fit       0.056923
 **** Fit       0.060193
 **** Fit       0.061782
 **** Fit       0.061649
 **** Fit       0.059748
 **** Fit       0.056029
 **** Fit       0.050433
 **** Fit       0.042888
 **** Fit       0.033323
 **** Fit       0.029641
 **** Fit       0.038205
 **** Fit       0.045751
 **** Fit       0.051813
 **** Fit       0.056147
 **** Fit       0.058623
 **** Fit       0.059158
 **** Fit       0.057702
 **** Fit       0.054231
 **** Fit       0.048758
 **** Fit       0.041368
 **** Fit       0.032332
 **** Fit       0.038860
 **** Fit       0.045838
 **** Fit       0.051311
 **** Fit       0.054866
 **** Fit       0.056286
 **** Fit       0.055482
 **** Fit       0.052482
 **** Fit       0.047474
 **** Fit       0.040927
 **** Fit       0.033868
 **** Fit       0.047115
 **** Fit       0.051512
 **** Fit       0.053405
 **** Fit       0.052612
 **** Fit       0.049420
 **** Fit       0.044792
 **** Fit       0.048318
 **** Fit       0.050937
 **** Fit       0.050434
 **** Fit      -0.050929
 **** Fit      -0.041900
 **** Fit      -0.037849
 **** Fit      -0.034016
 **** Fit      -0.030339
 **** Fit      -0.026922
 **** Fit      -0.035032
 **** Fit      -0.030436
 **** Fit      -0.026189
 **** Fit      -0.022122
 **** Fit      -0.031434
 **** Fit      -0.026055
 **** Fit      -0.021345
 **** Fit      -0.016892
 **** Fit      -0.028001
 **** Fit      -0.022101
 **** Fit      -0.017183
 **** Fit      -0.012648
 **** Fit      -0.008207
 **** Fit      -0.019096
 **** Fit      -0.014035
 **** Fit      -0.009581
 **** Fit      -0.005296
 **** Fit      -0.011101
 **** Fit      -0.006914
 **** Fit      -0.003046
 **** Fit       0.000829
 **** Fit      -0.001153
 **** Fit      -0.000043
 **** Fit       0.003873
 **** Fit       0.010417
 **** Fit       0.019130
 **** Fit       0.029303
 **** Fit       0.003571
 **** Fit       0.006760
 **** Fit       0.006878
 **** Fit       0.008389
 **** Fit       0.012215
 **** Fit       0.018044
 **** Fit       0.025313
 **** Fit       0.033237
 **** Fit       0.040866
 **** Fit       0.014046
 **** Fit       0.013368
 **** Fit       0.015522
 **** Fit       0.019571
 **** Fit       0.025011
 **** Fit       0.031110
 **** Fit       0.036985
 **** Fit       0.041730
 **** Fit       0.019845
 **** Fit       0.018106
 **** Fit       0.018972
 **** Fit       0.021623
 **** Fit       0.025649
 **** Fit       0.030383
 **** Fit       0.035013
 **** Fit       0.022447
 **** Fit       0.022659
 **** Fit       0.024598
 **** Fit       0.027887
 **** Fit       0.026172
 **** Fit       0.026200
 **** Fit       0.028035
 **** Fit       0.029391
 **** Fit      -0.019158
 **** Fit      -0.016863
 **** Fit      -0.015193
 **** Fit      -0.011855
 **** Fit      -0.009692
 **** Fit      -0.008857
 **** Fit      -0.009581
 **** Fit      -0.012164
 **** Fit      -0.011239
 **** Fit      -0.009919
 **** Fit      -0.006535
 **** Fit      -0.004111
 **** Fit      -0.002742
 **** Fit      -0.002582
 **** Fit      -0.003822
 **** Fit      -0.006657
 **** Fit      -0.005453
 **** Fit      -0.010557
 **** Fit      -0.016639
 **** Fit      -0.005112
 **** Fit      -0.001945
 **** Fit       0.000495
 **** Fit       0.002145
 **** Fit       0.002900
 **** Fit       0.002627
 **** Fit       0.001192
 **** Fit      -0.001499
 **** Fit       0.000113
 **** Fit      -0.003876
 **** Fit      -0.008320
 **** Fit      -0.012924
 **** Fit       0.001802
 **** Fit       0.004152
 **** Fit       0.005955
 **** Fit       0.007118
 **** Fit       0.007537
 **** Fit       0.007103
 **** Fit       0.005726
 **** Fit       0.003375
 **** Fit       0.005220
 **** Fit       0.002042
 **** Fit      -0.001337
 **** Fit      -0.004580
 **** Fit      -0.007333
 **** Fit      -0.009156
 **** Fit       0.006861
 **** Fit       0.008690
 **** Fit       0.010148
 **** Fit       0.011105
 **** Fit       0.011444
 **** Fit       0.011058
 **** Fit       0.009879
 **** Fit       0.007902
 **** Fit       0.009728
 **** Fit       0.007207
 **** Fit       0.004637
 **** Fit       0.002354
 **** Fit       0.000709
 **** Fit       0.000074
 **** Fit       0.000849
 **** Fit       0.011382
 **** Fit       0.012591
 **** Fit       0.013687
 **** Fit       0.014466
 **** Fit       0.014770
 **** Fit       0.014479
 **** Fit       0.013522
 **** Fit       0.011904
 **** Fit       0.013613
 **** Fit       0.011680
 **** Fit       0.009796
 **** Fit       0.008269
 **** Fit       0.007412
 **** Fit       0.007522
 **** Fit       0.016195
 **** Fit       0.016476
 **** Fit       0.017005
 **** Fit       0.017468
 **** Fit       0.017646
 **** Fit       0.017388
 **** Fit       0.016615
 **** Fit       0.015324
 **** Fit       0.016935
 **** Fit       0.015413
 **** Fit       0.014050
 **** Fit       0.013177
 **** Fit       0.013113
 **** Fit       0.014131
 **** Fit       0.020871
 **** Fit       0.020334
 **** Fit       0.020268
 **** Fit       0.020250
 **** Fit       0.020005
 **** Fit       0.019377
 **** Fit       0.018325
 **** Fit       0.019810
 **** Fit       0.018679
 **** Fit       0.017842
 **** Fit       0.017646
 **** Fit       0.018412
 **** Fit       0.024774
 **** Fit       0.023503
 **** Fit       0.022885
 **** Fit       0.022421
 **** Fit       0.021807
 **** Fit       0.020920
 **** Fit       0.022389
 **** Fit       0.021621
 **** Fit       0.021400
 **** Fit       0.022151
 **** Fit       0.026305
 **** Fit       0.025071
 **** Fit       0.024194
 **** Fit       0.023317
 **** Fit       0.024862
 **** Fit       0.024552
 **** Fit       0.025479
 **** Fit       0.029262
 **** Fit       0.027108
 **** Fit       0.025784
 **** Fit       0.027469
 **** Fit       0.028275
 **** Fit       0.028936
 **** Fit       0.030538
 **** Fit      -0.011849
 **** Fit      -0.012624
 **** Fit      -0.008417
 **** Fit      -0.004280
 **** Fit      -0.000279
 **** Fit       0.003783
 **** Fit       0.048459
 **** Fit       0.046544
 **** Fit       0.041343
 **** Fit       0.033608
 **** Fit       0.024424
 **** Fit       0.015035
 **** Fit       0.006678
 **** Fit      -0.003230
 **** Fit      -0.004257
 **** Fit      -0.003295
 **** Fit      -0.001129
 **** Fit       0.001631
 **** Fit       0.004678
 **** Fit       0.007972
 **** Fit       0.011655
 **** Fit       0.039345
 **** Fit       0.041315
 **** Fit       0.040842
 **** Fit       0.037903
 **** Fit       0.032933
 **** Fit       0.026698
 **** Fit       0.020132
 **** Fit       0.014169
 **** Fit       0.009567
 **** Fit       0.006736
 **** Fit       0.005666
 **** Fit       0.006022
 **** Fit       0.007365
 **** Fit       0.009340
 **** Fit       0.011768
 **** Fit       0.014625
 **** Fit       0.017996
 **** Fit       0.021994
 **** Fit       0.033531
 **** Fit       0.036019
 **** Fit       0.036925
 **** Fit       0.035835
 **** Fit       0.032854
 **** Fit       0.028528
 **** Fit       0.023666
 **** Fit       0.019126
 **** Fit       0.015604
 **** Fit       0.013465
 **** Fit       0.012715
 **** Fit       0.013114
 **** Fit       0.014367
 **** Fit       0.016259
 **** Fit       0.018697
 **** Fit       0.021660
 **** Fit       0.025106
 **** Fit       0.028696
 **** Fit       0.030291
 **** Fit       0.032288
 **** Fit       0.033714
 **** Fit       0.033817
 **** Fit       0.032322
 **** Fit       0.029490
 **** Fit       0.025968
 **** Fit       0.022546
 **** Fit       0.019887
 **** Fit       0.018349
 **** Fit       0.017963
 **** Fit       0.018562
 **** Fit       0.019940
 **** Fit       0.021937
 **** Fit       0.024417
 **** Fit       0.027156
 **** Fit       0.029721
 **** Fit       0.030250
 **** Fit       0.029878
 **** Fit       0.029366
 **** Fit       0.029540
 **** Fit       0.030513
 **** Fit       0.031622
 **** Fit       0.031958
 **** Fit       0.030980
 **** Fit       0.028812
 **** Fit       0.026125
 **** Fit       0.023749
 **** Fit       0.022284
 **** Fit       0.021936
 **** Fit       0.022606
 **** Fit       0.024074
 **** Fit       0.026052
 **** Fit       0.028121
 **** Fit       0.029691
 **** Fit       0.029465
 **** Fit       0.029621
 **** Fit       0.029860
 **** Fit       0.030449
 **** Fit       0.030558
 **** Fit       0.029416
 **** Fit       0.027376
 **** Fit       0.025576
 **** Fit       0.024911
 **** Fit       0.025531
 **** Fit       0.027015
 **** Fit       0.028589
 **** Fit       0.029020
 **** Fit       0.029557
 **** Fit       0.029512
 **** Fit       0.028160
 **** Fit       0.027120
 **** Fit       0.027851
 **** Fit       0.028651
 -----------------------------------------------------------------
 Leave Link  602 at Tue Sep 17 10:19:56 2019, MaxMem=  1342177280 cpu:             131.6 elap:               2.8

 Test job not archived.
 1\1\GINC-C489-101\SP\RB3LYP\SVP\C54H83Ca1N15O23\PENGZHI\17-Sep-2019\0\
 \#b3lyp/svp scf=(tight,noincore) Test #IOP(5/87=12) Density=Current Po
 p=(MK,readradii) iop(6/33=2) iop(6/42=6)\\Ng-293_loop3_37.0\\0,1\C,0,6
 6.43,27.5,21.38\C,0,67.52,28.36,20.76\O,0,67.43,29.59,20.71\H,0,65.53,
 27.557,20.767\H,0,66.768,26.465,21.432\H,0,66.209,27.861,22.384\N,0,68
 .58,27.67,20.32\C,0,69.74,28.2,19.64\C,0,69.56,29.2,18.5\O,0,70.3,30.1
 3,18.2\C,0,70.74,28.76,20.66\C,0,72.22,28.8,20.31\O,0,72.97,29.57,20.9
 4\O,0,72.68,28.13,19.35\H,0,68.51,26.66,20.25\H,0,70.14,27.3,19.18\H,0
 ,70.56,28.17,21.56\H,0,70.29,29.71,20.94\N,0,68.4,29.07,17.84\C,0,67.9
 6,29.83,16.69\C,0,67.71,31.31,16.89\O,0,67.85,31.97,15.86\C,0,66.64,29
 .27,16.16\C,0,66.72,27.89,15.52\C,0,65.51,27.57,14.65\C,0,65.82,26.42,
 13.69\N,0,66.24,25.26,14.49\H,0,67.74,28.43,18.27\H,0,68.73,29.82,15.9
 1\H,0,66.4,29.94,15.34\H,0,65.88,29.28,16.95\H,0,66.74,27.15,16.32\H,0
 ,67.67,27.78,15.\H,0,65.36,28.38,13.93\H,0,64.66,27.34,15.29\H,0,66.61
 ,26.73,13.01\H,0,65.01,26.23,12.99\H,0,66.36,24.48,13.86\H,0,67.14,25.
 44,14.92\H,0,65.57,24.91,15.16\N,0,67.46,31.84,18.09\C,0,67.54,33.27,1
 8.32\C,0,68.06,33.6,19.72\O,0,67.67,32.97,20.7\C,0,66.14,33.88,18.18\C
 ,0,66.01,35.38,18.36\O,0,64.98,35.9,18.85\O,0,66.93,36.1,17.91\H,0,67.
 37,31.24,18.9\H,0,68.31,33.68,17.67\H,0,65.4,33.43,18.84\H,0,65.79,33.
 55,17.2\N,0,68.82,34.68,19.89\C,0,69.22,35.17,21.19\C,0,68.37,36.31,21
 .71\O,0,67.47,36.81,21.04\H,0,69.18,35.02,19.01\H,0,70.18,35.62,20.94\
 H,0,69.29,34.36,21.92\N,0,68.61,36.65,22.98\C,0,67.72,37.52,23.73\C,0,
 68.3,38.8,24.31\O,0,67.6,39.55,24.99\C,0,66.84,36.73,24.69\C,0,66.02,3
 5.65,23.99\N,0,65.21,36.05,23.01\O,0,66.05,34.49,24.39\H,0,69.55,36.53
 ,23.33\H,0,67.03,37.96,23.02\H,0,66.19,37.42,25.23\H,0,67.48,36.28,25.
 44\H,0,65.21,37.04,22.78\H,0,64.54,35.44,22.58\N,0,69.57,39.11,24.06\C
 ,0,70.37,40.2,24.58\C,0,70.08,40.61,26.02\O,0,69.85,39.77,26.88\H,0,70
 .09,38.42,23.52\H,0,70.13,41.08,23.98\H,0,71.44,40.08,24.42\N,0,69.95,
 41.91,26.29\C,0,69.47,42.47,27.54\C,0,68.07,42.06,27.98\O,0,67.68,42.2
 9,29.12\C,0,70.52,42.28,28.63\C,0,71.92,42.53,28.13\C,0,72.79,41.45,27
 .94\C,0,72.31,43.84,27.86\C,0,74.05,41.71,27.39\C,0,73.6,44.12,27.4\C,
 0,74.46,43.03,27.12\O,0,75.75,43.28,26.76\H,0,69.96,42.56,25.52\H,0,69
 .44,43.55,27.37\H,0,70.41,41.27,29.02\H,0,70.38,42.93,29.5\H,0,72.49,4
 0.42,28.09\H,0,71.61,44.65,28.01\H,0,74.77,40.94,27.17\H,0,73.92,45.14
 ,27.29\H,0,76.01,44.16,27.03\N,0,67.38,41.3,27.12\C,0,66.03,40.78,27.1
 4\C,0,64.96,41.85,27.2\O,0,64.07,41.82,26.36\C,0,65.89,39.74,28.26\C,0
 ,66.63,38.45,27.92\C,0,64.43,39.42,28.55\C,0,66.95,37.56,29.12\H,0,67.
 77,41.15,26.2\H,0,65.91,40.22,26.21\H,0,66.28,40.21,29.16\H,0,67.58,38
 .62,27.42\H,0,66.05,37.91,27.17\H,0,63.81,39.43,27.66\H,0,64.37,38.39,
 28.91\H,0,64.1,40.16,29.29\H,0,66.,37.2,29.53\H,0,67.49,36.66,28.82\H,
 0,67.57,38.13,29.8\N,0,65.01,42.81,28.13\C,0,64.29,44.07,28.06\C,0,62.
 78,43.98,28.19\O,0,62.08,44.92,27.83\C,0,64.79,45.04,29.13\O,0,66.2,44
 .97,29.27\H,0,65.77,42.8,28.8\H,0,64.39,44.55,27.09\H,0,64.28,44.68,30
 .02\H,0,64.49,46.08,29.07\H,0,66.58,45.,28.38\N,0,62.24,42.82,28.59\C,
 0,60.85,42.45,28.49\C,0,60.13,42.68,27.17\O,0,58.91,42.83,27.21\C,0,60
 .17,43.08,29.7\H,0,62.85,42.21,29.13\H,0,60.77,41.36,28.56\H,0,60.22,4
 4.16,29.59\H,0,59.13,42.73,29.76\H,0,60.68,42.8,30.62\N,0,60.86,42.69,
 26.05\C,0,60.51,42.97,24.67\C,0,60.62,41.73,23.8\O,0,61.06,40.7,24.3\C
 ,0,61.46,44.09,24.24\H,0,61.83,42.43,26.15\H,0,59.48,43.28,24.5\H,0,61
 .14,44.57,23.32\H,0,61.46,44.86,25.02\H,0,62.46,43.67,24.17\N,0,60.24,
 41.7,22.52\C,0,60.1,40.61,21.57\C,0,59.17,39.47,21.98\O,0,59.22,38.39,
 21.4\C,0,61.53,40.24,21.22\C,0,61.75,39.63,19.83\C,0,63.18,39.14,19.64
 \O,0,63.75,38.26,20.32\O,0,63.92,39.68,18.79\H,0,59.89,42.55,22.11\H,0
 ,59.67,40.99,20.64\H,0,61.98,39.61,21.98\H,0,62.12,41.15,21.32\H,0,61.
 56,40.46,19.16\H,0,61.03,38.84,19.63\N,0,58.37,39.62,23.04\C,0,57.66,3
 8.62,23.8\H,0,56.678,38.457,23.356\H,0,58.223,37.687,23.789\H,0,57.541
 ,38.961,24.828\H,0,58.46,40.52,23.51\Ca,0,66.07,38.15,19.15\O,0,65.59,
 38.32,16.64\H,0,65.6,37.8,15.84\H,0,65.46,39.22,16.34\\Version=ES64L-G
 16RevA.03\State=1-A\HF=-5333.371046\RMSD=1.706e-09\Dipole=-2.1735744,-
 2.8416857,-8.9111318\Quadrupole=-210.2387201,163.1098384,47.1288817,19
 1.0552624,66.2331228,168.7580039\PG=C01 [X(C54H83Ca1N15O23)]\\@


 ...THOSE SCIENCES ARE VAIN AND FULL OF ERRORS WHICH 
 ARE NOT BORN FROM EXPERIMENT, THE MOTHER OF CERTAINTY...

                          -- LEONARDO DA VINCI, 1452-1519
 Job cpu time:       0 days  9 hours 25 minutes  1.7 seconds.
 Elapsed time:       0 days  0 hours 11 minutes 56.8 seconds.
 File lengths (MBytes):  RWF=   1517 Int=      0 D2E=      0 Chk=    171 Scr=      1
 Normal termination of Gaussian 16 at Tue Sep 17 10:19:58 2019.
