 Entering Gaussian System, Link 0=g16
 Initial command:
 /home1/apps/gaussian/16rA.03/g16/l1.exe "/scratch/01990/pengzhi/4345056/Gau-180680.inp" -scrdir="/scratch/01990/pengzhi/4345056/"
 Entering Link 1 = /home1/apps/gaussian/16rA.03/g16/l1.exe PID=    180681.
  
 Copyright (c) 1988,1990,1992,1993,1995,1998,2003,2009,2016,
            Gaussian, Inc.  All Rights Reserved.
  
 This is part of the Gaussian(R) 16 program.  It is based on
 the Gaussian(R) 09 system (copyright 2009, Gaussian, Inc.),
 the Gaussian(R) 03 system (copyright 2003, Gaussian, Inc.),
 the Gaussian(R) 98 system (copyright 1998, Gaussian, Inc.),
 the Gaussian(R) 94 system (copyright 1995, Gaussian, Inc.),
 the Gaussian 92(TM) system (copyright 1992, Gaussian, Inc.),
 the Gaussian 90(TM) system (copyright 1990, Gaussian, Inc.),
 the Gaussian 88(TM) system (copyright 1988, Gaussian, Inc.),
 the Gaussian 86(TM) system (copyright 1986, Carnegie Mellon
 University), and the Gaussian 82(TM) system (copyright 1983,
 Carnegie Mellon University). Gaussian is a federally registered
 trademark of Gaussian, Inc.
  
 This software contains proprietary and confidential information,
 including trade secrets, belonging to Gaussian, Inc.
  
 This software is provided under written license and may be
 used, copied, transmitted, or stored only in accord with that
 written license.
  
 The following legend is applicable only to US Government
 contracts under FAR:
  
                    RESTRICTED RIGHTS LEGEND
  
 Use, reproduction and disclosure by the US Government is
 subject to restrictions as set forth in subparagraphs (a)
 and (c) of the Commercial Computer Software - Restricted
 Rights clause in FAR 52.227-19.
  
 Gaussian, Inc.
 340 Quinnipiac St., Bldg. 40, Wallingford CT 06492
  
  
 ---------------------------------------------------------------
 Warning -- This program may not be used in any manner that
 competes with the business of Gaussian, Inc. or will provide
 assistance to any competitor of Gaussian, Inc.  The licensee
 of this program is prohibited from giving any competitor of
 Gaussian, Inc. access to this program.  By using this program,
 the user acknowledges that Gaussian, Inc. is engaged in the
 business of creating and licensing software in the field of
 computational chemistry and represents and warrants to the
 licensee that it is not a competitor of Gaussian, Inc. and that
 it will not use this program in any manner prohibited above.
 ---------------------------------------------------------------
  

 Cite this work as:
 Gaussian 16, Revision A.03,
 M. J. Frisch, G. W. Trucks, H. B. Schlegel, G. E. Scuseria, 
 M. A. Robb, J. R. Cheeseman, G. Scalmani, V. Barone, 
 G. A. Petersson, H. Nakatsuji, X. Li, M. Caricato, A. V. Marenich, 
 J. Bloino, B. G. Janesko, R. Gomperts, B. Mennucci, H. P. Hratchian, 
 J. V. Ortiz, A. F. Izmaylov, J. L. Sonnenberg, D. Williams-Young, 
 F. Ding, F. Lipparini, F. Egidi, J. Goings, B. Peng, A. Petrone, 
 T. Henderson, D. Ranasinghe, V. G. Zakrzewski, J. Gao, N. Rega, 
 G. Zheng, W. Liang, M. Hada, M. Ehara, K. Toyota, R. Fukuda, 
 J. Hasegawa, M. Ishida, T. Nakajima, Y. Honda, O. Kitao, H. Nakai, 
 T. Vreven, K. Throssell, J. A. Montgomery, Jr., J. E. Peralta, 
 F. Ogliaro, M. J. Bearpark, J. J. Heyd, E. N. Brothers, K. N. Kudin, 
 V. N. Staroverov, T. A. Keith, R. Kobayashi, J. Normand, 
 K. Raghavachari, A. P. Rendell, J. C. Burant, S. S. Iyengar, 
 J. Tomasi, M. Cossi, J. M. Millam, M. Klene, C. Adamo, R. Cammi, 
 J. W. Ochterski, R. L. Martin, K. Morokuma, O. Farkas, 
 J. B. Foresman, and D. J. Fox, Gaussian, Inc., Wallingford CT, 2016.
 
 ******************************************
 Gaussian 16:  ES64L-G16RevA.03 25-Dec-2016
                17-Sep-2019 
 ******************************************
 %chk=Ng-293_loop3_39.0.chk
 %nprocshared=48
 Will use up to   48 processors via shared memory.
 %mem=10GB
 %nosave
 ----------------------------------------------------------------------
 #b3lyp/svp scf=(tight,noincore) Test #IOP(5/87=12) Density=Current Pop
 =(MK,readradii) iop(6/33=2) iop(6/42=6)
 ----------------------------------------------------------------------
 1/30=1,38=1,172=1/1;
 2/12=2,17=6,18=5,40=1/2;
 3/5=18,7=101,11=2,25=1,30=1,74=-5/1,2,3;
 4//1;
 5/5=4,32=2,38=5,87=12/2;
 6/7=2,8=2,9=2,10=2,15=8,20=101,22=-1,28=1,33=2,42=6/1,2;
 99/5=1,9=1/99;
 -----------------
 Ng-293_loop3_39.0
 -----------------
 Symbolic Z-matrix:
 Charge =  0 Multiplicity = 1
 C                     54.56     22.       11.12 
 C                     54.76     23.2      10.21 
 O                     55.1      24.3      10.66 
 H                     53.54     21.63     11.014 
 H                     55.261    21.213    10.844 
 H                     54.733    22.295    12.155 
 N                     54.43     23.01     8.93 
 C                     53.95     24.12     8.12 
 C                     52.92     25.01     8.8 
 O                     53.16     25.79     9.72 
 C                     55.05     24.9      7.41 
 C                     55.76     24.09     6.33 
 O                     55.28     24.2      5.18 
 O                     56.76     23.38     6.57 
 H                     54.33     22.09     8.54 
 H                     53.38     23.72     7.28 
 H                     55.8      25.24     8.12 
 H                     54.62     25.79     6.94 
 N                     51.71     25.       8.22 
 C                     50.49     25.61     8.72 
 C                     50.68     27.12     8.77 
 O                     50.67     27.86     7.79 
 C                     49.91     24.96     9.97 
 C                     49.8      23.44     9.9 
 C                     49.27     22.85     11.2 
 C                     49.42     21.33     11.14 
 N                     49.02     20.76     12.43 
 H                     51.59     24.42     7.41 
 H                     49.74     25.49     7.94 
 H                     48.93     25.31     10.3 
 H                     50.6      25.05     10.81 
 H                     50.81     23.08     9.69 
 H                     49.21     23.15     9.03 
 H                     48.21     23.1      11.19 
 H                     49.75     23.26     12.09 
 H                     50.5      21.17     11.09 
 H                     48.95     20.94     10.23 
 H                     48.96     19.76     12.5 
 H                     49.53     21.03     13.26 
 H                     48.04     21.01     12.52 
 N                     50.76     27.66     9.99 
 C                     50.69     29.06     10.35 
 C                     52.01     29.52     10.97 
 O                     52.56     28.81     11.81 
 C                     49.5      29.32     11.27 
 C                     49.54     30.75     11.79 
 O                     49.95     31.56     10.94 
 O                     49.26     31.17     12.93 
 H                     51.01     27.       10.71 
 H                     50.46     29.65     9.47 
 H                     49.61     28.72     12.17 
 H                     48.59     29.16     10.68 
 N                     52.63     30.62     10.53 
 C                     53.85     31.14     11.11 
 C                     53.76     32.01     12.35 
 O                     52.71     32.51     12.75 
 H                     52.16     31.23     9.88 
 H                     54.34     31.77     10.37 
 H                     54.51     30.3      11.33 
 N                     54.86     32.26     13.06 
 C                     54.92     33.02     14.3 
 C                     56.16     33.88     14.41 
 O                     56.26     34.77     15.26 
 C                     54.82     32.02     15.45 
 C                     53.58     31.13     15.51 
 N                     52.37     31.61     15.79 
 O                     53.65     29.91     15.37 
 H                     55.7      31.86     12.67 
 H                     54.08     33.72     14.35 
 H                     54.82     32.61     16.36 
 H                     55.65     31.31     15.44 
 H                     52.21     32.6      15.86 
 H                     51.61     30.94     15.77 
 N                     57.15     33.72     13.53 
 C                     58.38     34.49     13.59 
 C                     59.02     34.39     14.97 
 O                     59.03     33.36     15.63 
 H                     57.02     33.04     12.79 
 H                     58.11     35.5      13.29 
 H                     59.14     34.08     12.93 
 N                     59.55     35.48     15.52 
 C                     59.97     35.62     16.91 
 C                     58.97     35.38     18.03 
 O                     59.18     35.8      19.17 
 C                     61.27     34.92     17.26 
 C                     62.35     35.02     16.21 
 C                     62.7      33.91     15.43 
 C                     63.01     36.24     16.04 
 C                     63.71     34.05     14.47 
 C                     63.95     36.38     15.01 
 C                     64.39     35.27     14.26 
 O                     65.41     35.45     13.37 
 H                     59.52     36.28     14.91 
 H                     60.18     36.68     17.02 
 H                     61.11     33.86     17.47 
 H                     61.67     35.36     18.17 
 H                     62.13     32.99     15.42 
 H                     62.82     37.13     16.62 
 H                     63.98     33.21     13.86 
 H                     64.28     37.38     14.79 
 H                     65.68     36.36     13.24 
 N                     57.77     34.84     17.77 
 C                     56.68     34.41     18.61 
 C                     55.95     35.53     19.34 
 O                     54.72     35.56     19.3 
 C                     57.15     33.3      19.56 
 C                     57.69     32.02     18.93 
 C                     55.98     32.87     20.44 
 C                     58.6      31.15     19.78 
 H                     57.57     34.57     16.82 
 H                     55.9      34.01     17.97 
 H                     57.99     33.69     20.14 
 H                     58.26     32.22     18.02 
 H                     56.9      31.34     18.6 
 H                     55.63     33.67     21.08 
 H                     55.23     32.44     19.77 
 H                     56.32     32.06     21.09 
 H                     58.11     30.5      20.51 
 H                     59.24     30.56     19.12 
 H                     59.2      31.79     20.43 
 N                     56.69     36.41     20.02 
 C                     56.22     37.68     20.53 
 C                     55.19     37.52     21.64 
 O                     54.42     38.45     21.87 
 C                     57.42     38.46     21.04 
 O                     58.36     38.84     20.05 
 H                     57.68     36.2      20.06 
 H                     55.71     38.22     19.73 
 H                     58.02     37.8      21.68 
 H                     57.15     39.39     21.54 
 H                     59.18     38.95     20.54 
 N                     55.24     36.39     22.34 
 C                     54.29     35.97     23.35 
 C                     52.8      35.95     23.07 
 O                     51.97     36.34     23.89 
 C                     54.69     36.69     24.64 
 H                     56.06     35.82     22.16 
 H                     54.57     34.93     23.55 
 H                     54.09     36.41     25.5 
 H                     55.67     36.41     25.03 
 H                     54.63     37.76     24.46 
 N                     52.56     35.87     21.75 
 C                     51.28     36.16     21.15 
 C                     50.79     34.94     20.39 
 O                     51.63     34.09     20.1 
 C                     51.37     37.42     20.3 
 H                     53.35     35.74     21.14 
 H                     50.53     36.35     21.92 
 H                     50.36     37.59     19.92 
 H                     51.64     38.29     20.9 
 H                     52.       37.28     19.43 
 N                     49.52     34.99     19.99 
 C                     48.75     33.93     19.36 
 C                     48.58     32.61     20.1 
 O                     48.06     31.68     19.48 
 C                     49.24     33.68     17.94 
 C                     49.16     34.86     16.98 
 C                     49.43     34.44     15.54 
 O                     50.29     33.56     15.33 
 O                     49.       35.09     14.56 
 H                     48.99     35.84     20.13 
 H                     47.72     34.29     19.35 
 H                     48.8      32.76     17.55 
 H                     50.28     33.39     18.07 
 H                     49.81     35.64     17.36 
 H                     48.17     35.31     17.04 
 N                     48.95     32.43     21.37 
 C                     49.23     31.15     21.99 
 H                     50.114    31.239    22.622 
 H                     48.378    30.846    22.598 
 H                     49.41     30.403    21.217 
 H                     49.2      33.23     21.93 
 Ca                    50.29     33.77     12.68 
 O                     52.19     35.37     13.72 
 H                     52.3      35.82     14.56 
 H                     53.08     35.27     13.39 
 
 Stoichiometry    C54H83CaN15O23
 Framework group  C1[X(C54H83CaN15O23)]
 Deg. of freedom   522
 Full point group                 C1      NOp   1
 Largest Abelian subgroup         C1      NOp   1
 Largest concise Abelian subgroup C1      NOp   1
                         Standard orientation:                         
 ---------------------------------------------------------------------
 Center     Atomic      Atomic             Coordinates (Angstroms)
 Number     Number       Type             X           Y           Z
 ---------------------------------------------------------------------
      1          6           0        9.459268    1.853021    4.496076
      2          6           0        9.181145    2.371031    3.095215
      3          8           0        8.025959    2.527587    2.683955
      4          1           0       10.051226    0.939604    4.434502
      5          1           0       10.011247    2.604753    5.059249
      6          1           0        8.516177    1.640673    4.999728
      7          7           0       10.255669    2.525813    2.317499
      8          6           0       10.148801    2.373491    0.873900
      9          6           0        9.339514    1.169149    0.415625
     10          8           0        8.118331    1.061857    0.513609
     11          6           0        9.796979    3.657409    0.132094
     12          6           0       10.900964    4.708209    0.192402
     13          8           0       11.718221    4.676756   -0.754224
     14          8           0       10.976651    5.552284    1.110829
     15          1           0       11.183366    2.571694    2.699302
     16          1           0       11.136939    2.144974    0.471578
     17          1           0        8.891208    4.100629    0.538707
     18          1           0        9.602788    3.428304   -0.920379
     19          7           0       10.047144    0.250733   -0.259928
     20          6           0        9.602433   -1.066245   -0.682185
     21          6           0        8.468224   -0.904048   -1.685162
     22          8           0        8.611557   -0.557470   -2.854537
     23          6           0        9.367936   -2.060343    0.448380
     24          6           0       10.501851   -2.140742    1.465815
     25          6           0       10.179181   -3.106179    2.598429
     26          6           0       11.239287   -2.947787    3.688193
     27          7           0       10.875827   -3.788364    4.832888
     28          1           0       11.024406    0.430544   -0.399667
     29          1           0       10.401847   -1.483696   -1.292081
     30          1           0        9.156182   -3.092629    0.163169
     31          1           0        8.564732   -1.720590    1.103538
     32          1           0       10.632481   -1.123898    1.843657
     33          1           0       11.438624   -2.376829    0.960030
     34          1           0       10.285369   -4.090316    2.144118
     35          1           0        9.173832   -2.979631    3.003226
     36          1           0       11.105426   -1.923121    4.044058
     37          1           0       12.241516   -3.057738    3.258601
     38          1           0       11.540929   -3.871690    5.580682
     39          1           0       10.000414   -3.612440    5.306813
     40          1           0       10.894411   -4.734074    4.463718
     41          7           0        7.254635   -1.269491   -1.260834
     42          6           0        6.056594   -1.462024   -2.049585
     43          6           0        4.980372   -0.454582   -1.643130
     44          8           0        4.770492   -0.247015   -0.449369
     45          6           0        5.566702   -2.903630   -1.940592
     46          6           0        4.212246   -3.051400   -2.619204
     47          8           0        4.111373   -2.360105   -3.648105
     48          8           0        3.228724   -3.723803   -2.251838
     49          1           0        7.167714   -1.298128   -0.256780
     50          1           0        6.294233   -1.357030   -3.102156
     51          1           0        5.353612   -3.127756   -0.898259
     52          1           0        6.308062   -3.539041   -2.439028
     53          7           0        4.348800    0.284849   -2.560931
     54          6           0        3.283383    1.213646   -2.248806
     55          6           0        1.870446    0.683160   -2.091351
     56          8           0        1.525421   -0.439390   -2.456507
     57          1           0        4.480466    0.082957   -3.539401
     58          1           0        3.213577    1.939378   -3.056915
     59          1           0        3.550767    1.747691   -1.336172
     60          7           0        0.937014    1.452509   -1.531524
     61          6           0       -0.438030    1.061645   -1.257150
     62          6           0       -1.430730    2.179745   -1.488879
     63          8           0       -2.645521    1.967467   -1.550699
     64          6           0       -0.485705    0.550499    0.181237
     65          6           0        0.414068   -0.629135    0.544792
     66          7           0        0.204617   -1.857508    0.075611
     67          8           0        1.339443   -0.515779    1.347120
     68          1           0        1.259901    2.375861   -1.284816
     69          1           0       -0.742219    0.261859   -1.939727
     70          1           0       -1.505911    0.222670    0.348294
     71          1           0       -0.198752    1.326478    0.894410
     72          1           0       -0.490468   -2.029938   -0.629885
     73          1           0        0.880827   -2.560238    0.350948
     74          7           0       -0.985642    3.420628   -1.694323
     75          6           0       -1.879601    4.547298   -1.896444
     76          6           0       -2.899118    4.644778   -0.767248
     77          8           0       -2.626218    4.413309    0.402602
     78          1           0        0.016981    3.565596   -1.719420
     79          1           0       -2.312493    4.406143   -2.884209
     80          1           0       -1.348323    5.493674   -1.838000
     81          7           0       -4.163337    4.942296   -1.058336
     82          6           0       -5.299918    4.831545   -0.150580
     83          6           0       -5.624520    3.493726    0.495076
     84          8           0       -6.734524    3.278166    0.986527
     85          6           0       -5.382282    5.915565    0.908012
     86          6           0       -5.027690    7.302369    0.428491
     87          6           0       -3.822697    7.908428    0.807550
     88          6           0       -5.933940    7.981711   -0.390109
     89          6           0       -3.538154    9.197508    0.339993
     90          6           0       -5.584460    9.230839   -0.920809
     91          6           0       -4.422785    9.909960   -0.499494
     92          8           0       -4.215550   11.183134   -0.947804
     93          1           0       -4.304360    5.136561   -2.035768
     94          1           0       -6.166045    4.989759   -0.786656
     95          1           0       -4.743314    5.688257    1.764371
     96          1           0       -6.401266    5.960357    1.283998
     97          1           0       -3.028106    7.378706    1.316882
     98          1           0       -6.893098    7.596688   -0.700547
     99          1           0       -2.614383    9.668069    0.615348
    100          1           0       -6.218825    9.620135   -1.697551
    101          1           0       -4.832003   11.483760   -1.616766
    102          7           0       -4.764589    2.467823    0.409989
    103          6           0       -4.746157    1.146947    0.987524
    104          6           0       -5.826550    0.204702    0.472619
    105          8           0       -5.503168   -0.927540    0.113659
    106          6           0       -4.730443    1.239322    2.519425
    107          6           0       -3.556524    1.967931    3.165908
    108          6           0       -4.718144   -0.170605    3.102653
    109          6           0       -3.754587    2.507190    4.572133
    110          1           0       -3.888851    2.624314   -0.063291
    111          1           0       -3.837721    0.650320    0.661785
    112          1           0       -5.607230    1.813563    2.828604
    113          1           0       -3.233671    2.828830    2.576314
    114          1           0       -2.658048    1.349306    3.239690
    115          1           0       -5.613491   -0.726684    2.855207
    116          1           0       -3.776470   -0.628476    2.786574
    117          1           0       -4.676956   -0.090331    4.191717
    118          1           0       -3.664156    1.785032    5.388105
    119          1           0       -3.066967    3.341313    4.729352
    120          1           0       -4.790412    2.832879    4.686561
    121          7           0       -7.085754    0.650567    0.469747
    122          6           0       -8.190433    0.030591   -0.229692
    123          6           0       -8.556315   -1.331416    0.344474
    124          8           0       -9.159281   -2.130550   -0.368631
    125          6           0       -9.384906    0.966593   -0.154618
    126          8           0       -9.229363    2.201755   -0.831582
    127          1           0       -7.221819    1.558676    0.897093
    128          1           0       -7.899258   -0.154499   -1.265384
    129          1           0       -9.508608    1.293200    0.886164
    130          1           0      -10.297710    0.535994   -0.565923
    131          1           0       -9.845714    2.789313   -0.384941
    132          7           0       -8.250874   -1.540263    1.622162
    133          6           0       -8.389367   -2.792063    2.338274
    134          6           0       -7.803359   -4.080032    1.793635
    135          8           0       -8.409765   -5.149568    1.835627
    136          6           0       -9.857791   -2.884098    2.759891
    137          1           0       -7.945025   -0.711846    2.122044
    138          1           0       -7.871208   -2.605488    3.285217
    139          1           0      -10.083704   -3.755052    3.366852
    140          1           0      -10.176859   -2.112017    3.462021
    141          1           0      -10.467022   -2.872730    1.860109
    142          7           0       -6.801898   -3.826648    0.933825
    143          6           0       -6.271753   -4.802473    0.012297
    144          6           0       -4.786713   -4.987032    0.270547
    145          8           0       -4.217362   -4.100774    0.905043
    146          6           0       -6.603444   -4.408590   -1.420545
    147          1           0       -6.506855   -2.869801    0.831387
    148          1           0       -6.726036   -5.779758    0.185621
    149          1           0       -6.206714   -5.212486   -2.044851
    150          1           0       -7.680801   -4.372014   -1.587168
    151          1           0       -6.086056   -3.506922   -1.725018
    152          7           0       -4.225901   -6.026351   -0.346468
    153          6           0       -2.867063   -6.518639   -0.189589
    154          6           0       -2.399284   -6.947457    1.194679
    155          8           0       -1.202215   -7.210009    1.328071
    156          6           0       -1.868678   -5.548847   -0.807431
    157          6           0       -2.027119   -5.273851   -2.297288
    158          6           0       -0.840153   -4.502292   -2.861832
    159          8           0       -0.308634   -3.626377   -2.148838
    160          8           0       -0.525724   -4.547480   -4.072985
    161          1           0       -4.774840   -6.569347   -0.999783
    162          1           0       -2.845232   -7.474578   -0.715236
    163          1           0       -0.853218   -5.819958   -0.511729
    164          1           0       -2.022189   -4.626831   -0.251624
    165          1           0       -2.992582   -4.803624   -2.445840
    166          1           0       -2.125164   -6.217622   -2.831970
    167          7           0       -3.219739   -7.062097    2.241537
    168          6           0       -2.815631   -7.027891    3.633200
    169          1           0       -3.528950   -6.432054    4.203249
    170          1           0       -2.791057   -8.042720    4.030066
    171          1           0       -1.824267   -6.582106    3.713272
    172          1           0       -4.216398   -7.029849    2.094127
    173         20           0        1.319385   -2.667707   -4.018894
    174          8           0       -0.981747   -1.269018   -4.011089
    175          1           0       -1.885971   -1.469270   -3.761134
    176          1           0       -0.920883   -0.320123   -3.928062
 ---------------------------------------------------------------------
 Rotational constants (GHZ):           0.0180355           0.0084452           0.0066123
 Standard basis: SVP (5D, 7F)
 There are  1809 symmetry adapted cartesian basis functions of A   symmetry.
 There are  1717 symmetry adapted basis functions of A   symmetry.
  1717 basis functions,  2922 primitive gaussians,  1809 cartesian basis functions
   358 alpha electrons      358 beta electrons
       nuclear repulsion energy     18765.0647969126 Hartrees.
 NAtoms=  176 NActive=  176 NUniq=  176 SFac= 1.00D+00 NAtFMM=   60 NAOKFM=T Big=T
 Integral buffers will be    131072 words long.
 Raffenetti 2 integral format.
 Two-electron integral symmetry is turned on.
 One-electron integrals computed using PRISM.
 NBasis=  1717 RedAO= T EigKep=  2.89D-04  NBF=  1717
 NBsUse=  1717 1.00D-06 EigRej= -1.00D+00 NBFU=  1717
 ExpMin= 1.98D-02 ExpMax= 3.51D+04 ExpMxC= 5.28D+03 IAcc=3 IRadAn=         5 AccDes= 0.00D+00
 Harris functional with IExCor=  402 and IRadAn=       5 diagonalized for initial guess.
 HarFok:  IExCor=  402 AccDes= 0.00D+00 IRadAn=         5 IDoV= 1 UseB2=F ITyADJ=14
 ICtDFT=  3500011 ScaDFX=  1.000000  1.000000  1.000000  1.000000
 FoFCou: FMM=F IPFlag=           0 FMFlag=      100000 FMFlg1=        2001
         NFxFlg=           0 DoJE=T BraDBF=F KetDBF=T FulRan=T
         wScrn=  0.000000 ICntrl=       500 IOpCl=  0 I1Cent=   200000004 NGrid=           0
         NMat0=    1 NMatS0=      1 NMatT0=    0 NMatD0=    1 NMtDS0=    0 NMtDT0=    0
 Petite list used in FoFCou.
 Requested convergence on RMS density matrix=1.00D-08 within 128 cycles.
 Requested convergence on MAX density matrix=1.00D-06.
 Requested convergence on             energy=1.00D-06.
 No special actions if energy rises.
 EnCoef did     1 forward-backward iterations
 EnCoef did    10 forward-backward iterations
 EnCoef did   100 forward-backward iterations
 Rare condition: small coef for last iteration:  0.000D+00
 Rare condition: small coef for last iteration:  0.000D+00
 Rare condition: small coef for last iteration:  0.000D+00
 Rare condition: small coef for last iteration:  0.000D+00
 Rare condition: small coef for last iteration:  0.000D+00
 EnCoef did   100 forward-backward iterations
 Restarting incremental Fock formation.
 EnCoef did   100 forward-backward iterations
 SCF Done:  E(RB3LYP) =  -5333.35772479     A.U. after   33 cycles
            NFock= 33  Conv=0.15D-08     -V/T= 2.0081
 SCF density gives NOpUse=  1 NOpAll=  1.
 Hyperfine terms turned off by default for NAtoms > 100.

 **********************************************************************

            Population analysis using the SCF density.

 **********************************************************************

 Orbital symmetries:
 BldTbl:  Degeneracy threshold= 1.00D-02
       Occupied  (A) (A) (A) (A) (A) (A) (A) (A) (A) (A) (A) (A)
                 (A) (A) (A) (A) (A) (A) (A) (A) (A) (A) (A) (A)
                 (A) (A) (A) (A) (A) (A) (A) (A) (A) (A) (A) (A)
                 (A) (A) (A) (A) (A) (A) (A) (A) (A) (A) (A) (A)
                 (A) (A) (A) (A) (A) (A) (A) (A) (A) (A) (A) (A)
                 (A) (A) (A) (A) (A) (A) (A) (A) (A) (A) (A) (A)
                 (A) (A) (A) (A) (A) (A) (A) (A) (A) (A) (A) (A)
                 (A) (A) (A) (A) (A) (A) (A) (A) (A) (A) (A) (A)
                 (A) (A) (A) (A) (A) (A) (A) (A) (A) (A) (A) (A)
                 (A) (A) (A) (A) (A) (A) (A) (A) (A) (A) (A) (A)
                 (A) (A) (A) (A) (A) (A) (A) (A) (A) (A) (A) (A)
                 (A) (A) (A) (A) (A) (A) (A) (A) (A) (A) (A) (A)
                 (A) (A) (A) (A) (A) (A) (A) (A) (A) (A) (A) (A)
                 (A) (A) (A) (A) (A) (A) (A) (A) (A) (A) (A) (A)
                 (A) (A) (A) (A) (A) (A) (A) (A) (A) (A) (A) (A)
                 (A) (A) (A) (A) (A) (A) (A) (A) (A) (A) (A) (A)
                 (A) (A) (A) (A) (A) (A) (A) (A) (A) (A) (A) (A)
                 (A) (A) (A) (A) (A) (A) (A) (A) (A) (A) (A) (A)
                 (A) (A) (A) (A) (A) (A) (A) (A) (A) (A) (A) (A)
                 (A) (A) (A) (A) (A) (A) (A) (A) (A) (A) (A) (A)
                 (A) (A) (A) (A) (A) (A) (A) (A) (A) (A) (A) (A)
                 (A) (A) (A) (A) (A) (A) (A) (A) (A) (A) (A) (A)
                 (A) (A) (A) (A) (A) (A) (A) (A) (A) (A) (A) (A)
                 (A) (A) (A) (A) (A) (A) (A) (A) (A) (A) (A) (A)
                 (A) (A) (A) (A) (A) (A) (A) (A) (A) (A) (A) (A)
                 (A) (A) (A) (A) (A) (A) (A) (A) (A) (A) (A) (A)
                 (A) (A) (A) (A) (A) (A) (A) (A) (A) (A) (A) (A)
                 (A) (A) (A) (A) (A) (A) (A) (A) (A) (A) (A) (A)
                 (A) (A) (A) (A) (A) (A) (A) (A) (A) (A) (A) (A)
                 (A) (A) (A) (A) (A) (A) (A) (A) (A) (A)
       Virtual   (A) (A) (A) (A) (A) (A) (A) (A) (A) (A) (A) (A)
                 (A) (A) (A) (A) (A) (A) (A) (A) (A) (A) (A) (A)
                 (A) (A) (A) (A) (A) (A) (A) (A) (A) (A) (A) (A)
                 (A) (A) (A) (A) (A) (A) (A) (A) (A) (A) (A) (A)
                 (A) (A) (A) (A) (A) (A) (A) (A) (A) (A) (A) (A)
                 (A) (A) (A) (A) (A) (A) (A) (A) (A) (A) (A) (A)
                 (A) (A) (A) (A) (A) (A) (A) (A) (A) (A) (A) (A)
                 (A) (A) (A) (A) (A) (A) (A) (A) (A) (A) (A) (A)
                 (A) (A) (A) (A) (A) (A) (A) (A) (A) (A) (A) (A)
                 (A) (A) (A) (A) (A) (A) (A) (A) (A) (A) (A) (A)
                 (A) (A) (A) (A) (A) (A) (A) (A) (A) (A) (A) (A)
                 (A) (A) (A) (A) (A) (A) (A) (A) (A) (A) (A) (A)
                 (A) (A) (A) (A) (A) (A) (A) (A) (A) (A) (A) (A)
                 (A) (A) (A) (A) (A) (A) (A) (A) (A) (A) (A) (A)
                 (A) (A) (A) (A) (A) (A) (A) (A) (A) (A) (A) (A)
                 (A) (A) (A) (A) (A) (A) (A) (A) (A) (A) (A) (A)
                 (A) (A) (A) (A) (A) (A) (A) (A) (A) (A) (A) (A)
                 (A) (A) (A) (A) (A) (A) (A) (A) (A) (A) (A) (A)
                 (A) (A) (A) (A) (A) (A) (A) (A) (A) (A) (A) (A)
                 (A) (A) (A) (A) (A) (A) (A) (A) (A) (A) (A) (A)
                 (A) (A) (A) (A) (A) (A) (A) (A) (A) (A) (A) (A)
                 (A) (A) (A) (A) (A) (A) (A) (A) (A) (A) (A) (A)
                 (A) (A) (A) (A) (A) (A) (A) (A) (A) (A) (A) (A)
                 (A) (A) (A) (A) (A) (A) (A) (A) (A) (A) (A) (A)
                 (A) (A) (A) (A) (A) (A) (A) (A) (A) (A) (A) (A)
                 (A) (A) (A) (A) (A) (A) (A) (A) (A) (A) (A) (A)
                 (A) (A) (A) (A) (A) (A) (A) (A) (A) (A) (A) (A)
                 (A) (A) (A) (A) (A) (A) (A) (A) (A) (A) (A) (A)
                 (A) (A) (A) (A) (A) (A) (A) (A) (A) (A) (A) (A)
                 (A) (A) (A) (A) (A) (A) (A) (A) (A) (A) (A) (A)
                 (A) (A) (A) (A) (A) (A) (A) (A) (A) (A) (A) (A)
                 (A) (A) (A) (A) (A) (A) (A) (A) (A) (A) (A) (A)
                 (A) (A) (A) (A) (A) (A) (A) (A) (A) (A) (A) (A)
                 (A) (A) (A) (A) (A) (A) (A) (A) (A) (A) (A) (A)
                 (A) (A) (A) (A) (A) (A) (A) (A) (A) (A) (A) (A)
                 (A) (A) (A) (A) (A) (A) (A) (A) (A) (A) (A) (A)
                 (A) (A) (A) (A) (A) (A) (A) (A) (A) (A) (A) (A)
                 (A) (A) (A) (A) (A) (A) (A) (A) (A) (A) (A) (A)
                 (A) (A) (A) (A) (A) (A) (A) (A) (A) (A) (A) (A)
                 (A) (A) (A) (A) (A) (A) (A) (A) (A) (A) (A) (A)
                 (A) (A) (A) (A) (A) (A) (A) (A) (A) (A) (A) (A)
                 (A) (A) (A) (A) (A) (A) (A) (A) (A) (A) (A) (A)
                 (A) (A) (A) (A) (A) (A) (A) (A) (A) (A) (A) (A)
                 (A) (A) (A) (A) (A) (A) (A) (A) (A) (A) (A) (A)
                 (A) (A) (A) (A) (A) (A) (A) (A) (A) (A) (A) (A)
                 (A) (A) (A) (A) (A) (A) (A) (A) (A) (A) (A) (A)
                 (A) (A) (A) (A) (A) (A) (A) (A) (A) (A) (A) (A)
                 (A) (A) (A) (A) (A) (A) (A) (A) (A) (A) (A) (A)
                 (A) (A) (A) (A) (A) (A) (A) (A) (A) (A) (A) (A)
                 (A) (A) (A) (A) (A) (A) (A) (A) (A) (A) (A) (A)
                 (A) (A) (A) (A) (A) (A) (A) (A) (A) (A) (A) (A)
                 (A) (A) (A) (A) (A) (A) (A) (A) (A) (A) (A) (A)
                 (A) (A) (A) (A) (A) (A) (A) (A) (A) (A) (A) (A)
                 (A) (A) (A) (A) (A) (A) (A) (A) (A) (A) (A) (A)
                 (A) (A) (A) (A) (A) (A) (A) (A) (A) (A) (A) (A)
                 (A) (A) (A) (A) (A) (A) (A) (A) (A) (A) (A) (A)
                 (A) (A) (A) (A) (A) (A) (A) (A) (A) (A) (A) (A)
                 (A) (A) (A) (A) (A) (A) (A) (A) (A) (A) (A) (A)
                 (A) (A) (A) (A) (A) (A) (A) (A) (A) (A) (A) (A)
                 (A) (A) (A) (A) (A) (A) (A) (A) (A) (A) (A) (A)
                 (A) (A) (A) (A) (A) (A) (A) (A) (A) (A) (A) (A)
                 (A) (A) (A) (A) (A) (A) (A) (A) (A) (A) (A) (A)
                 (A) (A) (A) (A) (A) (A) (A) (A) (A) (A) (A) (A)
                 (A) (A) (A) (A) (A) (A) (A) (A) (A) (A) (A) (A)
                 (A) (A) (A) (A) (A) (A) (A) (A) (A) (A) (A) (A)
                 (A) (A) (A) (A) (A) (A) (A) (A) (A) (A) (A) (A)
                 (A) (A) (A) (A) (A) (A) (A) (A) (A) (A) (A) (A)
                 (A) (A) (A) (A) (A) (A) (A) (A) (A) (A) (A) (A)
                 (A) (A) (A) (A) (A) (A) (A) (A) (A) (A) (A) (A)
                 (A) (A) (A) (A) (A) (A) (A) (A) (A) (A) (A) (A)
                 (A) (A) (A) (A) (A) (A) (A) (A) (A) (A) (A) (A)
                 (A) (A) (A) (A) (A) (A) (A) (A) (A) (A) (A) (A)
                 (A) (A) (A) (A) (A) (A) (A) (A) (A) (A) (A) (A)
                 (A) (A) (A) (A) (A) (A) (A) (A) (A) (A) (A) (A)
                 (A) (A) (A) (A) (A) (A) (A) (A) (A) (A) (A) (A)
                 (A) (A) (A) (A) (A) (A) (A) (A) (A) (A) (A) (A)
                 (A) (A) (A) (A) (A) (A) (A) (A) (A) (A) (A) (A)
                 (A) (A) (A) (A) (A) (A) (A) (A) (A) (A) (A) (A)
                 (A) (A) (A) (A) (A) (A) (A) (A) (A) (A) (A) (A)
                 (A) (A) (A) (A) (A) (A) (A) (A) (A) (A) (A) (A)
                 (A) (A) (A) (A) (A) (A) (A) (A) (A) (A) (A) (A)
                 (A) (A) (A) (A) (A) (A) (A) (A) (A) (A) (A) (A)
                 (A) (A) (A) (A) (A) (A) (A) (A) (A) (A) (A) (A)
                 (A) (A) (A) (A) (A) (A) (A) (A) (A) (A) (A) (A)
                 (A) (A) (A) (A) (A) (A) (A) (A) (A) (A) (A) (A)
                 (A) (A) (A) (A) (A) (A) (A) (A) (A) (A) (A) (A)
                 (A) (A) (A) (A) (A) (A) (A) (A) (A) (A) (A) (A)
                 (A) (A) (A) (A) (A) (A) (A) (A) (A) (A) (A) (A)
                 (A) (A) (A) (A) (A) (A) (A) (A) (A) (A) (A) (A)
                 (A) (A) (A) (A) (A) (A) (A) (A) (A) (A) (A) (A)
                 (A) (A) (A) (A) (A) (A) (A) (A) (A) (A) (A) (A)
                 (A) (A) (A) (A) (A) (A) (A) (A) (A) (A) (A) (A)
                 (A) (A) (A) (A) (A) (A) (A) (A) (A) (A) (A) (A)
                 (A) (A) (A) (A) (A) (A) (A) (A) (A) (A) (A) (A)
                 (A) (A) (A) (A) (A) (A) (A) (A) (A) (A) (A) (A)
                 (A) (A) (A) (A) (A) (A) (A) (A) (A) (A) (A) (A)
                 (A) (A) (A) (A) (A) (A) (A) (A) (A) (A) (A) (A)
                 (A) (A) (A) (A) (A) (A) (A) (A) (A) (A) (A) (A)
                 (A) (A) (A) (A) (A) (A) (A) (A) (A) (A) (A) (A)
                 (A) (A) (A) (A) (A) (A) (A) (A) (A) (A) (A) (A)
                 (A) (A) (A) (A) (A) (A) (A) (A) (A) (A) (A) (A)
                 (A) (A) (A) (A) (A) (A) (A) (A) (A) (A) (A) (A)
                 (A) (A) (A) (A) (A) (A) (A) (A) (A) (A) (A) (A)
                 (A) (A) (A) (A) (A) (A) (A) (A) (A) (A) (A) (A)
                 (A) (A) (A) (A) (A) (A) (A) (A) (A) (A) (A) (A)
                 (A) (A) (A) (A) (A) (A) (A) (A) (A) (A) (A) (A)
                 (A) (A) (A) (A) (A) (A) (A) (A) (A) (A) (A) (A)
                 (A) (A) (A) (A) (A) (A) (A) (A) (A) (A) (A) (A)
                 (A) (A) (A) (A) (A) (A) (A) (A) (A) (A) (A) (A)
                 (A) (A) (A) (A) (A) (A) (A) (A) (A) (A) (A) (A)
                 (A) (A) (A) (A) (A) (A) (A) (A) (A) (A) (A) (A)
                 (A) (A) (A) (A) (A) (A) (A) (A) (A) (A) (A) (A)
                 (A) (A) (A) (A) (A) (A) (A) (A) (A) (A) (A) (A)
                 (A) (A) (A)
 The electronic state is 1-A.
 Alpha  occ. eigenvalues -- -145.43608 -19.20397 -19.17151 -19.14381 -19.14298
 Alpha  occ. eigenvalues --  -19.13040 -19.12328 -19.11082 -19.09990 -19.09186
 Alpha  occ. eigenvalues --  -19.08652 -19.07997 -19.07884 -19.07361 -19.07280
 Alpha  occ. eigenvalues --  -19.06858 -19.06745 -19.06285 -19.06210 -19.06061
 Alpha  occ. eigenvalues --  -19.05589 -19.05487 -18.96373 -18.96236 -15.49450
 Alpha  occ. eigenvalues --  -14.56401 -14.40995 -14.40139 -14.38541 -14.35712
 Alpha  occ. eigenvalues --  -14.35604 -14.35265 -14.35168 -14.34634 -14.34558
 Alpha  occ. eigenvalues --  -14.34082 -14.32753 -14.32635 -14.32125 -14.31291
 Alpha  occ. eigenvalues --  -12.63056 -12.63043 -12.62965 -10.34201 -10.33282
 Alpha  occ. eigenvalues --  -10.32794 -10.31555 -10.30092 -10.28168 -10.28163
 Alpha  occ. eigenvalues --  -10.28090 -10.27903 -10.27263 -10.27176 -10.26804
 Alpha  occ. eigenvalues --  -10.26704 -10.26701 -10.26534 -10.26387 -10.26089
 Alpha  occ. eigenvalues --  -10.26022 -10.25797 -10.25737 -10.25430 -10.24954
 Alpha  occ. eigenvalues --  -10.24766 -10.24378 -10.24183 -10.23638 -10.23381
 Alpha  occ. eigenvalues --  -10.23068 -10.22876 -10.22517 -10.21654 -10.21503
 Alpha  occ. eigenvalues --  -10.21257 -10.21133 -10.20992 -10.20185 -10.20094
 Alpha  occ. eigenvalues --  -10.20059 -10.19907 -10.19831 -10.19772 -10.19691
 Alpha  occ. eigenvalues --  -10.18894 -10.17897 -10.17559 -10.17190 -10.17167
 Alpha  occ. eigenvalues --  -10.17126 -10.17121 -10.16709 -10.16577 -10.15702
 Alpha  occ. eigenvalues --  -10.15443 -10.10470  -1.86061  -1.13484  -1.13435
 Alpha  occ. eigenvalues --   -1.12897  -1.12226  -1.08191  -1.07387  -1.06302
 Alpha  occ. eigenvalues --   -1.06039  -1.05603  -1.04335  -1.03023  -1.01998
 Alpha  occ. eigenvalues --   -1.01782  -1.01710  -1.01672  -1.01551  -1.01131
 Alpha  occ. eigenvalues --   -1.00827  -1.00590  -1.00163  -0.99838  -0.99661
 Alpha  occ. eigenvalues --   -0.97998  -0.97584  -0.95772  -0.94870  -0.93142
 Alpha  occ. eigenvalues --   -0.92526  -0.92412  -0.91596  -0.91290  -0.91266
 Alpha  occ. eigenvalues --   -0.90693  -0.90648  -0.90218  -0.89884  -0.89673
 Alpha  occ. eigenvalues --   -0.89526  -0.88722  -0.88508  -0.86047  -0.85987
 Alpha  occ. eigenvalues --   -0.82678  -0.81857  -0.81661  -0.80658  -0.80620
 Alpha  occ. eigenvalues --   -0.78747  -0.77879  -0.77731  -0.77510  -0.75953
 Alpha  occ. eigenvalues --   -0.75786  -0.75311  -0.74830  -0.74354  -0.74273
 Alpha  occ. eigenvalues --   -0.73677  -0.73296  -0.71842  -0.71582  -0.70973
 Alpha  occ. eigenvalues --   -0.70121  -0.69957  -0.69629  -0.68669  -0.67971
 Alpha  occ. eigenvalues --   -0.67142  -0.65843  -0.65325  -0.64819  -0.64538
 Alpha  occ. eigenvalues --   -0.63754  -0.63559  -0.63260  -0.62773  -0.62664
 Alpha  occ. eigenvalues --   -0.61949  -0.61571  -0.61339  -0.60887  -0.60682
 Alpha  occ. eigenvalues --   -0.59926  -0.59478  -0.59420  -0.58896  -0.58568
 Alpha  occ. eigenvalues --   -0.58539  -0.58115  -0.57910  -0.57366  -0.56868
 Alpha  occ. eigenvalues --   -0.56699  -0.56496  -0.56475  -0.56274  -0.56239
 Alpha  occ. eigenvalues --   -0.55945  -0.55503  -0.55242  -0.54994  -0.54381
 Alpha  occ. eigenvalues --   -0.53776  -0.53640  -0.53133  -0.52907  -0.52423
 Alpha  occ. eigenvalues --   -0.51965  -0.51651  -0.51551  -0.50982  -0.50340
 Alpha  occ. eigenvalues --   -0.50308  -0.49669  -0.49503  -0.49300  -0.48656
 Alpha  occ. eigenvalues --   -0.48535  -0.48413  -0.48354  -0.47988  -0.47751
 Alpha  occ. eigenvalues --   -0.47363  -0.47301  -0.47138  -0.47060  -0.46967
 Alpha  occ. eigenvalues --   -0.46771  -0.46577  -0.46492  -0.46451  -0.46127
 Alpha  occ. eigenvalues --   -0.45906  -0.45622  -0.45529  -0.45420  -0.45408
 Alpha  occ. eigenvalues --   -0.45242  -0.45111  -0.44597  -0.44463  -0.44373
 Alpha  occ. eigenvalues --   -0.44124  -0.44003  -0.43809  -0.43753  -0.43578
 Alpha  occ. eigenvalues --   -0.43553  -0.43504  -0.42975  -0.42856  -0.42786
 Alpha  occ. eigenvalues --   -0.42714  -0.42581  -0.42162  -0.42061  -0.42032
 Alpha  occ. eigenvalues --   -0.41702  -0.41526  -0.41171  -0.41083  -0.40976
 Alpha  occ. eigenvalues --   -0.40903  -0.40882  -0.40669  -0.40298  -0.40185
 Alpha  occ. eigenvalues --   -0.40044  -0.39778  -0.39690  -0.39563  -0.39494
 Alpha  occ. eigenvalues --   -0.39404  -0.39129  -0.39089  -0.39071  -0.38978
 Alpha  occ. eigenvalues --   -0.38869  -0.38379  -0.38253  -0.38063  -0.38039
 Alpha  occ. eigenvalues --   -0.37928  -0.37735  -0.37628  -0.37424  -0.37284
 Alpha  occ. eigenvalues --   -0.37244  -0.37165  -0.37106  -0.36972  -0.36712
 Alpha  occ. eigenvalues --   -0.36531  -0.36487  -0.36412  -0.36286  -0.35822
 Alpha  occ. eigenvalues --   -0.35782  -0.35365  -0.35274  -0.35201  -0.35082
 Alpha  occ. eigenvalues --   -0.34653  -0.34632  -0.34625  -0.34211  -0.34091
 Alpha  occ. eigenvalues --   -0.33997  -0.33778  -0.33241  -0.33139  -0.33079
 Alpha  occ. eigenvalues --   -0.32564  -0.32357  -0.32101  -0.31764  -0.31362
 Alpha  occ. eigenvalues --   -0.31314  -0.31220  -0.31197  -0.30405  -0.30043
 Alpha  occ. eigenvalues --   -0.29391  -0.28558  -0.28262  -0.27595  -0.27214
 Alpha  occ. eigenvalues --   -0.27192  -0.26870  -0.26838  -0.26759  -0.26723
 Alpha  occ. eigenvalues --   -0.26251  -0.26179  -0.25881  -0.25509  -0.25200
 Alpha  occ. eigenvalues --   -0.24410  -0.24377  -0.24245  -0.24125  -0.24055
 Alpha  occ. eigenvalues --   -0.23830  -0.23746  -0.23463  -0.23407  -0.23356
 Alpha  occ. eigenvalues --   -0.23291  -0.23264  -0.22929  -0.22863  -0.22586
 Alpha  occ. eigenvalues --   -0.22475  -0.21818  -0.21496  -0.21051  -0.19824
 Alpha  occ. eigenvalues --   -0.13632  -0.13389  -0.10768
 Alpha virt. eigenvalues --   -0.09745  -0.06579  -0.03808  -0.03447  -0.03340
 Alpha virt. eigenvalues --   -0.02740  -0.02171  -0.01945  -0.01697  -0.01221
 Alpha virt. eigenvalues --   -0.00511  -0.00295   0.00436   0.01088   0.01553
 Alpha virt. eigenvalues --    0.01649   0.01851   0.02110   0.02242   0.02302
 Alpha virt. eigenvalues --    0.02765   0.02972   0.03163   0.03642   0.03762
 Alpha virt. eigenvalues --    0.03788   0.04059   0.04110   0.04295   0.04360
 Alpha virt. eigenvalues --    0.04685   0.04877   0.05063   0.05259   0.05477
 Alpha virt. eigenvalues --    0.05924   0.06067   0.06387   0.06624   0.06796
 Alpha virt. eigenvalues --    0.07191   0.07469   0.07745   0.07973   0.08235
 Alpha virt. eigenvalues --    0.08710   0.08752   0.08936   0.09041   0.09116
 Alpha virt. eigenvalues --    0.09224   0.09401   0.09749   0.09906   0.10077
 Alpha virt. eigenvalues --    0.10305   0.10395   0.10560   0.10713   0.10887
 Alpha virt. eigenvalues --    0.11090   0.11184   0.11378   0.11558   0.11769
 Alpha virt. eigenvalues --    0.11854   0.12083   0.12473   0.12561   0.12737
 Alpha virt. eigenvalues --    0.12953   0.13114   0.13245   0.13391   0.13538
 Alpha virt. eigenvalues --    0.13785   0.13805   0.14011   0.14208   0.14367
 Alpha virt. eigenvalues --    0.14398   0.14488   0.14655   0.14753   0.14771
 Alpha virt. eigenvalues --    0.14875   0.15034   0.15151   0.15327   0.15591
 Alpha virt. eigenvalues --    0.15733   0.15955   0.16071   0.16129   0.16461
 Alpha virt. eigenvalues --    0.16663   0.17028   0.17296   0.17444   0.17489
 Alpha virt. eigenvalues --    0.17610   0.17724   0.18157   0.18230   0.18376
 Alpha virt. eigenvalues --    0.18416   0.18590   0.18887   0.19237   0.19312
 Alpha virt. eigenvalues --    0.19541   0.19566   0.19789   0.19899   0.20043
 Alpha virt. eigenvalues --    0.20158   0.20426   0.20703   0.21240   0.21440
 Alpha virt. eigenvalues --    0.21573   0.21817   0.21836   0.22060   0.22162
 Alpha virt. eigenvalues --    0.22197   0.22588   0.22762   0.22935   0.23351
 Alpha virt. eigenvalues --    0.23661   0.23786   0.24056   0.24217   0.24523
 Alpha virt. eigenvalues --    0.24594   0.24693   0.24733   0.24942   0.25245
 Alpha virt. eigenvalues --    0.25703   0.25860   0.26025   0.26310   0.26478
 Alpha virt. eigenvalues --    0.26762   0.26972   0.27466   0.27570   0.27690
 Alpha virt. eigenvalues --    0.27862   0.27965   0.28317   0.28447   0.28586
 Alpha virt. eigenvalues --    0.28832   0.29264   0.29624   0.29895   0.30183
 Alpha virt. eigenvalues --    0.30332   0.30527   0.30600   0.30857   0.30954
 Alpha virt. eigenvalues --    0.31498   0.31876   0.31919   0.32183   0.32513
 Alpha virt. eigenvalues --    0.32812   0.33069   0.33279   0.33303   0.33694
 Alpha virt. eigenvalues --    0.34416   0.34431   0.34559   0.34973   0.35171
 Alpha virt. eigenvalues --    0.35506   0.35741   0.35945   0.36146   0.36470
 Alpha virt. eigenvalues --    0.37325   0.38266   0.38709   0.38803   0.38856
 Alpha virt. eigenvalues --    0.39219   0.39570   0.39603   0.40083   0.40306
 Alpha virt. eigenvalues --    0.40421   0.40497   0.40852   0.41329   0.41538
 Alpha virt. eigenvalues --    0.41854   0.42007   0.42092   0.42398   0.42523
 Alpha virt. eigenvalues --    0.42702   0.42851   0.42920   0.43093   0.43300
 Alpha virt. eigenvalues --    0.43532   0.43767   0.44058   0.44307   0.44540
 Alpha virt. eigenvalues --    0.44621   0.44677   0.44847   0.44989   0.44993
 Alpha virt. eigenvalues --    0.45134   0.45227   0.45324   0.45364   0.45739
 Alpha virt. eigenvalues --    0.45918   0.46102   0.46528   0.46774   0.46964
 Alpha virt. eigenvalues --    0.47062   0.47220   0.47430   0.47586   0.47805
 Alpha virt. eigenvalues --    0.48214   0.48345   0.48461   0.48703   0.48923
 Alpha virt. eigenvalues --    0.49368   0.49543   0.49668   0.49766   0.49887
 Alpha virt. eigenvalues --    0.50223   0.50656   0.50858   0.50965   0.51061
 Alpha virt. eigenvalues --    0.51237   0.51531   0.51810   0.51904   0.52059
 Alpha virt. eigenvalues --    0.52119   0.52338   0.52383   0.52471   0.52706
 Alpha virt. eigenvalues --    0.52789   0.53074   0.53148   0.53526   0.53611
 Alpha virt. eigenvalues --    0.53809   0.53967   0.54126   0.54444   0.54590
 Alpha virt. eigenvalues --    0.54726   0.54845   0.55230   0.55303   0.55759
 Alpha virt. eigenvalues --    0.55880   0.56306   0.56481   0.56587   0.56825
 Alpha virt. eigenvalues --    0.56871   0.57617   0.57719   0.57774   0.57931
 Alpha virt. eigenvalues --    0.58320   0.58517   0.58653   0.58836   0.58852
 Alpha virt. eigenvalues --    0.58980   0.59096   0.59392   0.59416   0.59543
 Alpha virt. eigenvalues --    0.59611   0.59658   0.60005   0.60092   0.60130
 Alpha virt. eigenvalues --    0.60375   0.60455   0.60644   0.60755   0.60797
 Alpha virt. eigenvalues --    0.60901   0.61044   0.61134   0.61190   0.61402
 Alpha virt. eigenvalues --    0.61542   0.61710   0.61813   0.61903   0.62056
 Alpha virt. eigenvalues --    0.62316   0.62661   0.62677   0.62795   0.62948
 Alpha virt. eigenvalues --    0.63104   0.63139   0.63423   0.63628   0.63701
 Alpha virt. eigenvalues --    0.63869   0.63921   0.63975   0.64085   0.64167
 Alpha virt. eigenvalues --    0.64318   0.64422   0.64503   0.64580   0.64674
 Alpha virt. eigenvalues --    0.64792   0.64979   0.65213   0.65349   0.65364
 Alpha virt. eigenvalues --    0.65519   0.65703   0.65816   0.65911   0.66053
 Alpha virt. eigenvalues --    0.66140   0.66261   0.66287   0.66344   0.66492
 Alpha virt. eigenvalues --    0.66559   0.66729   0.66796   0.66889   0.66971
 Alpha virt. eigenvalues --    0.66999   0.67180   0.67300   0.67353   0.67499
 Alpha virt. eigenvalues --    0.67673   0.67717   0.67904   0.68014   0.68048
 Alpha virt. eigenvalues --    0.68286   0.68359   0.68418   0.68522   0.68631
 Alpha virt. eigenvalues --    0.68712   0.68824   0.68865   0.68971   0.69136
 Alpha virt. eigenvalues --    0.69191   0.69260   0.69341   0.69633   0.69803
 Alpha virt. eigenvalues --    0.69919   0.69992   0.70056   0.70292   0.70459
 Alpha virt. eigenvalues --    0.70536   0.70644   0.70725   0.70843   0.71062
 Alpha virt. eigenvalues --    0.71114   0.71300   0.71318   0.71456   0.71478
 Alpha virt. eigenvalues --    0.71649   0.71745   0.71881   0.71962   0.72226
 Alpha virt. eigenvalues --    0.72343   0.72451   0.72696   0.72922   0.73130
 Alpha virt. eigenvalues --    0.73268   0.73337   0.73449   0.73704   0.73843
 Alpha virt. eigenvalues --    0.73956   0.74046   0.74461   0.74597   0.74851
 Alpha virt. eigenvalues --    0.74888   0.75114   0.75537   0.75633   0.75707
 Alpha virt. eigenvalues --    0.76120   0.76257   0.76451   0.76863   0.77135
 Alpha virt. eigenvalues --    0.77465   0.77576   0.77895   0.78048   0.78291
 Alpha virt. eigenvalues --    0.78752   0.78876   0.79260   0.79327   0.79552
 Alpha virt. eigenvalues --    0.79818   0.79971   0.80384   0.80735   0.81157
 Alpha virt. eigenvalues --    0.81227   0.81451   0.81866   0.81912   0.82077
 Alpha virt. eigenvalues --    0.82215   0.82405   0.82687   0.83293   0.83439
 Alpha virt. eigenvalues --    0.83797   0.83992   0.84473   0.84942   0.85090
 Alpha virt. eigenvalues --    0.85275   0.85523   0.85896   0.86164   0.86451
 Alpha virt. eigenvalues --    0.86701   0.86772   0.87083   0.87516   0.87753
 Alpha virt. eigenvalues --    0.87991   0.88309   0.88667   0.89154   0.89525
 Alpha virt. eigenvalues --    0.89625   0.89819   0.90163   0.90274   0.90771
 Alpha virt. eigenvalues --    0.91084   0.91446   0.91641   0.91850   0.92708
 Alpha virt. eigenvalues --    0.93055   0.93142   0.93321   0.93534   0.94006
 Alpha virt. eigenvalues --    0.94113   0.94364   0.94883   0.94901   0.95330
 Alpha virt. eigenvalues --    0.95442   0.95666   0.95997   0.96547   0.96582
 Alpha virt. eigenvalues --    0.96992   0.97137   0.97246   0.97752   0.98023
 Alpha virt. eigenvalues --    0.98243   0.98444   0.98805   0.98934   0.99000
 Alpha virt. eigenvalues --    0.99171   0.99429   0.99899   1.00106   1.00306
 Alpha virt. eigenvalues --    1.00424   1.00919   1.01090   1.01727   1.02052
 Alpha virt. eigenvalues --    1.02503   1.02651   1.02893   1.03163   1.03238
 Alpha virt. eigenvalues --    1.03651   1.03772   1.03988   1.04037   1.04260
 Alpha virt. eigenvalues --    1.04567   1.04764   1.04834   1.05471   1.05546
 Alpha virt. eigenvalues --    1.05786   1.06098   1.06173   1.06688   1.06748
 Alpha virt. eigenvalues --    1.06965   1.07235   1.07559   1.08126   1.08247
 Alpha virt. eigenvalues --    1.08691   1.09009   1.09329   1.09680   1.10051
 Alpha virt. eigenvalues --    1.10424   1.10664   1.10770   1.11319   1.11361
 Alpha virt. eigenvalues --    1.11658   1.11678   1.12263   1.12316   1.12463
 Alpha virt. eigenvalues --    1.12943   1.13300   1.13482   1.13638   1.14024
 Alpha virt. eigenvalues --    1.14111   1.14640   1.14736   1.14988   1.15478
 Alpha virt. eigenvalues --    1.15571   1.15729   1.15911   1.16108   1.16456
 Alpha virt. eigenvalues --    1.16724   1.17005   1.17717   1.17920   1.18297
 Alpha virt. eigenvalues --    1.18410   1.18559   1.18901   1.19049   1.19315
 Alpha virt. eigenvalues --    1.19531   1.19601   1.20051   1.20146   1.20573
 Alpha virt. eigenvalues --    1.20645   1.20698   1.21306   1.21734   1.21807
 Alpha virt. eigenvalues --    1.22477   1.22891   1.23055   1.23166   1.23532
 Alpha virt. eigenvalues --    1.23707   1.23837   1.24179   1.24204   1.24722
 Alpha virt. eigenvalues --    1.25087   1.25273   1.25686   1.25709   1.26004
 Alpha virt. eigenvalues --    1.26171   1.26288   1.26670   1.26952   1.27208
 Alpha virt. eigenvalues --    1.27505   1.27654   1.28008   1.28095   1.28440
 Alpha virt. eigenvalues --    1.28953   1.29174   1.29680   1.29840   1.29988
 Alpha virt. eigenvalues --    1.30206   1.30239   1.30800   1.31173   1.31527
 Alpha virt. eigenvalues --    1.31798   1.32051   1.32471   1.32774   1.33286
 Alpha virt. eigenvalues --    1.33670   1.33812   1.34147   1.34447   1.34782
 Alpha virt. eigenvalues --    1.34896   1.35287   1.35667   1.35694   1.35933
 Alpha virt. eigenvalues --    1.36371   1.36517   1.36726   1.36919   1.37203
 Alpha virt. eigenvalues --    1.37569   1.37810   1.38168   1.38563   1.38743
 Alpha virt. eigenvalues --    1.39012   1.39314   1.39662   1.39809   1.40337
 Alpha virt. eigenvalues --    1.40535   1.40715   1.41032   1.41334   1.41556
 Alpha virt. eigenvalues --    1.41961   1.42232   1.42259   1.42599   1.42924
 Alpha virt. eigenvalues --    1.43005   1.43068   1.44331   1.44619   1.44685
 Alpha virt. eigenvalues --    1.45329   1.45480   1.45681   1.45885   1.45969
 Alpha virt. eigenvalues --    1.46471   1.46729   1.46893   1.47593   1.47803
 Alpha virt. eigenvalues --    1.48095   1.48541   1.48896   1.49034   1.49650
 Alpha virt. eigenvalues --    1.49734   1.49779   1.50120   1.51359   1.51647
 Alpha virt. eigenvalues --    1.51729   1.51929   1.52240   1.52495   1.52725
 Alpha virt. eigenvalues --    1.52878   1.53151   1.53306   1.53466   1.53606
 Alpha virt. eigenvalues --    1.54020   1.54180   1.54352   1.54522   1.54801
 Alpha virt. eigenvalues --    1.55063   1.55116   1.55250   1.55961   1.56246
 Alpha virt. eigenvalues --    1.56613   1.57017   1.57293   1.57407   1.58056
 Alpha virt. eigenvalues --    1.58637   1.58724   1.59211   1.59733   1.60210
 Alpha virt. eigenvalues --    1.60708   1.61003   1.61930   1.62042   1.62792
 Alpha virt. eigenvalues --    1.63102   1.63389   1.63564   1.63730   1.64437
 Alpha virt. eigenvalues --    1.64878   1.65113   1.65228   1.65532   1.65562
 Alpha virt. eigenvalues --    1.65771   1.65935   1.66487   1.66787   1.66895
 Alpha virt. eigenvalues --    1.67083   1.67648   1.67690   1.67965   1.68059
 Alpha virt. eigenvalues --    1.68247   1.68512   1.68706   1.68875   1.69214
 Alpha virt. eigenvalues --    1.70074   1.70214   1.70418   1.70521   1.70740
 Alpha virt. eigenvalues --    1.71117   1.71282   1.71703   1.71846   1.72224
 Alpha virt. eigenvalues --    1.72384   1.72495   1.72844   1.73049   1.73327
 Alpha virt. eigenvalues --    1.73463   1.73660   1.73722   1.74008   1.74183
 Alpha virt. eigenvalues --    1.74311   1.74530   1.74771   1.74866   1.74868
 Alpha virt. eigenvalues --    1.75228   1.75486   1.75704   1.75815   1.75947
 Alpha virt. eigenvalues --    1.76088   1.76153   1.76441   1.76772   1.76972
 Alpha virt. eigenvalues --    1.77076   1.77242   1.77427   1.77515   1.77786
 Alpha virt. eigenvalues --    1.77954   1.78223   1.78307   1.78615   1.78775
 Alpha virt. eigenvalues --    1.78869   1.79176   1.79270   1.79490   1.79538
 Alpha virt. eigenvalues --    1.79718   1.79917   1.80150   1.80252   1.80422
 Alpha virt. eigenvalues --    1.80560   1.80831   1.80971   1.81111   1.81158
 Alpha virt. eigenvalues --    1.81261   1.81473   1.81715   1.81875   1.82174
 Alpha virt. eigenvalues --    1.82296   1.82423   1.82493   1.82778   1.82960
 Alpha virt. eigenvalues --    1.83373   1.83415   1.83549   1.83806   1.83829
 Alpha virt. eigenvalues --    1.83912   1.84082   1.84740   1.84887   1.84987
 Alpha virt. eigenvalues --    1.85141   1.85421   1.85572   1.85762   1.86065
 Alpha virt. eigenvalues --    1.86261   1.86330   1.86495   1.86555   1.87021
 Alpha virt. eigenvalues --    1.87123   1.87489   1.87504   1.87743   1.87893
 Alpha virt. eigenvalues --    1.87992   1.88275   1.88641   1.88866   1.88999
 Alpha virt. eigenvalues --    1.89122   1.89408   1.89512   1.89776   1.89996
 Alpha virt. eigenvalues --    1.90080   1.90218   1.90347   1.90437   1.90543
 Alpha virt. eigenvalues --    1.90861   1.91077   1.91132   1.91263   1.91713
 Alpha virt. eigenvalues --    1.91910   1.91978   1.91994   1.92258   1.92369
 Alpha virt. eigenvalues --    1.92546   1.92807   1.92918   1.93263   1.93386
 Alpha virt. eigenvalues --    1.93616   1.93968   1.94017   1.94148   1.94497
 Alpha virt. eigenvalues --    1.94607   1.94892   1.95194   1.95492   1.95573
 Alpha virt. eigenvalues --    1.95806   1.96070   1.96467   1.96737   1.97126
 Alpha virt. eigenvalues --    1.97303   1.97504   1.97642   1.97784   1.97969
 Alpha virt. eigenvalues --    1.98161   1.98480   1.98563   1.98723   1.98917
 Alpha virt. eigenvalues --    1.99173   1.99643   1.99661   2.00113   2.00501
 Alpha virt. eigenvalues --    2.00626   2.00671   2.01182   2.01406   2.01867
 Alpha virt. eigenvalues --    2.01940   2.02154   2.02414   2.02562   2.02661
 Alpha virt. eigenvalues --    2.03004   2.03587   2.03782   2.04689   2.04739
 Alpha virt. eigenvalues --    2.04996   2.05292   2.05487   2.05609   2.06008
 Alpha virt. eigenvalues --    2.06274   2.06449   2.06747   2.07089   2.07315
 Alpha virt. eigenvalues --    2.07900   2.08196   2.08279   2.08488   2.08774
 Alpha virt. eigenvalues --    2.08949   2.09093   2.09297   2.09678   2.09830
 Alpha virt. eigenvalues --    2.10239   2.10410   2.10591   2.10951   2.11179
 Alpha virt. eigenvalues --    2.11358   2.11453   2.11506   2.12145   2.12180
 Alpha virt. eigenvalues --    2.12493   2.12765   2.13184   2.13685   2.13868
 Alpha virt. eigenvalues --    2.14151   2.14534   2.14880   2.15183   2.15330
 Alpha virt. eigenvalues --    2.15632   2.15758   2.16226   2.16347   2.16392
 Alpha virt. eigenvalues --    2.16602   2.16693   2.16906   2.17129   2.17407
 Alpha virt. eigenvalues --    2.17707   2.17971   2.18287   2.18469   2.18582
 Alpha virt. eigenvalues --    2.18737   2.19061   2.20052   2.20161   2.20644
 Alpha virt. eigenvalues --    2.21167   2.21313   2.21833   2.22407   2.22655
 Alpha virt. eigenvalues --    2.22989   2.23080   2.23571   2.23686   2.23832
 Alpha virt. eigenvalues --    2.24781   2.26043   2.26086   2.26387   2.26546
 Alpha virt. eigenvalues --    2.27028   2.27226   2.27502   2.27904   2.28016
 Alpha virt. eigenvalues --    2.28518   2.28592   2.28768   2.28915   2.29370
 Alpha virt. eigenvalues --    2.29511   2.29698   2.30104   2.30253   2.30599
 Alpha virt. eigenvalues --    2.30727   2.31066   2.31518   2.31661   2.32121
 Alpha virt. eigenvalues --    2.32201   2.32605   2.33054   2.33275   2.33643
 Alpha virt. eigenvalues --    2.33745   2.34037   2.34220   2.34908   2.35466
 Alpha virt. eigenvalues --    2.35544   2.35908   2.36678   2.37053   2.37078
 Alpha virt. eigenvalues --    2.37464   2.37651   2.37791   2.38366   2.38697
 Alpha virt. eigenvalues --    2.38817   2.38908   2.39727   2.40001   2.40084
 Alpha virt. eigenvalues --    2.40572   2.41208   2.41346   2.41726   2.42429
 Alpha virt. eigenvalues --    2.42563   2.42898   2.43289   2.43571   2.43703
 Alpha virt. eigenvalues --    2.44040   2.44372   2.44717   2.44820   2.45083
 Alpha virt. eigenvalues --    2.45377   2.45666   2.46333   2.47320   2.47746
 Alpha virt. eigenvalues --    2.48200   2.48477   2.48853   2.48922   2.49381
 Alpha virt. eigenvalues --    2.49585   2.49864   2.50144   2.50697   2.50878
 Alpha virt. eigenvalues --    2.51276   2.51511   2.52178   2.52560   2.52955
 Alpha virt. eigenvalues --    2.53161   2.53348   2.53903   2.53973   2.54298
 Alpha virt. eigenvalues --    2.54958   2.55138   2.55566   2.55989   2.56313
 Alpha virt. eigenvalues --    2.57064   2.57168   2.57513   2.57559   2.57988
 Alpha virt. eigenvalues --    2.58504   2.58612   2.58736   2.59286   2.59513
 Alpha virt. eigenvalues --    2.60486   2.60529   2.60835   2.61152   2.61259
 Alpha virt. eigenvalues --    2.61412   2.61496   2.61996   2.62072   2.62354
 Alpha virt. eigenvalues --    2.62428   2.62987   2.63131   2.63372   2.63500
 Alpha virt. eigenvalues --    2.64128   2.64407   2.64472   2.64651   2.64856
 Alpha virt. eigenvalues --    2.64979   2.65525   2.66357   2.66643   2.67668
 Alpha virt. eigenvalues --    2.67811   2.68061   2.68518   2.68649   2.68804
 Alpha virt. eigenvalues --    2.69317   2.69779   2.70210   2.70322   2.70388
 Alpha virt. eigenvalues --    2.70669   2.71062   2.71142   2.71420   2.71660
 Alpha virt. eigenvalues --    2.72109   2.72358   2.72486   2.72788   2.73132
 Alpha virt. eigenvalues --    2.73160   2.73697   2.73827   2.73972   2.74326
 Alpha virt. eigenvalues --    2.74574   2.74658   2.74750   2.74998   2.75099
 Alpha virt. eigenvalues --    2.75173   2.75954   2.76175   2.76512   2.76996
 Alpha virt. eigenvalues --    2.77228   2.77404   2.77758   2.77889   2.78107
 Alpha virt. eigenvalues --    2.78122   2.78510   2.78784   2.78890   2.79335
 Alpha virt. eigenvalues --    2.79503   2.79894   2.80331   2.80595   2.80926
 Alpha virt. eigenvalues --    2.81243   2.81451   2.81562   2.82006   2.82129
 Alpha virt. eigenvalues --    2.82443   2.82607   2.82790   2.82849   2.83324
 Alpha virt. eigenvalues --    2.83377   2.83677   2.84001   2.84590   2.85002
 Alpha virt. eigenvalues --    2.85017   2.85285   2.85773   2.86209   2.86387
 Alpha virt. eigenvalues --    2.86573   2.86963   2.87401   2.88104   2.88256
 Alpha virt. eigenvalues --    2.88463   2.88664   2.88680   2.88903   2.88937
 Alpha virt. eigenvalues --    2.89594   2.90293   2.90536   2.90789   2.91415
 Alpha virt. eigenvalues --    2.91524   2.92046   2.92619   2.92769   2.92984
 Alpha virt. eigenvalues --    2.93091   2.93601   2.93608   2.94171   2.94503
 Alpha virt. eigenvalues --    2.94923   2.95141   2.95408   2.95749   2.95924
 Alpha virt. eigenvalues --    2.96210   2.96681   2.96910   2.97459   2.97770
 Alpha virt. eigenvalues --    2.98016   2.98505   2.98688   2.99083   2.99227
 Alpha virt. eigenvalues --    2.99916   3.00176   3.00242   3.00633   3.00894
 Alpha virt. eigenvalues --    3.00971   3.01657   3.02023   3.02092   3.02653
 Alpha virt. eigenvalues --    3.02748   3.02894   3.03301   3.03728   3.04055
 Alpha virt. eigenvalues --    3.04315   3.04440   3.05026   3.05666   3.06047
 Alpha virt. eigenvalues --    3.06626   3.06659   3.07277   3.07962   3.08061
 Alpha virt. eigenvalues --    3.08815   3.09369   3.10756   3.11119   3.11322
 Alpha virt. eigenvalues --    3.11453   3.11582   3.11793   3.11977   3.12272
 Alpha virt. eigenvalues --    3.12448   3.12755   3.13950   3.14957   3.15016
 Alpha virt. eigenvalues --    3.15328   3.15481   3.15698   3.15863   3.16395
 Alpha virt. eigenvalues --    3.16536   3.16792   3.16869   3.17565   3.17814
 Alpha virt. eigenvalues --    3.18007   3.18342   3.19012   3.19120   3.19419
 Alpha virt. eigenvalues --    3.19439   3.19783   3.20060   3.20362   3.20673
 Alpha virt. eigenvalues --    3.21354   3.22370   3.22899   3.23972   3.24262
 Alpha virt. eigenvalues --    3.24398   3.24802   3.25263   3.25922   3.25931
 Alpha virt. eigenvalues --    3.26205   3.27123   3.27192   3.27383   3.28114
 Alpha virt. eigenvalues --    3.28336   3.29333   3.30046   3.31411   3.32355
 Alpha virt. eigenvalues --    3.33937   3.34594   3.35657   3.36031   3.36518
 Alpha virt. eigenvalues --    3.36986   3.38061   3.45517   3.47811   3.48774
 Alpha virt. eigenvalues --    3.51473   3.53133   3.53778   3.54471   3.54846
 Alpha virt. eigenvalues --    3.56737   3.56759   3.57211   3.57679   3.58214
 Alpha virt. eigenvalues --    3.59132   3.59796   3.60412   3.61084   3.61568
 Alpha virt. eigenvalues --    3.62672   3.64186   3.65852   3.66472   3.67270
 Alpha virt. eigenvalues --    3.67478   3.67540   3.68497   3.68516   3.69448
 Alpha virt. eigenvalues --    3.69964   3.70136   3.70657   3.70977   3.71675
 Alpha virt. eigenvalues --    3.71784   3.72081   3.72206   3.73188   3.75145
 Alpha virt. eigenvalues --    3.77581   3.77744   3.78308   3.80486
          Condensed to atoms (all electrons):
 Mulliken charges:
               1
     1  C    0.043048
     2  C    0.045218
     3  O   -0.239545
     4  H   -0.034286
     5  H    0.032585
     6  H    0.022129
     7  N   -0.117455
     8  C    0.066938
     9  C    0.068886
    10  O   -0.241486
    11  C    0.160079
    12  C    0.006885
    13  O   -0.366596
    14  O   -0.350645
    15  H    0.109939
    16  H   -0.043420
    17  H   -0.001897
    18  H   -0.027851
    19  N   -0.133902
    20  C    0.106731
    21  C    0.086392
    22  O   -0.264634
    23  C    0.056059
    24  C   -0.043383
    25  C   -0.027503
    26  C    0.047182
    27  N    0.153660
    28  H    0.119189
    29  H    0.001125
    30  H    0.006737
    31  H    0.019085
    32  H    0.007947
    33  H   -0.000517
    34  H    0.024077
    35  H    0.031230
    36  H    0.058905
    37  H    0.084199
    38  H    0.112200
    39  H    0.131937
    40  H    0.121411
    41  N   -0.120100
    42  C    0.146158
    43  C    0.075934
    44  O   -0.260467
    45  C    0.115241
    46  C    0.073209
    47  O   -0.456073
    48  O   -0.368561
    49  H    0.126781
    50  H   -0.006133
    51  H   -0.000644
    52  H    0.019692
    53  N   -0.098671
    54  C    0.179878
    55  C    0.098148
    56  O   -0.356832
    57  H    0.119733
    58  H    0.016988
    59  H    0.062656
    60  N   -0.151730
    61  C    0.113123
    62  C    0.079565
    63  O   -0.302574
    64  C    0.105393
    65  C   -0.039467
    66  N   -0.015540
    67  O   -0.258604
    68  H    0.122053
    69  H   -0.017493
    70  H    0.043974
    71  H    0.016472
    72  H    0.115853
    73  H    0.148731
    74  N   -0.125686
    75  C    0.240836
    76  C    0.001401
    77  O   -0.281880
    78  H    0.106331
    79  H    0.018677
    80  H    0.046935
    81  N   -0.107485
    82  C    0.144613
    83  C    0.104818
    84  O   -0.323275
    85  C    0.141758
    86  C   -0.028860
    87  C    0.016865
    88  C   -0.015130
    89  C   -0.052027
    90  C   -0.072536
    91  C    0.202494
    92  O   -0.197254
    93  H    0.116161
    94  H    0.011937
    95  H    0.002000
    96  H    0.016745
    97  H   -0.009937
    98  H   -0.031597
    99  H   -0.025018
   100  H   -0.045785
   101  H    0.177315
   102  N   -0.105022
   103  C    0.173696
   104  C    0.034463
   105  O   -0.270824
   106  C   -0.127257
   107  C   -0.002796
   108  C    0.107437
   109  C    0.022180
   110  H    0.149794
   111  H   -0.004458
   112  H   -0.009778
   113  H    0.001746
   114  H   -0.007838
   115  H   -0.006367
   116  H    0.024296
   117  H   -0.010157
   118  H    0.008877
   119  H    0.016441
   120  H   -0.009189
   121  N   -0.141546
   122  C    0.128449
   123  C    0.036029
   124  O   -0.270113
   125  C    0.220986
   126  O   -0.313169
   127  H    0.141063
   128  H    0.020561
   129  H   -0.020698
   130  H    0.016887
   131  H    0.163512
   132  N   -0.129984
   133  C    0.058380
   134  C    0.100989
   135  O   -0.270534
   136  C    0.066562
   137  H    0.125001
   138  H    0.010501
   139  H    0.008682
   140  H   -0.020237
   141  H    0.034334
   142  N   -0.138840
   143  C    0.068393
   144  C    0.055179
   145  O   -0.254421
   146  C    0.073445
   147  H    0.148711
   148  H    0.000705
   149  H   -0.030759
   150  H    0.051487
   151  H    0.018256
   152  N   -0.137308
   153  C    0.105947
   154  C    0.050295
   155  O   -0.284703
   156  C    0.007393
   157  C    0.096256
   158  C    0.130957
   159  O   -0.429573
   160  O   -0.445557
   161  H    0.126100
   162  H    0.006023
   163  H    0.033138
   164  H    0.011188
   165  H   -0.004776
   166  H   -0.024367
   167  N   -0.133746
   168  C    0.131356
   169  H    0.020775
   170  H    0.018917
   171  H    0.042134
   172  H    0.113056
   173  Ca   1.331015
   174  O   -0.278865
   175  H    0.204386
   176  H    0.177139
 Sum of Mulliken charges =  -0.00000
 Mulliken charges with hydrogens summed into heavy atoms:
               1
     1  C    0.063477
     2  C    0.045218
     3  O   -0.239545
     7  N   -0.007516
     8  C    0.023518
     9  C    0.068886
    10  O   -0.241486
    11  C    0.130331
    12  C    0.006885
    13  O   -0.366596
    14  O   -0.350645
    19  N   -0.014713
    20  C    0.107856
    21  C    0.086392
    22  O   -0.264634
    23  C    0.081881
    24  C   -0.035953
    25  C    0.027804
    26  C    0.190287
    27  N    0.519209
    41  N    0.006681
    42  C    0.140024
    43  C    0.075934
    44  O   -0.260467
    45  C    0.134289
    46  C    0.073209
    47  O   -0.456073
    48  O   -0.368561
    53  N    0.021063
    54  C    0.259523
    55  C    0.098148
    56  O   -0.356832
    60  N   -0.029677
    61  C    0.095630
    62  C    0.079565
    63  O   -0.302574
    64  C    0.165838
    65  C   -0.039467
    66  N    0.249045
    67  O   -0.258604
    74  N   -0.019355
    75  C    0.306448
    76  C    0.001401
    77  O   -0.281880
    81  N    0.008676
    82  C    0.156550
    83  C    0.104818
    84  O   -0.323275
    85  C    0.160504
    86  C   -0.028860
    87  C    0.006928
    88  C   -0.046727
    89  C   -0.077046
    90  C   -0.118321
    91  C    0.202494
    92  O   -0.019939
   102  N    0.044772
   103  C    0.169238
   104  C    0.034463
   105  O   -0.270824
   106  C   -0.137035
   107  C   -0.008888
   108  C    0.115210
   109  C    0.038309
   121  N   -0.000483
   122  C    0.149010
   123  C    0.036029
   124  O   -0.270113
   125  C    0.217174
   126  O   -0.149657
   132  N   -0.004983
   133  C    0.068881
   134  C    0.100989
   135  O   -0.270534
   136  C    0.089342
   142  N    0.009870
   143  C    0.069098
   144  C    0.055179
   145  O   -0.254421
   146  C    0.112428
   152  N   -0.011208
   153  C    0.111970
   154  C    0.050295
   155  O   -0.284703
   156  C    0.051719
   157  C    0.067114
   158  C    0.130957
   159  O   -0.429573
   160  O   -0.445557
   167  N   -0.020690
   168  C    0.213182
   173  Ca   1.331015
   174  O    0.102660
 DipInt: DoE/N= T F RetVal/Mat= T F Init=T NMatP=  1 IDeriv=0 Min/MaxMlt=  0  4
 Entering OneElI...
 OneElI was handed  1333951383 working-precision words.
 Multipole integrals L=0 to 4 MinM= 0 MaxM= 0.
 Requested accuracy = 0.1000D-12
 ShPair: Thresh= 1.00D-13 NBox=     0 BxSize= 0.00D+00 RnKept= 2.95D+01
         NSMCal=               327645 NSMKep=              120698
 PrmmSu-InSpLW:  IPartL=    0 NPrtUS=    1 NPrtUL=    1 DoSpLW=F IThBeg=    0 IThEnd=    0 NThAct=    1.
 PrsmSu:  NPrtUS=   1 ThrOK=F IAlg=1 NPAlg=1 LenDen=           0 ISkipM=0 DoSpLW=F IThBeg=    0 IThEnd=    0.
 Prism:   IPart=     0 DynPar=F LinDyn=F Incr=         512.
 PRISM was handed  1325394801 working-precision words and120698 shell-pairs
 IPart=  0 NShTot=      120698 NBatch=         289 AvBLen=       417.6
 PrsmSu-ThDecC:  IPartSL=    0    0 NPrtUSL=    1    1 IThBeg=    0 IThEnd=    0 CPU=   -1 GPU=   -1 NThAct=    1.
 PrSmSu:  NxtVal=            513.
 Electronic moments (au):
       -716.00000000         -0.19358603         -5.67503221          2.06486762
    -104055.35324943     -42807.83638360     -11552.01442650       -292.05448225
        143.10282870        -76.08457538    -527834.18659783    -153005.32347228
      -8513.20532973     175728.42082524     -56255.95732382    -163214.41492558
     -39847.46326858      27573.63531191      -7464.38316534     -22474.52286109
  -29355012.96004983   -7566369.52985363    -518832.92581268   -1852732.77262599
   -1650172.23365849    1251485.19922216     420260.74933468    -157171.79959785
     -46848.59166309   -4644909.71744184   -1662357.62771659    -488576.65072991
     411192.09432056    -106767.08723637      72420.81331997
 Electronic spatial extent (au):  <R**2>=         158415.2041
 DipInt: DoE/N= F T RetVal/Mat= T F Init=T NMatP=  1 IDeriv=0 Min/MaxMlt=  0  4
 Nuclear    moments (au):
        716.00000000          0.00000000         -0.00000000         -0.00000000
     103653.81021590      42365.18512737      11229.85857640         -0.00000000
         -0.00000000          0.00000000     529241.30834428     152594.64651874
       8813.26184178    -176777.18780960      51571.89072344     166399.43179435
      40897.50484525     -28000.24034071       7322.68758343      21604.32661109
   29010144.06155701    7416928.99973773     487912.25596488    1721594.60201432
    1716358.28626653   -1277910.54743908    -430142.57373917     169091.83061657
      42007.14583587    4545611.99924010    1619280.96695872     461429.34758850
    -431951.48878351     117517.47294388     -81715.34748102
 Total      moments (au):
         -0.00000000         -0.19358603         -5.67503221          2.06486762
       -401.54303353       -442.65125623       -322.15585011       -292.05448225
        143.10282870        -76.08457538       1407.12174645       -410.67695354
        300.05651205      -1048.76698436      -4684.06660038       3185.01686877
       1050.04157666       -426.60502880       -141.69558191       -870.19625000
    -344868.89849282    -149440.53011589     -30920.66984781    -131138.17061167
      66186.05260805     -26425.34821692      -9881.82440449      11920.03101872
      -4841.44582722     -99297.71820174     -43076.66075787     -27147.30314141
     -20759.39446296      10750.38570751      -9294.53416106
 Traceless Quadrup. (au):
        -12.75965358        -53.86787627         66.62752985       -292.05448225
        143.10282870        -76.08457538
 Charge=             -0.0000 electrons
 Dipole moment (field-independent basis, Debye):
    X=             -0.4920    Y=            -14.4245    Z=              5.2484  Tot=             15.3575
 Quadrupole moment (field-independent basis, Debye-Ang):
   XX=           -540.0891   YY=           -595.3811   ZZ=           -433.3107
   XY=           -392.8233   XZ=            192.4782   YZ=           -102.3364
 Traceless Quadrupole moment (field-independent basis, Debye-Ang):
   XX=            -17.1622   YY=            -72.4541   ZZ=             89.6163
   XY=           -392.8233   XZ=            192.4782   YZ=           -102.3364
 Octapole moment (field-independent basis, Debye-Ang**2):
  XXX=           1001.5350  YYY=           -292.3040  ZZZ=            213.5687  XYY=           -746.4719
  XXY=          -3333.9381  XXZ=           2266.9723  XZZ=            747.3791  YZZ=           -303.6410
  YYZ=           -100.8535  XYZ=           -619.3722
 Hexadecapole moment (field-independent basis, Debye-Ang**3):
 XXXX=        -129894.1642 YYYY=         -56286.4696 ZZZZ=         -11646.2070 XXXY=         -49392.9233
 XXXZ=          24928.8411 YYYX=          -9953.0533 YYYZ=          -3721.9689 ZZZX=           4489.6553
 ZZZY=          -1823.5207 XXYY=         -37400.2822 XXZZ=         -16224.7360 YYZZ=         -10224.9761
 XXYZ=          -7818.9834 YYXZ=           4049.1108 ZZXY=          -3500.7673
 N-N= 1.876506479691D+04 E-N=-5.000827455669D+04  KE= 5.290514275107D+03
 Leave Link  601 at Tue Sep 17 10:20:05 2019, MaxMem=  1342177280 cpu:              54.0 elap:               1.7
 FitSet:  NAtFit=   176 NAtPot=   176 NAtFrz=     0 MDM=   180 TotChg=   0.00000
 Merz-Kollman atomic radii used.
 Read replacement radii for each type of atom:
 Rad(20) =   1.700000000000D+00
 Atom Element Radius
    1     6    1.50
    2     6    1.50
    3     8    1.40
    4     1    1.20
    5     1    1.20
    6     1    1.20
    7     7    1.50
    8     6    1.50
    9     6    1.50
   10     8    1.40
   11     6    1.50
   12     6    1.50
   13     8    1.40
   14     8    1.40
   15     1    1.20
   16     1    1.20
   17     1    1.20
   18     1    1.20
   19     7    1.50
   20     6    1.50
   21     6    1.50
   22     8    1.40
   23     6    1.50
   24     6    1.50
   25     6    1.50
   26     6    1.50
   27     7    1.50
   28     1    1.20
   29     1    1.20
   30     1    1.20
   31     1    1.20
   32     1    1.20
   33     1    1.20
   34     1    1.20
   35     1    1.20
   36     1    1.20
   37     1    1.20
   38     1    1.20
   39     1    1.20
   40     1    1.20
   41     7    1.50
   42     6    1.50
   43     6    1.50
   44     8    1.40
   45     6    1.50
   46     6    1.50
   47     8    1.40
   48     8    1.40
   49     1    1.20
   50     1    1.20
   51     1    1.20
   52     1    1.20
   53     7    1.50
   54     6    1.50
   55     6    1.50
   56     8    1.40
   57     1    1.20
   58     1    1.20
   59     1    1.20
   60     7    1.50
   61     6    1.50
   62     6    1.50
   63     8    1.40
   64     6    1.50
   65     6    1.50
   66     7    1.50
   67     8    1.40
   68     1    1.20
   69     1    1.20
   70     1    1.20
   71     1    1.20
   72     1    1.20
   73     1    1.20
   74     7    1.50
   75     6    1.50
   76     6    1.50
   77     8    1.40
   78     1    1.20
   79     1    1.20
   80     1    1.20
   81     7    1.50
   82     6    1.50
   83     6    1.50
   84     8    1.40
   85     6    1.50
   86     6    1.50
   87     6    1.50
   88     6    1.50
   89     6    1.50
   90     6    1.50
   91     6    1.50
   92     8    1.40
   93     1    1.20
   94     1    1.20
   95     1    1.20
   96     1    1.20
   97     1    1.20
   98     1    1.20
   99     1    1.20
  100     1    1.20
  101     1    1.20
  102     7    1.50
  103     6    1.50
  104     6    1.50
  105     8    1.40
  106     6    1.50
  107     6    1.50
  108     6    1.50
  109     6    1.50
  110     1    1.20
  111     1    1.20
  112     1    1.20
  113     1    1.20
  114     1    1.20
  115     1    1.20
  116     1    1.20
  117     1    1.20
  118     1    1.20
  119     1    1.20
  120     1    1.20
  121     7    1.50
  122     6    1.50
  123     6    1.50
  124     8    1.40
  125     6    1.50
  126     8    1.40
  127     1    1.20
  128     1    1.20
  129     1    1.20
  130     1    1.20
  131     1    1.20
  132     7    1.50
  133     6    1.50
  134     6    1.50
  135     8    1.40
  136     6    1.50
  137     1    1.20
  138     1    1.20
  139     1    1.20
  140     1    1.20
  141     1    1.20
  142     7    1.50
  143     6    1.50
  144     6    1.50
  145     8    1.40
  146     6    1.50
  147     1    1.20
  148     1    1.20
  149     1    1.20
[...]
 **** Fit       0.001045
 **** Fit       0.000791
 **** Fit       0.000435
 **** Fit      -0.000060
 **** Fit      -0.000709
 **** Fit      -0.001501
 **** Fit      -0.002394
 **** Fit      -0.003310
 **** Fit      -0.004129
 **** Fit      -0.004688
 **** Fit       0.001772
 **** Fit       0.001428
 **** Fit       0.001154
 **** Fit       0.000875
 **** Fit       0.000533
 **** Fit       0.000083
 **** Fit      -0.000506
 **** Fit      -0.001251
 **** Fit      -0.002152
 **** Fit      -0.003186
 **** Fit      -0.004305
 **** Fit      -0.005424
 **** Fit      -0.006411
 **** Fit       0.001713
 **** Fit       0.001278
 **** Fit       0.000878
 **** Fit       0.000444
 **** Fit      -0.000078
 **** Fit      -0.000733
 **** Fit      -0.001551
 **** Fit      -0.002550
 **** Fit      -0.003731
 **** Fit      -0.005074
 **** Fit      -0.006527
 **** Fit      -0.007995
 **** Fit      -0.009322
 **** Fit       0.002261
 **** Fit       0.001549
 **** Fit       0.000938
 **** Fit       0.000348
 **** Fit      -0.000291
 **** Fit      -0.001037
 **** Fit      -0.001938
 **** Fit      -0.003028
 **** Fit      -0.004330
 **** Fit      -0.005850
 **** Fit      -0.007575
 **** Fit      -0.009455
 **** Fit      -0.011390
 **** Fit      -0.013200
 **** Fit       0.002498
 **** Fit       0.001455
 **** Fit       0.000572
 **** Fit      -0.000261
 **** Fit      -0.001135
 **** Fit      -0.002125
 **** Fit      -0.003291
 **** Fit      -0.004681
 **** Fit      -0.006335
 **** Fit      -0.008276
 **** Fit      -0.010505
 **** Fit      -0.012992
 **** Fit      -0.015640
 **** Fit       0.002227
 **** Fit       0.000798
 **** Fit      -0.000419
 **** Fit      -0.001586
 **** Fit      -0.002833
 **** Fit      -0.004261
 **** Fit      -0.005957
 **** Fit      -0.007994
 **** Fit      -0.010437
 **** Fit      -0.013335
 **** Fit      -0.016707
 **** Fit      -0.020505
 **** Fit       0.000087
 **** Fit      -0.001571
 **** Fit      -0.003157
 **** Fit      -0.004869
 **** Fit      -0.006864
 **** Fit      -0.009282
 **** Fit      -0.012259
 **** Fit      -0.015933
 **** Fit      -0.020437
 **** Fit      -0.005439
 **** Fit      -0.007732
 **** Fit      -0.010503
 **** Fit      -0.013986
 **** Fit      -0.018448
 **** Fit      -0.003829
 **** Fit      -0.004985
 **** Fit      -0.005241
 **** Fit      -0.005379
 **** Fit      -0.005289
 **** Fit      -0.004609
 **** Fit      -0.006673
 **** Fit      -0.006893
 **** Fit      -0.007099
 **** Fit      -0.007229
 **** Fit      -0.007165
 **** Fit      -0.006774
 **** Fit      -0.006025
 **** Fit      -0.006418
 **** Fit      -0.008818
 **** Fit      -0.008970
 **** Fit      -0.009165
 **** Fit      -0.009364
 **** Fit      -0.009473
 **** Fit      -0.009383
 **** Fit      -0.008992
 **** Fit      -0.008436
 **** Fit      -0.008675
 **** Fit      -0.011611
 **** Fit      -0.011644
 **** Fit      -0.011753
 **** Fit      -0.011922
 **** Fit      -0.012080
 **** Fit      -0.012137
 **** Fit      -0.012010
 **** Fit      -0.011635
 **** Fit      -0.011215
 **** Fit      -0.011521
 **** Fit      -0.011605
 **** Fit      -0.015273
 **** Fit      -0.015111
 **** Fit      -0.015050
 **** Fit      -0.015091
 **** Fit      -0.015181
 **** Fit      -0.015233
 **** Fit      -0.015166
 **** Fit      -0.014935
 **** Fit      -0.014497
 **** Fit      -0.015373
 **** Fit      -0.015551
 **** Fit      -0.015462
 **** Fit      -0.020076
 **** Fit      -0.019589
 **** Fit      -0.019208
 **** Fit      -0.018968
 **** Fit      -0.018843
 **** Fit      -0.018768
 **** Fit      -0.018673
 **** Fit      -0.018518
 **** Fit      -0.018298
 **** Fit      -0.020420
 **** Fit      -0.020934
 **** Fit      -0.020920
 **** Fit      -0.020571
 **** Fit      -0.026384
 **** Fit      -0.025347
 **** Fit      -0.024420
 **** Fit      -0.023675
 **** Fit      -0.023129
 **** Fit      -0.022750
 **** Fit      -0.022490
 **** Fit      -0.022319
 **** Fit      -0.022252
 **** Fit      -0.022302
 **** Fit      -0.028059
 **** Fit      -0.028469
 **** Fit      -0.028165
 **** Fit      -0.027389
 **** Fit      -0.032700
 **** Fit      -0.030810
 **** Fit      -0.029196
 **** Fit      -0.027930
 **** Fit      -0.027032
 **** Fit      -0.026484
 **** Fit      -0.026281
 **** Fit      -0.026474
 **** Fit      -0.033111
 **** Fit      -0.031434
 **** Fit      -0.030509
 **** Fit      -0.030376
 **** Fit      -0.031152
 **** Fit      -0.000932
 **** Fit      -0.000036
 **** Fit       0.001677
 **** Fit       0.003655
 **** Fit       0.005310
 **** Fit      -0.007096
 **** Fit      -0.005571
 **** Fit      -0.005544
 **** Fit      -0.004187
 **** Fit      -0.001657
 **** Fit       0.001162
 **** Fit       0.003543
 **** Fit       0.005139
 **** Fit      -0.004901
 **** Fit      -0.000997
 **** Fit       0.002194
 **** Fit       0.004339
 **** Fit       0.005406
 **** Fit      -0.007283
 **** Fit      -0.002482
 **** Fit       0.001338
 **** Fit       0.003920
 **** Fit       0.005302
 **** Fit       0.005590
 **** Fit      -0.004769
 **** Fit      -0.000178
 **** Fit       0.003159
 **** Fit       0.005220
 **** Fit       0.006116
 **** Fit       0.005958
 **** Fit       0.000259
 **** Fit       0.003705
 **** Fit       0.006002
 **** Fit       0.007153
 **** Fit       0.007233
 **** Fit       0.007107
 **** Fit       0.008597
 **** Fit       0.009164
 **** Fit       0.008780
 **** Fit       0.011801
 **** Fit       0.011745
 **** Fit      -0.024989
 **** Fit      -0.017122
 **** Fit      -0.016354
 **** Fit      -0.010740
 **** Fit      -0.008083
 **** Fit      -0.007619
 **** Fit      -0.005213
 **** Fit      -0.001224
 **** Fit       0.000454
 **** Fit       0.000312
 **** Fit      -0.001327
 **** Fit       0.055833
 **** Fit       0.059570
 **** Fit       0.062657
 **** Fit       0.065475
 **** Fit      -0.001433
 **** Fit       0.003987
 **** Fit       0.006951
 **** Fit       0.007908
 **** Fit       0.007147
 **** Fit       0.004752
 **** Fit       0.038221
 **** Fit       0.046877
 **** Fit       0.053243
 **** Fit       0.057983
 **** Fit       0.061590
 **** Fit       0.064374
 **** Fit       0.066497
 **** Fit       0.008443
 **** Fit       0.012332
 **** Fit       0.014220
 **** Fit       0.014361
 **** Fit       0.012881
 **** Fit       0.009766
 **** Fit       0.036998
 **** Fit       0.045628
 **** Fit       0.052433
 **** Fit       0.057603
 **** Fit       0.061425
 **** Fit       0.064102
 **** Fit       0.065674
 **** Fit       0.065934
 **** Fit       0.009986
 **** Fit       0.015433
 **** Fit       0.018842
 **** Fit       0.020402
 **** Fit       0.020288
 **** Fit       0.018616
 **** Fit       0.015481
 **** Fit       0.029597
 **** Fit       0.037686
 **** Fit       0.045398
 **** Fit       0.051989
 **** Fit       0.057202
 **** Fit       0.061041
 **** Fit       0.063552
 **** Fit       0.064683
 **** Fit       0.064203
 **** Fit       0.011393
 **** Fit       0.017543
 **** Fit       0.022085
 **** Fit       0.024918
 **** Fit       0.026115
 **** Fit       0.025815
 **** Fit       0.024204
 **** Fit       0.021584
 **** Fit       0.018530
 **** Fit       0.027402
 **** Fit       0.029629
 **** Fit       0.033952
 **** Fit       0.039749
 **** Fit       0.046040
 **** Fit       0.051929
 **** Fit       0.056849
 **** Fit       0.060528
 **** Fit       0.062835
 **** Fit       0.063641
 **** Fit       0.062753
 **** Fit       0.059981
 **** Fit       0.028723
 **** Fit       0.022704
 **** Fit       0.019875
 **** Fit       0.024642
 **** Fit       0.028274
 **** Fit       0.030537
 **** Fit       0.031434
 **** Fit       0.031124
 **** Fit       0.029921
 **** Fit       0.028352
 **** Fit       0.027206
 **** Fit       0.036566
 **** Fit       0.038956
 **** Fit       0.042900
 **** Fit       0.047806
 **** Fit       0.052822
 **** Fit       0.057202
 **** Fit       0.060446
 **** Fit       0.062252
 **** Fit       0.062411
 **** Fit       0.060791
 **** Fit       0.057467
 **** Fit       0.052905
 **** Fit       0.047869
 **** Fit       0.042900
 **** Fit       0.037958
 **** Fit       0.032795
 **** Fit       0.027604
 **** Fit       0.023215
 **** Fit       0.020712
 **** Fit       0.020730
 **** Fit       0.023010
 **** Fit       0.026581
 **** Fit       0.030328
 **** Fit       0.033429
 **** Fit       0.035472
 **** Fit       0.036391
 **** Fit       0.036396
 **** Fit       0.035949
 **** Fit       0.035745
 **** Fit       0.043371
 **** Fit       0.045860
 **** Fit       0.049455
 **** Fit       0.053538
 **** Fit       0.057297
 **** Fit       0.060038
 **** Fit       0.061297
 **** Fit       0.060821
 **** Fit       0.058609
 **** Fit       0.055004
 **** Fit       0.050617
 **** Fit       0.045969
 **** Fit       0.041283
 **** Fit       0.036805
 **** Fit       0.033159
 **** Fit       0.031173
 **** Fit       0.031270
 **** Fit       0.033090
 **** Fit       0.035716
 **** Fit       0.038223
 **** Fit       0.040044
 **** Fit       0.041056
 **** Fit       0.041541
 **** Fit       0.042082
 **** Fit       0.048219
 **** Fit       0.050893
 **** Fit       0.054265
 **** Fit       0.057461
 **** Fit       0.059514
 **** Fit       0.059765
 **** Fit       0.058038
 **** Fit       0.054706
 **** Fit       0.050492
 **** Fit       0.046100
 **** Fit       0.042214
 **** Fit       0.039685
 **** Fit       0.039122
 **** Fit       0.040279
 **** Fit       0.042206
 **** Fit       0.043994
 **** Fit       0.045318
 **** Fit       0.046505
 **** Fit       0.051372
 **** Fit       0.054179
 **** Fit       0.056914
 **** Fit       0.058135
 **** Fit       0.056960
 **** Fit       0.053735
 **** Fit       0.049735
 **** Fit       0.046487
 **** Fit       0.045218
 **** Fit       0.045934
 **** Fit       0.047527
 **** Fit       0.049254
 **** Fit       0.053007
 **** Fit       0.055544
 **** Fit       0.055356
 **** Fit       0.052128
 **** Fit       0.049849
 **** Fit       0.050617
 **** Fit       0.053235
 **** Fit       0.040166
 **** Fit       0.038759
 **** Fit       0.039611
 **** Fit       0.036767
 **** Fit       0.034577
 **** Fit       0.065680
 **** Fit       0.039042
 **** Fit       0.035864
 **** Fit       0.033206
 **** Fit       0.030932
 **** Fit       0.028749
 **** Fit       0.014223
 **** Fit       0.008268
 **** Fit       0.058974
 **** Fit       0.054632
 **** Fit       0.041864
 **** Fit       0.038362
 **** Fit       0.035058
 **** Fit       0.032109
 **** Fit       0.029487
 **** Fit       0.026994
 **** Fit       0.024345
 **** Fit       0.021284
 **** Fit       0.017692
 **** Fit       0.013703
 **** Fit       0.009863
 **** Fit       0.056512
 **** Fit       0.051213
 **** Fit       0.047231
 **** Fit       0.043737
 **** Fit       0.040276
 **** Fit       0.036782
 **** Fit       0.033412
 **** Fit       0.030312
 **** Fit       0.027479
 **** Fit       0.024762
 **** Fit       0.021984
 **** Fit       0.019134
 **** Fit       0.016575
 **** Fit       0.015298
 **** Fit       0.017179
 **** Fit       0.052963
 **** Fit       0.047190
 **** Fit       0.042613
 **** Fit       0.038575
 **** Fit       0.034740
 **** Fit       0.031139
 **** Fit       0.027880
 **** Fit       0.024973
 **** Fit       0.022452
 **** Fit       0.020742
 **** Fit       0.021061
 **** Fit       0.025472
 **** Fit       0.048802
 **** Fit       0.043194
 **** Fit       0.038139
 **** Fit       0.033632
 **** Fit       0.029686
 **** Fit       0.026579
 **** Fit       0.024910
 **** Fit       0.026179
 **** Fit       0.032482
 **** Fit       0.042715
 **** Fit       0.039186
 **** Fit       0.033674
 **** Fit       0.029846
 **** Fit       0.030804
 **** Fit       0.038151
 **** Fit       0.035093
 **** Fit       0.006435
 **** Fit       0.006504
 **** Fit       0.002675
 **** Fit       0.000156
 **** Fit      -0.002379
 **** Fit       0.005495
 **** Fit       0.002920
 **** Fit       0.001321
 **** Fit       0.000418
 **** Fit      -0.001048
 **** Fit       0.006252
 **** Fit       0.004754
 **** Fit       0.004014
 **** Fit       0.003892
 **** Fit       0.010603
 **** Fit       0.009788
 **** Fit       0.008815
 **** Fit       0.008393
 **** Fit       0.008432
 **** Fit       0.008315
 **** Fit       0.015399
 **** Fit       0.014512
 **** Fit       0.013603
 **** Fit       0.013085
 **** Fit       0.012871
 **** Fit       0.012502
 **** Fit       0.021293
 **** Fit       0.020201
 **** Fit       0.019030
 **** Fit       0.017966
 **** Fit       0.017155
 **** Fit       0.016494
 **** Fit       0.015658
 **** Fit       0.029702
 **** Fit       0.027040
 **** Fit       0.025132
 **** Fit       0.023524
 **** Fit       0.022099
 **** Fit       0.020856
 **** Fit       0.019732
 **** Fit       0.018527
 **** Fit       0.016938
 **** Fit       0.037452
 **** Fit       0.033006
 **** Fit       0.029950
 **** Fit       0.027638
 **** Fit       0.025728
 **** Fit       0.024055
 **** Fit       0.022504
 **** Fit       0.020902
 **** Fit       0.018981
 **** Fit       0.016376
 **** Fit       0.012601
 **** Fit       0.036677
 **** Fit       0.032965
 **** Fit       0.030154
 **** Fit       0.027866
 **** Fit       0.025858
 **** Fit       0.023940
 **** Fit       0.021893
 **** Fit       0.019414
 **** Fit       0.016088
 **** Fit       0.011338
 **** Fit       0.034794
 **** Fit       0.031730
 **** Fit       0.029202
 **** Fit       0.026949
 **** Fit       0.024750
 **** Fit       0.022357
 **** Fit       0.019459
 **** Fit       0.015640
 **** Fit       0.010352
 **** Fit       0.032898
 **** Fit       0.030061
 **** Fit       0.027506
 **** Fit       0.024967
 **** Fit       0.022153
 **** Fit       0.018714
 **** Fit       0.014235
 **** Fit       0.008301
 **** Fit       0.030299
 **** Fit       0.027558
 **** Fit       0.024777
 **** Fit       0.021669
 **** Fit       0.017935
 **** Fit       0.013383
 **** Fit       0.022635
 **** Fit       0.061838
 **** Fit       0.045920
 **** Fit       0.041827
 **** Fit       0.039306
 **** Fit       0.038710
 **** Fit       0.061314
 **** Fit       0.060380
 **** Fit       0.059189
 **** Fit       0.057476
 **** Fit       0.055070
 **** Fit       0.051925
 **** Fit       0.048301
 **** Fit       0.044816
 **** Fit       0.042154
 **** Fit       0.040781
 **** Fit       0.063550
 **** Fit       0.060945
 **** Fit       0.059260
 **** Fit       0.057829
 **** Fit       0.056257
 **** Fit       0.054297
 **** Fit       0.051843
 **** Fit       0.048977
 **** Fit       0.046018
 **** Fit       0.043417
 **** Fit       0.041570
 **** Fit       0.065687
 **** Fit       0.060963
 **** Fit       0.058136
 **** Fit       0.056101
 **** Fit       0.054221
 **** Fit       0.052139
 **** Fit       0.049706
 **** Fit       0.046997
 **** Fit       0.044284
 **** Fit       0.041906
 **** Fit       0.061362
 **** Fit       0.057301
 **** Fit       0.054544
 **** Fit       0.052267
 **** Fit       0.049977
 **** Fit       0.047464
 **** Fit       0.044763
 **** Fit       0.042073
 **** Fit       0.055890
 **** Fit       0.052540
 **** Fit       0.049796
 **** Fit       0.047106
 **** Fit       0.044239
 **** Fit       0.046352
 -----------------------------------------------------------------
 Leave Link  602 at Tue Sep 17 10:20:08 2019, MaxMem=  1342177280 cpu:             113.7 elap:               2.8

 Test job not archived.
 1\1\GINC-C489-122\SP\RB3LYP\SVP\C54H83Ca1N15O23\PENGZHI\17-Sep-2019\0\
 \#b3lyp/svp scf=(tight,noincore) Test #IOP(5/87=12) Density=Current Po
 p=(MK,readradii) iop(6/33=2) iop(6/42=6)\\Ng-293_loop3_39.0\\0,1\C,0,5
 4.56,22.,11.12\C,0,54.76,23.2,10.21\O,0,55.1,24.3,10.66\H,0,53.54,21.6
 3,11.014\H,0,55.261,21.213,10.844\H,0,54.733,22.295,12.155\N,0,54.43,2
 3.01,8.93\C,0,53.95,24.12,8.12\C,0,52.92,25.01,8.8\O,0,53.16,25.79,9.7
 2\C,0,55.05,24.9,7.41\C,0,55.76,24.09,6.33\O,0,55.28,24.2,5.18\O,0,56.
 76,23.38,6.57\H,0,54.33,22.09,8.54\H,0,53.38,23.72,7.28\H,0,55.8,25.24
 ,8.12\H,0,54.62,25.79,6.94\N,0,51.71,25.,8.22\C,0,50.49,25.61,8.72\C,0
 ,50.68,27.12,8.77\O,0,50.67,27.86,7.79\C,0,49.91,24.96,9.97\C,0,49.8,2
 3.44,9.9\C,0,49.27,22.85,11.2\C,0,49.42,21.33,11.14\N,0,49.02,20.76,12
 .43\H,0,51.59,24.42,7.41\H,0,49.74,25.49,7.94\H,0,48.93,25.31,10.3\H,0
 ,50.6,25.05,10.81\H,0,50.81,23.08,9.69\H,0,49.21,23.15,9.03\H,0,48.21,
 23.1,11.19\H,0,49.75,23.26,12.09\H,0,50.5,21.17,11.09\H,0,48.95,20.94,
 10.23\H,0,48.96,19.76,12.5\H,0,49.53,21.03,13.26\H,0,48.04,21.01,12.52
 \N,0,50.76,27.66,9.99\C,0,50.69,29.06,10.35\C,0,52.01,29.52,10.97\O,0,
 52.56,28.81,11.81\C,0,49.5,29.32,11.27\C,0,49.54,30.75,11.79\O,0,49.95
 ,31.56,10.94\O,0,49.26,31.17,12.93\H,0,51.01,27.,10.71\H,0,50.46,29.65
 ,9.47\H,0,49.61,28.72,12.17\H,0,48.59,29.16,10.68\N,0,52.63,30.62,10.5
 3\C,0,53.85,31.14,11.11\C,0,53.76,32.01,12.35\O,0,52.71,32.51,12.75\H,
 0,52.16,31.23,9.88\H,0,54.34,31.77,10.37\H,0,54.51,30.3,11.33\N,0,54.8
 6,32.26,13.06\C,0,54.92,33.02,14.3\C,0,56.16,33.88,14.41\O,0,56.26,34.
 77,15.26\C,0,54.82,32.02,15.45\C,0,53.58,31.13,15.51\N,0,52.37,31.61,1
 5.79\O,0,53.65,29.91,15.37\H,0,55.7,31.86,12.67\H,0,54.08,33.72,14.35\
 H,0,54.82,32.61,16.36\H,0,55.65,31.31,15.44\H,0,52.21,32.6,15.86\H,0,5
 1.61,30.94,15.77\N,0,57.15,33.72,13.53\C,0,58.38,34.49,13.59\C,0,59.02
 ,34.39,14.97\O,0,59.03,33.36,15.63\H,0,57.02,33.04,12.79\H,0,58.11,35.
 5,13.29\H,0,59.14,34.08,12.93\N,0,59.55,35.48,15.52\C,0,59.97,35.62,16
 .91\C,0,58.97,35.38,18.03\O,0,59.18,35.8,19.17\C,0,61.27,34.92,17.26\C
 ,0,62.35,35.02,16.21\C,0,62.7,33.91,15.43\C,0,63.01,36.24,16.04\C,0,63
 .71,34.05,14.47\C,0,63.95,36.38,15.01\C,0,64.39,35.27,14.26\O,0,65.41,
 35.45,13.37\H,0,59.52,36.28,14.91\H,0,60.18,36.68,17.02\H,0,61.11,33.8
 6,17.47\H,0,61.67,35.36,18.17\H,0,62.13,32.99,15.42\H,0,62.82,37.13,16
 .62\H,0,63.98,33.21,13.86\H,0,64.28,37.38,14.79\H,0,65.68,36.36,13.24\
 N,0,57.77,34.84,17.77\C,0,56.68,34.41,18.61\C,0,55.95,35.53,19.34\O,0,
 54.72,35.56,19.3\C,0,57.15,33.3,19.56\C,0,57.69,32.02,18.93\C,0,55.98,
 32.87,20.44\C,0,58.6,31.15,19.78\H,0,57.57,34.57,16.82\H,0,55.9,34.01,
 17.97\H,0,57.99,33.69,20.14\H,0,58.26,32.22,18.02\H,0,56.9,31.34,18.6\
 H,0,55.63,33.67,21.08\H,0,55.23,32.44,19.77\H,0,56.32,32.06,21.09\H,0,
 58.11,30.5,20.51\H,0,59.24,30.56,19.12\H,0,59.2,31.79,20.43\N,0,56.69,
 36.41,20.02\C,0,56.22,37.68,20.53\C,0,55.19,37.52,21.64\O,0,54.42,38.4
 5,21.87\C,0,57.42,38.46,21.04\O,0,58.36,38.84,20.05\H,0,57.68,36.2,20.
 06\H,0,55.71,38.22,19.73\H,0,58.02,37.8,21.68\H,0,57.15,39.39,21.54\H,
 0,59.18,38.95,20.54\N,0,55.24,36.39,22.34\C,0,54.29,35.97,23.35\C,0,52
 .8,35.95,23.07\O,0,51.97,36.34,23.89\C,0,54.69,36.69,24.64\H,0,56.06,3
 5.82,22.16\H,0,54.57,34.93,23.55\H,0,54.09,36.41,25.5\H,0,55.67,36.41,
 25.03\H,0,54.63,37.76,24.46\N,0,52.56,35.87,21.75\C,0,51.28,36.16,21.1
 5\C,0,50.79,34.94,20.39\O,0,51.63,34.09,20.1\C,0,51.37,37.42,20.3\H,0,
 53.35,35.74,21.14\H,0,50.53,36.35,21.92\H,0,50.36,37.59,19.92\H,0,51.6
 4,38.29,20.9\H,0,52.,37.28,19.43\N,0,49.52,34.99,19.99\C,0,48.75,33.93
 ,19.36\C,0,48.58,32.61,20.1\O,0,48.06,31.68,19.48\C,0,49.24,33.68,17.9
 4\C,0,49.16,34.86,16.98\C,0,49.43,34.44,15.54\O,0,50.29,33.56,15.33\O,
 0,49.,35.09,14.56\H,0,48.99,35.84,20.13\H,0,47.72,34.29,19.35\H,0,48.8
 ,32.76,17.55\H,0,50.28,33.39,18.07\H,0,49.81,35.64,17.36\H,0,48.17,35.
 31,17.04\N,0,48.95,32.43,21.37\C,0,49.23,31.15,21.99\H,0,50.114,31.239
 ,22.622\H,0,48.378,30.846,22.598\H,0,49.41,30.403,21.217\H,0,49.2,33.2
 3,21.93\Ca,0,50.29,33.77,12.68\O,0,52.19,35.37,13.72\H,0,52.3,35.82,14
 .56\H,0,53.08,35.27,13.39\\Version=ES64L-G16RevA.03\State=1-A\HF=-5333
 .3577248\RMSD=1.540e-09\Dipole=-4.7181455,-1.3586346,3.5214144\Quadrup
 ole=42.5338856,172.2265125,-214.7603981,227.4255171,94.6656031,-125.83
 51582\PG=C01 [X(C54H83Ca1N15O23)]\\@


 Not by the face shall a man be known, but by the mask.
                               -- Karen Blixen
 Job cpu time:       0 days  9 hours 34 minutes 16.7 seconds.
 Elapsed time:       0 days  0 hours 12 minutes  8.8 seconds.
 File lengths (MBytes):  RWF=   1517 Int=      0 D2E=      0 Chk=    171 Scr=      1
 Normal termination of Gaussian 16 at Tue Sep 17 10:20:10 2019.
