 Entering Gaussian System, Link 0=g16
 Initial command:
 /home1/apps/gaussian/16rA.03/g16/l1.exe "/scratch/01990/pengzhi/4345061/Gau-329816.inp" -scrdir="/scratch/01990/pengzhi/4345061/"
 Entering Link 1 = /home1/apps/gaussian/16rA.03/g16/l1.exe PID=    329817.
  
 Copyright (c) 1988,1990,1992,1993,1995,1998,2003,2009,2016,
            Gaussian, Inc.  All Rights Reserved.
  
 This is part of the Gaussian(R) 16 program.  It is based on
 the Gaussian(R) 09 system (copyright 2009, Gaussian, Inc.),
 the Gaussian(R) 03 system (copyright 2003, Gaussian, Inc.),
 the Gaussian(R) 98 system (copyright 1998, Gaussian, Inc.),
 the Gaussian(R) 94 system (copyright 1995, Gaussian, Inc.),
 the Gaussian 92(TM) system (copyright 1992, Gaussian, Inc.),
 the Gaussian 90(TM) system (copyright 1990, Gaussian, Inc.),
 the Gaussian 88(TM) system (copyright 1988, Gaussian, Inc.),
 the Gaussian 86(TM) system (copyright 1986, Carnegie Mellon
 University), and the Gaussian 82(TM) system (copyright 1983,
 Carnegie Mellon University). Gaussian is a federally registered
 trademark of Gaussian, Inc.
  
 This software contains proprietary and confidential information,
 including trade secrets, belonging to Gaussian, Inc.
  
 This software is provided under written license and may be
 used, copied, transmitted, or stored only in accord with that
 written license.
  
 The following legend is applicable only to US Government
 contracts under FAR:
  
                    RESTRICTED RIGHTS LEGEND
  
 Use, reproduction and disclosure by the US Government is
 subject to restrictions as set forth in subparagraphs (a)
 and (c) of the Commercial Computer Software - Restricted
 Rights clause in FAR 52.227-19.
  
 Gaussian, Inc.
 340 Quinnipiac St., Bldg. 40, Wallingford CT 06492
  
  
 ---------------------------------------------------------------
 Warning -- This program may not be used in any manner that
 competes with the business of Gaussian, Inc. or will provide
 assistance to any competitor of Gaussian, Inc.  The licensee
 of this program is prohibited from giving any competitor of
 Gaussian, Inc. access to this program.  By using this program,
 the user acknowledges that Gaussian, Inc. is engaged in the
 business of creating and licensing software in the field of
 computational chemistry and represents and warrants to the
 licensee that it is not a competitor of Gaussian, Inc. and that
 it will not use this program in any manner prohibited above.
 ---------------------------------------------------------------
  

 Cite this work as:
 Gaussian 16, Revision A.03,
 M. J. Frisch, G. W. Trucks, H. B. Schlegel, G. E. Scuseria, 
 M. A. Robb, J. R. Cheeseman, G. Scalmani, V. Barone, 
 G. A. Petersson, H. Nakatsuji, X. Li, M. Caricato, A. V. Marenich, 
 J. Bloino, B. G. Janesko, R. Gomperts, B. Mennucci, H. P. Hratchian, 
 J. V. Ortiz, A. F. Izmaylov, J. L. Sonnenberg, D. Williams-Young, 
 F. Ding, F. Lipparini, F. Egidi, J. Goings, B. Peng, A. Petrone, 
 T. Henderson, D. Ranasinghe, V. G. Zakrzewski, J. Gao, N. Rega, 
 G. Zheng, W. Liang, M. Hada, M. Ehara, K. Toyota, R. Fukuda, 
 J. Hasegawa, M. Ishida, T. Nakajima, Y. Honda, O. Kitao, H. Nakai, 
 T. Vreven, K. Throssell, J. A. Montgomery, Jr., J. E. Peralta, 
 F. Ogliaro, M. J. Bearpark, J. J. Heyd, E. N. Brothers, K. N. Kudin, 
 V. N. Staroverov, T. A. Keith, R. Kobayashi, J. Normand, 
 K. Raghavachari, A. P. Rendell, J. C. Burant, S. S. Iyengar, 
 J. Tomasi, M. Cossi, J. M. Millam, M. Klene, C. Adamo, R. Cammi, 
 J. W. Ochterski, R. L. Martin, K. Morokuma, O. Farkas, 
 J. B. Foresman, and D. J. Fox, Gaussian, Inc., Wallingford CT, 2016.
 
 ******************************************
 Gaussian 16:  ES64L-G16RevA.03 25-Dec-2016
                17-Sep-2019 
 ******************************************
 %chk=Ng-293_loop3_43.0.chk
 %nprocshared=48
 Will use up to   48 processors via shared memory.
 %mem=10GB
 %nosave
 ----------------------------------------------------------------------
 #b3lyp/svp scf=(tight,noincore) Test #IOP(5/87=12) Density=Current Pop
 =(MK,readradii) iop(6/33=2) iop(6/42=6)
 ----------------------------------------------------------------------
 1/30=1,38=1,172=1/1;
 2/12=2,17=6,18=5,40=1/2;
 3/5=18,7=101,11=2,25=1,30=1,74=-5/1,2,3;
 4//1;
 5/5=4,32=2,38=5,87=12/2;
 6/7=2,8=2,9=2,10=2,15=8,20=101,22=-1,28=1,33=2,42=6/1,2;
 99/5=1,9=1/99;
 -----------------
 Ng-293_loop3_43.0
 -----------------
 Symbolic Z-matrix:
 Charge =  0 Multiplicity = 1
 C                     31.47     74.09     83.585 
 C                     30.41     73.64     82.595 
 O                     29.32     73.16     82.905 
 H                     32.324    74.496    83.043 
 H                     31.056    74.859    84.237 
 H                     31.793    73.239    84.185 
 N                     30.72     73.87     81.315 
 C                     29.93     73.59     80.135 
 C                     28.76     74.54     79.885 
 O                     28.85     75.75     80.065 
 C                     30.86     73.59     78.925 
 C                     30.11     73.5      77.605 
 O                     29.19     72.66     77.505 
 O                     30.54     74.18     76.645 
 H                     31.68     74.11     81.105 
 H                     29.53     72.58     80.215 
 H                     31.55     72.78     79.165 
 H                     31.41     74.53     78.905 
 N                     27.57     74.01     79.615 
 C                     26.16     74.31     79.495 
 C                     25.74     75.49     78.635 
 O                     24.6      75.51     78.155 
 C                     25.64     74.45     80.935 
 C                     24.12     74.48     81.055 
 C                     23.6      74.36     82.485 
 C                     22.12     74.74     82.535 
 N                     21.62     74.8      83.915 
 H                     27.73     73.04     79.365 
 H                     25.64     73.49     78.995 
 H                     26.04     75.37     81.365 
 H                     26.01     73.58     81.475 
 H                     23.71     73.71     80.415 
 H                     23.92     75.47     80.655 
 H                     24.15     75.12     83.045 
 H                     23.75     73.35     82.845 
 H                     21.54     74.08     81.895 
 H                     22.04     75.76     82.165 
 H                     22.2      75.48     84.375 
 H                     20.65     75.05     84.035 
 H                     21.73     73.85     84.255 
 N                     26.66     76.4      78.335 
 C                     26.39     77.78     77.995 
 C                     27.48     78.54     77.255 
 O                     28.64     78.11     77.285 
 C                     25.95     78.63     79.185 
 C                     25.1      79.85     78.865 
 O                     24.65     80.49     79.845 
 O                     24.83     80.19     77.695 
 H                     27.6      76.16     78.645 
 H                     25.56     77.67     77.295 
 H                     26.88     78.94     79.675 
 H                     25.49     78.       79.935 
 N                     27.19     79.61     76.515 
 C                     28.15     80.48     75.865 
 C                     27.47     81.84     75.785 
 O                     26.52     82.05     75.035 
 H                     26.23     79.9      76.655 
 H                     28.31     80.07     74.865 
 H                     29.08     80.5      76.435 
 N                     27.96     82.83     76.535 
 C                     27.23     84.03     76.885 
 C                     27.65     85.25     76.085 
 O                     26.92     86.24     76.175 
 C                     27.3      84.22     78.395 
 C                     26.49     83.16     79.145 
 N                     27.1      82.27     79.915 
 O                     25.27     83.1      79.045 
 H                     28.65     82.49     77.195 
 H                     26.18     83.91     76.635 
 H                     26.78     85.11     78.745 
 H                     28.32     84.28     78.765 
 H                     28.1      82.22     79.805 
 H                     26.69     81.5      80.435 
 N                     28.71     85.2      75.285 
 C                     29.       86.23     74.295 
 C                     29.29     87.61     74.855 
 O                     30.37     87.87     75.375 
 H                     29.34     84.42     75.375 
 H                     28.05     86.38     73.765 
 H                     29.8      86.01     73.595 
 N                     28.28     88.49     74.875 
 C                     28.31     89.81     75.475 
 C                     28.44     89.71     76.995 
 O                     29.01     90.58     77.655 
 C                     29.25     90.75     74.725 
 C                     29.02     90.74     73.235 
 C                     29.88     89.94     72.485 
 C                     27.9      91.38     72.685 
 C                     29.63     89.82     71.115 
 C                     27.64     91.21     71.315 
 C                     28.48     90.39     70.535 
 O                     28.21     90.16     69.215 
 H                     27.39     88.23     74.495 
 H                     27.32     90.25     75.345 
 H                     30.31     90.71     74.975 
 H                     29.07     91.77     75.065 
 H                     30.77     89.47     72.885 
 H                     27.27     92.02     73.265 
 H                     30.23     89.16     70.505 
 H                     26.79     91.64     70.815 
 H                     27.37     90.5      68.895 
 N                     27.86     88.69     77.625 
 C                     27.62     88.36     79.015 
 C                     26.54     89.3      79.525 
 O                     25.53     88.82     80.025 
 C                     28.84     88.27     79.925 
 C                     29.67     87.05     79.545 
 C                     28.61     88.28     81.435 
 C                     31.19     87.22     79.595 
 H                     27.25     88.12     77.065 
 H                     27.13     87.39     79.105 
 H                     29.45     89.14     79.715 
 H                     29.52     86.93     78.465 
 H                     29.38     86.21     80.175 
 H                     27.79     87.6      81.655 
 H                     29.53     88.06     81.975 
 H                     28.32     89.29     81.725 
 H                     31.54     86.23     79.315 
 H                     31.48     88.05     78.945 
 H                     31.59     87.42     80.585 
 N                     26.67     90.61     79.265 
 C                     25.69     91.67     79.395 
 C                     25.25     91.95     80.825 
 O                     24.14     92.36     81.145 
 C                     26.17     93.       78.815 
 O                     26.55     92.82     77.465 
 H                     27.59     90.77     78.865 
 H                     24.87     91.26     78.805 
 H                     27.06     93.33     79.355 
 H                     25.36     93.7      78.995 
 H                     27.38     93.27     77.305 
 N                     26.16     91.6      81.745 
 C                     26.13     91.38     83.175 
 C                     24.81     90.73     83.565 
 O                     24.18     91.24     84.485 
 C                     26.33     92.78     83.735 
 H                     27.08     91.46     81.365 
 H                     26.98     90.72     83.355 
 H                     26.26     92.79     84.825 
 H                     27.24     93.22     83.325 
 H                     25.53     93.4      83.325 
 N                     24.48     89.63     82.875 
 C                     23.28     88.84     82.995 
 C                     23.47     87.58     83.835 
 O                     24.62     87.31     84.165 
 C                     22.7      88.57     81.605 
 H                     25.11     89.35     82.145 
 H                     22.51     89.4      83.535 
 H                     21.72     88.11     81.725 
 H                     22.74     89.57     81.165 
 H                     23.36     87.93     81.035 
 N                     22.39     86.98     84.355 
 C                     22.3      85.71     85.045 
 C                     23.04     85.67     86.375 
 O                     23.28     84.59     86.925 
 C                     22.59     84.46     84.215 
 C                     21.78     84.39     82.925 
 C                     22.36     83.28     82.065 
 O                     23.26     83.45     81.205 
 O                     21.95     82.1      82.105 
 H                     21.54     87.52     84.375 
 H                     21.26     85.59     85.355 
 H                     22.28     83.57     84.775 
 H                     23.65     84.35     83.995 
 H                     22.09     85.3      82.415 
 H                     20.71     84.29     83.115 
 N                     23.46     86.78     86.995 
 C                     24.2      86.73     88.235 
 H                     25.096    87.344    88.148 
 H                     23.578    87.109    89.046 
 H                     24.486    85.7      88.447 
 H                     23.33     87.72     86.635 
 Ca                    22.82     82.16     79.03 
 O                     20.46     83.28     79.19 
 H                     20.17     84.1      79.6 
 H                     19.64     82.8      79.01 
 
 Stoichiometry    C54H83CaN15O23
 Framework group  C1[X(C54H83CaN15O23)]
 Deg. of freedom   522
 Full point group                 C1      NOp   1
 Largest Abelian subgroup         C1      NOp   1
 Largest concise Abelian subgroup C1      NOp   1
                         Standard orientation:                         
 ---------------------------------------------------------------------
 Center     Atomic      Atomic             Coordinates (Angstroms)
 Number     Number       Type             X           Y           Z
 ---------------------------------------------------------------------
      1          6           0      -10.220554    0.213748    5.689033
      2          6           0      -10.527039   -0.148674    4.246495
      3          8           0      -11.016321    0.620126    3.419361
      4          1           0       -9.772141   -0.643319    6.191306
      5          1           0       -9.525132    1.052582    5.713671
      6          1           0      -11.143383    0.490615    6.199190
      7          7           0      -10.154193   -1.384617    3.898886
      8          6           0      -10.275368   -2.030247    2.609166
      9          6           0       -9.277072   -1.572636    1.547141
     10          8           0       -8.099097   -1.352140    1.808593
     11          6           0      -10.152712   -3.537460    2.814745
     12          6           0      -10.069592   -4.306251    1.505144
     13          8           0      -10.871522   -4.008399    0.593995
     14          8           0       -9.290466   -5.285710    1.454946
     15          1           0       -9.912144   -2.024186    4.644315
     16          1           0      -11.278735   -1.853421    2.223826
     17          1           0      -11.000325   -3.750496    3.467407
     18          1           0       -9.229216   -3.744162    3.354124
     19          7           0       -9.745239   -1.257549    0.342384
     20          6           0       -9.402337   -0.627287   -0.913677
     21          6           0       -8.120034   -1.049283   -1.610828
     22          8           0       -8.018462   -0.889698   -2.833373
     23          6           0       -9.422179    0.885369   -0.639673
     24          6           0       -9.373279    1.752604   -1.893153
     25          6           0       -9.650053    3.232880   -1.644395
     26          6           0       -9.246293    4.051835   -2.870605
     27          7           0       -9.338900    5.495517   -2.615249
     28          1           0      -10.682157   -1.641549    0.281326
     29          1           0      -10.145892   -0.872214   -1.675212
     30          1           0       -8.568445    1.139284   -0.008828
     31          1           0      -10.357808    1.085318   -0.120040
     32          1           0      -10.053058    1.336661   -2.624926
     33          1           0       -8.338794    1.598994   -2.186998
     34          1           0       -8.973812    3.508940   -0.831875
     35          1           0      -10.698569    3.375272   -1.415182
     36          1           0       -9.813145    3.731084   -3.740891
     37          1           0       -8.188201    3.866695   -3.043419
     38          1           0       -8.730916    5.663166   -1.832531
     39          1           0       -9.083646    6.107432   -3.375647
     40          1           0      -10.324611    5.646212   -2.425867
     41          7           0       -7.201329   -1.685023   -0.892278
     42          6           0       -5.785232   -1.716274   -1.186542
     43          6           0       -4.967151   -2.829584   -0.550470
     44          8           0       -5.422994   -3.423999    0.434557
     45          6           0       -5.072424   -0.393944   -0.911684
     46          6           0       -3.804822   -0.132150   -1.710403
     47          8           0       -3.275449    0.995235   -1.564573
     48          8           0       -3.323069   -0.972895   -2.496826
     49          1           0       -7.496828   -1.910889    0.055860
     50          1           0       -5.793503   -1.913181   -2.259929
     51          1           0       -4.842970   -0.409581    0.159860
     52          1           0       -5.776432    0.424360   -0.987525
     53          7           0       -3.811084   -3.223453   -1.084300
     54          6           0       -2.891592   -4.184136   -0.507566
     55          6           0       -1.517101   -3.788103   -1.029419
     56          8           0       -1.199154   -3.938691   -2.206421
     57          1           0       -3.518703   -2.595675   -1.823020
     58          1           0       -3.183916   -5.162476   -0.896280
     59          1           0       -2.959492   -4.157432    0.580955
     60          7           0       -0.633673   -3.297427   -0.156783
     61          6           0        0.532245   -2.520872   -0.521473
     62          6           0        1.828760   -3.308233   -0.458948
     63          8           0        2.816936   -2.774668   -0.968770
     64          6           0        0.540839   -1.238862    0.301616
     65          6           0       -0.582383   -0.284598   -0.110640
     66          7           0       -1.570313   -0.008702    0.728988
     67          8           0       -0.603397    0.234811   -1.220493
     68          1           0       -1.064342   -3.105985    0.740531
     69          1           0        0.465672   -2.221193   -1.563183
     70          1           0        1.394404   -0.595818    0.094440
     71          1           0        0.534318   -1.425717    1.372103
     72          1           0       -1.628857   -0.608746    1.535908
     73          1           0       -2.387213    0.573795    0.571598
     74          7           0        1.850465   -4.532225    0.058230
     75          6           0        2.983667   -5.435393   -0.100644
     76          6           0        4.281108   -4.972437    0.535296
     77          8           0        4.454091   -5.041943    1.747585
     78          1           0        1.051681   -4.841579    0.587043
     79          1           0        3.216044   -5.402108   -1.173394
     80          1           0        2.830480   -6.458650    0.227805
     81          7           0        5.174490   -4.368958   -0.260055
     82          6           0        6.413334   -3.746853    0.166033
     83          6           0        6.131534   -2.512799    1.023354
     84          8           0        6.904718   -2.150624    1.911282
     85          6           0        7.414577   -4.777192    0.681410
     86          6           0        7.585819   -5.945403   -0.256172
     87          6           0        6.861435   -7.094776    0.054164
     88          6           0        8.310730   -5.799394   -1.447677
     89          6           0        6.909728   -8.159742   -0.849891
     90          6           0        8.309605   -6.863924   -2.364288
     91          6           0        7.569351   -8.030932   -2.087673
     92          8           0        7.502969   -9.052904   -2.992862
     93          1           0        4.980794   -4.274101   -1.238617
     94          1           0        6.887200   -3.322730   -0.720630
     95          1           0        7.322091   -5.096509    1.719284
     96          1           0        8.390932   -4.301139    0.773628
     97          1           0        6.328061   -7.239167    0.985649
     98          1           0        8.891331   -4.926156   -1.655663
     99          1           0        6.313476   -9.045607   -0.684280
    100          1           0        8.814214   -6.829295   -3.313799
    101          1           0        7.896734   -8.876581   -3.851617
    102          7           0        5.057169   -1.773347    0.753818
    103          6           0        4.570511   -0.486924    1.208659
    104          6           0        5.467070    0.578851    0.600049
    105          8           0        4.953576    1.471125   -0.063782
    106          6           0        4.346865   -0.322861    2.707880
    107          6           0        3.162447   -1.177146    3.142683
    108          6           0        4.183337    1.092929    3.257332
    109          6           0        3.292001   -1.879771    4.495950
    110          1           0        4.570865   -2.001987   -0.095789
    111          1           0        3.607644   -0.252762    0.753516
    112          1           0        5.222013   -0.729548    3.199633
    113          1           0        3.174269   -2.042581    2.468752
    114          1           0        2.260422   -0.566466    3.138131
    115          1           0        3.500229    1.630762    2.603651
    116          1           0        3.880943    1.076874    4.303611
    117          1           0        5.158085    1.580119    3.228830
    118          1           0        2.334611   -2.386572    4.582882
    119          1           0        4.186462   -2.508580    4.489819
    120          1           0        3.364760   -1.209684    5.347883
    121          7           0        6.795455    0.409741    0.686049
    122          6           0        7.853871    1.109333   -0.014825
    123          6           0        7.972443    2.586120    0.334378
    124          8           0        8.365963    3.454920   -0.435640
    125          6           0        9.232269    0.491342    0.217137
    126          8           0        9.204830   -0.877395   -0.136565
    127          1           0        6.981420   -0.380649    1.296542
    128          1           0        7.534554    0.974668   -1.048508
    129          1           0        9.476543    0.540601    1.280389
    130          1           0        9.923661    1.115920   -0.339980
    131          1           0        9.652294   -1.389623    0.537525
    132          7           0        7.496292    2.890262    1.550017
    133          6           0        7.109507    4.116005    2.214961
    134          6           0        6.447041    5.053301    1.215154
    135          8           0        6.858394    6.207299    1.165375
    136          6           0        8.428775    4.625862    2.774586
    137          1           0        7.382069    2.089656    2.146996
    138          1           0        6.414393    3.784914    2.988069
    139          1           0        8.311389    5.600021    3.254518
    140          1           0        8.894111    3.857475    3.393330
    141          1           0        9.110271    4.730289    1.927734
    142          7           0        5.443814    4.524084    0.502088
    143          6           0        4.671650    5.156089   -0.538505
    144          6           0        3.317331    5.668738   -0.056519
    145          8           0        2.985084    5.352177    1.080891
    146          6           0        4.580625    4.225455   -1.749717
    147          1           0        5.238333    3.554654    0.663900
    148          1           0        5.180627    6.057694   -0.893682
    149          1           0        4.131248    4.777458   -2.574188
    150          1           0        5.624508    3.918140   -1.854919
    151          1           0        3.998185    3.345800   -1.510822
    152          7           0        2.683877    6.602309   -0.780383
    153          6           0        1.343497    7.125157   -0.615732
    154          6           0        1.130357    7.895676    0.680019
    155          8           0       -0.012083    8.150134    1.075725
    156          6           0        0.194322    6.151232   -0.873349
    157          6           0        0.295065    5.440140   -2.218451
    158          6           0       -0.717933    4.307964   -2.229060
    159          8           0       -0.467226    3.132571   -1.862865
    160          8           0       -1.885120    4.439824   -2.656129
    161          1           0        3.236220    7.094573   -1.463826
    162          1           0        1.210509    7.901834   -1.371501
    163          1           0       -0.748628    6.707106   -0.933771
    164          1           0        0.087901    5.420974   -0.073663
    165          1           0        1.251959    4.929131   -2.131710
    166          1           0        0.196774    6.130382   -3.058036
    167          7           0        2.149815    8.320485    1.437081
    168          6           0        1.937386    9.012625    2.687488
    169          1           0        2.537586    8.545172    3.467635
    170          1           0        2.231398   10.056819    2.580433
    171          1           0        0.883530    8.957693    2.959536
    172          1           0        3.128400    8.161677    1.219709
    173         20           0       -1.481127    1.362893   -3.421253
    174          8           0       -0.336456    2.784888   -5.296688
    175          1           0        0.435485    3.357992   -5.280602
    176          1           0       -0.773731    2.996719   -6.132821
 ---------------------------------------------------------------------
 Rotational constants (GHZ):           0.0179783           0.0086406           0.0066741
 Standard basis: SVP (5D, 7F)
 There are  1809 symmetry adapted cartesian basis functions of A   symmetry.
 There are  1717 symmetry adapted basis functions of A   symmetry.
  1717 basis functions,  2922 primitive gaussians,  1809 cartesian basis functions
   358 alpha electrons      358 beta electrons
       nuclear repulsion energy     18750.2149141237 Hartrees.
 NAtoms=  176 NActive=  176 NUniq=  176 SFac= 1.00D+00 NAtFMM=   60 NAOKFM=T Big=T
 Integral buffers will be    131072 words long.
 Raffenetti 2 integral format.
 Two-electron integral symmetry is turned on.
 One-electron integrals computed using PRISM.
 NBasis=  1717 RedAO= T EigKep=  2.87D-04  NBF=  1717
 NBsUse=  1717 1.00D-06 EigRej= -1.00D+00 NBFU=  1717
 ExpMin= 1.98D-02 ExpMax= 3.51D+04 ExpMxC= 5.28D+03 IAcc=3 IRadAn=         5 AccDes= 0.00D+00
 Harris functional with IExCor=  402 and IRadAn=       5 diagonalized for initial guess.
 HarFok:  IExCor=  402 AccDes= 0.00D+00 IRadAn=         5 IDoV= 1 UseB2=F ITyADJ=14
 ICtDFT=  3500011 ScaDFX=  1.000000  1.000000  1.000000  1.000000
 FoFCou: FMM=F IPFlag=           0 FMFlag=      100000 FMFlg1=        2001
         NFxFlg=           0 DoJE=T BraDBF=F KetDBF=T FulRan=T
         wScrn=  0.000000 ICntrl=       500 IOpCl=  0 I1Cent=   200000004 NGrid=           0
         NMat0=    1 NMatS0=      1 NMatT0=    0 NMatD0=    1 NMtDS0=    0 NMtDT0=    0
 Petite list used in FoFCou.
 Requested convergence on RMS density matrix=1.00D-08 within 128 cycles.
 Requested convergence on MAX density matrix=1.00D-06.
 Requested convergence on             energy=1.00D-06.
 No special actions if energy rises.
 EnCoef did   100 forward-backward iterations
 Rare condition: small coef for last iteration:  0.000D+00
 EnCoef did   100 forward-backward iterations
 EnCoef did   100 forward-backward iterations
 Rare condition: small coef for last iteration:  0.309D-15
 EnCoef did   100 forward-backward iterations
 EnCoef did   100 forward-backward iterations
 Rare condition: small coef for last iteration:  0.444D-15
 EnCoef did   100 forward-backward iterations
 EnCoef did   100 forward-backward iterations
 Rare condition: small coef for last iteration:  0.694D-15
 EnCoef did   100 forward-backward iterations
 EnCoef did   100 forward-backward iterations
 Restarting incremental Fock formation.
 EnCoef did     5 forward-backward iterations
 SCF Done:  E(RB3LYP) =  -5333.35537818     A.U. after   34 cycles
            NFock= 34  Conv=0.25D-08     -V/T= 2.0081
 SCF density gives NOpUse=  1 NOpAll=  1.
 Hyperfine terms turned off by default for NAtoms > 100.

 **********************************************************************

            Population analysis using the SCF density.

 **********************************************************************

 Orbital symmetries:
 BldTbl:  Degeneracy threshold= 1.00D-02
       Occupied  (A) (A) (A) (A) (A) (A) (A) (A) (A) (A) (A) (A)
                 (A) (A) (A) (A) (A) (A) (A) (A) (A) (A) (A) (A)
                 (A) (A) (A) (A) (A) (A) (A) (A) (A) (A) (A) (A)
                 (A) (A) (A) (A) (A) (A) (A) (A) (A) (A) (A) (A)
                 (A) (A) (A) (A) (A) (A) (A) (A) (A) (A) (A) (A)
                 (A) (A) (A) (A) (A) (A) (A) (A) (A) (A) (A) (A)
                 (A) (A) (A) (A) (A) (A) (A) (A) (A) (A) (A) (A)
                 (A) (A) (A) (A) (A) (A) (A) (A) (A) (A) (A) (A)
                 (A) (A) (A) (A) (A) (A) (A) (A) (A) (A) (A) (A)
                 (A) (A) (A) (A) (A) (A) (A) (A) (A) (A) (A) (A)
                 (A) (A) (A) (A) (A) (A) (A) (A) (A) (A) (A) (A)
                 (A) (A) (A) (A) (A) (A) (A) (A) (A) (A) (A) (A)
                 (A) (A) (A) (A) (A) (A) (A) (A) (A) (A) (A) (A)
                 (A) (A) (A) (A) (A) (A) (A) (A) (A) (A) (A) (A)
                 (A) (A) (A) (A) (A) (A) (A) (A) (A) (A) (A) (A)
                 (A) (A) (A) (A) (A) (A) (A) (A) (A) (A) (A) (A)
                 (A) (A) (A) (A) (A) (A) (A) (A) (A) (A) (A) (A)
                 (A) (A) (A) (A) (A) (A) (A) (A) (A) (A) (A) (A)
                 (A) (A) (A) (A) (A) (A) (A) (A) (A) (A) (A) (A)
                 (A) (A) (A) (A) (A) (A) (A) (A) (A) (A) (A) (A)
                 (A) (A) (A) (A) (A) (A) (A) (A) (A) (A) (A) (A)
                 (A) (A) (A) (A) (A) (A) (A) (A) (A) (A) (A) (A)
                 (A) (A) (A) (A) (A) (A) (A) (A) (A) (A) (A) (A)
                 (A) (A) (A) (A) (A) (A) (A) (A) (A) (A) (A) (A)
                 (A) (A) (A) (A) (A) (A) (A) (A) (A) (A) (A) (A)
                 (A) (A) (A) (A) (A) (A) (A) (A) (A) (A) (A) (A)
                 (A) (A) (A) (A) (A) (A) (A) (A) (A) (A) (A) (A)
                 (A) (A) (A) (A) (A) (A) (A) (A) (A) (A) (A) (A)
                 (A) (A) (A) (A) (A) (A) (A) (A) (A) (A) (A) (A)
                 (A) (A) (A) (A) (A) (A) (A) (A) (A) (A)
       Virtual   (A) (A) (A) (A) (A) (A) (A) (A) (A) (A) (A) (A)
                 (A) (A) (A) (A) (A) (A) (A) (A) (A) (A) (A) (A)
                 (A) (A) (A) (A) (A) (A) (A) (A) (A) (A) (A) (A)
                 (A) (A) (A) (A) (A) (A) (A) (A) (A) (A) (A) (A)
                 (A) (A) (A) (A) (A) (A) (A) (A) (A) (A) (A) (A)
                 (A) (A) (A) (A) (A) (A) (A) (A) (A) (A) (A) (A)
                 (A) (A) (A) (A) (A) (A) (A) (A) (A) (A) (A) (A)
                 (A) (A) (A) (A) (A) (A) (A) (A) (A) (A) (A) (A)
                 (A) (A) (A) (A) (A) (A) (A) (A) (A) (A) (A) (A)
                 (A) (A) (A) (A) (A) (A) (A) (A) (A) (A) (A) (A)
                 (A) (A) (A) (A) (A) (A) (A) (A) (A) (A) (A) (A)
                 (A) (A) (A) (A) (A) (A) (A) (A) (A) (A) (A) (A)
                 (A) (A) (A) (A) (A) (A) (A) (A) (A) (A) (A) (A)
                 (A) (A) (A) (A) (A) (A) (A) (A) (A) (A) (A) (A)
                 (A) (A) (A) (A) (A) (A) (A) (A) (A) (A) (A) (A)
                 (A) (A) (A) (A) (A) (A) (A) (A) (A) (A) (A) (A)
                 (A) (A) (A) (A) (A) (A) (A) (A) (A) (A) (A) (A)
                 (A) (A) (A) (A) (A) (A) (A) (A) (A) (A) (A) (A)
                 (A) (A) (A) (A) (A) (A) (A) (A) (A) (A) (A) (A)
                 (A) (A) (A) (A) (A) (A) (A) (A) (A) (A) (A) (A)
                 (A) (A) (A) (A) (A) (A) (A) (A) (A) (A) (A) (A)
                 (A) (A) (A) (A) (A) (A) (A) (A) (A) (A) (A) (A)
                 (A) (A) (A) (A) (A) (A) (A) (A) (A) (A) (A) (A)
                 (A) (A) (A) (A) (A) (A) (A) (A) (A) (A) (A) (A)
                 (A) (A) (A) (A) (A) (A) (A) (A) (A) (A) (A) (A)
                 (A) (A) (A) (A) (A) (A) (A) (A) (A) (A) (A) (A)
                 (A) (A) (A) (A) (A) (A) (A) (A) (A) (A) (A) (A)
                 (A) (A) (A) (A) (A) (A) (A) (A) (A) (A) (A) (A)
                 (A) (A) (A) (A) (A) (A) (A) (A) (A) (A) (A) (A)
                 (A) (A) (A) (A) (A) (A) (A) (A) (A) (A) (A) (A)
                 (A) (A) (A) (A) (A) (A) (A) (A) (A) (A) (A) (A)
                 (A) (A) (A) (A) (A) (A) (A) (A) (A) (A) (A) (A)
                 (A) (A) (A) (A) (A) (A) (A) (A) (A) (A) (A) (A)
                 (A) (A) (A) (A) (A) (A) (A) (A) (A) (A) (A) (A)
                 (A) (A) (A) (A) (A) (A) (A) (A) (A) (A) (A) (A)
                 (A) (A) (A) (A) (A) (A) (A) (A) (A) (A) (A) (A)
                 (A) (A) (A) (A) (A) (A) (A) (A) (A) (A) (A) (A)
                 (A) (A) (A) (A) (A) (A) (A) (A) (A) (A) (A) (A)
                 (A) (A) (A) (A) (A) (A) (A) (A) (A) (A) (A) (A)
                 (A) (A) (A) (A) (A) (A) (A) (A) (A) (A) (A) (A)
                 (A) (A) (A) (A) (A) (A) (A) (A) (A) (A) (A) (A)
                 (A) (A) (A) (A) (A) (A) (A) (A) (A) (A) (A) (A)
                 (A) (A) (A) (A) (A) (A) (A) (A) (A) (A) (A) (A)
                 (A) (A) (A) (A) (A) (A) (A) (A) (A) (A) (A) (A)
                 (A) (A) (A) (A) (A) (A) (A) (A) (A) (A) (A) (A)
                 (A) (A) (A) (A) (A) (A) (A) (A) (A) (A) (A) (A)
                 (A) (A) (A) (A) (A) (A) (A) (A) (A) (A) (A) (A)
                 (A) (A) (A) (A) (A) (A) (A) (A) (A) (A) (A) (A)
                 (A) (A) (A) (A) (A) (A) (A) (A) (A) (A) (A) (A)
                 (A) (A) (A) (A) (A) (A) (A) (A) (A) (A) (A) (A)
                 (A) (A) (A) (A) (A) (A) (A) (A) (A) (A) (A) (A)
                 (A) (A) (A) (A) (A) (A) (A) (A) (A) (A) (A) (A)
                 (A) (A) (A) (A) (A) (A) (A) (A) (A) (A) (A) (A)
                 (A) (A) (A) (A) (A) (A) (A) (A) (A) (A) (A) (A)
                 (A) (A) (A) (A) (A) (A) (A) (A) (A) (A) (A) (A)
                 (A) (A) (A) (A) (A) (A) (A) (A) (A) (A) (A) (A)
                 (A) (A) (A) (A) (A) (A) (A) (A) (A) (A) (A) (A)
                 (A) (A) (A) (A) (A) (A) (A) (A) (A) (A) (A) (A)
                 (A) (A) (A) (A) (A) (A) (A) (A) (A) (A) (A) (A)
                 (A) (A) (A) (A) (A) (A) (A) (A) (A) (A) (A) (A)
                 (A) (A) (A) (A) (A) (A) (A) (A) (A) (A) (A) (A)
                 (A) (A) (A) (A) (A) (A) (A) (A) (A) (A) (A) (A)
                 (A) (A) (A) (A) (A) (A) (A) (A) (A) (A) (A) (A)
                 (A) (A) (A) (A) (A) (A) (A) (A) (A) (A) (A) (A)
                 (A) (A) (A) (A) (A) (A) (A) (A) (A) (A) (A) (A)
                 (A) (A) (A) (A) (A) (A) (A) (A) (A) (A) (A) (A)
                 (A) (A) (A) (A) (A) (A) (A) (A) (A) (A) (A) (A)
                 (A) (A) (A) (A) (A) (A) (A) (A) (A) (A) (A) (A)
                 (A) (A) (A) (A) (A) (A) (A) (A) (A) (A) (A) (A)
                 (A) (A) (A) (A) (A) (A) (A) (A) (A) (A) (A) (A)
                 (A) (A) (A) (A) (A) (A) (A) (A) (A) (A) (A) (A)
                 (A) (A) (A) (A) (A) (A) (A) (A) (A) (A) (A) (A)
                 (A) (A) (A) (A) (A) (A) (A) (A) (A) (A) (A) (A)
                 (A) (A) (A) (A) (A) (A) (A) (A) (A) (A) (A) (A)
                 (A) (A) (A) (A) (A) (A) (A) (A) (A) (A) (A) (A)
                 (A) (A) (A) (A) (A) (A) (A) (A) (A) (A) (A) (A)
                 (A) (A) (A) (A) (A) (A) (A) (A) (A) (A) (A) (A)
                 (A) (A) (A) (A) (A) (A) (A) (A) (A) (A) (A) (A)
                 (A) (A) (A) (A) (A) (A) (A) (A) (A) (A) (A) (A)
                 (A) (A) (A) (A) (A) (A) (A) (A) (A) (A) (A) (A)
                 (A) (A) (A) (A) (A) (A) (A) (A) (A) (A) (A) (A)
                 (A) (A) (A) (A) (A) (A) (A) (A) (A) (A) (A) (A)
                 (A) (A) (A) (A) (A) (A) (A) (A) (A) (A) (A) (A)
                 (A) (A) (A) (A) (A) (A) (A) (A) (A) (A) (A) (A)
                 (A) (A) (A) (A) (A) (A) (A) (A) (A) (A) (A) (A)
                 (A) (A) (A) (A) (A) (A) (A) (A) (A) (A) (A) (A)
                 (A) (A) (A) (A) (A) (A) (A) (A) (A) (A) (A) (A)
                 (A) (A) (A) (A) (A) (A) (A) (A) (A) (A) (A) (A)
                 (A) (A) (A) (A) (A) (A) (A) (A) (A) (A) (A) (A)
                 (A) (A) (A) (A) (A) (A) (A) (A) (A) (A) (A) (A)
                 (A) (A) (A) (A) (A) (A) (A) (A) (A) (A) (A) (A)
                 (A) (A) (A) (A) (A) (A) (A) (A) (A) (A) (A) (A)
                 (A) (A) (A) (A) (A) (A) (A) (A) (A) (A) (A) (A)
                 (A) (A) (A) (A) (A) (A) (A) (A) (A) (A) (A) (A)
                 (A) (A) (A) (A) (A) (A) (A) (A) (A) (A) (A) (A)
                 (A) (A) (A) (A) (A) (A) (A) (A) (A) (A) (A) (A)
                 (A) (A) (A) (A) (A) (A) (A) (A) (A) (A) (A) (A)
                 (A) (A) (A) (A) (A) (A) (A) (A) (A) (A) (A) (A)
                 (A) (A) (A) (A) (A) (A) (A) (A) (A) (A) (A) (A)
                 (A) (A) (A) (A) (A) (A) (A) (A) (A) (A) (A) (A)
                 (A) (A) (A) (A) (A) (A) (A) (A) (A) (A) (A) (A)
                 (A) (A) (A) (A) (A) (A) (A) (A) (A) (A) (A) (A)
                 (A) (A) (A) (A) (A) (A) (A) (A) (A) (A) (A) (A)
                 (A) (A) (A) (A) (A) (A) (A) (A) (A) (A) (A) (A)
                 (A) (A) (A) (A) (A) (A) (A) (A) (A) (A) (A) (A)
                 (A) (A) (A) (A) (A) (A) (A) (A) (A) (A) (A) (A)
                 (A) (A) (A) (A) (A) (A) (A) (A) (A) (A) (A) (A)
                 (A) (A) (A) (A) (A) (A) (A) (A) (A) (A) (A) (A)
                 (A) (A) (A) (A) (A) (A) (A) (A) (A) (A) (A) (A)
                 (A) (A) (A) (A) (A) (A) (A) (A) (A) (A) (A) (A)
                 (A) (A) (A) (A) (A) (A) (A) (A) (A) (A) (A) (A)
                 (A) (A) (A) (A) (A) (A) (A) (A) (A) (A) (A) (A)
                 (A) (A) (A) (A) (A) (A) (A) (A) (A) (A) (A) (A)
                 (A) (A) (A)
 The electronic state is 1-A.
 Alpha  occ. eigenvalues -- -145.45840 -19.24117 -19.16897 -19.14898 -19.12920
 Alpha  occ. eigenvalues --  -19.11989 -19.11543 -19.10998 -19.10976 -19.10636
 Alpha  occ. eigenvalues --  -19.09759 -19.09064 -19.08660 -19.08177 -19.07533
 Alpha  occ. eigenvalues --  -19.07165 -19.06881 -19.05464 -19.05420 -19.04836
 Alpha  occ. eigenvalues --  -19.03711 -19.02983 -18.95786 -18.95150 -15.51685
 Alpha  occ. eigenvalues --  -14.56942 -14.39425 -14.38152 -14.36960 -14.36875
 Alpha  occ. eigenvalues --  -14.36623 -14.35953 -14.35657 -14.34994 -14.33833
 Alpha  occ. eigenvalues --  -14.33673 -14.31719 -14.31296 -14.31051 -14.30611
 Alpha  occ. eigenvalues --  -12.65305 -12.65251 -12.65210 -10.33473 -10.31538
 Alpha  occ. eigenvalues --  -10.31391 -10.30479 -10.29829 -10.29521 -10.29037
 Alpha  occ. eigenvalues --  -10.28568 -10.27720 -10.27092 -10.27074 -10.26627
 Alpha  occ. eigenvalues --  -10.26570 -10.26289 -10.25977 -10.25839 -10.25693
 Alpha  occ. eigenvalues --  -10.25665 -10.25354 -10.24685 -10.24671 -10.24505
 Alpha  occ. eigenvalues --  -10.24267 -10.23947 -10.23491 -10.23472 -10.23160
 Alpha  occ. eigenvalues --  -10.23098 -10.22610 -10.22565 -10.22122 -10.21370
 Alpha  occ. eigenvalues --  -10.20386 -10.20367 -10.20255 -10.20064 -10.19826
 Alpha  occ. eigenvalues --  -10.19733 -10.19464 -10.19433 -10.19393 -10.19206
 Alpha  occ. eigenvalues --  -10.18704 -10.18503 -10.17812 -10.17795 -10.17732
 Alpha  occ. eigenvalues --  -10.17652 -10.17306 -10.17089 -10.17064 -10.16816
 Alpha  occ. eigenvalues --  -10.15352 -10.11128  -1.88293  -1.15818  -1.15281
 Alpha  occ. eigenvalues --   -1.15205  -1.12557  -1.09509  -1.06233  -1.05273
 Alpha  occ. eigenvalues --   -1.05262  -1.04983  -1.04195  -1.04042  -1.03695
 Alpha  occ. eigenvalues --   -1.02998  -1.02957  -1.02645  -1.02362  -1.00693
 Alpha  occ. eigenvalues --   -1.00402  -0.99779  -0.99166  -0.98695  -0.98518
 Alpha  occ. eigenvalues --   -0.97853  -0.95696  -0.94633  -0.94398  -0.93856
 Alpha  occ. eigenvalues --   -0.93191  -0.92737  -0.92638  -0.92011  -0.91831
 Alpha  occ. eigenvalues --   -0.90692  -0.89936  -0.89220  -0.89111  -0.88737
 Alpha  occ. eigenvalues --   -0.88123  -0.87794  -0.87285  -0.86915  -0.85825
 Alpha  occ. eigenvalues --   -0.82668  -0.81634  -0.80222  -0.80085  -0.79866
 Alpha  occ. eigenvalues --   -0.79525  -0.78964  -0.76749  -0.76632  -0.76555
 Alpha  occ. eigenvalues --   -0.75392  -0.75314  -0.74758  -0.74633  -0.73587
 Alpha  occ. eigenvalues --   -0.73142  -0.72837  -0.72723  -0.72315  -0.71575
 Alpha  occ. eigenvalues --   -0.71297  -0.69769  -0.68806  -0.68220  -0.67310
 Alpha  occ. eigenvalues --   -0.67004  -0.66415  -0.65719  -0.64672  -0.64136
 Alpha  occ. eigenvalues --   -0.63801  -0.63263  -0.62958  -0.62760  -0.62058
 Alpha  occ. eigenvalues --   -0.61616  -0.61518  -0.61233  -0.61108  -0.60621
 Alpha  occ. eigenvalues --   -0.59611  -0.59587  -0.59056  -0.59019  -0.58692
 Alpha  occ. eigenvalues --   -0.58249  -0.58166  -0.56925  -0.56798  -0.56455
 Alpha  occ. eigenvalues --   -0.56409  -0.56246  -0.56048  -0.55909  -0.55899
 Alpha  occ. eigenvalues --   -0.55630  -0.55280  -0.54726  -0.54175  -0.53971
 Alpha  occ. eigenvalues --   -0.53752  -0.53305  -0.52895  -0.52278  -0.52117
 Alpha  occ. eigenvalues --   -0.51834  -0.51392  -0.51284  -0.51162  -0.50707
 Alpha  occ. eigenvalues --   -0.50134  -0.50089  -0.49436  -0.49152  -0.48920
 Alpha  occ. eigenvalues --   -0.48845  -0.48416  -0.48213  -0.47840  -0.47535
 Alpha  occ. eigenvalues --   -0.47437  -0.47391  -0.46913  -0.46882  -0.46655
 Alpha  occ. eigenvalues --   -0.46576  -0.46235  -0.46115  -0.45885  -0.45649
 Alpha  occ. eigenvalues --   -0.45462  -0.45385  -0.45307  -0.45124  -0.45072
 Alpha  occ. eigenvalues --   -0.44903  -0.44771  -0.44617  -0.44447  -0.44373
 Alpha  occ. eigenvalues --   -0.44046  -0.43995  -0.43772  -0.43631  -0.43578
 Alpha  occ. eigenvalues --   -0.43290  -0.42995  -0.42857  -0.42747  -0.42530
 Alpha  occ. eigenvalues --   -0.42351  -0.42089  -0.41985  -0.41944  -0.41776
 Alpha  occ. eigenvalues --   -0.41746  -0.41496  -0.41379  -0.41232  -0.41199
 Alpha  occ. eigenvalues --   -0.41016  -0.40773  -0.40666  -0.40554  -0.40432
 Alpha  occ. eigenvalues --   -0.40302  -0.40172  -0.40014  -0.39849  -0.39791
 Alpha  occ. eigenvalues --   -0.39727  -0.39496  -0.39466  -0.39338  -0.39090
 Alpha  occ. eigenvalues --   -0.38759  -0.38656  -0.38461  -0.38229  -0.38089
 Alpha  occ. eigenvalues --   -0.38009  -0.37577  -0.37534  -0.37348  -0.37300
 Alpha  occ. eigenvalues --   -0.37250  -0.36804  -0.36778  -0.36470  -0.36397
 Alpha  occ. eigenvalues --   -0.36233  -0.36217  -0.36192  -0.36163  -0.35769
 Alpha  occ. eigenvalues --   -0.35572  -0.35552  -0.35488  -0.35058  -0.34817
 Alpha  occ. eigenvalues --   -0.34678  -0.34575  -0.34400  -0.33983  -0.33964
 Alpha  occ. eigenvalues --   -0.33791  -0.33628  -0.33453  -0.33408  -0.33271
 Alpha  occ. eigenvalues --   -0.32183  -0.32062  -0.31891  -0.31724  -0.31311
 Alpha  occ. eigenvalues --   -0.30941  -0.30794  -0.30395  -0.30223  -0.29560
 Alpha  occ. eigenvalues --   -0.29417  -0.28958  -0.28616  -0.28098  -0.27459
 Alpha  occ. eigenvalues --   -0.27273  -0.26930  -0.26796  -0.26751  -0.26463
 Alpha  occ. eigenvalues --   -0.26162  -0.26014  -0.25924  -0.25896  -0.25610
 Alpha  occ. eigenvalues --   -0.25274  -0.24988  -0.24583  -0.24334  -0.23812
 Alpha  occ. eigenvalues --   -0.23798  -0.23745  -0.23441  -0.23322  -0.23114
 Alpha  occ. eigenvalues --   -0.22988  -0.22779  -0.22578  -0.22281  -0.21562
 Alpha  occ. eigenvalues --   -0.21173  -0.21155  -0.20717  -0.20042  -0.17585
 Alpha  occ. eigenvalues --   -0.13070  -0.12871  -0.10665
 Alpha virt. eigenvalues --   -0.09687  -0.09304  -0.03580  -0.03130  -0.02756
 Alpha virt. eigenvalues --   -0.02506  -0.01987  -0.01641  -0.00826  -0.00378
 Alpha virt. eigenvalues --   -0.00041   0.00218   0.00224   0.00769   0.00880
 Alpha virt. eigenvalues --    0.00898   0.01313   0.01643   0.01831   0.02613
 Alpha virt. eigenvalues --    0.02837   0.03063   0.03158   0.03760   0.03838
 Alpha virt. eigenvalues --    0.04274   0.04524   0.04669   0.04751   0.05018
 Alpha virt. eigenvalues --    0.05139   0.05223   0.05289   0.05560   0.05927
 Alpha virt. eigenvalues --    0.06374   0.06536   0.06627   0.06800   0.06927
 Alpha virt. eigenvalues --    0.06981   0.07628   0.07676   0.07891   0.07962
 Alpha virt. eigenvalues --    0.08121   0.08425   0.08560   0.08693   0.08983
 Alpha virt. eigenvalues --    0.09255   0.09801   0.09965   0.10353   0.10558
 Alpha virt. eigenvalues --    0.10721   0.10834   0.10916   0.11007   0.11121
 Alpha virt. eigenvalues --    0.11503   0.11649   0.11718   0.11910   0.12159
 Alpha virt. eigenvalues --    0.12332   0.12359   0.12435   0.12632   0.12930
 Alpha virt. eigenvalues --    0.13044   0.13231   0.13363   0.13444   0.13583
 Alpha virt. eigenvalues --    0.13781   0.13912   0.14091   0.14330   0.14416
 Alpha virt. eigenvalues --    0.14571   0.14622   0.14904   0.14929   0.15089
 Alpha virt. eigenvalues --    0.15374   0.15383   0.15593   0.15786   0.15830
 Alpha virt. eigenvalues --    0.16004   0.16087   0.16181   0.16212   0.16237
 Alpha virt. eigenvalues --    0.16394   0.16469   0.16509   0.16695   0.16950
 Alpha virt. eigenvalues --    0.16959   0.17246   0.17382   0.17810   0.18067
 Alpha virt. eigenvalues --    0.18114   0.18349   0.18620   0.18672   0.18756
 Alpha virt. eigenvalues --    0.19094   0.19596   0.19786   0.19968   0.20047
 Alpha virt. eigenvalues --    0.20240   0.20684   0.20945   0.21135   0.21319
 Alpha virt. eigenvalues --    0.21390   0.21607   0.21638   0.21850   0.22180
 Alpha virt. eigenvalues --    0.22480   0.22651   0.22868   0.23196   0.23341
 Alpha virt. eigenvalues --    0.23539   0.23953   0.24025   0.24380   0.24567
 Alpha virt. eigenvalues --    0.24747   0.24805   0.24946   0.25071   0.25505
 Alpha virt. eigenvalues --    0.25602   0.26001   0.26056   0.26200   0.26796
 Alpha virt. eigenvalues --    0.27382   0.27579   0.27745   0.27998   0.28074
 Alpha virt. eigenvalues --    0.28255   0.28398   0.28782   0.28870   0.28979
 Alpha virt. eigenvalues --    0.29064   0.29190   0.29480   0.29641   0.29718
 Alpha virt. eigenvalues --    0.30166   0.30688   0.31160   0.31258   0.31526
 Alpha virt. eigenvalues --    0.31807   0.32001   0.32482   0.32499   0.32899
 Alpha virt. eigenvalues --    0.33440   0.33644   0.33819   0.34325   0.34660
 Alpha virt. eigenvalues --    0.34691   0.34902   0.35317   0.35461   0.35729
 Alpha virt. eigenvalues --    0.35847   0.36122   0.36449   0.36905   0.37306
 Alpha virt. eigenvalues --    0.37560   0.37590   0.38153   0.38367   0.38519
 Alpha virt. eigenvalues --    0.38710   0.38875   0.39415   0.39503   0.39714
 Alpha virt. eigenvalues --    0.40372   0.40520   0.40871   0.41142   0.41258
 Alpha virt. eigenvalues --    0.41555   0.41850   0.42067   0.42136   0.42590
 Alpha virt. eigenvalues --    0.42615   0.42625   0.43006   0.43183   0.43336
 Alpha virt. eigenvalues --    0.43515   0.43849   0.44019   0.44389   0.44437
 Alpha virt. eigenvalues --    0.44521   0.44758   0.44956   0.45129   0.45437
 Alpha virt. eigenvalues --    0.45719   0.45820   0.46029   0.46167   0.46416
 Alpha virt. eigenvalues --    0.46591   0.46638   0.46852   0.46929   0.47038
 Alpha virt. eigenvalues --    0.47276   0.47511   0.47538   0.47702   0.48013
 Alpha virt. eigenvalues --    0.48223   0.48444   0.48496   0.48594   0.49052
 Alpha virt. eigenvalues --    0.49368   0.49639   0.49889   0.50021   0.50316
 Alpha virt. eigenvalues --    0.50694   0.50800   0.50984   0.51246   0.51434
 Alpha virt. eigenvalues --    0.51461   0.51650   0.52182   0.52525   0.52602
 Alpha virt. eigenvalues --    0.52818   0.52995   0.53088   0.53229   0.53460
 Alpha virt. eigenvalues --    0.53486   0.53609   0.53895   0.53964   0.54119
 Alpha virt. eigenvalues --    0.54310   0.54441   0.54749   0.54938   0.54952
 Alpha virt. eigenvalues --    0.55300   0.55470   0.55672   0.56002   0.56104
 Alpha virt. eigenvalues --    0.56298   0.56491   0.56644   0.56780   0.56857
 Alpha virt. eigenvalues --    0.57093   0.57358   0.57594   0.57892   0.58121
 Alpha virt. eigenvalues --    0.58367   0.58472   0.58689   0.58860   0.59014
 Alpha virt. eigenvalues --    0.59129   0.59352   0.59453   0.59662   0.59852
 Alpha virt. eigenvalues --    0.59929   0.60078   0.60378   0.60412   0.60557
 Alpha virt. eigenvalues --    0.60703   0.60931   0.61140   0.61184   0.61299
 Alpha virt. eigenvalues --    0.61348   0.61517   0.61802   0.61909   0.62130
 Alpha virt. eigenvalues --    0.62274   0.62315   0.62394   0.62471   0.62652
 Alpha virt. eigenvalues --    0.62679   0.62737   0.62948   0.63089   0.63202
 Alpha virt. eigenvalues --    0.63408   0.63458   0.63616   0.63714   0.63799
 Alpha virt. eigenvalues --    0.64086   0.64140   0.64292   0.64421   0.64461
 Alpha virt. eigenvalues --    0.64534   0.64627   0.64724   0.64792   0.64925
 Alpha virt. eigenvalues --    0.64986   0.65248   0.65309   0.65442   0.65468
 Alpha virt. eigenvalues --    0.65690   0.65828   0.65850   0.65929   0.66026
 Alpha virt. eigenvalues --    0.66104   0.66363   0.66390   0.66520   0.66630
 Alpha virt. eigenvalues --    0.66673   0.66841   0.66907   0.67149   0.67182
 Alpha virt. eigenvalues --    0.67236   0.67323   0.67438   0.67605   0.67790
 Alpha virt. eigenvalues --    0.67878   0.67930   0.67984   0.68034   0.68110
 Alpha virt. eigenvalues --    0.68247   0.68395   0.68476   0.68514   0.68704
 Alpha virt. eigenvalues --    0.68712   0.68873   0.68947   0.69031   0.69069
 Alpha virt. eigenvalues --    0.69166   0.69421   0.69624   0.69746   0.69854
 Alpha virt. eigenvalues --    0.69959   0.70100   0.70142   0.70203   0.70280
 Alpha virt. eigenvalues --    0.70449   0.70592   0.70728   0.70812   0.70981
 Alpha virt. eigenvalues --    0.71242   0.71273   0.71453   0.71743   0.71890
 Alpha virt. eigenvalues --    0.72047   0.72277   0.72352   0.72368   0.72494
 Alpha virt. eigenvalues --    0.72538   0.72719   0.72862   0.72986   0.73084
 Alpha virt. eigenvalues --    0.73276   0.73342   0.73469   0.73570   0.73926
 Alpha virt. eigenvalues --    0.74075   0.74156   0.74350   0.74608   0.74804
 Alpha virt. eigenvalues --    0.75125   0.75200   0.75294   0.75806   0.75998
 Alpha virt. eigenvalues --    0.76052   0.76384   0.76869   0.76985   0.77102
 Alpha virt. eigenvalues --    0.77283   0.77379   0.77539   0.77584   0.78035
 Alpha virt. eigenvalues --    0.78352   0.78557   0.78659   0.78741   0.79368
 Alpha virt. eigenvalues --    0.79616   0.79870   0.80305   0.80356   0.80530
 Alpha virt. eigenvalues --    0.80879   0.80988   0.81159   0.81343   0.81997
 Alpha virt. eigenvalues --    0.82168   0.82344   0.82804   0.83058   0.83308
 Alpha virt. eigenvalues --    0.83474   0.84027   0.84305   0.85070   0.85350
 Alpha virt. eigenvalues --    0.85514   0.85867   0.85993   0.86266   0.86536
 Alpha virt. eigenvalues --    0.86809   0.86893   0.87303   0.87369   0.87836
 Alpha virt. eigenvalues --    0.88527   0.88890   0.89178   0.89511   0.89843
 Alpha virt. eigenvalues --    0.90074   0.90136   0.90362   0.90385   0.90774
 Alpha virt. eigenvalues --    0.90895   0.91123   0.91335   0.91471   0.91712
 Alpha virt. eigenvalues --    0.91990   0.92505   0.92768   0.92901   0.93476
 Alpha virt. eigenvalues --    0.93803   0.93873   0.94173   0.94374   0.94530
 Alpha virt. eigenvalues --    0.94720   0.94863   0.95170   0.95397   0.95650
 Alpha virt. eigenvalues --    0.95885   0.96110   0.96519   0.96824   0.97061
 Alpha virt. eigenvalues --    0.97281   0.97471   0.97874   0.98355   0.98383
 Alpha virt. eigenvalues --    0.99101   0.99441   0.99646   0.99710   1.00116
 Alpha virt. eigenvalues --    1.00304   1.00633   1.00887   1.01007   1.01110
 Alpha virt. eigenvalues --    1.01581   1.01858   1.01927   1.02127   1.02744
 Alpha virt. eigenvalues --    1.03045   1.03334   1.04163   1.04280   1.04658
 Alpha virt. eigenvalues --    1.04771   1.05198   1.05548   1.05668   1.05954
 Alpha virt. eigenvalues --    1.06480   1.06610   1.06880   1.07210   1.07276
 Alpha virt. eigenvalues --    1.07793   1.08042   1.08252   1.08570   1.08643
 Alpha virt. eigenvalues --    1.08983   1.09258   1.09344   1.09617   1.09686
 Alpha virt. eigenvalues --    1.10276   1.10533   1.10696   1.11132   1.11390
 Alpha virt. eigenvalues --    1.11554   1.11789   1.11983   1.12300   1.12573
 Alpha virt. eigenvalues --    1.12782   1.13003   1.13652   1.14003   1.14337
 Alpha virt. eigenvalues --    1.14777   1.14974   1.15218   1.15724   1.15770
 Alpha virt. eigenvalues --    1.16055   1.16406   1.16843   1.17122   1.17254
 Alpha virt. eigenvalues --    1.17424   1.17876   1.17972   1.18091   1.18276
 Alpha virt. eigenvalues --    1.18549   1.18772   1.18907   1.19192   1.19811
 Alpha virt. eigenvalues --    1.20095   1.20308   1.20463   1.20639   1.20864
 Alpha virt. eigenvalues --    1.21282   1.21582   1.21938   1.22284   1.22441
 Alpha virt. eigenvalues --    1.22590   1.22707   1.22884   1.23195   1.23715
 Alpha virt. eigenvalues --    1.23827   1.24058   1.24146   1.24453   1.24534
 Alpha virt. eigenvalues --    1.24655   1.24883   1.25038   1.25196   1.25399
 Alpha virt. eigenvalues --    1.25570   1.25796   1.26348   1.26500   1.27238
 Alpha virt. eigenvalues --    1.27521   1.27617   1.27769   1.28075   1.28297
 Alpha virt. eigenvalues --    1.28499   1.28782   1.28887   1.29164   1.29282
 Alpha virt. eigenvalues --    1.29612   1.29922   1.30344   1.30417   1.31021
 Alpha virt. eigenvalues --    1.31243   1.31377   1.31444   1.32300   1.32732
 Alpha virt. eigenvalues --    1.32906   1.32999   1.33201   1.33691   1.33848
 Alpha virt. eigenvalues --    1.34209   1.34654   1.35067   1.35166   1.35352
 Alpha virt. eigenvalues --    1.35891   1.35958   1.36554   1.37099   1.37161
 Alpha virt. eigenvalues --    1.37313   1.37795   1.38098   1.38345   1.38719
 Alpha virt. eigenvalues --    1.39278   1.39386   1.39672   1.39805   1.40317
 Alpha virt. eigenvalues --    1.40671   1.41046   1.41752   1.42158   1.42595
 Alpha virt. eigenvalues --    1.43187   1.43423   1.43486   1.43590   1.44289
 Alpha virt. eigenvalues --    1.44448   1.44553   1.44852   1.45040   1.45376
 Alpha virt. eigenvalues --    1.45626   1.45779   1.46139   1.46368   1.46571
 Alpha virt. eigenvalues --    1.46684   1.47261   1.47359   1.47605   1.47786
 Alpha virt. eigenvalues --    1.48029   1.48429   1.48549   1.48922   1.49433
 Alpha virt. eigenvalues --    1.49917   1.50198   1.50531   1.50611   1.51118
 Alpha virt. eigenvalues --    1.51318   1.51427   1.51968   1.52183   1.52538
 Alpha virt. eigenvalues --    1.52788   1.53451   1.53657   1.54062   1.54154
 Alpha virt. eigenvalues --    1.54246   1.54419   1.54796   1.55042   1.55176
 Alpha virt. eigenvalues --    1.55223   1.55486   1.56294   1.56782   1.57259
 Alpha virt. eigenvalues --    1.57285   1.57917   1.58452   1.58611   1.59339
 Alpha virt. eigenvalues --    1.59812   1.59976   1.60421   1.60626   1.61358
 Alpha virt. eigenvalues --    1.61871   1.62069   1.62382   1.62726   1.63182
 Alpha virt. eigenvalues --    1.63638   1.63843   1.63957   1.64299   1.64640
 Alpha virt. eigenvalues --    1.64815   1.64942   1.65079   1.65557   1.65829
 Alpha virt. eigenvalues --    1.66367   1.66535   1.66608   1.66890   1.67291
 Alpha virt. eigenvalues --    1.67478   1.67778   1.67936   1.68468   1.68604
 Alpha virt. eigenvalues --    1.68632   1.69049   1.69358   1.69479   1.69527
 Alpha virt. eigenvalues --    1.69707   1.69944   1.70317   1.70585   1.71023
 Alpha virt. eigenvalues --    1.71471   1.71501   1.71954   1.72231   1.72683
 Alpha virt. eigenvalues --    1.72838   1.72880   1.72949   1.73390   1.73727
 Alpha virt. eigenvalues --    1.74079   1.74235   1.74303   1.74494   1.74577
 Alpha virt. eigenvalues --    1.74718   1.74871   1.74987   1.75416   1.75673
 Alpha virt. eigenvalues --    1.75713   1.75879   1.76039   1.76337   1.76370
 Alpha virt. eigenvalues --    1.76492   1.76568   1.76779   1.76911   1.76950
 Alpha virt. eigenvalues --    1.77172   1.77281   1.77403   1.77545   1.77722
 Alpha virt. eigenvalues --    1.77914   1.78122   1.78481   1.78514   1.78591
 Alpha virt. eigenvalues --    1.78862   1.79119   1.79142   1.79497   1.79607
 Alpha virt. eigenvalues --    1.79662   1.79858   1.79949   1.80047   1.80258
 Alpha virt. eigenvalues --    1.80370   1.80652   1.80775   1.80912   1.80987
 Alpha virt. eigenvalues --    1.81101   1.81235   1.81671   1.82055   1.82183
 Alpha virt. eigenvalues --    1.82588   1.82659   1.82796   1.82854   1.82979
 Alpha virt. eigenvalues --    1.83195   1.83386   1.83563   1.83594   1.83773
 Alpha virt. eigenvalues --    1.84106   1.84255   1.84427   1.84488   1.84604
 Alpha virt. eigenvalues --    1.84684   1.84990   1.85072   1.85375   1.85624
 Alpha virt. eigenvalues --    1.85874   1.86231   1.86339   1.86437   1.86886
 Alpha virt. eigenvalues --    1.87364   1.87474   1.87572   1.87977   1.88117
 Alpha virt. eigenvalues --    1.88305   1.88759   1.88840   1.89010   1.89290
 Alpha virt. eigenvalues --    1.89481   1.89542   1.89674   1.89874   1.90136
 Alpha virt. eigenvalues --    1.90299   1.90450   1.90677   1.90752   1.90939
 Alpha virt. eigenvalues --    1.91238   1.91262   1.91431   1.91706   1.91746
 Alpha virt. eigenvalues --    1.92141   1.92266   1.92303   1.92559   1.92652
 Alpha virt. eigenvalues --    1.93088   1.93304   1.93678   1.93970   1.94015
 Alpha virt. eigenvalues --    1.94146   1.94311   1.94511   1.94718   1.94863
 Alpha virt. eigenvalues --    1.95073   1.95379   1.95543   1.95792   1.95865
 Alpha virt. eigenvalues --    1.96059   1.96277   1.96340   1.96846   1.96986
 Alpha virt. eigenvalues --    1.97265   1.97542   1.97686   1.97937   1.98518
 Alpha virt. eigenvalues --    1.98874   1.99206   1.99288   1.99501   1.99799
 Alpha virt. eigenvalues --    2.00028   2.00037   2.00175   2.00216   2.00617
 Alpha virt. eigenvalues --    2.00977   2.01230   2.01412   2.01722   2.01828
 Alpha virt. eigenvalues --    2.01962   2.01974   2.02425   2.02612   2.02803
 Alpha virt. eigenvalues --    2.03326   2.03623   2.04148   2.04254   2.04449
 Alpha virt. eigenvalues --    2.04713   2.05081   2.05184   2.05399   2.06048
 Alpha virt. eigenvalues --    2.06376   2.06780   2.06885   2.06946   2.06992
 Alpha virt. eigenvalues --    2.07253   2.07890   2.08233   2.08830   2.09041
 Alpha virt. eigenvalues --    2.09127   2.09603   2.09664   2.09849   2.10139
 Alpha virt. eigenvalues --    2.10577   2.10676   2.11001   2.11058   2.11166
 Alpha virt. eigenvalues --    2.11237   2.11618   2.12015   2.12135   2.12594
 Alpha virt. eigenvalues --    2.12678   2.13221   2.13403   2.13699   2.13957
 Alpha virt. eigenvalues --    2.14335   2.14724   2.14874   2.15198   2.15521
 Alpha virt. eigenvalues --    2.15834   2.15987   2.16460   2.16639   2.16728
 Alpha virt. eigenvalues --    2.17023   2.17282   2.17422   2.17519   2.18053
 Alpha virt. eigenvalues --    2.18075   2.18412   2.18793   2.19199   2.19276
 Alpha virt. eigenvalues --    2.19655   2.20319   2.20449   2.20591   2.21026
 Alpha virt. eigenvalues --    2.21477   2.21524   2.22386   2.23029   2.23309
 Alpha virt. eigenvalues --    2.23322   2.23865   2.24086   2.24409   2.24712
 Alpha virt. eigenvalues --    2.24835   2.25238   2.25681   2.26019   2.26071
 Alpha virt. eigenvalues --    2.26428   2.26891   2.27077   2.27543   2.28073
 Alpha virt. eigenvalues --    2.28147   2.28594   2.29137   2.29191   2.29596
 Alpha virt. eigenvalues --    2.29792   2.29924   2.30082   2.30559   2.30692
 Alpha virt. eigenvalues --    2.30917   2.31227   2.31337   2.31663   2.31749
 Alpha virt. eigenvalues --    2.31857   2.32159   2.32515   2.32628   2.33144
 Alpha virt. eigenvalues --    2.33858   2.34277   2.34515   2.35112   2.35255
 Alpha virt. eigenvalues --    2.35488   2.35881   2.36268   2.36512   2.36971
 Alpha virt. eigenvalues --    2.37247   2.37459   2.38044   2.38267   2.38597
 Alpha virt. eigenvalues --    2.38763   2.39204   2.39378   2.39590   2.39794
 Alpha virt. eigenvalues --    2.40070   2.40401   2.40765   2.40981   2.41104
 Alpha virt. eigenvalues --    2.41426   2.42388   2.42614   2.42679   2.43302
 Alpha virt. eigenvalues --    2.43572   2.44195   2.44744   2.45062   2.45469
 Alpha virt. eigenvalues --    2.45496   2.45812   2.46200   2.46963   2.47938
 Alpha virt. eigenvalues --    2.48184   2.48527   2.48658   2.49006   2.49508
 Alpha virt. eigenvalues --    2.49897   2.50004   2.50517   2.50698   2.50945
 Alpha virt. eigenvalues --    2.51757   2.52326   2.52672   2.52892   2.53121
 Alpha virt. eigenvalues --    2.53494   2.53760   2.54493   2.54682   2.55034
 Alpha virt. eigenvalues --    2.55486   2.55561   2.56270   2.56281   2.56669
 Alpha virt. eigenvalues --    2.56791   2.56836   2.57204   2.57602   2.58447
 Alpha virt. eigenvalues --    2.58582   2.59007   2.59485   2.59506   2.59605
 Alpha virt. eigenvalues --    2.60262   2.60441   2.60640   2.60824   2.60842
 Alpha virt. eigenvalues --    2.61040   2.61591   2.62193   2.62233   2.62269
 Alpha virt. eigenvalues --    2.62578   2.63035   2.63139   2.63564   2.63885
 Alpha virt. eigenvalues --    2.64057   2.64414   2.64875   2.65433   2.65467
 Alpha virt. eigenvalues --    2.65558   2.66569   2.66889   2.67164   2.67273
 Alpha virt. eigenvalues --    2.67716   2.67739   2.68038   2.68526   2.69054
 Alpha virt. eigenvalues --    2.69253   2.69383   2.69736   2.70026   2.70599
 Alpha virt. eigenvalues --    2.70686   2.70974   2.71298   2.71511   2.71805
 Alpha virt. eigenvalues --    2.71865   2.71937   2.72329   2.72474   2.72658
 Alpha virt. eigenvalues --    2.72939   2.73832   2.74192   2.74672   2.75020
 Alpha virt. eigenvalues --    2.75170   2.75451   2.76181   2.76411   2.76431
 Alpha virt. eigenvalues --    2.76921   2.77413   2.77600   2.77775   2.77972
 Alpha virt. eigenvalues --    2.78070   2.78293   2.78475   2.78938   2.79187
 Alpha virt. eigenvalues --    2.79307   2.79589   2.79666   2.80050   2.80444
 Alpha virt. eigenvalues --    2.80788   2.80866   2.81153   2.81365   2.81489
 Alpha virt. eigenvalues --    2.81599   2.82340   2.82644   2.82720   2.83235
 Alpha virt. eigenvalues --    2.83278   2.83457   2.83719   2.83764   2.83852
 Alpha virt. eigenvalues --    2.84081   2.84252   2.84446   2.84974   2.85053
 Alpha virt. eigenvalues --    2.85491   2.86065   2.86133   2.86511   2.86762
 Alpha virt. eigenvalues --    2.86969   2.87378   2.87522   2.87695   2.88235
 Alpha virt. eigenvalues --    2.88349   2.88522   2.88558   2.89198   2.89244
 Alpha virt. eigenvalues --    2.89481   2.89494   2.89551   2.89861   2.90054
 Alpha virt. eigenvalues --    2.90330   2.90730   2.90969   2.91580   2.92262
 Alpha virt. eigenvalues --    2.92503   2.92658   2.93418   2.93869   2.94074
 Alpha virt. eigenvalues --    2.94320   2.95038   2.95261   2.95752   2.95853
 Alpha virt. eigenvalues --    2.96559   2.96791   2.96942   2.97125   2.97377
 Alpha virt. eigenvalues --    2.97651   2.97829   2.98408   2.98594   2.99151
 Alpha virt. eigenvalues --    2.99301   2.99515   2.99706   3.00032   3.00172
 Alpha virt. eigenvalues --    3.01314   3.01959   3.02132   3.02396   3.02509
 Alpha virt. eigenvalues --    3.02782   3.03184   3.03374   3.04461   3.05199
 Alpha virt. eigenvalues --    3.05338   3.05523   3.05919   3.06000   3.06685
 Alpha virt. eigenvalues --    3.06858   3.06986   3.07709   3.08269   3.08602
 Alpha virt. eigenvalues --    3.09319   3.09618   3.09937   3.10545   3.11396
 Alpha virt. eigenvalues --    3.11511   3.11573   3.11821   3.12044   3.12964
 Alpha virt. eigenvalues --    3.13096   3.13771   3.14283   3.14522   3.14651
 Alpha virt. eigenvalues --    3.15101   3.15179   3.15797   3.15951   3.16404
 Alpha virt. eigenvalues --    3.17140   3.17439   3.17634   3.17764   3.17884
 Alpha virt. eigenvalues --    3.17998   3.18605   3.18921   3.19689   3.19782
 Alpha virt. eigenvalues --    3.19848   3.20257   3.20335   3.20701   3.21000
 Alpha virt. eigenvalues --    3.21213   3.22362   3.22608   3.23014   3.23208
 Alpha virt. eigenvalues --    3.24116   3.24811   3.25160   3.25402   3.25661
 Alpha virt. eigenvalues --    3.25784   3.26399   3.26698   3.27050   3.27796
 Alpha virt. eigenvalues --    3.28343   3.28590   3.30483   3.30596   3.31152
 Alpha virt. eigenvalues --    3.31266   3.32729   3.33990   3.36201   3.36529
 Alpha virt. eigenvalues --    3.38699   3.38841   3.39646   3.46456   3.51700
 Alpha virt. eigenvalues --    3.51854   3.53795   3.54405   3.54524   3.56048
 Alpha virt. eigenvalues --    3.56352   3.56764   3.57223   3.57837   3.58583
 Alpha virt. eigenvalues --    3.59696   3.60375   3.60713   3.61966   3.62665
 Alpha virt. eigenvalues --    3.65204   3.65868   3.66511   3.67859   3.68058
 Alpha virt. eigenvalues --    3.68413   3.68466   3.68513   3.68661   3.69141
 Alpha virt. eigenvalues --    3.69705   3.69761   3.70092   3.70278   3.70837
 Alpha virt. eigenvalues --    3.71179   3.71627   3.72188   3.73483   3.75163
 Alpha virt. eigenvalues --    3.75690   3.76250   3.79008   3.82287
          Condensed to atoms (all electrons):
 Mulliken charges:
               1
     1  C    0.058486
     2  C    0.020373
     3  O   -0.309221
     4  H   -0.005280
     5  H    0.034070
     6  H    0.028154
     7  N   -0.100022
     8  C    0.131532
     9  C    0.063301
    10  O   -0.315928
    11  C    0.031460
    12  C    0.054681
    13  O   -0.396404
    14  O   -0.346566
    15  H    0.113703
    16  H   -0.021712
    17  H   -0.009368
    18  H   -0.011935
    19  N   -0.100328
    20  C    0.134797
    21  C    0.035898
    22  O   -0.315215
    23  C    0.016273
    24  C   -0.004009
    25  C   -0.008094
    26  C    0.005274
    27  N    0.118422
    28  H    0.123422
    29  H    0.019809
    30  H    0.021588
    31  H    0.015843
    32  H    0.010670
    33  H    0.021449
    34  H    0.021721
    35  H    0.030435
    36  H    0.074913
    37  H    0.061259
    38  H    0.171758
    39  H    0.156715
    40  H    0.164481
    41  N   -0.089637
    42  C    0.117305
    43  C    0.017747
    44  O   -0.268433
    45  C    0.087350
    46  C    0.123287
    47  O   -0.432031
    48  O   -0.394977
    49  H    0.148874
    50  H    0.014767
    51  H    0.004975
    52  H   -0.000655
    53  N   -0.163200
    54  C    0.300014
    55  C   -0.012536
    56  O   -0.270977
    57  H    0.139824
    58  H    0.032781
    59  H    0.004916
    60  N   -0.136655
    61  C    0.121632
    62  C    0.098211
    63  O   -0.322131
    64  C    0.052520
    65  C    0.069813
    66  N   -0.022319
    67  O   -0.343205
    68  H    0.112714
    69  H    0.030185
    70  H    0.064797
    71  H    0.000139
    72  H    0.105666
    73  H    0.161409
    74  N   -0.100784
    75  C    0.234539
    76  C    0.035762
    77  O   -0.277414
    78  H    0.127443
    79  H    0.000592
    80  H    0.044395
    81  N   -0.122784
    82  C    0.110070
    83  C    0.107731
    84  O   -0.310287
    85  C    0.166244
    86  C   -0.045340
    87  C    0.000802
    88  C   -0.002572
    89  C   -0.023733
    90  C   -0.032766
    91  C    0.157809
    92  O   -0.205300
    93  H    0.122676
    94  H    0.022920
    95  H    0.009235
    96  H   -0.020737
    97  H   -0.005606
    98  H   -0.029594
    99  H   -0.022309
   100  H   -0.049258
   101  H    0.176713
   102  N   -0.108109
   103  C    0.162736
   104  C    0.000148
   105  O   -0.274722
   106  C   -0.116240
   107  C   -0.018219
   108  C    0.109683
   109  C    0.026848
   110  H    0.131847
   111  H    0.000688
   112  H   -0.009431
   113  H    0.009552
   114  H   -0.001695
   115  H    0.031009
   116  H    0.016062
   117  H   -0.023203
   118  H    0.001900
   119  H    0.037025
   120  H   -0.002152
   121  N   -0.145598
   122  C    0.102690
   123  C    0.054496
   124  O   -0.262856
   125  C    0.243840
   126  O   -0.311365
   127  H    0.126059
   128  H    0.021467
   129  H   -0.010378
   130  H    0.023188
   131  H    0.176407
   132  N   -0.163242
   133  C    0.049138
   134  C    0.073045
   135  O   -0.263836
   136  C    0.101812
   137  H    0.109332
   138  H    0.029134
   139  H    0.022039
   140  H   -0.020643
   141  H    0.022661
   142  N   -0.110263
   143  C    0.054567
   144  C    0.079330
   145  O   -0.256800
   146  C    0.058072
   147  H    0.130679
   148  H   -0.000187
   149  H   -0.010864
   150  H    0.042386
   151  H    0.031353
   152  N   -0.152164
   153  C    0.153575
   154  C    0.065684
   155  O   -0.297264
   156  C   -0.031802
   157  C    0.147914
   158  C    0.025907
   159  O   -0.456899
   160  O   -0.400230
   161  H    0.119389
   162  H   -0.000358
   163  H    0.022526
   164  H    0.030850
   165  H   -0.032644
   166  H   -0.031197
   167  N   -0.137981
   168  C    0.116403
   169  H    0.020492
   170  H    0.011000
   171  H    0.047285
   172  H    0.115930
   173  Ca   1.386939
   174  O   -0.320699
   175  H    0.214768
   176  H    0.196160
 Sum of Mulliken charges =  -0.00000
 Mulliken charges with hydrogens summed into heavy atoms:
               1
     1  C    0.115431
     2  C    0.020373
     3  O   -0.309221
     7  N    0.013681
     8  C    0.109820
     9  C    0.063301
    10  O   -0.315928
    11  C    0.010157
    12  C    0.054681
    13  O   -0.396404
    14  O   -0.346566
    19  N    0.023094
    20  C    0.154606
    21  C    0.035898
    22  O   -0.315215
    23  C    0.053703
    24  C    0.028110
    25  C    0.044061
    26  C    0.141446
    27  N    0.611377
    41  N    0.059237
    42  C    0.132072
    43  C    0.017747
    44  O   -0.268433
    45  C    0.091670
    46  C    0.123287
    47  O   -0.432031
    48  O   -0.394977
    53  N   -0.023376
    54  C    0.337711
    55  C   -0.012536
    56  O   -0.270977
    60  N   -0.023941
    61  C    0.151817
    62  C    0.098211
    63  O   -0.322131
    64  C    0.117456
    65  C    0.069813
    66  N    0.244757
    67  O   -0.343205
    74  N    0.026659
    75  C    0.279526
    76  C    0.035762
    77  O   -0.277414
    81  N   -0.000108
    82  C    0.132990
    83  C    0.107731
    84  O   -0.310287
    85  C    0.154742
    86  C   -0.045340
    87  C   -0.004804
    88  C   -0.032166
    89  C   -0.046042
    90  C   -0.082023
    91  C    0.157809
    92  O   -0.028586
   102  N    0.023738
   103  C    0.163423
   104  C    0.000148
   105  O   -0.274722
   106  C   -0.125671
   107  C   -0.010362
   108  C    0.133550
   109  C    0.063622
   121  N   -0.019540
   122  C    0.124157
   123  C    0.054496
   124  O   -0.262856
   125  C    0.256650
   126  O   -0.134958
   132  N   -0.053909
   133  C    0.078272
   134  C    0.073045
   135  O   -0.263836
   136  C    0.125870
   142  N    0.020416
   143  C    0.054380
   144  C    0.079330
   145  O   -0.256800
   146  C    0.120947
   152  N   -0.032774
   153  C    0.153217
   154  C    0.065684
   155  O   -0.297264
   156  C    0.021574
   157  C    0.084073
   158  C    0.025907
   159  O   -0.456899
   160  O   -0.400230
   167  N   -0.022051
   168  C    0.195180
   173  Ca   1.386939
   174  O    0.090230
 DipInt: DoE/N= T F RetVal/Mat= T F Init=T NMatP=  1 IDeriv=0 Min/MaxMlt=  0  4
 Entering OneElI...
 OneElI was handed  1333951383 working-precision words.
 Multipole integrals L=0 to 4 MinM= 0 MaxM= 0.
 Requested accuracy = 0.1000D-12
 ShPair: Thresh= 1.00D-13 NBox=     0 BxSize= 0.00D+00 RnKept= 2.63D+01
         NSMCal=               327645 NSMKep=              120154
 PrmmSu-InSpLW:  IPartL=    0 NPrtUS=    1 NPrtUL=    1 DoSpLW=F IThBeg=    0 IThEnd=    0 NThAct=    1.
 PrsmSu:  NPrtUS=   1 ThrOK=F IAlg=1 NPAlg=1 LenDen=           0 ISkipM=0 DoSpLW=F IThBeg=    0 IThEnd=    0.
 Prism:   IPart=     0 DynPar=F LinDyn=F Incr=         512.
 PRISM was handed  1325427285 working-precision words and120154 shell-pairs
 IPart=  0 NShTot=      120154 NBatch=         285 AvBLen=       421.6
 PrsmSu-ThDecC:  IPartSL=    0    0 NPrtUSL=    1    1 IThBeg=    0 IThEnd=    0 CPU=   -1 GPU=   -1 NThAct=    1.
 PrSmSu:  NxtVal=            513.
 Electronic moments (au):
       -716.00000000          2.78229869          9.41111768         -7.74839433
    -101695.07967927     -43644.53047021     -11072.35680911       -260.68814318
         65.53506011        -52.28646029     427566.54122983     -50606.62403053
     -10819.34811298    -191189.05583574     146904.13941702    -103779.38556099
      47242.19812110      -8812.52517437      16001.68097556     -76881.05761159
  -26791706.28555957   -6509691.35067538    -551908.50235815    -104599.99455323
    1673713.30066009    1081194.27472821    -655722.96618954     262779.69851531
      60712.14913466   -5108495.62910947   -1885485.46738493    -529332.56267446
      67539.43036147     158259.77765006      83258.48580800
 Electronic spatial extent (au):  <R**2>=         156411.9670
 DipInt: DoE/N= F T RetVal/Mat= T F Init=T NMatP=  1 IDeriv=0 Min/MaxMlt=  0  4
 Nuclear    moments (au):
        716.00000000          0.00000000         -0.00000000          0.00000000
     101231.58954543      43216.09509398      10739.67201636         -0.00000000
         -0.00000000          0.00000000    -426783.95703156      51723.14414409
      10138.61466569     190830.29449056    -143134.70267942     102299.20933940
     -47539.23207473       9283.29316377     -16864.00836806      77815.74150755
   26421532.78534722    6358239.11333881     523466.29073586      16220.98275775
   -1647166.68238302   -1105384.55978326     651683.20721116    -264243.98238023
     -63986.58622093    5024244.66697239    1829776.16139870     502817.67256308
     -76192.00241005    -153299.69103200     -87680.05704854
 Total      moments (au):
         -0.00000000          2.78229869          9.41111768         -7.74839433
       -463.49013385       -428.43537623       -332.68479275       -260.68814318
         65.53506011        -52.28646029        782.58419827       1116.52011356
       -680.73344729       -358.76134517       3769.43673761      -1480.17622159
       -297.03395363        470.76798941       -862.32739250        934.68389597
    -370173.50021235    -151452.23733657     -28442.21162230     -88379.01179548
      26546.61827708     -24190.28505505      -4039.75897838      -1464.28386493
      -3274.43708627     -84250.96213709     -55709.30598623     -26514.89011138
      -8652.57204857       4960.08661806      -4421.57124054
 Traceless Quadrup. (au):
        -55.28669957        -20.23194195         75.51864153       -260.68814318
         65.53506011        -52.28646029
 Charge=             -0.0000 electrons
 Dipole moment (field-independent basis, Debye):
    X=              7.0719    Y=             23.9207    Z=            -19.6945  Tot=             31.7818
 Quadrupole moment (field-independent basis, Debye-Ang):
   XX=           -623.4101   YY=           -576.2603   ZZ=           -447.4724
   XY=           -350.6345   XZ=             88.1469   YZ=            -70.3271
 Traceless Quadrupole moment (field-independent basis, Debye-Ang):
   XX=            -74.3625   YY=            -27.2127   ZZ=            101.5752
   XY=           -350.6345   XZ=             88.1469   YZ=            -70.3271
 Octapole moment (field-independent basis, Debye-Ang**2):
  XXX=            557.0133  YYY=            794.6960  ZZZ=           -484.5198  XYY=           -255.3525
  XXY=           2682.9398  XXZ=          -1053.5324  XZZ=           -211.4173  YZZ=            335.0745
  YYZ=           -613.7714  XYZ=            665.2720
 Hexadecapole moment (field-independent basis, Debye-Ang**3):
 XXXX=        -139425.0906 YYYY=         -57044.1750 ZZZZ=         -10712.7007 XXXY=         -33287.7738
 XXXZ=           9998.7294 YYYX=          -9111.2213 YYYZ=          -1521.5669 ZZZX=           -551.5195
 ZZZY=          -1233.3100 XXYY=         -31732.9523 XXZZ=         -20982.7960 YYZZ=          -9986.7790
 XXYZ=          -3258.9735 YYXZ=           1868.2065 ZZXY=          -1665.3758
 N-N= 1.875021491412D+04 E-N=-4.997919623370D+04  KE= 5.290537217521D+03
 Leave Link  601 at Tue Sep 17 10:20:24 2019, MaxMem=  1342177280 cpu:              41.0 elap:               1.0
 FitSet:  NAtFit=   176 NAtPot=   176 NAtFrz=     0 MDM=   180 TotChg=   0.00000
 Merz-Kollman atomic radii used.
 Read replacement radii for each type of atom:
 Rad(20) =   1.700000000000D+00
 Atom Element Radius
    1     6    1.50
    2     6    1.50
    3     8    1.40
    4     1    1.20
    5     1    1.20
    6     1    1.20
    7     7    1.50
    8     6    1.50
    9     6    1.50
   10     8    1.40
   11     6    1.50
   12     6    1.50
   13     8    1.40
   14     8    1.40
   15     1    1.20
   16     1    1.20
   17     1    1.20
   18     1    1.20
   19     7    1.50
   20     6    1.50
   21     6    1.50
   22     8    1.40
   23     6    1.50
   24     6    1.50
   25     6    1.50
   26     6    1.50
   27     7    1.50
   28     1    1.20
   29     1    1.20
   30     1    1.20
   31     1    1.20
   32     1    1.20
   33     1    1.20
   34     1    1.20
   35     1    1.20
   36     1    1.20
   37     1    1.20
   38     1    1.20
   39     1    1.20
   40     1    1.20
   41     7    1.50
   42     6    1.50
   43     6    1.50
   44     8    1.40
   45     6    1.50
   46     6    1.50
   47     8    1.40
   48     8    1.40
   49     1    1.20
   50     1    1.20
   51     1    1.20
   52     1    1.20
   53     7    1.50
   54     6    1.50
   55     6    1.50
   56     8    1.40
   57     1    1.20
   58     1    1.20
   59     1    1.20
   60     7    1.50
   61     6    1.50
   62     6    1.50
   63     8    1.40
   64     6    1.50
   65     6    1.50
   66     7    1.50
   67     8    1.40
   68     1    1.20
   69     1    1.20
   70     1    1.20
   71     1    1.20
   72     1    1.20
   73     1    1.20
   74     7    1.50
   75     6    1.50
   76     6    1.50
   77     8    1.40
   78     1    1.20
   79     1    1.20
   80     1    1.20
   81     7    1.50
   82     6    1.50
   83     6    1.50
   84     8    1.40
   85     6    1.50
   86     6    1.50
   87     6    1.50
   88     6    1.50
   89     6    1.50
   90     6    1.50
   91     6    1.50
   92     8    1.40
   93     1    1.20
   94     1    1.20
   95     1    1.20
   96     1    1.20
   97     1    1.20
   98     1    1.20
   99     1    1.20
  100     1    1.20
  101     1    1.20
  102     7    1.50
  103     6    1.50
  104     6    1.50
  105     8    1.40
  106     6    1.50
  107     6    1.50
  108     6    1.50
  109     6    1.50
  110     1    1.20
  111     1    1.20
  112     1    1.20
  113     1    1.20
  114     1    1.20
  115     1    1.20
  116     1    1.20
  117     1    1.20
  118     1    1.20
  119     1    1.20
  120     1    1.20
  121     7    1.50
  122     6    1.50
  123     6    1.50
  124     8    1.40
  125     6    1.50
  126     8    1.40
  127     1    1.20
  128     1    1.20
  129     1    1.20
  130     1    1.20
[...]
 **** Fit      -0.009557
 **** Fit      -0.011393
 **** Fit      -0.013398
 **** Fit      -0.015494
 **** Fit      -0.017547
 **** Fit      -0.019383
 **** Fit      -0.020824
 **** Fit      -0.021737
 **** Fit      -0.022085
 **** Fit      -0.021937
 **** Fit      -0.008060
 **** Fit      -0.009878
 **** Fit      -0.011934
 **** Fit      -0.014250
 **** Fit      -0.016794
 **** Fit      -0.019469
 **** Fit      -0.022106
 **** Fit      -0.024474
 **** Fit      -0.026322
 **** Fit      -0.027449
 **** Fit      -0.027789
 **** Fit      -0.027452
 **** Fit      -0.026694
 **** Fit      -0.010312
 **** Fit      -0.012592
 **** Fit      -0.015199
 **** Fit      -0.018156
 **** Fit      -0.021424
 **** Fit      -0.024885
 **** Fit      -0.011655
 **** Fit      -0.014380
 **** Fit      -0.017529
 **** Fit      -0.021167
 **** Fit      -0.025300
 **** Fit      -0.015432
 **** Fit      -0.019253
 **** Fit      -0.023778
 **** Fit      -0.008214
 **** Fit      -0.003712
 **** Fit      -0.019287
 **** Fit      -0.015914
 **** Fit      -0.012478
 **** Fit      -0.012616
 **** Fit      -0.006963
 **** Fit      -0.002040
 **** Fit      -0.009958
 **** Fit      -0.003803
 **** Fit       0.000798
 **** Fit      -0.012221
 **** Fit      -0.005095
 **** Fit       0.000095
 **** Fit       0.003657
 **** Fit      -0.004950
 **** Fit       0.000404
 **** Fit       0.004025
 **** Fit       0.006284
 **** Fit      -0.002567
 **** Fit       0.002361
 **** Fit       0.005599
 **** Fit       0.007476
 **** Fit      -0.003881
 **** Fit       0.001614
 **** Fit       0.005534
 **** Fit       0.008003
 **** Fit       0.009221
 **** Fit       0.003456
 **** Fit       0.006873
 **** Fit       0.009411
 **** Fit       0.010905
 **** Fit       0.011772
 **** Fit       0.013086
 **** Fit       0.014095
 **** Fit       0.014405
 **** Fit       0.019013
 **** Fit       0.008785
 **** Fit       0.012601
 **** Fit       0.020337
 **** Fit       0.016746
 **** Fit      -0.001343
 **** Fit       0.026256
 **** Fit       0.025074
 **** Fit       0.023118
 **** Fit       0.030847
 **** Fit       0.028836
 **** Fit       0.026763
 **** Fit       0.015383
 **** Fit       0.018405
 **** Fit       0.035507
 **** Fit       0.035382
 **** Fit       0.034937
 **** Fit       0.034033
 **** Fit       0.032635
 **** Fit       0.040015
 **** Fit       0.039485
 **** Fit       0.023548
 **** Fit       0.028255
 **** Fit       0.029609
 **** Fit       0.028345
 **** Fit       0.039617
 **** Fit       0.041568
 **** Fit       0.042461
 **** Fit       0.042716
 **** Fit       0.042488
 **** Fit       0.041848
 **** Fit       0.040933
 **** Fit       0.030297
 **** Fit       0.035999
 **** Fit       0.038553
 **** Fit       0.038392
 **** Fit       0.036021
 **** Fit       0.031928
 **** Fit       0.012834
 **** Fit       0.020840
 **** Fit       0.028622
 **** Fit       0.035550
 **** Fit       0.041021
 **** Fit       0.044829
 **** Fit       0.047168
 **** Fit       0.048405
 **** Fit       0.048859
 **** Fit       0.048750
 **** Fit       0.048275
 **** Fit       0.047718
 **** Fit       0.032040
 **** Fit       0.039500
 **** Fit       0.044339
 **** Fit       0.046563
 **** Fit       0.046384
 **** Fit       0.044152
 **** Fit       0.040271
 **** Fit       0.035096
 **** Fit       0.028862
 **** Fit       0.022049
 **** Fit       0.028540
 **** Fit       0.034910
 **** Fit       0.040786
 **** Fit       0.045725
 **** Fit       0.049447
 **** Fit       0.051926
 **** Fit       0.053324
 **** Fit       0.053860
 **** Fit       0.053759
 **** Fit       0.053281
 **** Fit       0.052828
 **** Fit       0.042883
 **** Fit       0.048383
 **** Fit       0.052090
 **** Fit       0.053795
 **** Fit       0.053533
 **** Fit       0.051518
 **** Fit       0.048073
 **** Fit       0.043552
 **** Fit       0.038291
 **** Fit       0.032621
 **** Fit       0.026465
 **** Fit       0.031298
 **** Fit       0.036372
 **** Fit       0.041455
 **** Fit       0.046264
 **** Fit       0.050466
 **** Fit       0.053788
 **** Fit       0.056102
 **** Fit       0.057425
 **** Fit       0.057870
 **** Fit       0.057609
 **** Fit       0.056897
 **** Fit       0.052771
 **** Fit       0.056469
 **** Fit       0.059202
 **** Fit       0.060500
 **** Fit       0.060197
 **** Fit       0.058375
 **** Fit       0.055292
 **** Fit       0.051303
 **** Fit       0.046807
 **** Fit       0.042235
 **** Fit       0.038091
 **** Fit       0.034957
 **** Fit       0.033363
 **** Fit       0.033547
 **** Fit       0.035340
 **** Fit       0.038309
 **** Fit       0.041994
 **** Fit       0.046021
 **** Fit       0.050076
 **** Fit       0.053839
 **** Fit       0.057004
 **** Fit       0.059334
 **** Fit       0.060708
 **** Fit       0.061118
 **** Fit       0.060645
 **** Fit       0.065741
 **** Fit       0.066750
 **** Fit       0.067154
 **** Fit       0.066515
 **** Fit       0.064724
 **** Fit       0.061927
 **** Fit       0.058436
 **** Fit       0.054657
 **** Fit       0.051042
 **** Fit       0.048066
 **** Fit       0.046169
 **** Fit       0.045630
 **** Fit       0.046456
 **** Fit       0.048403
 **** Fit       0.051105
 **** Fit       0.054190
 **** Fit       0.057303
 **** Fit       0.060102
 **** Fit       0.062283
 **** Fit       0.063610
 **** Fit       0.063942
 **** Fit       0.063224
 **** Fit       0.074210
 **** Fit       0.072752
 **** Fit       0.070706
 **** Fit       0.068022
 **** Fit       0.064911
 **** Fit       0.061729
 **** Fit       0.058891
 **** Fit       0.056800
 **** Fit       0.055749
 **** Fit       0.055841
 **** Fit       0.056954
 **** Fit       0.058805
 **** Fit       0.061037
 **** Fit       0.063277
 **** Fit       0.065164
 **** Fit       0.066374
 **** Fit       0.066646
 **** Fit       0.065783
 **** Fit       0.080902
 **** Fit       0.077984
 **** Fit       0.075135
 **** Fit       0.072149
 **** Fit       0.069194
 **** Fit       0.066610
 **** Fit       0.064755
 **** Fit       0.063872
 **** Fit       0.063999
 **** Fit       0.064954
 **** Fit       0.066398
 **** Fit       0.067917
 **** Fit       0.069082
 **** Fit       0.069497
 **** Fit       0.082481
 **** Fit       0.078900
 **** Fit       0.075769
 **** Fit       0.073175
 **** Fit       0.071367
 **** Fit       0.070512
 **** Fit       0.070559
 **** Fit       0.071224
 **** Fit       0.072063
 **** Fit       0.072578
 **** Fit       0.083793
 **** Fit       0.080124
 **** Fit       0.077577
 **** Fit       0.076181
 **** Fit       0.075800
 **** Fit       0.075993
 **** Fit       0.076147
 **** Fit       0.083708
 **** Fit       0.081288
 **** Fit       0.080432
 **** Fit       0.029769
 **** Fit       0.038572
 **** Fit       0.044063
 **** Fit       0.041607
 **** Fit       0.048065
 **** Fit       0.045001
 **** Fit       0.021783
 **** Fit       0.056903
 **** Fit       0.050894
 **** Fit       0.047294
 **** Fit       0.045793
 **** Fit       0.038348
 **** Fit       0.033508
 **** Fit       0.029833
 **** Fit       0.027967
 **** Fit       0.028485
 **** Fit       0.031717
 **** Fit       0.059998
 **** Fit       0.053631
 **** Fit       0.049388
 **** Fit       0.047094
 **** Fit       0.046571
 **** Fit       0.045593
 **** Fit       0.042658
 **** Fit       0.063642
 **** Fit       0.056967
 **** Fit       0.052029
 **** Fit       0.048825
 **** Fit       0.047290
 **** Fit       0.047320
 **** Fit       0.054818
 **** Fit       0.066602
 **** Fit       0.060264
 **** Fit       0.055084
 **** Fit       0.051250
 **** Fit       0.048836
 **** Fit       0.047840
 **** Fit       0.048206
 **** Fit       0.049830
 **** Fit       0.077603
 **** Fit       0.071870
 **** Fit       0.065981
 **** Fit       0.060482
 **** Fit       0.055801
 **** Fit       0.052225
 **** Fit       0.049914
 **** Fit       0.048927
 **** Fit       0.049242
 **** Fit       0.050772
 **** Fit       0.072877
 **** Fit       0.067886
 **** Fit       0.062858
 **** Fit       0.058287
 **** Fit       0.054575
 **** Fit       0.051994
 **** Fit       0.050693
 **** Fit       0.050703
 **** Fit       0.051953
 **** Fit       0.054266
 **** Fit       0.058355
 **** Fit       0.066384
 **** Fit       0.061914
 **** Fit       0.058016
 **** Fit       0.055068
 **** Fit       0.053319
 **** Fit       0.052877
 **** Fit       0.053710
 **** Fit       0.055644
 **** Fit       0.059974
 **** Fit       0.062777
 **** Fit       0.065468
 **** Fit       0.059886
 **** Fit       0.057260
 **** Fit       0.055993
 **** Fit       0.056152
 **** Fit       0.057596
 **** Fit       0.022088
 **** Fit       0.028128
 **** Fit       0.031302
 **** Fit       0.028984
 **** Fit       0.033544
 **** Fit       0.033691
 **** Fit       0.038626
 **** Fit       0.035520
 **** Fit       0.034006
 **** Fit       0.037843
 **** Fit       0.038207
 **** Fit       0.038676
 **** Fit       0.038720
 **** Fit       0.041178
 **** Fit       0.039020
 **** Fit       0.038018
 **** Fit       0.041372
 **** Fit       0.041814
 **** Fit       0.042392
 **** Fit       0.042769
 **** Fit       0.042692
 **** Fit       0.042080
 **** Fit       0.043242
 **** Fit       0.041896
 **** Fit       0.041337
 **** Fit       0.044349
 **** Fit       0.044814
 **** Fit       0.045395
 **** Fit       0.045879
 **** Fit       0.046082
 **** Fit       0.045904
 **** Fit       0.045332
 **** Fit       0.044387
 **** Fit       0.045219
 **** Fit       0.044427
 **** Fit       0.044177
 **** Fit       0.046937
 **** Fit       0.047426
 **** Fit       0.048004
 **** Fit       0.048517
 **** Fit       0.048828
 **** Fit       0.048852
 **** Fit       0.048562
 **** Fit       0.047964
 **** Fit       0.047066
 **** Fit       0.045882
 **** Fit       0.044507
 **** Fit       0.047181
 **** Fit       0.046720
 **** Fit       0.046668
 **** Fit       0.049274
 **** Fit       0.049788
 **** Fit       0.050373
 **** Fit       0.050911
 **** Fit       0.051302
 **** Fit       0.051488
 **** Fit       0.051462
 **** Fit       0.051265
 **** Fit       0.050987
 **** Fit       0.050803
 **** Fit       0.051052
 **** Fit       0.049100
 **** Fit       0.048852
 **** Fit       0.048934
 **** Fit       0.051501
 **** Fit       0.052026
 **** Fit       0.052622
 **** Fit       0.053205
 **** Fit       0.053714
 **** Fit       0.054128
 **** Fit       0.054488
 **** Fit       0.054906
 **** Fit       0.055589
 **** Fit       0.056900
 **** Fit       0.051128
 **** Fit       0.050983
 **** Fit       0.051130
 **** Fit       0.053780
 **** Fit       0.054337
 **** Fit       0.055006
 **** Fit       0.055726
 **** Fit       0.056479
 **** Fit       0.057326
 **** Fit       0.058436
 **** Fit       0.060130
 **** Fit       0.053332
 **** Fit       0.053416
 **** Fit       0.056306
 **** Fit       0.056880
 **** Fit       0.057681
 **** Fit       0.058687
 **** Fit       0.059973
 **** Fit       0.061765
 **** Fit       0.064506
 **** Fit       0.056044
 **** Fit       0.059334
 **** Fit       0.059959
 **** Fit       0.061116
 **** Fit       0.062888
 **** Fit       0.065620
 **** Fit       0.059346
 **** Fit       0.063211
 **** Fit       0.064094
 **** Fit       0.035119
 **** Fit       0.037533
 **** Fit       0.042340
 **** Fit       0.049269
 **** Fit       0.058021
 **** Fit       0.045922
 **** Fit       0.043920
 **** Fit       0.043574
 **** Fit       0.044919
 **** Fit       0.047873
 **** Fit       0.052245
 **** Fit       0.057792
 **** Fit       0.064293
 **** Fit       0.071580
 **** Fit       0.079513
 **** Fit       0.056202
 **** Fit       0.052835
 **** Fit       0.050651
 **** Fit       0.049725
 **** Fit       0.050091
 **** Fit       0.051702
 **** Fit       0.054423
 **** Fit       0.058052
 **** Fit       0.062369
 **** Fit       0.067178
 **** Fit       0.072317
 **** Fit       0.077612
 **** Fit       0.082796
 **** Fit       0.059889
 **** Fit       0.057073
 **** Fit       0.055141
 **** Fit       0.054198
 **** Fit       0.054285
 **** Fit       0.055365
 **** Fit       0.057320
 **** Fit       0.059965
 **** Fit       0.063094
 **** Fit       0.066511
 **** Fit       0.070045
 **** Fit       0.073523
 **** Fit       0.076715
 **** Fit       0.079294
 **** Fit       0.080847
 **** Fit       0.080965
 **** Fit       0.064432
 **** Fit       0.062008
 **** Fit       0.059857
 **** Fit       0.058259
 **** Fit       0.057376
 **** Fit       0.057283
 **** Fit       0.057967
 **** Fit       0.059336
 **** Fit       0.061236
 **** Fit       0.063479
 **** Fit       0.065883
 **** Fit       0.068282
 **** Fit       0.070514
 **** Fit       0.072386
 **** Fit       0.073659
 **** Fit       0.074069
 **** Fit       0.073397
 **** Fit       0.071577
 **** Fit       0.068777
 **** Fit       0.064624
 **** Fit       0.065333
 **** Fit       0.065001
 **** Fit       0.063864
 **** Fit       0.062356
 **** Fit       0.060911
 **** Fit       0.059857
 **** Fit       0.059394
 **** Fit       0.059598
 **** Fit       0.060435
 **** Fit       0.061776
 **** Fit       0.063437
 **** Fit       0.065214
 **** Fit       0.066917
 **** Fit       0.068366
 **** Fit       0.069369
 **** Fit       0.069718
 **** Fit       0.069240
 **** Fit       0.067874
 **** Fit       0.065765
 **** Fit       0.063279
 **** Fit       0.060949
 **** Fit       0.061962
 **** Fit       0.063008
 **** Fit       0.063436
 **** Fit       0.063160
 **** Fit       0.062414
 **** Fit       0.061569
 **** Fit       0.060968
 **** Fit       0.060831
 **** Fit       0.061233
 **** Fit       0.062110
 **** Fit       0.063297
 **** Fit       0.064584
 **** Fit       0.065756
 **** Fit       0.066611
 **** Fit       0.066964
 **** Fit       0.066664
 **** Fit       0.065658
 **** Fit       0.064077
 **** Fit       0.062261
 **** Fit       0.060688
 **** Fit       0.059812
 **** Fit       0.059861
 **** Fit       0.060724
 **** Fit       0.061564
 **** Fit       0.062234
 **** Fit       0.062460
 **** Fit       0.062239
 **** Fit       0.061866
 **** Fit       0.061692
 **** Fit       0.061930
 **** Fit       0.062587
 **** Fit       0.063495
 **** Fit       0.064394
 **** Fit       0.065015
 **** Fit       0.065133
 **** Fit       0.064620
 **** Fit       0.063533
 **** Fit       0.062177
 **** Fit       0.061039
 **** Fit       0.060553
 **** Fit       0.060829
 **** Fit       0.061596
 **** Fit       0.062008
 **** Fit       0.062121
 **** Fit       0.062123
 **** Fit       0.062391
 **** Fit       0.063003
 **** Fit       0.063657
 **** Fit       0.063916
 **** Fit       0.063499
 **** Fit       0.062531
 **** Fit       0.061588
 **** Fit       0.061272
 **** Fit       0.061904
 **** Fit       0.062172
 **** Fit       0.062519
 **** Fit       0.062983
 **** Fit       0.062803
 **** Fit       0.062058
 **** Fit       0.062388
 -----------------------------------------------------------------
 Leave Link  602 at Tue Sep 17 10:20:27 2019, MaxMem=  1342177280 cpu:             135.5 elap:               2.9

 Test job not archived.
 1\1\GINC-C490-091\SP\RB3LYP\SVP\C54H83Ca1N15O23\PENGZHI\17-Sep-2019\0\
 \#b3lyp/svp scf=(tight,noincore) Test #IOP(5/87=12) Density=Current Po
 p=(MK,readradii) iop(6/33=2) iop(6/42=6)\\Ng-293_loop3_43.0\\0,1\C,0,3
 1.47,74.09,83.585\C,0,30.41,73.64,82.595\O,0,29.32,73.16,82.905\H,0,32
 .324,74.496,83.043\H,0,31.056,74.859,84.237\H,0,31.793,73.239,84.185\N
 ,0,30.72,73.87,81.315\C,0,29.93,73.59,80.135\C,0,28.76,74.54,79.885\O,
 0,28.85,75.75,80.065\C,0,30.86,73.59,78.925\C,0,30.11,73.5,77.605\O,0,
 29.19,72.66,77.505\O,0,30.54,74.18,76.645\H,0,31.68,74.11,81.105\H,0,2
 9.53,72.58,80.215\H,0,31.55,72.78,79.165\H,0,31.41,74.53,78.905\N,0,27
 .57,74.01,79.615\C,0,26.16,74.31,79.495\C,0,25.74,75.49,78.635\O,0,24.
 6,75.51,78.155\C,0,25.64,74.45,80.935\C,0,24.12,74.48,81.055\C,0,23.6,
 74.36,82.485\C,0,22.12,74.74,82.535\N,0,21.62,74.8,83.915\H,0,27.73,73
 .04,79.365\H,0,25.64,73.49,78.995\H,0,26.04,75.37,81.365\H,0,26.01,73.
 58,81.475\H,0,23.71,73.71,80.415\H,0,23.92,75.47,80.655\H,0,24.15,75.1
 2,83.045\H,0,23.75,73.35,82.845\H,0,21.54,74.08,81.895\H,0,22.04,75.76
 ,82.165\H,0,22.2,75.48,84.375\H,0,20.65,75.05,84.035\H,0,21.73,73.85,8
 4.255\N,0,26.66,76.4,78.335\C,0,26.39,77.78,77.995\C,0,27.48,78.54,77.
 255\O,0,28.64,78.11,77.285\C,0,25.95,78.63,79.185\C,0,25.1,79.85,78.86
 5\O,0,24.65,80.49,79.845\O,0,24.83,80.19,77.695\H,0,27.6,76.16,78.645\
 H,0,25.56,77.67,77.295\H,0,26.88,78.94,79.675\H,0,25.49,78.,79.935\N,0
 ,27.19,79.61,76.515\C,0,28.15,80.48,75.865\C,0,27.47,81.84,75.785\O,0,
 26.52,82.05,75.035\H,0,26.23,79.9,76.655\H,0,28.31,80.07,74.865\H,0,29
 .08,80.5,76.435\N,0,27.96,82.83,76.535\C,0,27.23,84.03,76.885\C,0,27.6
 5,85.25,76.085\O,0,26.92,86.24,76.175\C,0,27.3,84.22,78.395\C,0,26.49,
 83.16,79.145\N,0,27.1,82.27,79.915\O,0,25.27,83.1,79.045\H,0,28.65,82.
 49,77.195\H,0,26.18,83.91,76.635\H,0,26.78,85.11,78.745\H,0,28.32,84.2
 8,78.765\H,0,28.1,82.22,79.805\H,0,26.69,81.5,80.435\N,0,28.71,85.2,75
 .285\C,0,29.,86.23,74.295\C,0,29.29,87.61,74.855\O,0,30.37,87.87,75.37
 5\H,0,29.34,84.42,75.375\H,0,28.05,86.38,73.765\H,0,29.8,86.01,73.595\
 N,0,28.28,88.49,74.875\C,0,28.31,89.81,75.475\C,0,28.44,89.71,76.995\O
 ,0,29.01,90.58,77.655\C,0,29.25,90.75,74.725\C,0,29.02,90.74,73.235\C,
 0,29.88,89.94,72.485\C,0,27.9,91.38,72.685\C,0,29.63,89.82,71.115\C,0,
 27.64,91.21,71.315\C,0,28.48,90.39,70.535\O,0,28.21,90.16,69.215\H,0,2
 7.39,88.23,74.495\H,0,27.32,90.25,75.345\H,0,30.31,90.71,74.975\H,0,29
 .07,91.77,75.065\H,0,30.77,89.47,72.885\H,0,27.27,92.02,73.265\H,0,30.
 23,89.16,70.505\H,0,26.79,91.64,70.815\H,0,27.37,90.5,68.895\N,0,27.86
 ,88.69,77.625\C,0,27.62,88.36,79.015\C,0,26.54,89.3,79.525\O,0,25.53,8
 8.82,80.025\C,0,28.84,88.27,79.925\C,0,29.67,87.05,79.545\C,0,28.61,88
 .28,81.435\C,0,31.19,87.22,79.595\H,0,27.25,88.12,77.065\H,0,27.13,87.
 39,79.105\H,0,29.45,89.14,79.715\H,0,29.52,86.93,78.465\H,0,29.38,86.2
 1,80.175\H,0,27.79,87.6,81.655\H,0,29.53,88.06,81.975\H,0,28.32,89.29,
 81.725\H,0,31.54,86.23,79.315\H,0,31.48,88.05,78.945\H,0,31.59,87.42,8
 0.585\N,0,26.67,90.61,79.265\C,0,25.69,91.67,79.395\C,0,25.25,91.95,80
 .825\O,0,24.14,92.36,81.145\C,0,26.17,93.,78.815\O,0,26.55,92.82,77.46
 5\H,0,27.59,90.77,78.865\H,0,24.87,91.26,78.805\H,0,27.06,93.33,79.355
 \H,0,25.36,93.7,78.995\H,0,27.38,93.27,77.305\N,0,26.16,91.6,81.745\C,
 0,26.13,91.38,83.175\C,0,24.81,90.73,83.565\O,0,24.18,91.24,84.485\C,0
 ,26.33,92.78,83.735\H,0,27.08,91.46,81.365\H,0,26.98,90.72,83.355\H,0,
 26.26,92.79,84.825\H,0,27.24,93.22,83.325\H,0,25.53,93.4,83.325\N,0,24
 .48,89.63,82.875\C,0,23.28,88.84,82.995\C,0,23.47,87.58,83.835\O,0,24.
 62,87.31,84.165\C,0,22.7,88.57,81.605\H,0,25.11,89.35,82.145\H,0,22.51
 ,89.4,83.535\H,0,21.72,88.11,81.725\H,0,22.74,89.57,81.165\H,0,23.36,8
 7.93,81.035\N,0,22.39,86.98,84.355\C,0,22.3,85.71,85.045\C,0,23.04,85.
 67,86.375\O,0,23.28,84.59,86.925\C,0,22.59,84.46,84.215\C,0,21.78,84.3
 9,82.925\C,0,22.36,83.28,82.065\O,0,23.26,83.45,81.205\O,0,21.95,82.1,
 82.105\H,0,21.54,87.52,84.375\H,0,21.26,85.59,85.355\H,0,22.28,83.57,8
 4.775\H,0,23.65,84.35,83.995\H,0,22.09,85.3,82.415\H,0,20.71,84.29,83.
 115\N,0,23.46,86.78,86.995\C,0,24.2,86.73,88.235\H,0,25.096,87.344,88.
 148\H,0,23.578,87.109,89.046\H,0,24.486,85.7,88.447\H,0,23.33,87.72,86
 .635\Ca,0,22.82,82.16,79.03\O,0,20.46,83.28,79.19\H,0,20.17,84.1,79.6\
 H,0,19.64,82.8,79.01\\Version=ES64L-G16RevA.03\State=1-A\HF=-5333.3553
 782\RMSD=2.495e-09\Dipole=-11.4785874,3.0178197,3.9348103\Quadrupole=8
 8.5513516,-92.1129246,3.561573,191.4462529,-2.9723651,-186.3910471\PG=
 C01 [X(C54H83Ca1N15O23)]\\@


 IT IS BY EATING THE LIGHT OF A STAR THAT WE EXIST, 
 IN THE FINAL ANALYSIS, 
 JUST AS IT IS BY PERCEIVING THE LIGHT OF STARS
 THAT WE DEFINE THE WORLD AROUND US.

                                    -- GILBERT GROSVENOR
 Job cpu time:       0 days  9 hours 49 minutes 22.8 seconds.
 Elapsed time:       0 days  0 hours 12 minutes 27.2 seconds.
 File lengths (MBytes):  RWF=   1517 Int=      0 D2E=      0 Chk=    171 Scr=      1
 Normal termination of Gaussian 16 at Tue Sep 17 10:20:28 2019.
