 Entering Gaussian System, Link 0=g16
 Initial command:
 /home1/apps/gaussian/16rA.03/g16/l1.exe "/scratch/01990/pengzhi/4350459/Gau-323665.inp" -scrdir="/scratch/01990/pengzhi/4350459/"
 Entering Link 1 = /home1/apps/gaussian/16rA.03/g16/l1.exe PID=    323668.
  
 Copyright (c) 1988,1990,1992,1993,1995,1998,2003,2009,2016,
            Gaussian, Inc.  All Rights Reserved.
  
 This is part of the Gaussian(R) 16 program.  It is based on
 the Gaussian(R) 09 system (copyright 2009, Gaussian, Inc.),
 the Gaussian(R) 03 system (copyright 2003, Gaussian, Inc.),
 the Gaussian(R) 98 system (copyright 1998, Gaussian, Inc.),
 the Gaussian(R) 94 system (copyright 1995, Gaussian, Inc.),
 the Gaussian 92(TM) system (copyright 1992, Gaussian, Inc.),
 the Gaussian 90(TM) system (copyright 1990, Gaussian, Inc.),
 the Gaussian 88(TM) system (copyright 1988, Gaussian, Inc.),
 the Gaussian 86(TM) system (copyright 1986, Carnegie Mellon
 University), and the Gaussian 82(TM) system (copyright 1983,
 Carnegie Mellon University). Gaussian is a federally registered
 trademark of Gaussian, Inc.
  
 This software contains proprietary and confidential information,
 including trade secrets, belonging to Gaussian, Inc.
  
 This software is provided under written license and may be
 used, copied, transmitted, or stored only in accord with that
 written license.
  
 The following legend is applicable only to US Government
 contracts under FAR:
  
                    RESTRICTED RIGHTS LEGEND
  
 Use, reproduction and disclosure by the US Government is
 subject to restrictions as set forth in subparagraphs (a)
 and (c) of the Commercial Computer Software - Restricted
 Rights clause in FAR 52.227-19.
  
 Gaussian, Inc.
 340 Quinnipiac St., Bldg. 40, Wallingford CT 06492
  
  
 ---------------------------------------------------------------
 Warning -- This program may not be used in any manner that
 competes with the business of Gaussian, Inc. or will provide
 assistance to any competitor of Gaussian, Inc.  The licensee
 of this program is prohibited from giving any competitor of
 Gaussian, Inc. access to this program.  By using this program,
 the user acknowledges that Gaussian, Inc. is engaged in the
 business of creating and licensing software in the field of
 computational chemistry and represents and warrants to the
 licensee that it is not a competitor of Gaussian, Inc. and that
 it will not use this program in any manner prohibited above.
 ---------------------------------------------------------------
  

 Cite this work as:
 Gaussian 16, Revision A.03,
 M. J. Frisch, G. W. Trucks, H. B. Schlegel, G. E. Scuseria, 
 M. A. Robb, J. R. Cheeseman, G. Scalmani, V. Barone, 
 G. A. Petersson, H. Nakatsuji, X. Li, M. Caricato, A. V. Marenich, 
 J. Bloino, B. G. Janesko, R. Gomperts, B. Mennucci, H. P. Hratchian, 
 J. V. Ortiz, A. F. Izmaylov, J. L. Sonnenberg, D. Williams-Young, 
 F. Ding, F. Lipparini, F. Egidi, J. Goings, B. Peng, A. Petrone, 
 T. Henderson, D. Ranasinghe, V. G. Zakrzewski, J. Gao, N. Rega, 
 G. Zheng, W. Liang, M. Hada, M. Ehara, K. Toyota, R. Fukuda, 
 J. Hasegawa, M. Ishida, T. Nakajima, Y. Honda, O. Kitao, H. Nakai, 
 T. Vreven, K. Throssell, J. A. Montgomery, Jr., J. E. Peralta, 
 F. Ogliaro, M. J. Bearpark, J. J. Heyd, E. N. Brothers, K. N. Kudin, 
 V. N. Staroverov, T. A. Keith, R. Kobayashi, J. Normand, 
 K. Raghavachari, A. P. Rendell, J. C. Burant, S. S. Iyengar, 
 J. Tomasi, M. Cossi, J. M. Millam, M. Klene, C. Adamo, R. Cammi, 
 J. W. Ochterski, R. L. Martin, K. Morokuma, O. Farkas, 
 J. B. Foresman, and D. J. Fox, Gaussian, Inc., Wallingford CT, 2016.
 
 ******************************************
 Gaussian 16:  ES64L-G16RevA.03 25-Dec-2016
                17-Sep-2019 
 ******************************************
 %chk=Ng-293_loop3_78.0.chk
 %nprocshared=48
 Will use up to   48 processors via shared memory.
 %mem=10GB
 %nosave
 ----------------------------------------------------------------------
 #b3lyp/svp scf=(tight,noincore) Test #IOP(5/87=12) Density=Current Pop
 =(MK,readradii) iop(6/33=2) iop(6/42=6)
 ----------------------------------------------------------------------
 1/30=1,38=1,172=1/1;
 2/12=2,17=6,18=5,40=1/2;
 3/5=18,7=101,11=2,25=1,30=1,74=-5/1,2,3;
 4//1;
 5/5=4,32=2,38=5,87=12/2;
 6/7=2,8=2,9=2,10=2,15=8,20=101,22=-1,28=1,33=2,42=6/1,2;
 99/5=1,9=1/99;
 -----------------
 Ng-293_loop3_78.0
 -----------------
 Symbolic Z-matrix:
 Charge =  0 Multiplicity = 1
 C                     52.73     55.46     42.1 
 C                     53.5      55.6      43.41 
 O                     52.88     55.86     44.44 
 H                     51.833    56.078    42.139 
 H                     53.359    55.785    41.271 
 H                     52.446    54.418    41.954 
 N                     54.82     55.47     43.34 
 C                     55.76     55.69     44.42 
 C                     55.84     57.14     44.87 
 O                     56.9      57.77     44.9 
 C                     55.51     54.73     45.58 
 C                     55.28     53.26     45.26 
 O                     54.54     52.62     46.04 
 O                     55.76     52.78     44.2 
 H                     55.29     55.26     42.47 
 H                     56.76     55.48     44.02 
 H                     54.65     55.08     46.14 
 H                     56.34     54.74     46.28 
 N                     54.72     57.65     45.38 
 C                     54.62     58.96     45.99 
 C                     55.09     59.07     47.43 
 O                     54.93     60.13     48.03 
 C                     53.18     59.41     45.77 
 C                     52.13     58.98     46.8 
 C                     51.93     57.47     46.88 
 C                     50.94     57.17     48. 
 N                     51.06     55.79     48.5 
 H                     53.96     56.98     45.34 
 H                     55.26     59.7      45.51 
 H                     52.97     59.02     44.77 
 H                     53.36     60.49     45.67 
 H                     51.18     59.44     46.54 
 H                     52.39     59.44     47.75 
 H                     52.88     56.95     46.93 
 H                     51.45     57.11     45.97 
 H                     49.94     57.38     47.61 
 H                     51.04     57.8      48.89 
 H                     50.85     55.04     47.86 
 H                     51.99     55.6      48.85 
 H                     50.46     55.68     49.31 
 N                     55.52     57.95     48.02 
 C                     55.97     57.71     49.38 
 C                     56.78     56.44     49.56 
 O                     56.65     55.45     48.83 
 C                     54.78     57.81     50.33 
 C                     53.61     56.87     50.07 
 O                     52.51     57.17     50.59 
 O                     53.63     55.93     49.25 
 H                     55.44     57.08     47.51 
 H                     56.76     58.43     49.59 
 H                     54.44     58.83     50.18 
 H                     55.11     57.67     51.36 
 N                     57.52     56.31     50.66 
 C                     57.89     55.       51.15 
 C                     56.83     54.24     51.93 
 O                     57.06     53.84     53.07 
 H                     57.68     57.06     51.33 
 H                     58.72     55.13     51.85 
 H                     58.38     54.41     50.37 
 N                     55.61     54.08     51.41 
 C                     54.54     53.23     51.88 
 C                     54.8      51.73     51.87 
 O                     54.07     50.93     52.45 
 C                     53.28     53.64     51.13 
 C                     52.02     52.81     51.31 
 N                     51.58     52.37     52.49 
 O                     51.26     52.71     50.35 
 H                     55.52     54.42     50.46 
 H                     54.4      53.46     52.94 
 H                     53.5      53.6      50.06 
 H                     53.       54.67     51.39 
 H                     52.17     52.51     53.3 
 H                     50.88     51.64     52.48 
 N                     55.82     51.34     51.1 
 C                     56.43     50.02     51.11 
 C                     55.44     49.02     50.53 
 O                     54.9      49.2      49.44 
 H                     56.09     52.02     50.41 
 H                     56.73     49.76     52.12 
 H                     57.33     49.97     50.5 
 N                     55.23     47.98     51.34 
 C                     54.35     46.83     51.2 
 C                     52.87     47.1      50.97 
 O                     52.05     46.23     51.24 
 C                     54.85     45.91     50.09 
 C                     56.29     45.46     50.23 
 C                     56.54     44.34     51.02 
 C                     57.34     46.24     49.73 
 C                     57.84     43.86     51.22 
 C                     58.65     45.8      49.95 
 C                     58.9      44.6      50.64 
 O                     60.18     44.24     50.92 
 H                     55.88     47.84     52.1 
 H                     54.45     46.31     52.15 
 H                     54.8      46.53     49.19 
 H                     54.22     45.04     49.92 
 H                     55.73     43.78     51.48 
 H                     57.08     47.16     49.22 
 H                     58.08     43.       51.81 
 H                     59.42     46.46     49.58 
 H                     60.81     44.83     50.49 
 N                     52.58     48.33     50.55 
 C                     51.24     48.88     50.45 
 C                     50.35     48.79     51.68 
 O                     49.84     49.81     52.13 
 C                     50.52     48.29     49.25 
 C                     51.4      48.28     48. 
 C                     49.31     49.17     48.94 
 C                     52.       49.57     47.47 
 H                     53.37     48.95     50.45 
 H                     51.41     49.92     50.15 
 H                     50.2      47.27     49.45 
 H                     50.74     47.93     47.2 
 H                     52.14     47.52     48.23 
 H                     48.53     48.96     49.68 
 H                     49.61     50.22     48.97 
 H                     48.91     48.93     47.95 
 H                     52.48     49.32     46.52 
 H                     51.24     50.35     47.35 
 H                     52.74     49.94     48.18 
 N                     50.       47.58     52.12 
 C                     49.19     47.26     53.28 
 C                     47.8      47.81     53. 
 O                     47.33     48.53     53.87 
 C                     49.18     45.8      53.73 
 O                     50.4      45.14     53.46 
 H                     50.44     46.76     51.72 
 H                     49.46     47.88     54.13 
 H                     48.35     45.29     53.25 
 H                     48.88     45.78     54.78 
 H                     51.13     45.69     53.74 
 N                     47.26     47.7      51.78 
 C                     46.       48.19     51.27 
 C                     45.72     49.67     51.48 
 O                     44.63     50.16     51.18 
 C                     44.84     47.26     51.62 
 H                     47.73     47.06     51.15 
 H                     46.06     48.06     50.19 
 H                     44.65     47.36     52.69 
 H                     43.94     47.7      51.19 
 H                     44.98     46.26     51.22 
 N                     46.72     50.42     51.95 
 C                     46.59     51.86     52.13 
 C                     46.28     52.66     50.87 
 O                     46.9      52.41     49.84 
 C                     47.83     52.4      52.83 
 H                     47.56     50.02     52.32 
 H                     45.76     52.07     52.8 
 H                     48.64     52.26     52.11 
 H                     47.73     53.45     53.1 
 H                     48.02     51.74     53.68 
 N                     45.39     53.65     50.97 
 C                     45.09     54.7      50.02 
 C                     44.88     54.29     48.57 
 O                     44.83     55.13     47.66 
 C                     46.       55.91     50.19 
 C                     47.38     55.72     49.56 
 C                     48.2      56.92     50. 
 O                     47.8      58.08     49.75 
 O                     49.3      56.72     50.56 
 H                     44.76     53.69     51.76 
 H                     44.07     54.98     50.3 
 H                     46.22     55.97     51.25 
 H                     45.65     56.84     49.73 
 H                     47.28     55.59     48.48 
 H                     47.91     54.83     49.89 
 N                     44.78     53.02     48.19 
 C                     44.55     52.49     46.86 
 H                     43.79     53.088    46.358 
 H                     45.477    52.527    46.288 
 H                     44.209    51.457    46.934 
 H                     44.72     52.35     48.94 
 Ca                    50.84     57.68     52.58 
 O                     48.22     57.63     53.06 
 H                     47.47     57.61     53.65 
 H                     47.83     57.62     52.18 
 
 Stoichiometry    C54H83CaN15O23
 Framework group  C1[X(C54H83CaN15O23)]
 Deg. of freedom   522
 Full point group                 C1      NOp   1
 Largest Abelian subgroup         C1      NOp   1
 Largest concise Abelian subgroup C1      NOp   1
                         Standard orientation:                         
 ---------------------------------------------------------------------
 Center     Atomic      Atomic             Coordinates (Angstroms)
 Number     Number       Type             X           Y           Z
 ---------------------------------------------------------------------
      1          6           0       -5.597263   -0.826258    5.910449
      2          6           0       -5.390673   -1.381691    4.504243
      3          8           0       -5.128623   -0.602713    3.589134
      4          1           0       -5.972309    0.195085    5.845247
      5          1           0       -6.319184   -1.444706    6.444172
      6          1           0       -4.648490   -0.830277    6.446686
      7          7           0       -5.552394   -2.691352    4.353140
      8          6           0       -5.535977   -3.416572    3.099271
      9          6           0       -6.704684   -3.079666    2.187121
     10          8           0       -7.470835   -3.937988    1.742492
     11          6           0       -4.187590   -3.283317    2.396565
     12          6           0       -2.923950   -3.466118    3.224814
     13          8           0       -1.912160   -2.825265    2.862616
     14          8           0       -2.969966   -4.168893    4.268073
     15          1           0       -5.772140   -3.295300    5.133435
     16          1           0       -5.684779   -4.476316    3.341963
     17          1           0       -4.134199   -2.304886    1.932321
     18          1           0       -4.098851   -3.998738    1.584593
     19          7           0       -6.765167   -1.816989    1.766894
     20          6           0       -7.712965   -1.323686    0.788870
     21          6           0       -7.373458   -1.583289   -0.668505
     22          8           0       -8.085978   -1.095909   -1.542562
     23          6           0       -7.925965    0.148124    1.124885
     24          6           0       -6.953468    1.168127    0.523100
     25          6           0       -5.511977    0.992266    0.989657
     26          6           0       -4.636156    1.997364    0.249917
     27          7           0       -3.219935    1.594381    0.223041
     28          1           0       -6.024085   -1.258253    2.175198
     29          1           0       -8.686027   -1.809067    0.860674
     30          1           0       -7.898880    0.138133    2.218213
     31          1           0       -8.979830    0.233478    0.823417
     32          1           0       -7.284652    2.166728    0.796620
     33          1           0       -7.072260    1.141812   -0.557130
     34          1           0       -5.203518   -0.045362    0.929820
     35          1           0       -5.427055    1.259674    2.042929
     36          1           0       -4.778160    2.966692    0.736167
     37          1           0       -4.900857    2.160500   -0.799997
     38          1           0       -2.732867    1.535637    1.103674
     39          1           0       -3.097367    0.692777   -0.219212
     40          1           0       -2.706161    2.236494   -0.370193
     41          7           0       -6.220308   -2.209065   -0.925504
     42          6           0       -5.588032   -2.546051   -2.188978
     43          6           0       -4.522543   -3.621600   -2.092396
     44          8           0       -3.865703   -3.827535   -1.064752
     45          6           0       -5.100122   -1.268161   -2.865397
     46          6           0       -4.115470   -0.407861   -2.084088
     47          8           0       -3.985102    0.784256   -2.447767
     48          8           0       -3.566127   -0.755825   -1.019408
     49          1           0       -5.601268   -2.407909   -0.150488
     50          1           0       -6.317793   -3.101681   -2.776621
     51          1           0       -6.017674   -0.703548   -2.998849
     52          1           0       -4.657174   -1.502550   -3.834034
     53          7           0       -4.141881   -4.239689   -3.209340
     54          6           0       -2.841159   -4.866698   -3.299243
     55          6           0       -1.658589   -3.948153   -3.558865
     56          8           0       -0.919390   -4.138771   -4.523100
     57          1           0       -4.608276   -4.129437   -4.107850
     58          1           0       -2.861574   -5.552134   -4.151042
     59          1           0       -2.685972   -5.574528   -2.479796
     60          7           0       -1.469520   -2.874631   -2.786723
     61          6           0       -0.317273   -2.004440   -2.728473
     62          6           0        0.993406   -2.630388   -2.272392
     63          8           0        2.075188   -2.062020   -2.398906
     64          6           0       -0.723649   -0.776353   -1.925442
     65          6           0        0.340245    0.248327   -1.568987
     66          7           0        1.259581    0.696490   -2.425475
     67          8           0        0.224182    0.844198   -0.500967
     68          1           0       -2.111163   -2.811868   -2.005342
     69          1           0       -0.109329   -1.691041   -3.755430
     70          1           0       -1.123508   -1.120339   -0.968005
     71          1           0       -1.510928   -0.220005   -2.452291
     72          1           0        1.316780    0.256900   -3.335029
     73          1           0        2.054728    1.185978   -2.036704
     74          7           0        0.868284   -3.796687   -1.632478
     75          6           0        1.955191   -4.711889   -1.323223
     76          6           0        2.841961   -4.076274   -0.262029
     77          8           0        2.380984   -3.636844    0.789874
     78          1           0       -0.056249   -3.965345   -1.274438
     79          1           0        2.505709   -4.949708   -2.227696
     80          1           0        1.602805   -5.659539   -0.920255
     81          7           0        4.126576   -4.041527   -0.623079
     82          6           0        5.290574   -3.498798    0.060335
     83          6           0        5.245328   -2.034651    0.473161
     84          8           0        6.294002   -1.432720    0.673568
     85          6           0        5.622534   -4.336471    1.291840
     86          6           0        5.806085   -5.817438    1.029643
     87          6           0        7.067522   -6.247255    0.623397
     88          6           0        4.710319   -6.689324    1.026229
     89          6           0        7.327409   -7.594242    0.343246
     90          6           0        4.939258   -8.033641    0.712387
     91          6           0        6.236653   -8.494895    0.424964
     92          8           0        6.420686   -9.783510    0.035091
     93          1           0        4.408510   -4.614494   -1.405333
     94          1           0        6.094022   -3.616154   -0.663266
     95          1           0        4.736901   -4.236480    1.926312
     96          1           0        6.472650   -3.967583    1.860984
     97          1           0        7.902228   -5.555732    0.543642
     98          1           0        3.735804   -6.267820    1.242455
     99          1           0        8.280648   -7.972368    0.037212
    100          1           0        4.054423   -8.651417    0.683753
    101          1           0        5.604398  -10.291036    0.112504
    102          7           0        4.027737   -1.496540    0.509339
    103          6           0        3.748691   -0.082156    0.681830
    104          6           0        4.454725    0.891856   -0.248715
    105          8           0        3.790777    1.688594   -0.902459
    106          6           0        3.982293    0.325346    2.126084
    107          6           0        3.361783   -0.666328    3.110234
    108          6           0        3.300733    1.673160    2.357329
    109          6           0        1.877728   -0.981540    3.053477
    110          1           0        3.274824   -2.112638    0.240926
    111          1           0        2.659514   -0.020073    0.580140
    112          1           0        5.045352    0.401039    2.342820
    113          1           0        3.512766   -0.210764    4.093984
    114          1           0        3.995252   -1.541413    3.005141
    115          1           0        3.914366    2.455343    1.897170
    116          1           0        2.298902    1.650518    1.922334
    117          1           0        3.231646    1.884478    3.428903
    118          1           0        1.662992   -1.614254    3.918902
    119          1           0        1.270411   -0.069638    3.054355
    120          1           0        1.660018   -1.519327    2.130445
    121          7           0        5.784737    0.976385   -0.184488
    122          6           0        6.658810    1.807995   -0.989795
    123          6           0        6.323133    3.249852   -0.641412
    124          8           0        6.078973    3.981237   -1.590971
    125          6           0        8.154431    1.504293   -0.918492
    126          8           0        8.420445    0.135455   -0.689541
    127          1           0        6.298647    0.302650    0.370469
    128          1           0        6.355742    1.800601   -2.032817
    129          1           0        8.601485    2.119955   -0.143572
    130          1           0        8.616911    1.907917   -1.821875
    131          1           0        7.882641   -0.396954   -1.273587
    132          7           0        6.078091    3.601938    0.626693
    133          6           0        5.687291    4.877484    1.181722
    134          6           0        4.472278    5.540554    0.551658
    135          8           0        4.126042    6.676682    0.879582
    136          6           0        6.885467    5.800485    1.394897
    137          1           0        6.337827    2.918012    1.328250
    138          1           0        5.396429    4.663703    2.209631
    139          1           0        7.224972    6.130619    0.411663
    140          1           0        6.500268    6.726557    1.822111
    141          1           0        7.620883    5.370218    2.068420
    142          7           0        3.770495    4.820265   -0.327025
    143          6           0        2.551936    5.325683   -0.945546
    144          6           0        1.420122    5.679437    0.012345
    145          8           0        1.148976    4.902959    0.924135
    146          6           0        2.079620    4.348486   -2.013817
    147          1           0        4.108777    3.955010   -0.700387
    148          1           0        2.767389    6.252876   -1.470705
    149          1           0        1.785939    3.452291   -1.461832
    150          1           0        1.243165    4.737908   -2.591826
    151          1           0        2.956272    4.098168   -2.616330
    152          7           0        0.727804    6.793986   -0.233979
    153          6           0       -0.519227    7.236075    0.352938
    154          6           0       -0.639599    7.169583    1.868124
    155          8           0       -1.729031    7.323403    2.438807
    156          6           0       -1.732536    6.682927   -0.383954
    157          6           0       -2.057376    5.236490   -0.010190
    158          6           0       -3.144867    4.798280   -0.975247
    159          8           0       -4.215022    5.444121   -1.051128
    160          8           0       -2.968639    3.754759   -1.641286
    161          1           0        1.103550    7.500137   -0.852660
    162          1           0       -0.474420    8.318806    0.201660
    163          1           0       -1.439285    6.607711   -1.425082
    164          1           0       -2.680411    7.199186   -0.199535
    165          1           0       -2.317425    5.176547    1.049093
    166          1           0       -1.228404    4.542279   -0.123229
    167          7           0        0.394995    6.904896    2.659866
    168          6           0        0.431802    6.841383    4.108075
    169          1           0       -0.150581    7.664086    4.521834
    170          1           0        0.009068    5.893861    4.441811
    171          1           0        1.464350    6.919597    4.449506
    172          1           0        1.292077    6.881007    2.201965
    173         20           0       -3.394866    2.745140   -4.125758
    174          8           0       -2.668136    5.306686   -4.038310
    175          1           0       -2.288325    6.090332   -4.429004
    176          1           0       -2.907870    5.578451   -3.146529
 ---------------------------------------------------------------------
 Rotational constants (GHZ):           0.0173974           0.0145137           0.0099295
 Standard basis: SVP (5D, 7F)
 There are  1809 symmetry adapted cartesian basis functions of A   symmetry.
 There are  1717 symmetry adapted basis functions of A   symmetry.
  1717 basis functions,  2922 primitive gaussians,  1809 cartesian basis functions
   358 alpha electrons      358 beta electrons
       nuclear repulsion energy     20468.8573876483 Hartrees.
 NAtoms=  176 NActive=  176 NUniq=  176 SFac= 1.00D+00 NAtFMM=   60 NAOKFM=T Big=T
 Integral buffers will be    131072 words long.
 Raffenetti 2 integral format.
 Two-electron integral symmetry is turned on.
 One-electron integrals computed using PRISM.
 NBasis=  1717 RedAO= T EigKep=  2.83D-04  NBF=  1717
 NBsUse=  1717 1.00D-06 EigRej= -1.00D+00 NBFU=  1717
 ExpMin= 1.98D-02 ExpMax= 3.51D+04 ExpMxC= 5.28D+03 IAcc=3 IRadAn=         5 AccDes= 0.00D+00
 Harris functional with IExCor=  402 and IRadAn=       5 diagonalized for initial guess.
 HarFok:  IExCor=  402 AccDes= 0.00D+00 IRadAn=         5 IDoV= 1 UseB2=F ITyADJ=14
 ICtDFT=  3500011 ScaDFX=  1.000000  1.000000  1.000000  1.000000
 FoFCou: FMM=F IPFlag=           0 FMFlag=      100000 FMFlg1=        2001
         NFxFlg=           0 DoJE=T BraDBF=F KetDBF=T FulRan=T
         wScrn=  0.000000 ICntrl=       500 IOpCl=  0 I1Cent=   200000004 NGrid=           0
         NMat0=    1 NMatS0=      1 NMatT0=    0 NMatD0=    1 NMtDS0=    0 NMtDT0=    0
 Petite list used in FoFCou.
 Requested convergence on RMS density matrix=1.00D-08 within 128 cycles.
 Requested convergence on MAX density matrix=1.00D-06.
 Requested convergence on             energy=1.00D-06.
 No special actions if energy rises.
 EnCoef did     3 forward-backward iterations
 EnCoef did     1 forward-backward iterations
 EnCoef did     2 forward-backward iterations
 EnCoef did    15 forward-backward iterations
 EnCoef did   100 forward-backward iterations
 EnCoef did    48 forward-backward iterations
 Rare condition: small coef for last iteration: -0.133D-14
 EnCoef did   100 forward-backward iterations
 EnCoef did   100 forward-backward iterations
 Rare condition: small coef for last iteration: -0.408D-14
 EnCoef did   100 forward-backward iterations
 EnCoef did   100 forward-backward iterations
 EnCoef did   100 forward-backward iterations
 EnCoef did   100 forward-backward iterations
 Rare condition: small coef for last iteration: -0.888D-15
 Restarting incremental Fock formation.
 EnCoef did    26 forward-backward iterations
 EnCoef did    36 forward-backward iterations
 Rare condition: small coef for last iteration:  0.444D-15
 EnCoef did    70 forward-backward iterations
 Rare condition: small coef for last iteration: -0.444D-15
 EnCoef did   100 forward-backward iterations
 EnCoef did    30 forward-backward iterations
 Restarting incremental Fock formation.
 SCF Done:  E(RB3LYP) =  -5333.41273307     A.U. after   47 cycles
            NFock= 47  Conv=0.37D-09     -V/T= 2.0081
 SCF density gives NOpUse=  1 NOpAll=  1.
 Hyperfine terms turned off by default for NAtoms > 100.

 **********************************************************************

            Population analysis using the SCF density.

 **********************************************************************

 Orbital symmetries:
 BldTbl:  Degeneracy threshold= 1.00D-02
       Occupied  (A) (A) (A) (A) (A) (A) (A) (A) (A) (A) (A) (A)
                 (A) (A) (A) (A) (A) (A) (A) (A) (A) (A) (A) (A)
                 (A) (A) (A) (A) (A) (A) (A) (A) (A) (A) (A) (A)
                 (A) (A) (A) (A) (A) (A) (A) (A) (A) (A) (A) (A)
                 (A) (A) (A) (A) (A) (A) (A) (A) (A) (A) (A) (A)
                 (A) (A) (A) (A) (A) (A) (A) (A) (A) (A) (A) (A)
                 (A) (A) (A) (A) (A) (A) (A) (A) (A) (A) (A) (A)
                 (A) (A) (A) (A) (A) (A) (A) (A) (A) (A) (A) (A)
                 (A) (A) (A) (A) (A) (A) (A) (A) (A) (A) (A) (A)
                 (A) (A) (A) (A) (A) (A) (A) (A) (A) (A) (A) (A)
                 (A) (A) (A) (A) (A) (A) (A) (A) (A) (A) (A) (A)
                 (A) (A) (A) (A) (A) (A) (A) (A) (A) (A) (A) (A)
                 (A) (A) (A) (A) (A) (A) (A) (A) (A) (A) (A) (A)
                 (A) (A) (A) (A) (A) (A) (A) (A) (A) (A) (A) (A)
                 (A) (A) (A) (A) (A) (A) (A) (A) (A) (A) (A) (A)
                 (A) (A) (A) (A) (A) (A) (A) (A) (A) (A) (A) (A)
                 (A) (A) (A) (A) (A) (A) (A) (A) (A) (A) (A) (A)
                 (A) (A) (A) (A) (A) (A) (A) (A) (A) (A) (A) (A)
                 (A) (A) (A) (A) (A) (A) (A) (A) (A) (A) (A) (A)
                 (A) (A) (A) (A) (A) (A) (A) (A) (A) (A) (A) (A)
                 (A) (A) (A) (A) (A) (A) (A) (A) (A) (A) (A) (A)
                 (A) (A) (A) (A) (A) (A) (A) (A) (A) (A) (A) (A)
                 (A) (A) (A) (A) (A) (A) (A) (A) (A) (A) (A) (A)
                 (A) (A) (A) (A) (A) (A) (A) (A) (A) (A) (A) (A)
                 (A) (A) (A) (A) (A) (A) (A) (A) (A) (A) (A) (A)
                 (A) (A) (A) (A) (A) (A) (A) (A) (A) (A) (A) (A)
                 (A) (A) (A) (A) (A) (A) (A) (A) (A) (A) (A) (A)
                 (A) (A) (A) (A) (A) (A) (A) (A) (A) (A) (A) (A)
                 (A) (A) (A) (A) (A) (A) (A) (A) (A) (A) (A) (A)
                 (A) (A) (A) (A) (A) (A) (A) (A) (A) (A)
       Virtual   (A) (A) (A) (A) (A) (A) (A) (A) (A) (A) (A) (A)
                 (A) (A) (A) (A) (A) (A) (A) (A) (A) (A) (A) (A)
                 (A) (A) (A) (A) (A) (A) (A) (A) (A) (A) (A) (A)
                 (A) (A) (A) (A) (A) (A) (A) (A) (A) (A) (A) (A)
                 (A) (A) (A) (A) (A) (A) (A) (A) (A) (A) (A) (A)
                 (A) (A) (A) (A) (A) (A) (A) (A) (A) (A) (A) (A)
                 (A) (A) (A) (A) (A) (A) (A) (A) (A) (A) (A) (A)
                 (A) (A) (A) (A) (A) (A) (A) (A) (A) (A) (A) (A)
                 (A) (A) (A) (A) (A) (A) (A) (A) (A) (A) (A) (A)
                 (A) (A) (A) (A) (A) (A) (A) (A) (A) (A) (A) (A)
                 (A) (A) (A) (A) (A) (A) (A) (A) (A) (A) (A) (A)
                 (A) (A) (A) (A) (A) (A) (A) (A) (A) (A) (A) (A)
                 (A) (A) (A) (A) (A) (A) (A) (A) (A) (A) (A) (A)
                 (A) (A) (A) (A) (A) (A) (A) (A) (A) (A) (A) (A)
                 (A) (A) (A) (A) (A) (A) (A) (A) (A) (A) (A) (A)
                 (A) (A) (A) (A) (A) (A) (A) (A) (A) (A) (A) (A)
                 (A) (A) (A) (A) (A) (A) (A) (A) (A) (A) (A) (A)
                 (A) (A) (A) (A) (A) (A) (A) (A) (A) (A) (A) (A)
                 (A) (A) (A) (A) (A) (A) (A) (A) (A) (A) (A) (A)
                 (A) (A) (A) (A) (A) (A) (A) (A) (A) (A) (A) (A)
                 (A) (A) (A) (A) (A) (A) (A) (A) (A) (A) (A) (A)
                 (A) (A) (A) (A) (A) (A) (A) (A) (A) (A) (A) (A)
                 (A) (A) (A) (A) (A) (A) (A) (A) (A) (A) (A) (A)
                 (A) (A) (A) (A) (A) (A) (A) (A) (A) (A) (A) (A)
                 (A) (A) (A) (A) (A) (A) (A) (A) (A) (A) (A) (A)
                 (A) (A) (A) (A) (A) (A) (A) (A) (A) (A) (A) (A)
                 (A) (A) (A) (A) (A) (A) (A) (A) (A) (A) (A) (A)
                 (A) (A) (A) (A) (A) (A) (A) (A) (A) (A) (A) (A)
                 (A) (A) (A) (A) (A) (A) (A) (A) (A) (A) (A) (A)
                 (A) (A) (A) (A) (A) (A) (A) (A) (A) (A) (A) (A)
                 (A) (A) (A) (A) (A) (A) (A) (A) (A) (A) (A) (A)
                 (A) (A) (A) (A) (A) (A) (A) (A) (A) (A) (A) (A)
                 (A) (A) (A) (A) (A) (A) (A) (A) (A) (A) (A) (A)
                 (A) (A) (A) (A) (A) (A) (A) (A) (A) (A) (A) (A)
                 (A) (A) (A) (A) (A) (A) (A) (A) (A) (A) (A) (A)
                 (A) (A) (A) (A) (A) (A) (A) (A) (A) (A) (A) (A)
                 (A) (A) (A) (A) (A) (A) (A) (A) (A) (A) (A) (A)
                 (A) (A) (A) (A) (A) (A) (A) (A) (A) (A) (A) (A)
                 (A) (A) (A) (A) (A) (A) (A) (A) (A) (A) (A) (A)
                 (A) (A) (A) (A) (A) (A) (A) (A) (A) (A) (A) (A)
                 (A) (A) (A) (A) (A) (A) (A) (A) (A) (A) (A) (A)
                 (A) (A) (A) (A) (A) (A) (A) (A) (A) (A) (A) (A)
                 (A) (A) (A) (A) (A) (A) (A) (A) (A) (A) (A) (A)
                 (A) (A) (A) (A) (A) (A) (A) (A) (A) (A) (A) (A)
                 (A) (A) (A) (A) (A) (A) (A) (A) (A) (A) (A) (A)
                 (A) (A) (A) (A) (A) (A) (A) (A) (A) (A) (A) (A)
                 (A) (A) (A) (A) (A) (A) (A) (A) (A) (A) (A) (A)
                 (A) (A) (A) (A) (A) (A) (A) (A) (A) (A) (A) (A)
                 (A) (A) (A) (A) (A) (A) (A) (A) (A) (A) (A) (A)
                 (A) (A) (A) (A) (A) (A) (A) (A) (A) (A) (A) (A)
                 (A) (A) (A) (A) (A) (A) (A) (A) (A) (A) (A) (A)
                 (A) (A) (A) (A) (A) (A) (A) (A) (A) (A) (A) (A)
                 (A) (A) (A) (A) (A) (A) (A) (A) (A) (A) (A) (A)
                 (A) (A) (A) (A) (A) (A) (A) (A) (A) (A) (A) (A)
                 (A) (A) (A) (A) (A) (A) (A) (A) (A) (A) (A) (A)
                 (A) (A) (A) (A) (A) (A) (A) (A) (A) (A) (A) (A)
                 (A) (A) (A) (A) (A) (A) (A) (A) (A) (A) (A) (A)
                 (A) (A) (A) (A) (A) (A) (A) (A) (A) (A) (A) (A)
                 (A) (A) (A) (A) (A) (A) (A) (A) (A) (A) (A) (A)
                 (A) (A) (A) (A) (A) (A) (A) (A) (A) (A) (A) (A)
                 (A) (A) (A) (A) (A) (A) (A) (A) (A) (A) (A) (A)
                 (A) (A) (A) (A) (A) (A) (A) (A) (A) (A) (A) (A)
                 (A) (A) (A) (A) (A) (A) (A) (A) (A) (A) (A) (A)
                 (A) (A) (A) (A) (A) (A) (A) (A) (A) (A) (A) (A)
                 (A) (A) (A) (A) (A) (A) (A) (A) (A) (A) (A) (A)
                 (A) (A) (A) (A) (A) (A) (A) (A) (A) (A) (A) (A)
                 (A) (A) (A) (A) (A) (A) (A) (A) (A) (A) (A) (A)
                 (A) (A) (A) (A) (A) (A) (A) (A) (A) (A) (A) (A)
                 (A) (A) (A) (A) (A) (A) (A) (A) (A) (A) (A) (A)
                 (A) (A) (A) (A) (A) (A) (A) (A) (A) (A) (A) (A)
                 (A) (A) (A) (A) (A) (A) (A) (A) (A) (A) (A) (A)
                 (A) (A) (A) (A) (A) (A) (A) (A) (A) (A) (A) (A)
                 (A) (A) (A) (A) (A) (A) (A) (A) (A) (A) (A) (A)
                 (A) (A) (A) (A) (A) (A) (A) (A) (A) (A) (A) (A)
                 (A) (A) (A) (A) (A) (A) (A) (A) (A) (A) (A) (A)
                 (A) (A) (A) (A) (A) (A) (A) (A) (A) (A) (A) (A)
                 (A) (A) (A) (A) (A) (A) (A) (A) (A) (A) (A) (A)
                 (A) (A) (A) (A) (A) (A) (A) (A) (A) (A) (A) (A)
                 (A) (A) (A) (A) (A) (A) (A) (A) (A) (A) (A) (A)
                 (A) (A) (A) (A) (A) (A) (A) (A) (A) (A) (A) (A)
                 (A) (A) (A) (A) (A) (A) (A) (A) (A) (A) (A) (A)
                 (A) (A) (A) (A) (A) (A) (A) (A) (A) (A) (A) (A)
                 (A) (A) (A) (A) (A) (A) (A) (A) (A) (A) (A) (A)
                 (A) (A) (A) (A) (A) (A) (A) (A) (A) (A) (A) (A)
                 (A) (A) (A) (A) (A) (A) (A) (A) (A) (A) (A) (A)
                 (A) (A) (A) (A) (A) (A) (A) (A) (A) (A) (A) (A)
                 (A) (A) (A) (A) (A) (A) (A) (A) (A) (A) (A) (A)
                 (A) (A) (A) (A) (A) (A) (A) (A) (A) (A) (A) (A)
                 (A) (A) (A) (A) (A) (A) (A) (A) (A) (A) (A) (A)
                 (A) (A) (A) (A) (A) (A) (A) (A) (A) (A) (A) (A)
                 (A) (A) (A) (A) (A) (A) (A) (A) (A) (A) (A) (A)
                 (A) (A) (A) (A) (A) (A) (A) (A) (A) (A) (A) (A)
                 (A) (A) (A) (A) (A) (A) (A) (A) (A) (A) (A) (A)
                 (A) (A) (A) (A) (A) (A) (A) (A) (A) (A) (A) (A)
                 (A) (A) (A) (A) (A) (A) (A) (A) (A) (A) (A) (A)
                 (A) (A) (A) (A) (A) (A) (A) (A) (A) (A) (A) (A)
                 (A) (A) (A) (A) (A) (A) (A) (A) (A) (A) (A) (A)
                 (A) (A) (A) (A) (A) (A) (A) (A) (A) (A) (A) (A)
                 (A) (A) (A) (A) (A) (A) (A) (A) (A) (A) (A) (A)
                 (A) (A) (A) (A) (A) (A) (A) (A) (A) (A) (A) (A)
                 (A) (A) (A) (A) (A) (A) (A) (A) (A) (A) (A) (A)
                 (A) (A) (A) (A) (A) (A) (A) (A) (A) (A) (A) (A)
                 (A) (A) (A) (A) (A) (A) (A) (A) (A) (A) (A) (A)
                 (A) (A) (A) (A) (A) (A) (A) (A) (A) (A) (A) (A)
                 (A) (A) (A) (A) (A) (A) (A) (A) (A) (A) (A) (A)
                 (A) (A) (A) (A) (A) (A) (A) (A) (A) (A) (A) (A)
                 (A) (A) (A) (A) (A) (A) (A) (A) (A) (A) (A) (A)
                 (A) (A) (A) (A) (A) (A) (A) (A) (A) (A) (A) (A)
                 (A) (A) (A) (A) (A) (A) (A) (A) (A) (A) (A) (A)
                 (A) (A) (A) (A) (A) (A) (A) (A) (A) (A) (A) (A)
                 (A) (A) (A) (A) (A) (A) (A) (A) (A) (A) (A) (A)
                 (A) (A) (A) (A) (A) (A) (A) (A) (A) (A) (A) (A)
                 (A) (A) (A) (A) (A) (A) (A) (A) (A) (A) (A) (A)
                 (A) (A) (A)
 The electronic state is 1-A.
 Alpha  occ. eigenvalues -- -145.51744 -19.21501 -19.16904 -19.14511 -19.12397
 Alpha  occ. eigenvalues --  -19.12282 -19.12136 -19.12037 -19.11511 -19.11251
 Alpha  occ. eigenvalues --  -19.11169 -19.10778 -19.09984 -19.09770 -19.09236
 Alpha  occ. eigenvalues --  -19.09058 -19.09027 -19.08910 -19.08879 -19.06984
 Alpha  occ. eigenvalues --  -19.06695 -19.06690 -19.03492 -19.03216 -15.57668
 Alpha  occ. eigenvalues --  -14.41721 -14.38936 -14.38097 -14.37556 -14.37420
 Alpha  occ. eigenvalues --  -14.36703 -14.36238 -14.35313 -14.35281 -14.34843
 Alpha  occ. eigenvalues --  -14.34404 -14.34094 -14.34077 -14.32852 -14.32215
 Alpha  occ. eigenvalues --  -12.71287 -12.71210 -12.71195 -10.30939 -10.30840
 Alpha  occ. eigenvalues --  -10.30757 -10.30519 -10.30474 -10.29439 -10.29378
 Alpha  occ. eigenvalues --  -10.28804 -10.28505 -10.27980 -10.27925 -10.27653
 Alpha  occ. eigenvalues --  -10.27625 -10.26692 -10.26309 -10.26009 -10.25991
 Alpha  occ. eigenvalues --  -10.25661 -10.25537 -10.25396 -10.25355 -10.25311
 Alpha  occ. eigenvalues --  -10.24984 -10.24075 -10.23803 -10.23716 -10.23318
 Alpha  occ. eigenvalues --  -10.22793 -10.22630 -10.21656 -10.21646 -10.21601
 Alpha  occ. eigenvalues --  -10.21274 -10.20736 -10.20562 -10.20005 -10.19849
 Alpha  occ. eigenvalues --  -10.19830 -10.19562 -10.19492 -10.19471 -10.18736
 Alpha  occ. eigenvalues --  -10.18667 -10.18374 -10.18056 -10.17995 -10.17914
 Alpha  occ. eigenvalues --  -10.17788 -10.17680 -10.16541 -10.15921 -10.15700
 Alpha  occ. eigenvalues --  -10.14455 -10.14101  -1.94218  -1.21859  -1.21273
 Alpha  occ. eigenvalues --   -1.21141  -1.07345  -1.06729  -1.05975  -1.05692
 Alpha  occ. eigenvalues --   -1.05667  -1.05043  -1.04758  -1.04227  -1.04024
 Alpha  occ. eigenvalues --   -1.03328  -1.02968  -1.02669  -1.02554  -1.02262
 Alpha  occ. eigenvalues --   -1.02192  -1.01861  -1.01532  -0.99910  -0.99729
 Alpha  occ. eigenvalues --   -0.98279  -0.96606  -0.95757  -0.95366  -0.95186
 Alpha  occ. eigenvalues --   -0.94590  -0.93787  -0.93406  -0.92963  -0.92854
 Alpha  occ. eigenvalues --   -0.92349  -0.92339  -0.92190  -0.91321  -0.90815
 Alpha  occ. eigenvalues --   -0.89860  -0.89017  -0.88652  -0.87022  -0.85714
 Alpha  occ. eigenvalues --   -0.81717  -0.81115  -0.80365  -0.80014  -0.79767
 Alpha  occ. eigenvalues --   -0.79659  -0.78757  -0.76929  -0.76862  -0.76190
 Alpha  occ. eigenvalues --   -0.75916  -0.75311  -0.75280  -0.74608  -0.73784
 Alpha  occ. eigenvalues --   -0.72561  -0.72037  -0.70784  -0.70436  -0.69295
 Alpha  occ. eigenvalues --   -0.69004  -0.68951  -0.68366  -0.67203  -0.66697
 Alpha  occ. eigenvalues --   -0.65954  -0.64433  -0.64233  -0.63813  -0.63308
 Alpha  occ. eigenvalues --   -0.62775  -0.62632  -0.62145  -0.62004  -0.61861
 Alpha  occ. eigenvalues --   -0.61030  -0.60659  -0.60283  -0.60160  -0.60103
 Alpha  occ. eigenvalues --   -0.59582  -0.59223  -0.59033  -0.58769  -0.58604
 Alpha  occ. eigenvalues --   -0.57891  -0.57696  -0.57574  -0.57440  -0.56684
 Alpha  occ. eigenvalues --   -0.56061  -0.55668  -0.55436  -0.55351  -0.55024
 Alpha  occ. eigenvalues --   -0.54588  -0.54547  -0.54121  -0.54027  -0.53581
 Alpha  occ. eigenvalues --   -0.53477  -0.53378  -0.52982  -0.52462  -0.51499
 Alpha  occ. eigenvalues --   -0.51421  -0.51089  -0.50993  -0.50740  -0.50565
 Alpha  occ. eigenvalues --   -0.50244  -0.50204  -0.49788  -0.49685  -0.49077
 Alpha  occ. eigenvalues --   -0.48840  -0.48817  -0.48702  -0.48526  -0.48027
 Alpha  occ. eigenvalues --   -0.47749  -0.47447  -0.47347  -0.47080  -0.46821
 Alpha  occ. eigenvalues --   -0.46669  -0.46522  -0.46450  -0.46113  -0.45990
 Alpha  occ. eigenvalues --   -0.45934  -0.45856  -0.45759  -0.45676  -0.45324
 Alpha  occ. eigenvalues --   -0.45221  -0.44909  -0.44706  -0.44585  -0.44263
 Alpha  occ. eigenvalues --   -0.44006  -0.43960  -0.43933  -0.43704  -0.43627
 Alpha  occ. eigenvalues --   -0.43415  -0.43215  -0.43072  -0.43017  -0.42891
 Alpha  occ. eigenvalues --   -0.42730  -0.42685  -0.42312  -0.42221  -0.42106
 Alpha  occ. eigenvalues --   -0.41845  -0.41687  -0.41592  -0.41422  -0.41238
 Alpha  occ. eigenvalues --   -0.41029  -0.40810  -0.40775  -0.40644  -0.40494
 Alpha  occ. eigenvalues --   -0.40460  -0.40406  -0.40292  -0.40150  -0.39922
 Alpha  occ. eigenvalues --   -0.39726  -0.39666  -0.39618  -0.39443  -0.39295
 Alpha  occ. eigenvalues --   -0.39140  -0.38991  -0.38939  -0.38841  -0.38710
 Alpha  occ. eigenvalues --   -0.38634  -0.38551  -0.38550  -0.38291  -0.38081
 Alpha  occ. eigenvalues --   -0.37956  -0.37553  -0.37349  -0.37202  -0.37042
 Alpha  occ. eigenvalues --   -0.36919  -0.36901  -0.36879  -0.36567  -0.36459
 Alpha  occ. eigenvalues --   -0.36338  -0.36170  -0.35799  -0.35696  -0.35542
 Alpha  occ. eigenvalues --   -0.35285  -0.35136  -0.35085  -0.35009  -0.34839
 Alpha  occ. eigenvalues --   -0.34346  -0.33968  -0.33831  -0.33656  -0.33580
 Alpha  occ. eigenvalues --   -0.33020  -0.32911  -0.32375  -0.32218  -0.31997
 Alpha  occ. eigenvalues --   -0.31096  -0.30859  -0.30703  -0.30138  -0.30096
 Alpha  occ. eigenvalues --   -0.29844  -0.29494  -0.29459  -0.29138  -0.29057
 Alpha  occ. eigenvalues --   -0.28389  -0.28111  -0.28072  -0.27741  -0.27609
 Alpha  occ. eigenvalues --   -0.27179  -0.27081  -0.26821  -0.26760  -0.26530
 Alpha  occ. eigenvalues --   -0.26515  -0.26411  -0.26277  -0.26130  -0.26031
 Alpha  occ. eigenvalues --   -0.25852  -0.25553  -0.25402  -0.25212  -0.24895
 Alpha  occ. eigenvalues --   -0.24835  -0.24666  -0.24451  -0.23987  -0.22892
 Alpha  occ. eigenvalues --   -0.22809  -0.22741  -0.22502  -0.22247  -0.22237
 Alpha  occ. eigenvalues --   -0.19685  -0.18982  -0.16866
 Alpha virt. eigenvalues --   -0.15833  -0.05382  -0.02592  -0.02427  -0.02412
 Alpha virt. eigenvalues --   -0.01576  -0.01048  -0.00784  -0.00434  -0.00264
 Alpha virt. eigenvalues --    0.00238   0.00747   0.00863   0.01111   0.01414
 Alpha virt. eigenvalues --    0.01508   0.01783   0.02291   0.02414   0.02508
 Alpha virt. eigenvalues --    0.02760   0.02815   0.03083   0.03585   0.04038
 Alpha virt. eigenvalues --    0.04203   0.04385   0.04462   0.04482   0.04810
 Alpha virt. eigenvalues --    0.05134   0.05642   0.05945   0.06241   0.06458
 Alpha virt. eigenvalues --    0.06906   0.07258   0.07627   0.07703   0.07848
 Alpha virt. eigenvalues --    0.08021   0.08504   0.08755   0.09051   0.09093
 Alpha virt. eigenvalues --    0.09328   0.09401   0.09563   0.09706   0.09911
 Alpha virt. eigenvalues --    0.09982   0.10076   0.10382   0.10476   0.10703
 Alpha virt. eigenvalues --    0.11001   0.11044   0.11367   0.11509   0.11565
 Alpha virt. eigenvalues --    0.11889   0.12104   0.12336   0.12354   0.12775
 Alpha virt. eigenvalues --    0.12940   0.13054   0.13150   0.13197   0.13505
 Alpha virt. eigenvalues --    0.13541   0.13671   0.13796   0.13963   0.14284
 Alpha virt. eigenvalues --    0.14483   0.14542   0.14647   0.14857   0.15016
 Alpha virt. eigenvalues --    0.15134   0.15238   0.15301   0.15459   0.15617
 Alpha virt. eigenvalues --    0.15738   0.15836   0.16046   0.16160   0.16336
 Alpha virt. eigenvalues --    0.16401   0.16600   0.16627   0.16734   0.16935
 Alpha virt. eigenvalues --    0.17042   0.17401   0.17483   0.17845   0.18072
 Alpha virt. eigenvalues --    0.18277   0.18644   0.18903   0.19149   0.19157
 Alpha virt. eigenvalues --    0.19355   0.19506   0.19646   0.19755   0.19894
 Alpha virt. eigenvalues --    0.20128   0.20537   0.20627   0.20762   0.20894
 Alpha virt. eigenvalues --    0.21011   0.21204   0.21459   0.21499   0.21717
 Alpha virt. eigenvalues --    0.22094   0.22352   0.22571   0.22629   0.22932
 Alpha virt. eigenvalues --    0.23215   0.23319   0.23511   0.23600   0.23736
 Alpha virt. eigenvalues --    0.23821   0.24075   0.24369   0.24444   0.24493
 Alpha virt. eigenvalues --    0.24908   0.25058   0.25282   0.25467   0.25705
 Alpha virt. eigenvalues --    0.25872   0.26044   0.26139   0.26719   0.26863
 Alpha virt. eigenvalues --    0.27098   0.27140   0.27671   0.27817   0.27890
 Alpha virt. eigenvalues --    0.28233   0.28402   0.28610   0.28732   0.29241
 Alpha virt. eigenvalues --    0.29486   0.29574   0.29754   0.29803   0.29944
 Alpha virt. eigenvalues --    0.30224   0.30597   0.30738   0.31151   0.31714
 Alpha virt. eigenvalues --    0.31827   0.32285   0.32313   0.32607   0.32722
 Alpha virt. eigenvalues --    0.33159   0.34002   0.34175   0.34823   0.34895
 Alpha virt. eigenvalues --    0.35666   0.35808   0.36056   0.36100   0.36583
 Alpha virt. eigenvalues --    0.37083   0.37527   0.37938   0.38170   0.38587
 Alpha virt. eigenvalues --    0.38741   0.38921   0.38940   0.39353   0.39491
 Alpha virt. eigenvalues --    0.39735   0.39966   0.40370   0.40698   0.40904
 Alpha virt. eigenvalues --    0.40977   0.41203   0.41614   0.41749   0.42050
 Alpha virt. eigenvalues --    0.42236   0.42302   0.42515   0.42721   0.42992
 Alpha virt. eigenvalues --    0.43204   0.43478   0.43538   0.43688   0.44065
 Alpha virt. eigenvalues --    0.44142   0.44271   0.44495   0.44632   0.44844
 Alpha virt. eigenvalues --    0.45084   0.45312   0.45425   0.45564   0.45797
 Alpha virt. eigenvalues --    0.45874   0.46054   0.46088   0.46178   0.46403
 Alpha virt. eigenvalues --    0.46417   0.46587   0.46875   0.47159   0.47188
 Alpha virt. eigenvalues --    0.47415   0.47528   0.47762   0.48025   0.48492
 Alpha virt. eigenvalues --    0.48669   0.48754   0.48817   0.49193   0.49211
 Alpha virt. eigenvalues --    0.49291   0.49448   0.49614   0.49817   0.50023
 Alpha virt. eigenvalues --    0.50404   0.50766   0.50781   0.51212   0.51479
 Alpha virt. eigenvalues --    0.51733   0.51860   0.52117   0.52398   0.52426
 Alpha virt. eigenvalues --    0.52623   0.52834   0.53022   0.53120   0.53334
 Alpha virt. eigenvalues --    0.53358   0.53772   0.53804   0.54033   0.54336
 Alpha virt. eigenvalues --    0.54497   0.54786   0.54998   0.55171   0.55305
 Alpha virt. eigenvalues --    0.55691   0.55951   0.56174   0.56220   0.56491
 Alpha virt. eigenvalues --    0.56659   0.56947   0.57110   0.57281   0.57392
 Alpha virt. eigenvalues --    0.57506   0.57724   0.58136   0.58320   0.58737
 Alpha virt. eigenvalues --    0.58933   0.59063   0.59314   0.59429   0.59508
 Alpha virt. eigenvalues --    0.59637   0.59744   0.59866   0.59999   0.60281
 Alpha virt. eigenvalues --    0.60289   0.60392   0.60581   0.60782   0.60832
 Alpha virt. eigenvalues --    0.60852   0.61098   0.61209   0.61242   0.61326
 Alpha virt. eigenvalues --    0.61609   0.61806   0.61893   0.62091   0.62311
 Alpha virt. eigenvalues --    0.62354   0.62534   0.62662   0.62791   0.62894
 Alpha virt. eigenvalues --    0.63074   0.63126   0.63328   0.63370   0.63549
 Alpha virt. eigenvalues --    0.63740   0.63817   0.63951   0.63997   0.64123
 Alpha virt. eigenvalues --    0.64173   0.64280   0.64407   0.64506   0.64629
 Alpha virt. eigenvalues --    0.64745   0.64792   0.64924   0.65082   0.65203
 Alpha virt. eigenvalues --    0.65364   0.65492   0.65622   0.65692   0.65810
 Alpha virt. eigenvalues --    0.65990   0.66023   0.66157   0.66223   0.66392
 Alpha virt. eigenvalues --    0.66582   0.66664   0.66746   0.66933   0.67002
 Alpha virt. eigenvalues --    0.67120   0.67288   0.67361   0.67372   0.67399
 Alpha virt. eigenvalues --    0.67531   0.67682   0.67882   0.67947   0.67996
 Alpha virt. eigenvalues --    0.68126   0.68215   0.68246   0.68320   0.68389
 Alpha virt. eigenvalues --    0.68507   0.68638   0.68734   0.68833   0.68960
 Alpha virt. eigenvalues --    0.69145   0.69319   0.69394   0.69471   0.69606
 Alpha virt. eigenvalues --    0.69690   0.69780   0.70042   0.70159   0.70175
 Alpha virt. eigenvalues --    0.70306   0.70407   0.70654   0.70892   0.71002
 Alpha virt. eigenvalues --    0.71102   0.71192   0.71402   0.71453   0.71603
 Alpha virt. eigenvalues --    0.71744   0.71845   0.72056   0.72130   0.72352
 Alpha virt. eigenvalues --    0.72416   0.72538   0.72763   0.73065   0.73135
 Alpha virt. eigenvalues --    0.73309   0.73508   0.73696   0.73917   0.74143
 Alpha virt. eigenvalues --    0.74631   0.74720   0.74750   0.74965   0.75208
 Alpha virt. eigenvalues --    0.75445   0.75674   0.75863   0.75954   0.76061
 Alpha virt. eigenvalues --    0.76193   0.76484   0.76658   0.76716   0.76905
 Alpha virt. eigenvalues --    0.77205   0.77482   0.77521   0.78042   0.78299
 Alpha virt. eigenvalues --    0.78461   0.78895   0.78962   0.79123   0.79293
 Alpha virt. eigenvalues --    0.79772   0.80053   0.80243   0.80612   0.80813
 Alpha virt. eigenvalues --    0.80902   0.81475   0.81692   0.81779   0.81977
 Alpha virt. eigenvalues --    0.82011   0.82243   0.82470   0.82889   0.83032
 Alpha virt. eigenvalues --    0.83389   0.83573   0.84025   0.84626   0.84918
 Alpha virt. eigenvalues --    0.85032   0.85584   0.85813   0.85851   0.86337
 Alpha virt. eigenvalues --    0.86475   0.86607   0.87088   0.87198   0.87370
 Alpha virt. eigenvalues --    0.87599   0.88024   0.88969   0.89029   0.89212
 Alpha virt. eigenvalues --    0.89359   0.89838   0.90463   0.90563   0.90833
 Alpha virt. eigenvalues --    0.91062   0.91251   0.91446   0.91564   0.91956
 Alpha virt. eigenvalues --    0.92075   0.92434   0.93154   0.93450   0.93976
 Alpha virt. eigenvalues --    0.94152   0.94381   0.94755   0.95175   0.95406
 Alpha virt. eigenvalues --    0.95645   0.96018   0.96254   0.96518   0.96622
 Alpha virt. eigenvalues --    0.97039   0.97213   0.97272   0.97686   0.97798
 Alpha virt. eigenvalues --    0.98057   0.98144   0.98490   0.98944   0.99209
 Alpha virt. eigenvalues --    0.99356   0.99684   0.99703   0.99952   1.00085
 Alpha virt. eigenvalues --    1.00253   1.00479   1.01037   1.01282   1.01580
 Alpha virt. eigenvalues --    1.01680   1.02006   1.02160   1.02438   1.02680
 Alpha virt. eigenvalues --    1.03042   1.03132   1.03368   1.03654   1.03882
 Alpha virt. eigenvalues --    1.04228   1.04493   1.04901   1.05352   1.05730
 Alpha virt. eigenvalues --    1.05853   1.06031   1.06356   1.06697   1.06874
 Alpha virt. eigenvalues --    1.07374   1.07528   1.07808   1.07952   1.08043
 Alpha virt. eigenvalues --    1.08549   1.08770   1.08958   1.09557   1.09787
 Alpha virt. eigenvalues --    1.10091   1.10643   1.10823   1.11217   1.11333
 Alpha virt. eigenvalues --    1.11595   1.11876   1.12040   1.12288   1.12702
 Alpha virt. eigenvalues --    1.13084   1.13474   1.13992   1.14139   1.14401
 Alpha virt. eigenvalues --    1.14621   1.15033   1.15206   1.15329   1.15849
 Alpha virt. eigenvalues --    1.16085   1.16321   1.16756   1.17035   1.17138
 Alpha virt. eigenvalues --    1.17182   1.18092   1.18522   1.18720   1.18765
 Alpha virt. eigenvalues --    1.19049   1.19077   1.19272   1.19431   1.19589
 Alpha virt. eigenvalues --    1.19628   1.20069   1.20282   1.20556   1.20926
 Alpha virt. eigenvalues --    1.21341   1.21412   1.21456   1.21879   1.22121
 Alpha virt. eigenvalues --    1.22224   1.22619   1.22858   1.22955   1.23171
 Alpha virt. eigenvalues --    1.23501   1.23826   1.24089   1.24215   1.24619
 Alpha virt. eigenvalues --    1.25080   1.25272   1.25569   1.25838   1.26067
 Alpha virt. eigenvalues --    1.26351   1.26553   1.26759   1.26812   1.26909
 Alpha virt. eigenvalues --    1.27362   1.27649   1.27912   1.28274   1.28495
 Alpha virt. eigenvalues --    1.28574   1.28774   1.29161   1.29378   1.29611
 Alpha virt. eigenvalues --    1.30026   1.30146   1.30430   1.30795   1.31118
 Alpha virt. eigenvalues --    1.31418   1.32025   1.32450   1.32587   1.32847
 Alpha virt. eigenvalues --    1.33318   1.33537   1.33703   1.33859   1.34350
 Alpha virt. eigenvalues --    1.34787   1.35009   1.35118   1.35681   1.35921
 Alpha virt. eigenvalues --    1.36087   1.36226   1.36557   1.36801   1.36996
 Alpha virt. eigenvalues --    1.37445   1.37891   1.38080   1.38423   1.38698
 Alpha virt. eigenvalues --    1.39061   1.39137   1.39322   1.39476   1.39788
 Alpha virt. eigenvalues --    1.39909   1.40346   1.40737   1.41139   1.41447
 Alpha virt. eigenvalues --    1.41739   1.41983   1.42287   1.42599   1.42802
 Alpha virt. eigenvalues --    1.43044   1.43309   1.43395   1.43883   1.44077
 Alpha virt. eigenvalues --    1.44302   1.44753   1.44913   1.45072   1.45862
 Alpha virt. eigenvalues --    1.46062   1.46271   1.46795   1.47017   1.47262
 Alpha virt. eigenvalues --    1.47713   1.48001   1.48147   1.48387   1.48536
 Alpha virt. eigenvalues --    1.48941   1.49204   1.49492   1.49955   1.50583
 Alpha virt. eigenvalues --    1.50791   1.50989   1.51166   1.51356   1.51679
 Alpha virt. eigenvalues --    1.51901   1.52201   1.52385   1.52876   1.53255
 Alpha virt. eigenvalues --    1.53372   1.53604   1.53802   1.53891   1.54862
 Alpha virt. eigenvalues --    1.55117   1.55257   1.55890   1.56408   1.56435
 Alpha virt. eigenvalues --    1.56850   1.57502   1.57618   1.57863   1.58006
 Alpha virt. eigenvalues --    1.58271   1.58747   1.59039   1.59386   1.59604
 Alpha virt. eigenvalues --    1.59878   1.60343   1.60636   1.60906   1.61313
 Alpha virt. eigenvalues --    1.61713   1.62201   1.62563   1.63059   1.63429
 Alpha virt. eigenvalues --    1.64137   1.64302   1.64544   1.64647   1.65007
 Alpha virt. eigenvalues --    1.65708   1.66117   1.66647   1.67012   1.67188
 Alpha virt. eigenvalues --    1.67469   1.68155   1.68317   1.68714   1.69110
 Alpha virt. eigenvalues --    1.69266   1.69429   1.69536   1.69612   1.70005
 Alpha virt. eigenvalues --    1.70585   1.70933   1.71018   1.71306   1.71394
 Alpha virt. eigenvalues --    1.71627   1.71999   1.72204   1.72460   1.72768
 Alpha virt. eigenvalues --    1.73029   1.73121   1.73279   1.73329   1.73568
 Alpha virt. eigenvalues --    1.73644   1.73870   1.74112   1.74388   1.74657
 Alpha virt. eigenvalues --    1.74707   1.74843   1.75298   1.75520   1.75917
 Alpha virt. eigenvalues --    1.76187   1.76251   1.76438   1.76665   1.76780
 Alpha virt. eigenvalues --    1.76865   1.77137   1.77334   1.77531   1.77691
 Alpha virt. eigenvalues --    1.77768   1.77995   1.78231   1.78445   1.78647
 Alpha virt. eigenvalues --    1.78923   1.79017   1.79068   1.79237   1.79487
 Alpha virt. eigenvalues --    1.79557   1.79672   1.79933   1.79952   1.79983
 Alpha virt. eigenvalues --    1.80328   1.80389   1.80599   1.80886   1.80987
 Alpha virt. eigenvalues --    1.81005   1.81215   1.81275   1.81408   1.81606
 Alpha virt. eigenvalues --    1.81705   1.81918   1.82168   1.82259   1.82400
 Alpha virt. eigenvalues --    1.82591   1.82735   1.82917   1.83039   1.83233
 Alpha virt. eigenvalues --    1.83358   1.83588   1.83676   1.83771   1.84174
 Alpha virt. eigenvalues --    1.84387   1.84496   1.84988   1.85075   1.85231
 Alpha virt. eigenvalues --    1.85304   1.85524   1.85837   1.86019   1.86184
 Alpha virt. eigenvalues --    1.86294   1.86415   1.86480   1.86536   1.87008
 Alpha virt. eigenvalues --    1.87171   1.87262   1.87377   1.87555   1.87671
 Alpha virt. eigenvalues --    1.88034   1.88105   1.88184   1.88549   1.88586
 Alpha virt. eigenvalues --    1.88854   1.89203   1.89330   1.89489   1.89570
 Alpha virt. eigenvalues --    1.89705   1.89892   1.90117   1.90351   1.90617
 Alpha virt. eigenvalues --    1.90720   1.90909   1.91101   1.91224   1.91402
 Alpha virt. eigenvalues --    1.91691   1.91836   1.91918   1.92302   1.92748
 Alpha virt. eigenvalues --    1.92963   1.93168   1.93290   1.93365   1.93532
 Alpha virt. eigenvalues --    1.93675   1.94170   1.94405   1.94780   1.95013
 Alpha virt. eigenvalues --    1.95283   1.95320   1.95531   1.95583   1.95794
 Alpha virt. eigenvalues --    1.96118   1.96175   1.96571   1.96751   1.97182
 Alpha virt. eigenvalues --    1.97319   1.97494   1.97741   1.97833   1.98050
 Alpha virt. eigenvalues --    1.98406   1.98570   1.98757   1.98875   1.99340
 Alpha virt. eigenvalues --    1.99458   1.99841   2.00034   2.00213   2.00364
 Alpha virt. eigenvalues --    2.00642   2.01130   2.01404   2.01475   2.02095
 Alpha virt. eigenvalues --    2.02428   2.02624   2.02845   2.02987   2.03501
 Alpha virt. eigenvalues --    2.03616   2.03738   2.03777   2.04123   2.04363
 Alpha virt. eigenvalues --    2.04549   2.04607   2.04720   2.05044   2.05263
 Alpha virt. eigenvalues --    2.05537   2.05960   2.06187   2.06679   2.06986
 Alpha virt. eigenvalues --    2.07135   2.07764   2.07810   2.08100   2.08587
 Alpha virt. eigenvalues --    2.08714   2.08991   2.09203   2.09693   2.09885
 Alpha virt. eigenvalues --    2.10212   2.10379   2.10513   2.10884   2.11043
 Alpha virt. eigenvalues --    2.11264   2.11550   2.11800   2.12077   2.12276
 Alpha virt. eigenvalues --    2.12442   2.12771   2.12824   2.13145   2.13529
 Alpha virt. eigenvalues --    2.13697   2.14254   2.14602   2.14655   2.14828
 Alpha virt. eigenvalues --    2.14937   2.15206   2.15420   2.15634   2.15906
 Alpha virt. eigenvalues --    2.16485   2.16860   2.16939   2.17255   2.17409
 Alpha virt. eigenvalues --    2.17439   2.17646   2.17841   2.18070   2.18568
 Alpha virt. eigenvalues --    2.19430   2.19473   2.19714   2.19842   2.20166
 Alpha virt. eigenvalues --    2.20538   2.20967   2.21045   2.21285   2.21550
 Alpha virt. eigenvalues --    2.22240   2.22426   2.22915   2.23747   2.23871
 Alpha virt. eigenvalues --    2.24306   2.24859   2.25396   2.25487   2.25742
 Alpha virt. eigenvalues --    2.25914   2.26254   2.26536   2.26691   2.27010
 Alpha virt. eigenvalues --    2.27058   2.27131   2.27326   2.28026   2.28290
 Alpha virt. eigenvalues --    2.28573   2.28952   2.29115   2.29285   2.29968
 Alpha virt. eigenvalues --    2.30210   2.30579   2.31036   2.31130   2.31841
 Alpha virt. eigenvalues --    2.31957   2.32416   2.32467   2.32912   2.33389
 Alpha virt. eigenvalues --    2.33518   2.33710   2.33926   2.34029   2.34151
 Alpha virt. eigenvalues --    2.34437   2.34665   2.34840   2.35009   2.35824
 Alpha virt. eigenvalues --    2.36441   2.36610   2.36915   2.37513   2.37735
 Alpha virt. eigenvalues --    2.38015   2.38192   2.38682   2.38768   2.39006
 Alpha virt. eigenvalues --    2.39381   2.39473   2.40364   2.40451   2.40694
 Alpha virt. eigenvalues --    2.41143   2.41571   2.42157   2.42275   2.42519
 Alpha virt. eigenvalues --    2.42999   2.43320   2.43833   2.44350   2.45084
 Alpha virt. eigenvalues --    2.45356   2.46005   2.46171   2.46220   2.46710
 Alpha virt. eigenvalues --    2.46755   2.47262   2.47479   2.48139   2.48276
 Alpha virt. eigenvalues --    2.48643   2.48734   2.48890   2.48972   2.49302
 Alpha virt. eigenvalues --    2.49390   2.50193   2.50677   2.50749   2.51502
 Alpha virt. eigenvalues --    2.52176   2.52391   2.52502   2.53065   2.53327
 Alpha virt. eigenvalues --    2.53962   2.55007   2.55311   2.55675   2.55892
 Alpha virt. eigenvalues --    2.56456   2.56548   2.56908   2.56951   2.57105
 Alpha virt. eigenvalues --    2.57453   2.57589   2.58626   2.58765   2.58824
 Alpha virt. eigenvalues --    2.58865   2.58991   2.59251   2.59895   2.60015
 Alpha virt. eigenvalues --    2.60251   2.60294   2.61508   2.61645   2.61747
 Alpha virt. eigenvalues --    2.61860   2.62001   2.62056   2.62303   2.63096
 Alpha virt. eigenvalues --    2.63319   2.63441   2.63624   2.63788   2.63943
 Alpha virt. eigenvalues --    2.64112   2.64181   2.64787   2.65213   2.65629
 Alpha virt. eigenvalues --    2.65830   2.66180   2.66649   2.66995   2.67244
 Alpha virt. eigenvalues --    2.67600   2.67991   2.68084   2.68226   2.69103
 Alpha virt. eigenvalues --    2.69129   2.69645   2.69773   2.70027   2.70174
 Alpha virt. eigenvalues --    2.70395   2.70484   2.70897   2.71024   2.71310
 Alpha virt. eigenvalues --    2.71336   2.71598   2.71755   2.71807   2.72305
 Alpha virt. eigenvalues --    2.72850   2.72961   2.73410   2.73618   2.74121
 Alpha virt. eigenvalues --    2.74443   2.74684   2.74868   2.75174   2.75265
 Alpha virt. eigenvalues --    2.75371   2.75509   2.75979   2.76071   2.76612
 Alpha virt. eigenvalues --    2.76779   2.76903   2.77417   2.77793   2.78016
 Alpha virt. eigenvalues --    2.78096   2.78453   2.78747   2.79335   2.80004
 Alpha virt. eigenvalues --    2.80138   2.80164   2.80294   2.80525   2.81054
 Alpha virt. eigenvalues --    2.81177   2.81275   2.81555   2.81936   2.82539
 Alpha virt. eigenvalues --    2.82620   2.83142   2.83562   2.84060   2.84454
 Alpha virt. eigenvalues --    2.84738   2.84901   2.86002   2.86410   2.86575
 Alpha virt. eigenvalues --    2.86765   2.87313   2.87577   2.87720   2.87912
 Alpha virt. eigenvalues --    2.88381   2.88767   2.88895   2.89085   2.89675
 Alpha virt. eigenvalues --    2.89813   2.90217   2.90402   2.90638   2.90701
 Alpha virt. eigenvalues --    2.91233   2.91613   2.91802   2.92009   2.92521
 Alpha virt. eigenvalues --    2.92552   2.93378   2.93523   2.93930   2.93995
 Alpha virt. eigenvalues --    2.94198   2.94281   2.94885   2.94943   2.95223
 Alpha virt. eigenvalues --    2.95623   2.96045   2.96110   2.96550   2.96825
 Alpha virt. eigenvalues --    2.97168   2.97529   2.97634   2.97918   2.98066
 Alpha virt. eigenvalues --    2.98383   2.99058   2.99359   2.99414   3.00420
 Alpha virt. eigenvalues --    3.00889   3.01089   3.01319   3.01397   3.01724
 Alpha virt. eigenvalues --    3.01987   3.02520   3.02875   3.03158   3.03619
 Alpha virt. eigenvalues --    3.04049   3.04826   3.05098   3.05369   3.05829
 Alpha virt. eigenvalues --    3.06301   3.06351   3.06783   3.06873   3.06900
 Alpha virt. eigenvalues --    3.07003   3.07481   3.07918   3.08441   3.08630
 Alpha virt. eigenvalues --    3.08881   3.10435   3.10587   3.10776   3.11044
 Alpha virt. eigenvalues --    3.11474   3.11921   3.12277   3.12381   3.13015
 Alpha virt. eigenvalues --    3.13135   3.13832   3.13869   3.14115   3.14843
 Alpha virt. eigenvalues --    3.14964   3.14989   3.15703   3.16026   3.16403
 Alpha virt. eigenvalues --    3.16837   3.17064   3.17162   3.18130   3.18337
 Alpha virt. eigenvalues --    3.18455   3.18835   3.18940   3.19088   3.19220
 Alpha virt. eigenvalues --    3.19347   3.19872   3.19964   3.21087   3.21458
 Alpha virt. eigenvalues --    3.21883   3.21913   3.22574   3.23288   3.23453
 Alpha virt. eigenvalues --    3.23529   3.24558   3.24747   3.25588   3.25624
 Alpha virt. eigenvalues --    3.26343   3.26460   3.26793   3.28471   3.30246
 Alpha virt. eigenvalues --    3.30530   3.31687   3.31951   3.33675   3.35305
 Alpha virt. eigenvalues --    3.36554   3.36969   3.37870   3.38063   3.38549
 Alpha virt. eigenvalues --    3.41228   3.43869   3.45860   3.46614   3.47558
 Alpha virt. eigenvalues --    3.49631   3.52976   3.53152   3.53835   3.54777
 Alpha virt. eigenvalues --    3.55246   3.55532   3.56365   3.56622   3.57265
 Alpha virt. eigenvalues --    3.59309   3.60299   3.60309   3.61089   3.62144
 Alpha virt. eigenvalues --    3.62152   3.63519   3.63681   3.64846   3.65716
 Alpha virt. eigenvalues --    3.67014   3.67416   3.67879   3.68188   3.68742
 Alpha virt. eigenvalues --    3.68905   3.69514   3.69938   3.70203   3.70313
 Alpha virt. eigenvalues --    3.70739   3.72122   3.72458   3.72731   3.73058
 Alpha virt. eigenvalues --    3.74902   3.75752   3.76821   3.79850
          Condensed to atoms (all electrons):
 Mulliken charges:
               1
     1  C    0.058303
     2  C    0.061186
     3  O   -0.322986
     4  H    0.027289
     5  H    0.005101
     6  H    0.055155
     7  N   -0.088421
     8  C    0.097161
     9  C    0.030463
    10  O   -0.276266
    11  C    0.023692
    12  C    0.091515
    13  O   -0.291236
    14  O   -0.322069
    15  H    0.127596
    16  H   -0.002118
    17  H   -0.004851
    18  H    0.026524
    19  N   -0.198504
    20  C    0.127649
    21  C    0.058805
    22  O   -0.292032
    23  C    0.059618
    24  C    0.025942
    25  C   -0.030018
    26  C    0.066491
    27  N    0.088768
    28  H    0.164954
    29  H    0.023433
    30  H    0.003347
    31  H    0.004172
    32  H   -0.004193
    33  H    0.004278
    34  H    0.028456
    35  H    0.026047
    36  H    0.052153
    37  H    0.029873
    38  H    0.165922
    39  H    0.139043
    40  H    0.144779
    41  N   -0.140823
    42  C    0.145445
    43  C    0.074536
    44  O   -0.275537
    45  C    0.077625
    46  C    0.173106
    47  O   -0.487886
    48  O   -0.361427
    49  H    0.163867
    50  H    0.002665
    51  H    0.045934
    52  H   -0.016244
    53  N   -0.145640
    54  C    0.204675
    55  C   -0.006874
    56  O   -0.266932
    57  H    0.127598
    58  H    0.011259
    59  H    0.049979
    60  N   -0.166520
    61  C    0.112502
    62  C    0.078633
    63  O   -0.283949
    64  C    0.063125
    65  C   -0.033543
    66  N   -0.035252
    67  O   -0.282377
    68  H    0.161520
    69  H    0.003912
    70  H    0.064171
    71  H    0.014214
    72  H    0.094423
    73  H    0.152594
    74  N   -0.130296
    75  C    0.249016
    76  C    0.046086
    77  O   -0.281058
    78  H    0.136560
    79  H    0.007338
    80  H    0.035223
    81  N   -0.127872
    82  C    0.101162
    83  C    0.108735
    84  O   -0.310474
    85  C    0.113156
    86  C   -0.034472
    87  C   -0.019248
    88  C   -0.034931
    89  C   -0.009814
    90  C   -0.042755
    91  C    0.179448
    92  O   -0.196535
    93  H    0.133738
    94  H   -0.002931
    95  H    0.020042
    96  H    0.017920
    97  H   -0.018462
    98  H   -0.005292
    99  H   -0.026836
   100  H   -0.038735
   101  H    0.175908
   102  N   -0.107757
   103  C    0.151176
   104  C    0.134647
   105  O   -0.300862
   106  C   -0.164951
   107  C    0.035913
   108  C    0.073615
   109  C    0.024116
   110  H    0.144103
   111  H    0.015328
   112  H   -0.022178
   113  H   -0.014458
   114  H   -0.014884
   115  H   -0.017179
   116  H    0.046467
   117  H   -0.002114
   118  H    0.027851
   119  H    0.010715
   120  H    0.023182
   121  N   -0.139772
   122  C    0.048944
   123  C    0.022711
   124  O   -0.280824
   125  C    0.303078
   126  O   -0.290922
   127  H    0.145354
   128  H    0.001466
   129  H   -0.009976
   130  H    0.007080
   131  H    0.166281
   132  N   -0.130918
   133  C    0.060987
   134  C    0.080222
   135  O   -0.302230
   136  C    0.070947
   137  H    0.123522
   138  H    0.027825
   139  H    0.020568
   140  H    0.023464
   141  H    0.007441
   142  N   -0.087826
   143  C    0.093615
   144  C    0.074726
   145  O   -0.279442
   146  C    0.029661
   147  H    0.149129
   148  H   -0.035896
   149  H    0.051980
   150  H   -0.011758
   151  H    0.036184
   152  N   -0.138643
   153  C    0.138646
   154  C    0.001673
   155  O   -0.303529
   156  C    0.065106
   157  C    0.051805
   158  C    0.049114
   159  O   -0.348969
   160  O   -0.489058
   161  H    0.123809
   162  H    0.010359
   163  H   -0.069655
   164  H    0.046787
   165  H    0.031804
   166  H    0.002532
   167  N   -0.100197
   168  C    0.139738
   169  H    0.025439
   170  H    0.029554
   171  H    0.014523
   172  H    0.115681
   173  Ca   1.178236
   174  O   -0.331483
   175  H    0.193492
   176  H    0.196463
 Sum of Mulliken charges =  -0.00000
 Mulliken charges with hydrogens summed into heavy atoms:
               1
     1  C    0.145847
     2  C    0.061186
     3  O   -0.322986
     7  N    0.039175
     8  C    0.095043
     9  C    0.030463
    10  O   -0.276266
    11  C    0.045365
    12  C    0.091515
    13  O   -0.291236
    14  O   -0.322069
    19  N   -0.033550
    20  C    0.151082
    21  C    0.058805
    22  O   -0.292032
    23  C    0.067137
    24  C    0.026027
    25  C    0.024485
    26  C    0.148517
    27  N    0.538512
    41  N    0.023044
    42  C    0.148109
    43  C    0.074536
    44  O   -0.275537
    45  C    0.107315
    46  C    0.173106
    47  O   -0.487886
    48  O   -0.361427
    53  N   -0.018041
    54  C    0.265913
    55  C   -0.006874
    56  O   -0.266932
    60  N   -0.004999
    61  C    0.116414
    62  C    0.078633
    63  O   -0.283949
    64  C    0.141510
    65  C   -0.033543
    66  N    0.211765
    67  O   -0.282377
    74  N    0.006265
    75  C    0.291578
    76  C    0.046086
    77  O   -0.281058
    81  N    0.005866
    82  C    0.098231
    83  C    0.108735
    84  O   -0.310474
    85  C    0.151118
    86  C   -0.034472
    87  C   -0.037710
    88  C   -0.040223
    89  C   -0.036650
    90  C   -0.081490
    91  C    0.179448
    92  O   -0.020628
   102  N    0.036347
   103  C    0.166504
   104  C    0.134647
   105  O   -0.300862
   106  C   -0.187129
   107  C    0.006571
   108  C    0.100789
   109  C    0.085864
   121  N    0.005582
   122  C    0.050411
   123  C    0.022711
   124  O   -0.280824
   125  C    0.300182
   126  O   -0.124641
   132  N   -0.007396
   133  C    0.088812
   134  C    0.080222
   135  O   -0.302230
   136  C    0.122420
   142  N    0.061303
   143  C    0.057719
   144  C    0.074726
   145  O   -0.279442
   146  C    0.106066
   152  N   -0.014834
   153  C    0.149006
   154  C    0.001673
   155  O   -0.303529
   156  C    0.042237
   157  C    0.086141
   158  C    0.049114
   159  O   -0.348969
   160  O   -0.489058
   167  N    0.015483
   168  C    0.209254
   173  Ca   1.178236
   174  O    0.058473
 DipInt: DoE/N= T F RetVal/Mat= T F Init=T NMatP=  1 IDeriv=0 Min/MaxMlt=  0  4
 Entering OneElI...
 OneElI was handed  1333951383 working-precision words.
 Multipole integrals L=0 to 4 MinM= 0 MaxM= 0.
 Requested accuracy = 0.1000D-12
 ShPair: Thresh= 1.00D-13 NBox=     0 BxSize= 0.00D+00 RnKept= 3.11D+01
         NSMCal=               327645 NSMKep=              146844
 PrmmSu-InSpLW:  IPartL=    0 NPrtUS=    1 NPrtUL=    1 DoSpLW=F IThBeg=    0 IThEnd=    0 NThAct=    1.
 PrsmSu:  NPrtUS=   1 ThrOK=F IAlg=1 NPAlg=1 LenDen=           0 ISkipM=0 DoSpLW=F IThBeg=    0 IThEnd=    0.
 Prism:   IPart=     0 DynPar=F LinDyn=F Incr=         512.
 PRISM was handed  1324423301 working-precision words and146844 shell-pairs
 IPart=  0 NShTot=      146844 NBatch=         337 AvBLen=       435.7
 PrsmSu-ThDecC:  IPartSL=    0    0 NPrtUSL=    1    1 IThBeg=    0 IThEnd=    0 CPU=   -1 GPU=   -1 NThAct=    1.
 PrSmSu:  NxtVal=            513.
 Electronic moments (au):
       -716.00000000          1.35069615          1.32422990         -7.73378436
     -54372.69488583     -43297.04166846     -12895.73161749        -19.90939091
         36.81678178        -11.02274473     -14786.93941910     -15034.98611763
     -11847.74841833    -129646.79349597      94019.47199907     -33411.14730220
      53218.14190461       7065.59168926     -19004.86823873     -12527.08634881
   -7550392.08035503   -6102119.95214126    -662664.26986697     -94898.53742008
     284148.17998487    1418952.40071234    -235270.64168188     139054.80148358
      27064.45126294   -2944427.27226469    -746649.91982529    -606800.60836446
     243289.94496328    -190690.88448718    -157583.31697941
 Electronic spatial extent (au):  <R**2>=         110565.4682
 DipInt: DoE/N= F T RetVal/Mat= T F Init=T NMatP=  1 IDeriv=0 Min/MaxMlt=  0  4
 Nuclear    moments (au):
        716.00000000         -0.00000000          0.00000000          0.00000000
      53925.77139224      42882.34295319      12528.68268966          0.00000000
          0.00000000          0.00000000      15376.00257120      14554.96972180
      11460.27514436     129939.86987139     -93837.64315365      33368.45193575
     -53682.98160302      -6560.78055072      18366.53159795      12738.69312319
    7345611.35303008    5959712.92713410     622892.98205587      94475.32036812
    -286379.70745812   -1419037.31704696     232178.57871861    -137211.15039817
     -29632.76564715    2881354.75446426     712195.94653058     575362.22962936
    -241838.25677203     194423.18304440     157579.69365690
 Total      moments (au):
         -0.00000000          1.35069615          1.32422990         -7.73378436
       -446.92349360       -414.69871527       -367.04892784        -19.90939091
         36.81678178        -11.02274473        589.06315210       -480.01639583
       -387.47327397        293.07637543        181.82884542        -42.69536645
       -464.83969841        504.81113854       -638.33664077        211.60677438
    -204780.72732495    -142407.02500716     -39771.28781110       -423.21705196
      -2231.52747325        -84.91633462      -3092.06296327       1843.65108541
      -2568.31438422     -63072.51780043     -34453.97329470     -31438.37873510
       1451.68819125       3732.29855722         -3.62332251
 Traceless Quadrup. (au):
        -37.36644803         -5.14166970         42.50811773        -19.90939091
         36.81678178        -11.02274473
 Charge=             -0.0000 electrons
 Dipole moment (field-independent basis, Debye):
    X=              3.4331    Y=              3.3659    Z=            -19.6573  Tot=             20.2367
 Quadrupole moment (field-independent basis, Debye-Ang):
   XX=           -601.1274   YY=           -557.7840   ZZ=           -493.6934
   XY=            -26.7788   XZ=             49.5198   YZ=            -14.8260
 Traceless Quadrupole moment (field-independent basis, Debye-Ang):
   XX=            -50.2592   YY=             -6.9157   ZZ=             57.1749
   XY=            -26.7788   XZ=             49.5198   YZ=            -14.8260
 Octapole moment (field-independent basis, Debye-Ang**2):
  XXX=            419.2725  YYY=           -341.6572  ZZZ=           -275.7885  XYY=            208.6005
  XXY=            129.4188  XXZ=            -30.3889  XZZ=           -330.8550  YZZ=            359.3051
  YYZ=           -454.3434  XYZ=            150.6135
 Hexadecapole moment (field-independent basis, Debye-Ang**3):
 XXXX=         -77130.2415 YYYY=         -53637.3143 ZZZZ=         -14979.7741 XXXY=           -159.4038
 XXXZ=           -840.5003 YYYX=            -31.9836 YYYZ=          -1164.6192 ZZZX=            694.4074
 ZZZY=           -967.3504 XXYY=         -23756.1346 XXZZ=         -12977.0185 YYZZ=         -11841.2010
 XXYZ=            546.7754 YYXZ=           1405.7626 ZZXY=             -1.3647
 N-N= 2.046885738765D+04 E-N=-5.341259719851D+04  KE= 5.290685768738D+03
 Leave Link  601 at Tue Sep 17 23:48:12 2019, MaxMem=  1342177280 cpu:              44.3 elap:               1.1
 FitSet:  NAtFit=   176 NAtPot=   176 NAtFrz=     0 MDM=   180 TotChg=   0.00000
 Merz-Kollman atomic radii used.
 Read replacement radii for each type of atom:
 Rad(20) =   1.700000000000D+00
 Atom Element Radius
    1     6    1.50
    2     6    1.50
    3     8    1.40
    4     1    1.20
    5     1    1.20
    6     1    1.20
    7     7    1.50
    8     6    1.50
    9     6    1.50
   10     8    1.40
   11     6    1.50
   12     6    1.50
   13     8    1.40
   14     8    1.40
   15     1    1.20
   16     1    1.20
   17     1    1.20
   18     1    1.20
   19     7    1.50
   20     6    1.50
   21     6    1.50
   22     8    1.40
   23     6    1.50
   24     6    1.50
   25     6    1.50
   26     6    1.50
   27     7    1.50
   28     1    1.20
   29     1    1.20
   30     1    1.20
   31     1    1.20
   32     1    1.20
   33     1    1.20
   34     1    1.20
   35     1    1.20
   36     1    1.20
   37     1    1.20
   38     1    1.20
   39     1    1.20
   40     1    1.20
   41     7    1.50
   42     6    1.50
   43     6    1.50
   44     8    1.40
   45     6    1.50
   46     6    1.50
   47     8    1.40
   48     8    1.40
   49     1    1.20
   50     1    1.20
   51     1    1.20
   52     1    1.20
   53     7    1.50
   54     6    1.50
   55     6    1.50
   56     8    1.40
   57     1    1.20
   58     1    1.20
   59     1    1.20
   60     7    1.50
   61     6    1.50
   62     6    1.50
   63     8    1.40
   64     6    1.50
   65     6    1.50
   66     7    1.50
   67     8    1.40
   68     1    1.20
   69     1    1.20
   70     1    1.20
   71     1    1.20
   72     1    1.20
   73     1    1.20
   74     7    1.50
   75     6    1.50
   76     6    1.50
   77     8    1.40
   78     1    1.20
   79     1    1.20
   80     1    1.20
   81     7    1.50
   82     6    1.50
   83     6    1.50
   84     8    1.40
   85     6    1.50
   86     6    1.50
   87     6    1.50
   88     6    1.50
   89     6    1.50
   90     6    1.50
   91     6    1.50
   92     8    1.40
   93     1    1.20
   94     1    1.20
   95     1    1.20
   96     1    1.20
   97     1    1.20
   98     1    1.20
   99     1    1.20
  100     1    1.20
  101     1    1.20
  102     7    1.50
  103     6    1.50
  104     6    1.50
  105     8    1.40
  106     6    1.50
  107     6    1.50
  108     6    1.50
  109     6    1.50
  110     1    1.20
  111     1    1.20
  112     1    1.20
  113     1    1.20
  114     1    1.20
  115     1    1.20
  116     1    1.20
  117     1    1.20
  118     1    1.20
  119     1    1.20
[...]
 **** Fit      -0.003194
 **** Fit      -0.003527
 **** Fit      -0.007213
 **** Fit      -0.005151
 **** Fit      -0.003404
 **** Fit      -0.002244
 **** Fit      -0.001760
 **** Fit      -0.001819
 **** Fit      -0.003957
 **** Fit      -0.004428
 **** Fit      -0.004590
 **** Fit      -0.004469
 **** Fit      -0.004194
 **** Fit      -0.003921
 **** Fit      -0.003778
 **** Fit      -0.008800
 **** Fit      -0.006304
 **** Fit      -0.004313
 **** Fit      -0.003166
 **** Fit      -0.002928
 **** Fit      -0.003336
 **** Fit      -0.006979
 **** Fit      -0.007471
 **** Fit      -0.007307
 **** Fit      -0.006649
 **** Fit      -0.005785
 **** Fit      -0.004984
 **** Fit      -0.004441
 **** Fit      -0.008917
 **** Fit      -0.006382
 **** Fit      -0.005082
 **** Fit      -0.005112
 **** Fit      -0.005998
 **** Fit      -0.011781
 **** Fit      -0.010816
 **** Fit      -0.009132
 **** Fit      -0.007314
 **** Fit      -0.005792
 **** Fit      -0.009845
 **** Fit      -0.008228
 **** Fit      -0.008593
 **** Fit      -0.011229
 **** Fit      -0.008821
 **** Fit      -0.005546
 **** Fit       0.017671
 **** Fit       0.023941
 **** Fit       0.027518
 **** Fit       0.022244
 **** Fit       0.028070
 **** Fit       0.031992
 **** Fit       0.033963
 **** Fit       0.033996
 **** Fit       0.032157
 **** Fit       0.028419
 **** Fit       0.033166
 **** Fit       0.036832
 **** Fit       0.039182
 **** Fit       0.040111
 **** Fit       0.039597
 **** Fit       0.037707
 **** Fit       0.034660
 **** Fit       0.032857
 **** Fit       0.036594
 **** Fit       0.040084
 **** Fit       0.042921
 **** Fit       0.044855
 **** Fit       0.045747
 **** Fit       0.045540
 **** Fit       0.044260
 **** Fit       0.042048
 **** Fit       0.039225
 **** Fit       0.052791
 **** Fit       0.040586
 **** Fit       0.043491
 **** Fit       0.046187
 **** Fit       0.048428
 **** Fit       0.050031
 **** Fit       0.050874
 **** Fit       0.050894
 **** Fit       0.050096
 **** Fit       0.048562
 **** Fit       0.046483
 **** Fit       0.044190
 **** Fit       0.059897
 **** Fit       0.058797
 **** Fit       0.057778
 **** Fit       0.056554
 **** Fit       0.045732
 **** Fit       0.048463
 **** Fit       0.050887
 **** Fit       0.052907
 **** Fit       0.054414
 **** Fit       0.055315
 **** Fit       0.055555
 **** Fit       0.055126
 **** Fit       0.054082
 **** Fit       0.052551
 **** Fit       0.050754
 **** Fit       0.048982
 **** Fit       0.064889
 **** Fit       0.063577
 **** Fit       0.062366
 **** Fit       0.061117
 **** Fit       0.052348
 **** Fit       0.054703
 **** Fit       0.056629
 **** Fit       0.058093
 **** Fit       0.059052
 **** Fit       0.059470
 **** Fit       0.059340
 **** Fit       0.058699
 **** Fit       0.057635
 **** Fit       0.056300
 **** Fit       0.054897
 **** Fit       0.053640
 **** Fit       0.052684
 **** Fit       0.062681
 **** Fit       0.064160
 **** Fit       0.066417
 **** Fit       0.069017
 **** Fit       0.071350
 **** Fit       0.072894
 **** Fit       0.073302
 **** Fit       0.072451
 **** Fit       0.070622
 **** Fit       0.068448
 **** Fit       0.066480
 **** Fit       0.068503
 **** Fit       0.067241
 **** Fit       0.066065
 **** Fit       0.064969
 **** Fit       0.056384
 **** Fit       0.058553
 **** Fit       0.060292
 **** Fit       0.061586
 **** Fit       0.062418
 **** Fit       0.062776
 **** Fit       0.062672
 **** Fit       0.062150
 **** Fit       0.061302
 **** Fit       0.060264
 **** Fit       0.059207
 **** Fit       0.058303
 **** Fit       0.057698
 **** Fit       0.057508
 **** Fit       0.065162
 **** Fit       0.066095
 **** Fit       0.067582
 **** Fit       0.069487
 **** Fit       0.071427
 **** Fit       0.072964
 **** Fit       0.073761
 **** Fit       0.073661
 **** Fit       0.072759
 **** Fit       0.071382
 **** Fit       0.069894
 **** Fit       0.071070
 **** Fit       0.070004
 **** Fit       0.068996
 **** Fit       0.068125
 **** Fit       0.059945
 **** Fit       0.061801
 **** Fit       0.063320
 **** Fit       0.064456
 **** Fit       0.065186
 **** Fit       0.065511
 **** Fit       0.065448
 **** Fit       0.065049
 **** Fit       0.064400
 **** Fit       0.063621
 **** Fit       0.062856
 **** Fit       0.062249
 **** Fit       0.061926
 **** Fit       0.061987
 **** Fit       0.062506
 **** Fit       0.063470
 **** Fit       0.066583
 **** Fit       0.067188
 **** Fit       0.067879
 **** Fit       0.068880
 **** Fit       0.070220
 **** Fit       0.071714
 **** Fit       0.073058
 **** Fit       0.073964
 **** Fit       0.074261
 **** Fit       0.073945
 **** Fit       0.073170
 **** Fit       0.072154
 **** Fit       0.072871
 **** Fit       0.072003
 **** Fit       0.071168
 **** Fit       0.070495
 **** Fit       0.062706
 **** Fit       0.064223
 **** Fit       0.065589
 **** Fit       0.066661
 **** Fit       0.067380
 **** Fit       0.067731
 **** Fit       0.067733
 **** Fit       0.067438
 **** Fit       0.066935
 **** Fit       0.066344
 **** Fit       0.065801
 **** Fit       0.065437
 **** Fit       0.065357
 **** Fit       0.065621
 **** Fit       0.066214
 **** Fit       0.067017
 **** Fit       0.067832
 **** Fit       0.068524
 **** Fit       0.069129
 **** Fit       0.069813
 **** Fit       0.070716
 **** Fit       0.071836
 **** Fit       0.073007
 **** Fit       0.073987
 **** Fit       0.074571
 **** Fit       0.074670
 **** Fit       0.074330
 **** Fit       0.073682
 **** Fit       0.074107
 **** Fit       0.073436
 **** Fit       0.072766
 **** Fit       0.072229
 **** Fit       0.071985
 **** Fit       0.065525
 **** Fit       0.066474
 **** Fit       0.067547
 **** Fit       0.068484
 **** Fit       0.069158
 **** Fit       0.069521
 **** Fit       0.069577
 **** Fit       0.069375
 **** Fit       0.069001
 **** Fit       0.068571
 **** Fit       0.068210
 **** Fit       0.068031
 **** Fit       0.068105
 **** Fit       0.068441
 **** Fit       0.068971
 **** Fit       0.069575
 **** Fit       0.070160
 **** Fit       0.070736
 **** Fit       0.071393
 **** Fit       0.072205
 **** Fit       0.073136
 **** Fit       0.074038
 **** Fit       0.074725
 **** Fit       0.075065
 **** Fit       0.075027
 **** Fit       0.074672
 **** Fit       0.074922
 **** Fit       0.074421
 **** Fit       0.073882
 **** Fit       0.073406
 **** Fit       0.073055
 **** Fit       0.072746
 **** Fit       0.068711
 **** Fit       0.068357
 **** Fit       0.068659
 **** Fit       0.069316
 **** Fit       0.070031
 **** Fit       0.070609
 **** Fit       0.070956
 **** Fit       0.071049
 **** Fit       0.070923
 **** Fit       0.070659
 **** Fit       0.070362
 **** Fit       0.070145
 **** Fit       0.070096
 **** Fit       0.070251
 **** Fit       0.070586
 **** Fit       0.071032
 **** Fit       0.071524
 **** Fit       0.072057
 **** Fit       0.072671
 **** Fit       0.073388
 **** Fit       0.074148
 **** Fit       0.074821
 **** Fit       0.075273
 **** Fit       0.075426
 **** Fit       0.075287
 **** Fit       0.075421
 **** Fit       0.075038
 **** Fit       0.074576
 **** Fit       0.074102
 **** Fit       0.073612
 **** Fit       0.073001
 **** Fit       0.072197
 **** Fit       0.071363
 **** Fit       0.070831
 **** Fit       0.070776
 **** Fit       0.071096
 **** Fit       0.071557
 **** Fit       0.071956
 **** Fit       0.072179
 **** Fit       0.072201
 **** Fit       0.072065
 **** Fit       0.071865
 **** Fit       0.071710
 **** Fit       0.071686
 **** Fit       0.071832
 **** Fit       0.072128
 **** Fit       0.072528
 **** Fit       0.073005
 **** Fit       0.073561
 **** Fit       0.074188
 **** Fit       0.074817
 **** Fit       0.075329
 **** Fit       0.075617
 **** Fit       0.075639
 **** Fit       0.075681
 **** Fit       0.075384
 **** Fit       0.074967
 **** Fit       0.074477
 **** Fit       0.073912
 **** Fit       0.073291
 **** Fit       0.072752
 **** Fit       0.072485
 **** Fit       0.072538
 **** Fit       0.072775
 **** Fit       0.073014
 **** Fit       0.073133
 **** Fit       0.073109
 **** Fit       0.072998
 **** Fit       0.072901
 **** Fit       0.072907
 **** Fit       0.073060
 **** Fit       0.073353
 **** Fit       0.073756
 **** Fit       0.074247
 **** Fit       0.074787
 **** Fit       0.075294
 **** Fit       0.075655
 **** Fit       0.075788
 **** Fit       0.075760
 **** Fit       0.075505
 **** Fit       0.075090
 **** Fit       0.074585
 **** Fit       0.074089
 **** Fit       0.073755
 **** Fit       0.073678
 **** Fit       0.073769
 **** Fit       0.073860
 **** Fit       0.073861
 **** Fit       0.073810
 **** Fit       0.073809
 **** Fit       0.073945
 **** Fit       0.074236
 **** Fit       0.074652
 **** Fit       0.075127
 **** Fit       0.075547
 **** Fit       0.075782
 **** Fit       0.075701
 **** Fit       0.075461
 **** Fit       0.075047
 **** Fit       0.074658
 **** Fit       0.074469
 **** Fit       0.074449
 **** Fit       0.074451
 **** Fit       0.074464
 **** Fit       0.074601
 **** Fit       0.074913
 **** Fit       0.075323
 **** Fit       0.075646
 **** Fit       0.075532
 **** Fit       0.075274
 **** Fit       0.074980
 **** Fit       0.074912
 **** Fit       0.075042
 **** Fit       0.075374
 **** Fit       0.075269
 **** Fit       0.028443
 **** Fit       0.029958
 **** Fit       0.025417
 **** Fit       0.021746
 **** Fit       0.019375
 **** Fit       0.018841
 **** Fit       0.020819
 **** Fit       0.026170
 **** Fit       0.034380
 **** Fit       0.030284
 **** Fit       0.027234
 **** Fit       0.025611
 **** Fit       0.025883
 **** Fit       0.028648
 **** Fit       0.034704
 **** Fit       0.046925
 **** Fit       0.036847
 **** Fit       0.033384
 **** Fit       0.031244
 **** Fit       0.030811
 **** Fit       0.032567
 **** Fit       0.037150
 **** Fit       0.045459
 **** Fit       0.055442
 **** Fit       0.049534
 **** Fit       0.047045
 **** Fit       0.050013
 **** Fit       0.039167
 **** Fit       0.036461
 **** Fit       0.035279
 **** Fit       0.036008
 **** Fit       0.039138
 **** Fit       0.045336
 **** Fit       0.059963
 **** Fit       0.053554
 **** Fit       0.050533
 **** Fit       0.053135
 **** Fit       0.040016
 **** Fit       0.039405
 **** Fit       0.040950
 **** Fit       0.045188
 **** Fit       0.052845
 **** Fit       0.064930
 **** Fit       0.057723
 **** Fit       0.054078
 **** Fit       0.044470
 **** Fit       0.043253
 **** Fit       0.044212
 **** Fit       0.047881
 **** Fit       0.054928
 **** Fit       0.061745
 **** Fit       0.057421
 **** Fit       0.047095
 **** Fit       0.047407
 **** Fit       0.050366
 **** Fit       0.056563
 **** Fit       0.065182
 **** Fit       0.060344
 **** Fit       0.050523
 **** Fit       0.051185
 **** Fit       0.054766
 **** Fit       0.061802
 **** Fit       0.068368
 **** Fit       0.062869
 **** Fit       0.061783
 **** Fit       0.053844
 **** Fit       0.056269
 **** Fit       0.062330
 **** Fit       0.071459
 **** Fit       0.065071
 **** Fit       0.062657
 **** Fit       0.056828
 **** Fit       0.057821
 **** Fit       0.062740
 **** Fit       0.066816
 **** Fit       0.063092
 **** Fit       0.060529
 **** Fit       0.059685
 **** Fit       0.063041
 **** Fit       0.068528
 **** Fit       0.067600
 **** Fit       0.063186
 **** Fit       0.041210
 **** Fit       0.038840
 **** Fit       0.036292
 **** Fit       0.046201
 **** Fit       0.047433
 **** Fit       0.048106
 **** Fit       0.047979
 **** Fit       0.047110
 **** Fit       0.045699
 **** Fit       0.043935
 **** Fit       0.041936
 **** Fit       0.039746
 **** Fit       0.037369
 **** Fit       0.034796
 **** Fit       0.047064
 **** Fit       0.048032
 **** Fit       0.048647
 **** Fit       0.048722
 **** Fit       0.048239
 **** Fit       0.047286
 **** Fit       0.045978
 **** Fit       0.044406
 **** Fit       0.042629
 **** Fit       0.040677
 **** Fit       0.038569
 **** Fit       0.036332
 **** Fit       0.047223
 **** Fit       0.047916
 **** Fit       0.048619
 **** Fit       0.049105
 **** Fit       0.049226
 **** Fit       0.048938
 **** Fit       0.048269
 **** Fit       0.047279
 **** Fit       0.046030
 **** Fit       0.044572
 **** Fit       0.042944
 **** Fit       0.041176
 **** Fit       0.039310
 **** Fit       0.037406
 **** Fit       0.048621
 **** Fit       0.048954
 **** Fit       0.049381
 **** Fit       0.049684
 **** Fit       0.049728
 **** Fit       0.049453
 **** Fit       0.048862
 **** Fit       0.047987
 **** Fit       0.046872
 **** Fit       0.045559
 **** Fit       0.044090
 **** Fit       0.042513
 **** Fit       0.040888
 **** Fit       0.039311
 **** Fit       0.048674
 **** Fit       0.050199
 **** Fit       0.050144
 **** Fit       0.050277
 **** Fit       0.050372
 **** Fit       0.050283
 **** Fit       0.049943
 **** Fit       0.049337
 **** Fit       0.048484
 **** Fit       0.047418
 **** Fit       0.046184
 **** Fit       0.044838
 **** Fit       0.043453
 **** Fit       0.042132
 **** Fit       0.041034
 **** Fit       0.050775
 **** Fit       0.051823
 **** Fit       0.051392
 **** Fit       0.051233
 **** Fit       0.051112
 **** Fit       0.050881
 **** Fit       0.050463
 **** Fit       0.049833
 **** Fit       0.049003
 **** Fit       0.048007
 **** Fit       0.046901
 **** Fit       0.045763
 **** Fit       0.044704
 **** Fit       0.043888
 **** Fit       0.052860
 **** Fit       0.053368
 **** Fit       0.052581
 **** Fit       0.052145
 **** Fit       0.051796
 **** Fit       0.051371
 **** Fit       0.050792
 **** Fit       0.050041
 **** Fit       0.049150
 **** Fit       0.048192
 **** Fit       0.047282
 **** Fit       0.046596
 **** Fit       0.046394
 **** Fit       0.054880
 **** Fit       0.054741
 **** Fit       0.053641
 **** Fit       0.052949
 **** Fit       0.052388
 **** Fit       0.051792
 **** Fit       0.051097
 **** Fit       0.050324
 **** Fit       0.049566
 **** Fit       0.048996
 **** Fit       0.048878
 **** Fit       0.049597
 **** Fit       0.059785
 **** Fit       0.056638
 **** Fit       0.055877
 **** Fit       0.054482
 **** Fit       0.053559
 **** Fit       0.052811
 **** Fit       0.052100
 **** Fit       0.051452
 **** Fit       0.051044
 **** Fit       0.051207
 **** Fit       0.052417
 **** Fit       0.058147
 **** Fit       0.056727
 **** Fit       0.055022
 **** Fit       0.053931
 **** Fit       0.053210
 **** Fit       0.053010
 **** Fit       0.053871
 **** Fit       0.059422
 **** Fit       0.057249
 **** Fit       0.055394
 **** Fit       0.055108
 **** Fit       0.057151
 **** Fit       0.059969
 **** Fit       0.057404
 **** Fit       0.019597
 **** Fit       0.012865
 **** Fit       0.030055
 **** Fit       0.024015
 **** Fit       0.017963
 **** Fit       0.012138
 -----------------------------------------------------------------
 Leave Link  602 at Tue Sep 17 23:48:15 2019, MaxMem=  1342177280 cpu:             121.2 elap:               3.0

 Test job not archived.
 1\1\GINC-C506-092\SP\RB3LYP\SVP\C54H83Ca1N15O23\PENGZHI\17-Sep-2019\0\
 \#b3lyp/svp scf=(tight,noincore) Test #IOP(5/87=12) Density=Current Po
 p=(MK,readradii) iop(6/33=2) iop(6/42=6)\\Ng-293_loop3_78.0\\0,1\C,0,5
 2.73,55.46,42.1\C,0,53.5,55.6,43.41\O,0,52.88,55.86,44.44\H,0,51.833,5
 6.078,42.139\H,0,53.359,55.785,41.271\H,0,52.446,54.418,41.954\N,0,54.
 82,55.47,43.34\C,0,55.76,55.69,44.42\C,0,55.84,57.14,44.87\O,0,56.9,57
 .77,44.9\C,0,55.51,54.73,45.58\C,0,55.28,53.26,45.26\O,0,54.54,52.62,4
 6.04\O,0,55.76,52.78,44.2\H,0,55.29,55.26,42.47\H,0,56.76,55.48,44.02\
 H,0,54.65,55.08,46.14\H,0,56.34,54.74,46.28\N,0,54.72,57.65,45.38\C,0,
 54.62,58.96,45.99\C,0,55.09,59.07,47.43\O,0,54.93,60.13,48.03\C,0,53.1
 8,59.41,45.77\C,0,52.13,58.98,46.8\C,0,51.93,57.47,46.88\C,0,50.94,57.
 17,48.\N,0,51.06,55.79,48.5\H,0,53.96,56.98,45.34\H,0,55.26,59.7,45.51
 \H,0,52.97,59.02,44.77\H,0,53.36,60.49,45.67\H,0,51.18,59.44,46.54\H,0
 ,52.39,59.44,47.75\H,0,52.88,56.95,46.93\H,0,51.45,57.11,45.97\H,0,49.
 94,57.38,47.61\H,0,51.04,57.8,48.89\H,0,50.85,55.04,47.86\H,0,51.99,55
 .6,48.85\H,0,50.46,55.68,49.31\N,0,55.52,57.95,48.02\C,0,55.97,57.71,4
 9.38\C,0,56.78,56.44,49.56\O,0,56.65,55.45,48.83\C,0,54.78,57.81,50.33
 \C,0,53.61,56.87,50.07\O,0,52.51,57.17,50.59\O,0,53.63,55.93,49.25\H,0
 ,55.44,57.08,47.51\H,0,56.76,58.43,49.59\H,0,54.44,58.83,50.18\H,0,55.
 11,57.67,51.36\N,0,57.52,56.31,50.66\C,0,57.89,55.,51.15\C,0,56.83,54.
 24,51.93\O,0,57.06,53.84,53.07\H,0,57.68,57.06,51.33\H,0,58.72,55.13,5
 1.85\H,0,58.38,54.41,50.37\N,0,55.61,54.08,51.41\C,0,54.54,53.23,51.88
 \C,0,54.8,51.73,51.87\O,0,54.07,50.93,52.45\C,0,53.28,53.64,51.13\C,0,
 52.02,52.81,51.31\N,0,51.58,52.37,52.49\O,0,51.26,52.71,50.35\H,0,55.5
 2,54.42,50.46\H,0,54.4,53.46,52.94\H,0,53.5,53.6,50.06\H,0,53.,54.67,5
 1.39\H,0,52.17,52.51,53.3\H,0,50.88,51.64,52.48\N,0,55.82,51.34,51.1\C
 ,0,56.43,50.02,51.11\C,0,55.44,49.02,50.53\O,0,54.9,49.2,49.44\H,0,56.
 09,52.02,50.41\H,0,56.73,49.76,52.12\H,0,57.33,49.97,50.5\N,0,55.23,47
 .98,51.34\C,0,54.35,46.83,51.2\C,0,52.87,47.1,50.97\O,0,52.05,46.23,51
 .24\C,0,54.85,45.91,50.09\C,0,56.29,45.46,50.23\C,0,56.54,44.34,51.02\
 C,0,57.34,46.24,49.73\C,0,57.84,43.86,51.22\C,0,58.65,45.8,49.95\C,0,5
 8.9,44.6,50.64\O,0,60.18,44.24,50.92\H,0,55.88,47.84,52.1\H,0,54.45,46
 .31,52.15\H,0,54.8,46.53,49.19\H,0,54.22,45.04,49.92\H,0,55.73,43.78,5
 1.48\H,0,57.08,47.16,49.22\H,0,58.08,43.,51.81\H,0,59.42,46.46,49.58\H
 ,0,60.81,44.83,50.49\N,0,52.58,48.33,50.55\C,0,51.24,48.88,50.45\C,0,5
 0.35,48.79,51.68\O,0,49.84,49.81,52.13\C,0,50.52,48.29,49.25\C,0,51.4,
 48.28,48.\C,0,49.31,49.17,48.94\C,0,52.,49.57,47.47\H,0,53.37,48.95,50
 .45\H,0,51.41,49.92,50.15\H,0,50.2,47.27,49.45\H,0,50.74,47.93,47.2\H,
 0,52.14,47.52,48.23\H,0,48.53,48.96,49.68\H,0,49.61,50.22,48.97\H,0,48
 .91,48.93,47.95\H,0,52.48,49.32,46.52\H,0,51.24,50.35,47.35\H,0,52.74,
 49.94,48.18\N,0,50.,47.58,52.12\C,0,49.19,47.26,53.28\C,0,47.8,47.81,5
 3.\O,0,47.33,48.53,53.87\C,0,49.18,45.8,53.73\O,0,50.4,45.14,53.46\H,0
 ,50.44,46.76,51.72\H,0,49.46,47.88,54.13\H,0,48.35,45.29,53.25\H,0,48.
 88,45.78,54.78\H,0,51.13,45.69,53.74\N,0,47.26,47.7,51.78\C,0,46.,48.1
 9,51.27\C,0,45.72,49.67,51.48\O,0,44.63,50.16,51.18\C,0,44.84,47.26,51
 .62\H,0,47.73,47.06,51.15\H,0,46.06,48.06,50.19\H,0,44.65,47.36,52.69\
 H,0,43.94,47.7,51.19\H,0,44.98,46.26,51.22\N,0,46.72,50.42,51.95\C,0,4
 6.59,51.86,52.13\C,0,46.28,52.66,50.87\O,0,46.9,52.41,49.84\C,0,47.83,
 52.4,52.83\H,0,47.56,50.02,52.32\H,0,45.76,52.07,52.8\H,0,48.64,52.26,
 52.11\H,0,47.73,53.45,53.1\H,0,48.02,51.74,53.68\N,0,45.39,53.65,50.97
 \C,0,45.09,54.7,50.02\C,0,44.88,54.29,48.57\O,0,44.83,55.13,47.66\C,0,
 46.,55.91,50.19\C,0,47.38,55.72,49.56\C,0,48.2,56.92,50.\O,0,47.8,58.0
 8,49.75\O,0,49.3,56.72,50.56\H,0,44.76,53.69,51.76\H,0,44.07,54.98,50.
 3\H,0,46.22,55.97,51.25\H,0,45.65,56.84,49.73\H,0,47.28,55.59,48.48\H,
 0,47.91,54.83,49.89\N,0,44.78,53.02,48.19\C,0,44.55,52.49,46.86\H,0,43
 .79,53.088,46.358\H,0,45.477,52.527,46.288\H,0,44.209,51.457,46.934\H,
 0,44.72,52.35,48.94\Ca,0,50.84,57.68,52.58\O,0,48.22,57.63,53.06\H,0,4
 7.47,57.61,53.65\H,0,47.83,57.62,52.18\\Version=ES64L-G16RevA.03\State
 =1-A\HF=-5333.4127331\RMSD=3.738e-10\Dipole=-0.0168325,1.6690536,7.784
 8161\Quadrupole=-13.2533449,6.5524454,6.7008995,-13.0556704,12.744179,
 54.9869603\PG=C01 [X(C54H83Ca1N15O23)]\\@


 THOSE WHO ASPIRE NOT TO GUESS AND DIVINE,
 BUT TO DISCOVER AND KNOW, WHO PROPOSE NOT TO DEVISE 
 MIMIC AND FABULOUS WORLDS OF THEIR OWN, BUT TO 
 EXAMINE AND DISSECT THE NATURE OF THIS VERY WORLD 
 ITSELF, MUST GO TO THE FACTS THEMSELVES FOR EVERYTHING.

                               -- FRANCIS BACON, 1620
 Job cpu time:       0 days 17 hours 55 minutes 52.0 seconds.
 Elapsed time:       0 days  0 hours 22 minutes 41.6 seconds.
 File lengths (MBytes):  RWF=   1517 Int=      0 D2E=      0 Chk=    171 Scr=      1
 Normal termination of Gaussian 16 at Tue Sep 17 23:48:17 2019.
