 Entering Gaussian System, Link 0=g16
 Initial command:
 /home1/apps/gaussian/16rA.03/g16/l1.exe "/scratch/01990/pengzhi/4354912/Gau-47431.inp" -scrdir="/scratch/01990/pengzhi/4354912/"
 Entering Link 1 = /home1/apps/gaussian/16rA.03/g16/l1.exe PID=     47432.
  
 Copyright (c) 1988,1990,1992,1993,1995,1998,2003,2009,2016,
            Gaussian, Inc.  All Rights Reserved.
  
 This is part of the Gaussian(R) 16 program.  It is based on
 the Gaussian(R) 09 system (copyright 2009, Gaussian, Inc.),
 the Gaussian(R) 03 system (copyright 2003, Gaussian, Inc.),
 the Gaussian(R) 98 system (copyright 1998, Gaussian, Inc.),
 the Gaussian(R) 94 system (copyright 1995, Gaussian, Inc.),
 the Gaussian 92(TM) system (copyright 1992, Gaussian, Inc.),
 the Gaussian 90(TM) system (copyright 1990, Gaussian, Inc.),
 the Gaussian 88(TM) system (copyright 1988, Gaussian, Inc.),
 the Gaussian 86(TM) system (copyright 1986, Carnegie Mellon
 University), and the Gaussian 82(TM) system (copyright 1983,
 Carnegie Mellon University). Gaussian is a federally registered
 trademark of Gaussian, Inc.
  
 This software contains proprietary and confidential information,
 including trade secrets, belonging to Gaussian, Inc.
  
 This software is provided under written license and may be
 used, copied, transmitted, or stored only in accord with that
 written license.
  
 The following legend is applicable only to US Government
 contracts under FAR:
  
                    RESTRICTED RIGHTS LEGEND
  
 Use, reproduction and disclosure by the US Government is
 subject to restrictions as set forth in subparagraphs (a)
 and (c) of the Commercial Computer Software - Restricted
 Rights clause in FAR 52.227-19.
  
 Gaussian, Inc.
 340 Quinnipiac St., Bldg. 40, Wallingford CT 06492
  
  
 ---------------------------------------------------------------
 Warning -- This program may not be used in any manner that
 competes with the business of Gaussian, Inc. or will provide
 assistance to any competitor of Gaussian, Inc.  The licensee
 of this program is prohibited from giving any competitor of
 Gaussian, Inc. access to this program.  By using this program,
 the user acknowledges that Gaussian, Inc. is engaged in the
 business of creating and licensing software in the field of
 computational chemistry and represents and warrants to the
 licensee that it is not a competitor of Gaussian, Inc. and that
 it will not use this program in any manner prohibited above.
 ---------------------------------------------------------------
  

 Cite this work as:
 Gaussian 16, Revision A.03,
 M. J. Frisch, G. W. Trucks, H. B. Schlegel, G. E. Scuseria, 
 M. A. Robb, J. R. Cheeseman, G. Scalmani, V. Barone, 
 G. A. Petersson, H. Nakatsuji, X. Li, M. Caricato, A. V. Marenich, 
 J. Bloino, B. G. Janesko, R. Gomperts, B. Mennucci, H. P. Hratchian, 
 J. V. Ortiz, A. F. Izmaylov, J. L. Sonnenberg, D. Williams-Young, 
 F. Ding, F. Lipparini, F. Egidi, J. Goings, B. Peng, A. Petrone, 
 T. Henderson, D. Ranasinghe, V. G. Zakrzewski, J. Gao, N. Rega, 
 G. Zheng, W. Liang, M. Hada, M. Ehara, K. Toyota, R. Fukuda, 
 J. Hasegawa, M. Ishida, T. Nakajima, Y. Honda, O. Kitao, H. Nakai, 
 T. Vreven, K. Throssell, J. A. Montgomery, Jr., J. E. Peralta, 
 F. Ogliaro, M. J. Bearpark, J. J. Heyd, E. N. Brothers, K. N. Kudin, 
 V. N. Staroverov, T. A. Keith, R. Kobayashi, J. Normand, 
 K. Raghavachari, A. P. Rendell, J. C. Burant, S. S. Iyengar, 
 J. Tomasi, M. Cossi, J. M. Millam, M. Klene, C. Adamo, R. Cammi, 
 J. W. Ochterski, R. L. Martin, K. Morokuma, O. Farkas, 
 J. B. Foresman, and D. J. Fox, Gaussian, Inc., Wallingford CT, 2016.
 
 ******************************************
 Gaussian 16:  ES64L-G16RevA.03 25-Dec-2016
                18-Sep-2019 
 ******************************************
 %chk=Ng-31_loop3_1.0.chk
 %nprocshared=48
 Will use up to   48 processors via shared memory.
 %mem=10GB
 %nosave
 ----------------------------------------------------------------------
 #b3lyp/svp scf=(tight,noincore) Test #IOP(5/87=12) Density=Current Pop
 =(MK,readradii) iop(6/33=2) iop(6/42=6)
 ----------------------------------------------------------------------
 1/30=1,38=1,172=1/1;
 2/12=2,17=6,18=5,40=1/2;
 3/5=18,7=101,11=2,25=1,30=1,74=-5/1,2,3;
 4//1;
 5/5=4,32=2,38=5,87=12/2;
 6/7=2,8=2,9=2,10=2,15=8,20=101,22=-1,28=1,33=2,42=6/1,2;
 99/5=1,9=1/99;
 ---------------
 Ng-31_loop3_1.0
 ---------------
 Symbolic Z-matrix:
 Charge =  0 Multiplicity = 1
 C                     1.627     52.27     22.65 
 C                     2.447     53.41     22.07 
 O                     1.987     54.07     21.15 
 H                     0.662     52.224    22.145 
 H                     2.158     51.329    22.504 
 H                     1.472     52.439    23.716 
 N                     3.707     53.66     22.43 
 C                     4.697     54.57     21.87 
 C                     5.617     53.91     20.84 
 O                     5.587     52.7      20.65 
 C                     5.537     55.24     22.95 
 C                     6.437     54.35     23.79 
 O                     6.017     53.62     24.72 
 O                     7.657     54.37     23.52 
 H                     3.977     53.09     23.21 
 H                     4.257     55.37     21.27 
 H                     4.917     55.74     23.7 
 H                     6.107     56.04     22.48 
 N                     6.417     54.72     20.15 
 C                     7.477     54.33     19.25 
 C                     6.897     53.89     17.91 
 O                     7.567     53.6      16.93 
 C                     8.477     55.48     19.2 
 C                     9.047     55.88     20.56 
 C                     10.207    56.86     20.43 
 C                     10.467    57.55     21.77 
 N                     11.157    58.84     21.63 
 H                     6.427     55.7      20.42 
 H                     7.977     53.42     19.59 
 H                     7.987     56.34     18.74 
 H                     9.237     55.2      18.48 
 H                     9.277     55.03     21.2 
 H                     8.307     56.4      21.17 
 H                     9.957     57.62     19.69 
 H                     11.157    56.39     20.17 
 H                     11.087    56.86     22.33 
 H                     9.557     57.65     22.36 
 H                     11.637    59.08     22.49 
 H                     11.817    58.76     20.87 
 H                     10.487    59.57     21.43 
 N                     5.557     53.93     17.84 
 C                     4.727     53.28     16.86 
 C                     4.797     53.82     15.44 
 O                     4.317     53.2      14.49 
 C                     3.287     53.3      17.36 
 C                     2.667     54.66     17.66 
 O                     1.467     54.77     17.33 
 O                     3.297     55.46     18.38 
 H                     5.087     54.42     18.59 
 H                     4.977     52.22     16.87 
 H                     3.287     52.81     18.33 
 H                     2.707     52.66     16.69 
 N                     5.407     54.98     15.17 
 C                     5.307     55.63     13.88 
 C                     3.937     56.26     13.67 
 O                     3.287     56.64     14.65 
 H                     5.987     55.4      15.89 
 H                     5.457     54.94     13.05 
 H                     6.107     56.33     13.68 
 N                     3.517     56.69     12.48 
 C                     4.087     56.7      11.14 
 C                     3.037     56.25     10.13 
 O                     1.967     56.85     10.09 
 C                     4.537     58.12     10.81 
 C                     5.007     58.35     9.38 
 N                     6.257     57.98     9.13 
 O                     4.237     58.69     8.49 
 H                     2.627     57.17     12.48 
 H                     5.037     56.17     11.18 
 H                     5.267     58.54     11.51 
 H                     3.627     58.71     10.95 
 H                     6.937     57.55     9.74 
 H                     6.497     58.05     8.15 
 N                     3.287     55.27     9.27 
 C                     4.457     54.42     9.15 
 C                     4.397     53.13     9.96 
 O                     4.047     53.18     11.14 
 H                     2.537     55.16     8.6 
 H                     5.347     54.96     9.48 
 H                     4.557     54.23     8.08 
 N                     4.647     52.02     9.27 
 C                     4.467     50.68     9.79 
 C                     5.627     49.82     9.3 
 O                     5.637     49.3      8.18 
 C                     3.037     50.29     9.45 
 C                     1.967     51.31     9.76 
 C                     1.277     51.27     10.98 
 C                     1.697     52.35     8.86 
 C                     0.337     52.26     11.28 
 C                     0.777     53.37     9.12 
 C                     0.117     53.32     10.37 
 O                    -0.723     54.31     10.77 
 H                     4.977     52.18     8.32 
 H                     4.437     50.8      10.87 
 H                     2.807     49.34     9.93 
 H                     2.907     50.16     8.38 
 H                     1.407     50.43     11.65 
 H                     2.187     52.41     7.9 
 H                    -0.143     52.18     12.25 
 H                     0.527     54.11     8.38 
 H                    -0.943     54.99     10.12 
 N                     6.607     49.61     10.18 
 C                     7.897     49.05     9.81 
 C                     7.937     47.55     10.05 
 O                     9.007     46.97     9.85 
 C                     8.947     49.97     10.43 
 C                     8.797     51.41     9.96 
 C                     8.917     49.9      11.95 
 C                     9.027     51.62     8.46 
 H                     6.537     50.       11.11 
 H                     8.047     49.09     8.73 
 H                     9.897     49.56     10.07 
 H                     9.507     52.08     10.44 
 H                     7.857     51.86     10.26 
 H                     9.897     50.17     12.35 
 H                     8.237     50.59     12.44 
 H                     8.647     48.88     12.23 
 H                     8.127     51.43     7.87 
 H                     9.267     52.67     8.3 
 H                     9.867     51.05     8.06 
 N                     6.897     46.97     10.65 
 C                     6.927     45.54     10.88 
 C                     7.557     45.18     12.22 
 O                     7.767     43.98     12.43 
 C                     5.557     44.9      10.65 
 O                     4.507     45.41     11.43 
 H                     6.017     47.45     10.69 
 H                     7.607     45.09     10.15 
 H                     5.637     43.83     10.85 
 H                     5.317     44.94     9.59 
 H                     4.697     46.3      11.74 
 N                     7.897     46.18     13.03 
 C                     8.257     45.98     14.42 
 C                     7.057     46.18     15.33 
 O                     6.867     47.15     16.06 
 C                     9.477     46.82     14.78 
 H                     7.587     47.11     12.78 
 H                     8.537     44.94     14.57 
 H                     9.637     47.1      15.82 
 H                     10.387    46.34     14.42 
 H                     9.457     47.7      14.13 
 N                     6.107     45.24     15.2 
 C                     4.957     45.06     16.06 
 C                     3.897     46.14     16.19 
 O                     3.027     46.04     17.05 
 C                     5.517     44.7      17.43 
 H                     6.247     44.59     14.45 
 H                     4.417     44.18     15.71 
 H                     6.227     43.87     17.35 
 H                     5.997     45.54     17.93 
 H                     4.717     44.17     17.95 
 N                     3.907     47.14     15.3 
 C                     2.777     48.05     15.3 
 C                     1.427     47.62     14.74 
 O                     0.447     47.77     15.46 
 C                     3.277     49.39     14.78 
 C                     3.487     49.46     13.27 
 C                     4.807     48.86     12.8 
 O                     4.697     47.78     12.16 
 O                     5.847     49.52     12.99 
 H                     4.727     47.29     14.73 
 H                     2.487     48.23     16.34 
 H                     4.277     49.5      15.21 
 H                     2.677     50.22     15.13 
 H                     3.527     50.49     12.92 
 H                     2.667     48.93     12.79 
 N                     1.447     46.96     13.58 
 C                     0.237     46.48     12.95 
 H                    -0.53      47.253    13. 
 H                     0.441     46.239    11.907 
 H                    -0.114     45.587    13.468 
 H                     2.347     46.72     13.18 
 Ca                    1.44      57.51     18.27 
 O                     3.56      58.71     17.43 
 H                     4.19      58.52     16.74 
 H                     3.7       59.63     17.64 
 
 Stoichiometry    C54H83CaN15O23
 Framework group  C1[X(C54H83CaN15O23)]
 Deg. of freedom   522
 Full point group                 C1      NOp   1
 Largest Abelian subgroup         C1      NOp   1
 Largest concise Abelian subgroup C1      NOp   1
                         Standard orientation:                         
 ---------------------------------------------------------------------
 Center     Atomic      Atomic             Coordinates (Angstroms)
 Number     Number       Type             X           Y           Z
 ---------------------------------------------------------------------
      1          6           0       -6.506951   -3.587597   -4.522193
      2          6           0       -6.753868   -2.555134   -3.435247
      3          8           0       -6.398544   -1.399826   -3.615825
      4          1           0       -6.043433   -3.104536   -5.382524
      5          1           0       -5.843722   -4.364835   -4.141684
      6          1           0       -7.455563   -4.033436   -4.822701
      7          7           0       -7.233548   -2.864688   -2.229518
      8          6           0       -7.364225   -2.063800   -1.019848
      9          6           0       -6.175491   -2.203412   -0.065741
     10          8           0       -5.297144   -3.033214   -0.268309
     11          6           0       -8.657493   -2.360795   -0.271413
     12          6           0       -8.825593   -3.753779    0.310858
     13          8           0       -9.117670   -4.761805   -0.376727
     14          8           0       -8.662260   -3.870547    1.544304
     15          1           0       -7.524552   -3.824014   -2.194728
     16          1           0       -7.349394   -0.988213   -1.210880
     17          1           0       -9.536377   -2.255732   -0.914394
     18          1           0       -8.780221   -1.598661    0.496629
     19          7           0       -6.135939   -1.360921    0.964233
     20          6           0       -5.217689   -1.397359    2.078319
     21          6           0       -3.863046   -0.831949    1.664977
     22          8           0       -2.927798   -0.651950    2.430687
     23          6           0       -5.900416   -0.705162    3.252946
     24          6           0       -7.246740   -1.311030    3.646439
     25          6           0       -7.768899   -0.743459    4.961017
     26          6           0       -9.262775   -1.037761    5.106004
     27          7           0       -9.947149   -0.110965    6.018408
     28          1           0       -6.939707   -0.752423    1.094952
     29          1           0       -4.960655   -2.423244    2.352533
     30          1           0       -6.031847    0.348441    3.000072
     31          1           0       -5.182073   -0.688503    4.064183
     32          1           0       -7.256596   -2.399199    3.618344
     33          1           0       -8.021668   -1.081266    2.913776
     34          1           0       -7.624454    0.336695    4.971179
     35          1           0       -7.310818   -1.185503    5.847448
     36          1           0       -9.317554   -2.046750    5.497208
     37          1           0       -9.764258   -1.084837    4.140344
     38          1           0      -10.794720   -0.532442    6.381149
     39          1           0       -9.313395    0.108806    6.773163
     40          1           0      -10.202569    0.733551    5.525100
     41          7           0       -3.786468   -0.443879    0.382153
     42          6           0       -2.585491   -0.191258   -0.369936
     43          6           0       -1.776022    1.033323    0.027633
     44          8           0       -0.628665    1.209463   -0.384492
     45          6           0       -2.949410   -0.123865   -1.848794
     46          6           0       -3.984023    0.913329   -2.270461
     47          8           0       -3.746154    1.473002   -3.361875
     48          8           0       -5.060358    0.975172   -1.643581
     49          1           0       -4.664347   -0.382058   -0.116852
     50          1           0       -1.966320   -1.085167   -0.308653
     51          1           0       -3.431330   -1.066409   -2.094485
     52          1           0       -2.010644   -0.101195   -2.408352
     53          7           0       -2.275841    1.952281    0.862077
     54          6           0       -1.630621    3.228090    1.091425
     55          6           0       -1.794804    4.165450   -0.096977
     56          8           0       -2.784673    4.051124   -0.827996
     57          1           0       -3.122698    1.728703    1.375932
     58          1           0       -0.558218    3.131523    1.259139
     59          1           0       -1.916962    3.702020    2.020618
     60          7           0       -1.087011    5.287087   -0.232479
     61          6           0       -0.040409    5.932920    0.547343
     62          6           0        1.071975    6.411223   -0.379441
     63          8           0        0.779851    7.156258   -1.310078
     64          6           0       -0.642798    7.127620    1.280568
     65          6           0        0.347209    8.021037    2.015681
     66          7           0        0.727360    7.580604    3.208746
     67          8           0        0.880700    8.981954    1.474732
     68          1           0       -1.345168    5.872693   -1.015371
     69          1           0        0.213740    5.270973    1.373318
     70          1           0       -1.478651    6.880153    1.943448
     71          1           0       -1.078190    7.723269    0.473452
     72          1           0        0.474728    6.731985    3.693949
     73          1           0        1.461089    8.143726    3.617936
     74          7           0        2.338899    6.081508   -0.158783
     75          6           0        2.905521    5.209566    0.853371
     76          6           0        3.033156    3.747700    0.440507
     77          8           0        2.071211    3.189099   -0.088669
     78          1           0        2.965579    6.558875   -0.793522
     79          1           0        2.288282    5.231511    1.754001
     80          1           0        3.871752    5.654272    1.097574
     81          7           0        4.242073    3.218284    0.610620
     82          6           0        4.635580    1.912852    0.121336
     83          6           0        5.504409    1.248782    1.184090
     84          8           0        6.711457    1.485451    1.293285
     85          6           0        5.188855    2.141513   -1.276592
     86          6           0        4.365050    3.013263   -2.194633
     87          6           0        3.436386    2.441490   -3.075972
     88          6           0        4.470244    4.409401   -2.129577
     89          6           0        2.634239    3.264842   -3.871177
     90          6           0        3.681433    5.274559   -2.893566
     91          6           0        2.733776    4.670583   -3.752494
     92          8           0        1.848334    5.412664   -4.467343
     93          1           0        4.894861    3.813253    1.117454
     94          1           0        3.700990    1.391098   -0.068438
     95          1           0        5.382202    1.176000   -1.741566
     96          1           0        6.126766    2.687462   -1.245575
     97          1           0        3.399872    1.367458   -3.204513
     98          1           0        5.185657    4.894136   -1.482648
     99          1           0        1.922487    2.756337   -4.513463
    100          1           0        3.837868    6.339069   -2.886796
    101          1           0        1.967771    6.371268   -4.456701
    102          7           0        4.893991    0.345726    1.952712
    103          6           0        5.482680   -0.183578    3.172500
    104          6           0        6.188699   -1.504668    2.916650
    105          8           0        6.660753   -2.095682    3.890902
    106          6           0        4.400397   -0.069393    4.244380
    107          6           0        3.917934    1.363353    4.421770
    108          6           0        3.227859   -0.993454    3.948633
    109          6           0        4.983893    2.338160    4.932146
    110          1           0        3.918814    0.131091    1.795036
    111          1           0        6.317355    0.434989    3.505956
    112          1           0        4.902474   -0.406849    5.157749
    113          1           0        3.108795    1.443000    5.144509
    114          1           0        3.439524    1.764329    3.534954
    115          1           0        2.713517   -1.244309    4.879130
    116          1           0        2.444978   -0.575700    3.323191
    117          1           0        3.624438   -1.888959    3.466455
    118          1           0        5.599550    2.742247    4.124755
    119          1           0        4.474366    3.195025    5.370168
    120          1           0        5.617538    1.924593    5.718248
    121          7           0        6.091214   -2.058693    1.707703
    122          6           0        6.763596   -3.316903    1.455693
    123          6           0        5.886900   -4.519862    1.781874
    124          8           0        6.431398   -5.629145    1.747042
    125          6           0        7.376788   -3.361378    0.055187
    126          8           0        6.482225   -3.164252   -1.008719
    127          1           0        5.800737   -1.498510    0.927820
    128          1           0        7.594515   -3.408557    2.162074
    129          1           0        7.855672   -4.332514   -0.082164
    130          1           0        8.208445   -2.662250    0.006543
    131          1           0        5.694438   -2.691717   -0.725165
    132          7           0        4.628339   -4.284996    2.145967
    133          6           0        3.624720   -5.327878    2.228701
    134          6           0        2.817039   -5.412761    0.944744
    135          8           0        1.658070   -5.030081    0.802445
    136          6           0        2.792658   -5.166502    3.495677
    137          1           0        4.281023   -3.340225    2.044582
    138          1           0        4.118948   -6.293947    2.299049
    139          1           0        1.787811   -5.584911    3.524270
    140          1           0        3.338031   -5.549265    4.358325
    141          1           0        2.785538   -4.098690    3.734480
    142          7           0        3.516145   -5.848724   -0.115533
    143          6           0        2.974599   -6.213812   -1.407020
    144          6           0        2.258432   -5.193710   -2.275004
    145          8           0        1.659610   -5.562343   -3.280997
    146          6           0        2.076242   -7.417539   -1.153847
    147          1           0        4.500926   -5.957768    0.035848
    148          1           0        3.800022   -6.572814   -2.022076
    149          1           0        2.614191   -8.188278   -0.591733
    150          1           0        1.156845   -7.162142   -0.628985
    151          1           0        2.004770   -7.943002   -2.107829
    152          7           0        2.370294   -3.900743   -1.946488
    153          6           0        1.862331   -2.922127   -2.889506
    154          6           0        2.612853   -2.616797   -4.179658
    155          8           0        1.979766   -2.683190   -5.226603
    156          6           0        1.458178   -1.692258   -2.089454
    157          6           0        2.616731   -0.816468   -1.620576
    158          6           0        3.308369   -1.326485   -0.361681
    159          8           0        4.471295   -1.776255   -0.544471
    160          8           0        2.726152   -1.165379    0.728442
    161          1           0        2.708900   -3.648401   -1.029171
    162          1           0        0.932408   -3.312492   -3.314896
    163          1           0        1.015103   -2.090282   -1.171706
    164          1           0        0.700658   -1.103170   -2.589991
    165          1           0        2.277786    0.181530   -1.348335
    166          1           0        3.345597   -0.760635   -2.426391
    167          7           0        3.935487   -2.468932   -4.077800
    168          6           0        4.767303   -2.195410   -5.228742
    169          1           0        4.289413   -1.438499   -5.850854
    170          1           0        5.739058   -1.830721   -4.896716
    171          1           0        4.900116   -3.109676   -5.807924
    172          1           0        4.369297   -2.638548   -3.177444
    173         20           0       -6.139616    3.080565   -3.080790
    174          8           0       -6.257839    4.002891   -0.677597
    175          1           0       -5.613117    4.103347    0.017631
    176          1           0       -6.981981    4.568355   -0.420752
 ---------------------------------------------------------------------
 Rotational constants (GHZ):           0.0179582           0.0124140           0.0099205
 Standard basis: SVP (5D, 7F)
 There are  1809 symmetry adapted cartesian basis functions of A   symmetry.
 There are  1717 symmetry adapted basis functions of A   symmetry.
  1717 basis functions,  2922 primitive gaussians,  1809 cartesian basis functions
   358 alpha electrons      358 beta electrons
       nuclear repulsion energy     20103.4854410715 Hartrees.
 NAtoms=  176 NActive=  176 NUniq=  176 SFac= 1.00D+00 NAtFMM=   60 NAOKFM=T Big=T
 Integral buffers will be    131072 words long.
 Raffenetti 2 integral format.
 Two-electron integral symmetry is turned on.
 One-electron integrals computed using PRISM.
 NBasis=  1717 RedAO= T EigKep=  2.56D-04  NBF=  1717
 NBsUse=  1717 1.00D-06 EigRej= -1.00D+00 NBFU=  1717
 ExpMin= 1.98D-02 ExpMax= 3.51D+04 ExpMxC= 5.28D+03 IAcc=3 IRadAn=         5 AccDes= 0.00D+00
 Harris functional with IExCor=  402 and IRadAn=       5 diagonalized for initial guess.
 HarFok:  IExCor=  402 AccDes= 0.00D+00 IRadAn=         5 IDoV= 1 UseB2=F ITyADJ=14
 ICtDFT=  3500011 ScaDFX=  1.000000  1.000000  1.000000  1.000000
 FoFCou: FMM=F IPFlag=           0 FMFlag=      100000 FMFlg1=        2001
         NFxFlg=           0 DoJE=T BraDBF=F KetDBF=T FulRan=T
         wScrn=  0.000000 ICntrl=       500 IOpCl=  0 I1Cent=   200000004 NGrid=           0
         NMat0=    1 NMatS0=      1 NMatT0=    0 NMatD0=    1 NMtDS0=    0 NMtDT0=    0
 Petite list used in FoFCou.
 Requested convergence on RMS density matrix=1.00D-08 within 128 cycles.
 Requested convergence on MAX density matrix=1.00D-06.
 Requested convergence on             energy=1.00D-06.
 No special actions if energy rises.
 EnCoef did     1 forward-backward iterations
 EnCoef did     3 forward-backward iterations
 EnCoef did     4 forward-backward iterations
 EnCoef did     4 forward-backward iterations
 EnCoef did     5 forward-backward iterations
 EnCoef did     6 forward-backward iterations
 EnCoef did   100 forward-backward iterations
 EnCoef did   100 forward-backward iterations
 EnCoef did   100 forward-backward iterations
 EnCoef did    83 forward-backward iterations
 Rare condition: small coef for last iteration: -0.454D-15
 EnCoef did   100 forward-backward iterations
 EnCoef did   100 forward-backward iterations
 Rare condition: small coef for last iteration:  0.443D-15
 EnCoef did   100 forward-backward iterations
 EnCoef did   100 forward-backward iterations
 EnCoef did   100 forward-backward iterations
 EnCoef did   100 forward-backward iterations
 Rare condition: small coef for last iteration: -0.193D-15
 EnCoef did   100 forward-backward iterations
 Restarting incremental Fock formation.
 EnCoef did   100 forward-backward iterations
 EnCoef did   100 forward-backward iterations
 EnCoef did    78 forward-backward iterations
 Rare condition: small coef for last iteration:  0.200D-14
 EnCoef did    21 forward-backward iterations
 EnCoef did    22 forward-backward iterations
 Rare condition: small coef for last iteration:  0.222D-15
 EnCoef did   100 forward-backward iterations
 EnCoef did   100 forward-backward iterations
 Rare condition: small coef for last iteration:  0.979D-15
 EnCoef did   100 forward-backward iterations
 EnCoef did   100 forward-backward iterations
 EnCoef did   100 forward-backward iterations
 EnCoef did   100 forward-backward iterations
 Rare condition: small coef for last iteration:  0.297D-15
 EnCoef did   100 forward-backward iterations
 EnCoef did   100 forward-backward iterations
 EnCoef did   100 forward-backward iterations
 EnCoef did   100 forward-backward iterations
 Rare condition: small coef for last iteration:  0.587D-16
 EnCoef did   100 forward-backward iterations
 EnCoef did   100 forward-backward iterations
 EnCoef did   100 forward-backward iterations
 Restarting incremental Fock formation.
 EnCoef did   100 forward-backward iterations
 Rare condition: small coef for last iteration:  0.177D-15
 EnCoef did   100 forward-backward iterations
 Rare condition: small coef for last iteration:  0.000D+00
 EnCoef did   100 forward-backward iterations
 EnCoef did   100 forward-backward iterations
 EnCoef did   100 forward-backward iterations
 EnCoef did   100 forward-backward iterations
 EnCoef did   100 forward-backward iterations
 EnCoef did     7 forward-backward iterations
 Restarting incremental Fock formation.
 SCF Done:  E(RB3LYP) =  -5333.28281679     A.U. after   62 cycles
            NFock= 62  Conv=0.93D-09     -V/T= 2.0081
 SCF density gives NOpUse=  1 NOpAll=  1.
 Hyperfine terms turned off by default for NAtoms > 100.

 **********************************************************************

            Population analysis using the SCF density.

 **********************************************************************

 Orbital symmetries:
 BldTbl:  Degeneracy threshold= 1.00D-02
       Occupied  (A) (A) (A) (A) (A) (A) (A) (A) (A) (A) (A) (A)
                 (A) (A) (A) (A) (A) (A) (A) (A) (A) (A) (A) (A)
                 (A) (A) (A) (A) (A) (A) (A) (A) (A) (A) (A) (A)
                 (A) (A) (A) (A) (A) (A) (A) (A) (A) (A) (A) (A)
                 (A) (A) (A) (A) (A) (A) (A) (A) (A) (A) (A) (A)
                 (A) (A) (A) (A) (A) (A) (A) (A) (A) (A) (A) (A)
                 (A) (A) (A) (A) (A) (A) (A) (A) (A) (A) (A) (A)
                 (A) (A) (A) (A) (A) (A) (A) (A) (A) (A) (A) (A)
                 (A) (A) (A) (A) (A) (A) (A) (A) (A) (A) (A) (A)
                 (A) (A) (A) (A) (A) (A) (A) (A) (A) (A) (A) (A)
                 (A) (A) (A) (A) (A) (A) (A) (A) (A) (A) (A) (A)
                 (A) (A) (A) (A) (A) (A) (A) (A) (A) (A) (A) (A)
                 (A) (A) (A) (A) (A) (A) (A) (A) (A) (A) (A) (A)
                 (A) (A) (A) (A) (A) (A) (A) (A) (A) (A) (A) (A)
                 (A) (A) (A) (A) (A) (A) (A) (A) (A) (A) (A) (A)
                 (A) (A) (A) (A) (A) (A) (A) (A) (A) (A) (A) (A)
                 (A) (A) (A) (A) (A) (A) (A) (A) (A) (A) (A) (A)
                 (A) (A) (A) (A) (A) (A) (A) (A) (A) (A) (A) (A)
                 (A) (A) (A) (A) (A) (A) (A) (A) (A) (A) (A) (A)
                 (A) (A) (A) (A) (A) (A) (A) (A) (A) (A) (A) (A)
                 (A) (A) (A) (A) (A) (A) (A) (A) (A) (A) (A) (A)
                 (A) (A) (A) (A) (A) (A) (A) (A) (A) (A) (A) (A)
                 (A) (A) (A) (A) (A) (A) (A) (A) (A) (A) (A) (A)
                 (A) (A) (A) (A) (A) (A) (A) (A) (A) (A) (A) (A)
                 (A) (A) (A) (A) (A) (A) (A) (A) (A) (A) (A) (A)
                 (A) (A) (A) (A) (A) (A) (A) (A) (A) (A) (A) (A)
                 (A) (A) (A) (A) (A) (A) (A) (A) (A) (A) (A) (A)
                 (A) (A) (A) (A) (A) (A) (A) (A) (A) (A) (A) (A)
                 (A) (A) (A) (A) (A) (A) (A) (A) (A) (A) (A) (A)
                 (A) (A) (A) (A) (A) (A) (A) (A) (A) (A)
       Virtual   (A) (A) (A) (A) (A) (A) (A) (A) (A) (A) (A) (A)
                 (A) (A) (A) (A) (A) (A) (A) (A) (A) (A) (A) (A)
                 (A) (A) (A) (A) (A) (A) (A) (A) (A) (A) (A) (A)
                 (A) (A) (A) (A) (A) (A) (A) (A) (A) (A) (A) (A)
                 (A) (A) (A) (A) (A) (A) (A) (A) (A) (A) (A) (A)
                 (A) (A) (A) (A) (A) (A) (A) (A) (A) (A) (A) (A)
                 (A) (A) (A) (A) (A) (A) (A) (A) (A) (A) (A) (A)
                 (A) (A) (A) (A) (A) (A) (A) (A) (A) (A) (A) (A)
                 (A) (A) (A) (A) (A) (A) (A) (A) (A) (A) (A) (A)
                 (A) (A) (A) (A) (A) (A) (A) (A) (A) (A) (A) (A)
                 (A) (A) (A) (A) (A) (A) (A) (A) (A) (A) (A) (A)
                 (A) (A) (A) (A) (A) (A) (A) (A) (A) (A) (A) (A)
                 (A) (A) (A) (A) (A) (A) (A) (A) (A) (A) (A) (A)
                 (A) (A) (A) (A) (A) (A) (A) (A) (A) (A) (A) (A)
                 (A) (A) (A) (A) (A) (A) (A) (A) (A) (A) (A) (A)
                 (A) (A) (A) (A) (A) (A) (A) (A) (A) (A) (A) (A)
                 (A) (A) (A) (A) (A) (A) (A) (A) (A) (A) (A) (A)
                 (A) (A) (A) (A) (A) (A) (A) (A) (A) (A) (A) (A)
                 (A) (A) (A) (A) (A) (A) (A) (A) (A) (A) (A) (A)
                 (A) (A) (A) (A) (A) (A) (A) (A) (A) (A) (A) (A)
                 (A) (A) (A) (A) (A) (A) (A) (A) (A) (A) (A) (A)
                 (A) (A) (A) (A) (A) (A) (A) (A) (A) (A) (A) (A)
                 (A) (A) (A) (A) (A) (A) (A) (A) (A) (A) (A) (A)
                 (A) (A) (A) (A) (A) (A) (A) (A) (A) (A) (A) (A)
                 (A) (A) (A) (A) (A) (A) (A) (A) (A) (A) (A) (A)
                 (A) (A) (A) (A) (A) (A) (A) (A) (A) (A) (A) (A)
                 (A) (A) (A) (A) (A) (A) (A) (A) (A) (A) (A) (A)
                 (A) (A) (A) (A) (A) (A) (A) (A) (A) (A) (A) (A)
                 (A) (A) (A) (A) (A) (A) (A) (A) (A) (A) (A) (A)
                 (A) (A) (A) (A) (A) (A) (A) (A) (A) (A) (A) (A)
                 (A) (A) (A) (A) (A) (A) (A) (A) (A) (A) (A) (A)
                 (A) (A) (A) (A) (A) (A) (A) (A) (A) (A) (A) (A)
                 (A) (A) (A) (A) (A) (A) (A) (A) (A) (A) (A) (A)
                 (A) (A) (A) (A) (A) (A) (A) (A) (A) (A) (A) (A)
                 (A) (A) (A) (A) (A) (A) (A) (A) (A) (A) (A) (A)
                 (A) (A) (A) (A) (A) (A) (A) (A) (A) (A) (A) (A)
                 (A) (A) (A) (A) (A) (A) (A) (A) (A) (A) (A) (A)
                 (A) (A) (A) (A) (A) (A) (A) (A) (A) (A) (A) (A)
                 (A) (A) (A) (A) (A) (A) (A) (A) (A) (A) (A) (A)
                 (A) (A) (A) (A) (A) (A) (A) (A) (A) (A) (A) (A)
                 (A) (A) (A) (A) (A) (A) (A) (A) (A) (A) (A) (A)
                 (A) (A) (A) (A) (A) (A) (A) (A) (A) (A) (A) (A)
                 (A) (A) (A) (A) (A) (A) (A) (A) (A) (A) (A) (A)
                 (A) (A) (A) (A) (A) (A) (A) (A) (A) (A) (A) (A)
                 (A) (A) (A) (A) (A) (A) (A) (A) (A) (A) (A) (A)
                 (A) (A) (A) (A) (A) (A) (A) (A) (A) (A) (A) (A)
                 (A) (A) (A) (A) (A) (A) (A) (A) (A) (A) (A) (A)
                 (A) (A) (A) (A) (A) (A) (A) (A) (A) (A) (A) (A)
                 (A) (A) (A) (A) (A) (A) (A) (A) (A) (A) (A) (A)
                 (A) (A) (A) (A) (A) (A) (A) (A) (A) (A) (A) (A)
                 (A) (A) (A) (A) (A) (A) (A) (A) (A) (A) (A) (A)
                 (A) (A) (A) (A) (A) (A) (A) (A) (A) (A) (A) (A)
                 (A) (A) (A) (A) (A) (A) (A) (A) (A) (A) (A) (A)
                 (A) (A) (A) (A) (A) (A) (A) (A) (A) (A) (A) (A)
                 (A) (A) (A) (A) (A) (A) (A) (A) (A) (A) (A) (A)
                 (A) (A) (A) (A) (A) (A) (A) (A) (A) (A) (A) (A)
                 (A) (A) (A) (A) (A) (A) (A) (A) (A) (A) (A) (A)
                 (A) (A) (A) (A) (A) (A) (A) (A) (A) (A) (A) (A)
                 (A) (A) (A) (A) (A) (A) (A) (A) (A) (A) (A) (A)
                 (A) (A) (A) (A) (A) (A) (A) (A) (A) (A) (A) (A)
                 (A) (A) (A) (A) (A) (A) (A) (A) (A) (A) (A) (A)
                 (A) (A) (A) (A) (A) (A) (A) (A) (A) (A) (A) (A)
                 (A) (A) (A) (A) (A) (A) (A) (A) (A) (A) (A) (A)
                 (A) (A) (A) (A) (A) (A) (A) (A) (A) (A) (A) (A)
                 (A) (A) (A) (A) (A) (A) (A) (A) (A) (A) (A) (A)
                 (A) (A) (A) (A) (A) (A) (A) (A) (A) (A) (A) (A)
                 (A) (A) (A) (A) (A) (A) (A) (A) (A) (A) (A) (A)
                 (A) (A) (A) (A) (A) (A) (A) (A) (A) (A) (A) (A)
                 (A) (A) (A) (A) (A) (A) (A) (A) (A) (A) (A) (A)
                 (A) (A) (A) (A) (A) (A) (A) (A) (A) (A) (A) (A)
                 (A) (A) (A) (A) (A) (A) (A) (A) (A) (A) (A) (A)
                 (A) (A) (A) (A) (A) (A) (A) (A) (A) (A) (A) (A)
                 (A) (A) (A) (A) (A) (A) (A) (A) (A) (A) (A) (A)
                 (A) (A) (A) (A) (A) (A) (A) (A) (A) (A) (A) (A)
                 (A) (A) (A) (A) (A) (A) (A) (A) (A) (A) (A) (A)
                 (A) (A) (A) (A) (A) (A) (A) (A) (A) (A) (A) (A)
                 (A) (A) (A) (A) (A) (A) (A) (A) (A) (A) (A) (A)
                 (A) (A) (A) (A) (A) (A) (A) (A) (A) (A) (A) (A)
                 (A) (A) (A) (A) (A) (A) (A) (A) (A) (A) (A) (A)
                 (A) (A) (A) (A) (A) (A) (A) (A) (A) (A) (A) (A)
                 (A) (A) (A) (A) (A) (A) (A) (A) (A) (A) (A) (A)
                 (A) (A) (A) (A) (A) (A) (A) (A) (A) (A) (A) (A)
                 (A) (A) (A) (A) (A) (A) (A) (A) (A) (A) (A) (A)
                 (A) (A) (A) (A) (A) (A) (A) (A) (A) (A) (A) (A)
                 (A) (A) (A) (A) (A) (A) (A) (A) (A) (A) (A) (A)
                 (A) (A) (A) (A) (A) (A) (A) (A) (A) (A) (A) (A)
                 (A) (A) (A) (A) (A) (A) (A) (A) (A) (A) (A) (A)
                 (A) (A) (A) (A) (A) (A) (A) (A) (A) (A) (A) (A)
                 (A) (A) (A) (A) (A) (A) (A) (A) (A) (A) (A) (A)
                 (A) (A) (A) (A) (A) (A) (A) (A) (A) (A) (A) (A)
                 (A) (A) (A) (A) (A) (A) (A) (A) (A) (A) (A) (A)
                 (A) (A) (A) (A) (A) (A) (A) (A) (A) (A) (A) (A)
                 (A) (A) (A) (A) (A) (A) (A) (A) (A) (A) (A) (A)
                 (A) (A) (A) (A) (A) (A) (A) (A) (A) (A) (A) (A)
                 (A) (A) (A) (A) (A) (A) (A) (A) (A) (A) (A) (A)
                 (A) (A) (A) (A) (A) (A) (A) (A) (A) (A) (A) (A)
                 (A) (A) (A) (A) (A) (A) (A) (A) (A) (A) (A) (A)
                 (A) (A) (A) (A) (A) (A) (A) (A) (A) (A) (A) (A)
                 (A) (A) (A) (A) (A) (A) (A) (A) (A) (A) (A) (A)
                 (A) (A) (A) (A) (A) (A) (A) (A) (A) (A) (A) (A)
                 (A) (A) (A) (A) (A) (A) (A) (A) (A) (A) (A) (A)
                 (A) (A) (A) (A) (A) (A) (A) (A) (A) (A) (A) (A)
                 (A) (A) (A) (A) (A) (A) (A) (A) (A) (A) (A) (A)
                 (A) (A) (A) (A) (A) (A) (A) (A) (A) (A) (A) (A)
                 (A) (A) (A) (A) (A) (A) (A) (A) (A) (A) (A) (A)
                 (A) (A) (A) (A) (A) (A) (A) (A) (A) (A) (A) (A)
                 (A) (A) (A) (A) (A) (A) (A) (A) (A) (A) (A) (A)
                 (A) (A) (A) (A) (A) (A) (A) (A) (A) (A) (A) (A)
                 (A) (A) (A) (A) (A) (A) (A) (A) (A) (A) (A) (A)
                 (A) (A) (A) (A) (A) (A) (A) (A) (A) (A) (A) (A)
                 (A) (A) (A) (A) (A) (A) (A) (A) (A) (A) (A) (A)
                 (A) (A) (A) (A) (A) (A) (A) (A) (A) (A) (A) (A)
                 (A) (A) (A) (A) (A) (A) (A) (A) (A) (A) (A) (A)
                 (A) (A) (A)
 The electronic state is 1-A.
 Alpha  occ. eigenvalues -- -145.52379 -19.25522 -19.13288 -19.10645 -19.10259
 Alpha  occ. eigenvalues --  -19.09990 -19.09862 -19.09182 -19.09065 -19.08899
 Alpha  occ. eigenvalues --  -19.08195 -19.06633 -19.06567 -19.06253 -19.05228
 Alpha  occ. eigenvalues --  -19.04805 -19.04556 -19.04440 -19.04346 -19.03918
 Alpha  occ. eigenvalues --  -19.03733 -19.03542 -19.02979 -19.02820 -15.58356
 Alpha  occ. eigenvalues --  -14.61445 -14.37473 -14.36692 -14.36103 -14.36072
 Alpha  occ. eigenvalues --  -14.34648 -14.34172 -14.33057 -14.33019 -14.31122
 Alpha  occ. eigenvalues --  -14.30940 -14.30451 -14.29729 -14.29726 -14.29446
 Alpha  occ. eigenvalues --  -12.71949 -12.71900 -12.71883 -10.36483 -10.30011
 Alpha  occ. eigenvalues --  -10.29840 -10.29421 -10.28929 -10.27737 -10.27537
 Alpha  occ. eigenvalues --  -10.27487 -10.27012 -10.26139 -10.25764 -10.25728
 Alpha  occ. eigenvalues --  -10.25388 -10.24954 -10.24950 -10.24151 -10.23870
 Alpha  occ. eigenvalues --  -10.23540 -10.23530 -10.23526 -10.23400 -10.23303
 Alpha  occ. eigenvalues --  -10.23060 -10.22635 -10.22373 -10.21754 -10.21607
 Alpha  occ. eigenvalues --  -10.21423 -10.21105 -10.20300 -10.18844 -10.18585
 Alpha  occ. eigenvalues --  -10.18481 -10.18350 -10.17441 -10.17302 -10.17130
 Alpha  occ. eigenvalues --  -10.17127 -10.16869 -10.16620 -10.16576 -10.15952
 Alpha  occ. eigenvalues --  -10.15919 -10.15901 -10.15821 -10.15774 -10.15653
 Alpha  occ. eigenvalues --  -10.15501 -10.15486 -10.14002 -10.13478 -10.12875
 Alpha  occ. eigenvalues --  -10.12746 -10.11350  -1.94970  -1.22412  -1.22162
 Alpha  occ. eigenvalues --   -1.21895  -1.16536  -1.11576  -1.03975  -1.03789
 Alpha  occ. eigenvalues --   -1.03477  -1.03082  -1.02867  -1.01796  -1.01781
 Alpha  occ. eigenvalues --   -1.01027  -1.00360  -0.99905  -0.99023  -0.98567
 Alpha  occ. eigenvalues --   -0.98557  -0.97802  -0.97137  -0.96926  -0.96838
 Alpha  occ. eigenvalues --   -0.96071  -0.94240  -0.94029  -0.93123  -0.92804
 Alpha  occ. eigenvalues --   -0.92357  -0.92074  -0.91369  -0.91040  -0.90528
 Alpha  occ. eigenvalues --   -0.89551  -0.89371  -0.88761  -0.88467  -0.88141
 Alpha  occ. eigenvalues --   -0.87901  -0.87454  -0.86553  -0.86161  -0.85498
 Alpha  occ. eigenvalues --   -0.83550  -0.81887  -0.79684  -0.79396  -0.78135
 Alpha  occ. eigenvalues --   -0.77198  -0.76637  -0.76587  -0.75899  -0.75128
 Alpha  occ. eigenvalues --   -0.74291  -0.73508  -0.73221  -0.73103  -0.71930
 Alpha  occ. eigenvalues --   -0.71675  -0.71185  -0.71093  -0.70430  -0.69847
 Alpha  occ. eigenvalues --   -0.69605  -0.69346  -0.67017  -0.66729  -0.66342
 Alpha  occ. eigenvalues --   -0.65751  -0.64718  -0.64708  -0.64038  -0.63309
 Alpha  occ. eigenvalues --   -0.63031  -0.62368  -0.62263  -0.61480  -0.61126
 Alpha  occ. eigenvalues --   -0.60383  -0.59820  -0.59754  -0.59315  -0.58548
 Alpha  occ. eigenvalues --   -0.58354  -0.57661  -0.57518  -0.56797  -0.56669
 Alpha  occ. eigenvalues --   -0.56660  -0.56378  -0.56177  -0.55820  -0.55770
 Alpha  occ. eigenvalues --   -0.54605  -0.54313  -0.54122  -0.53839  -0.53792
 Alpha  occ. eigenvalues --   -0.53384  -0.52945  -0.52700  -0.52690  -0.52555
 Alpha  occ. eigenvalues --   -0.52105  -0.51937  -0.51621  -0.51598  -0.50867
 Alpha  occ. eigenvalues --   -0.50638  -0.50237  -0.50170  -0.49727  -0.49449
 Alpha  occ. eigenvalues --   -0.49009  -0.48758  -0.48623  -0.47837  -0.47643
 Alpha  occ. eigenvalues --   -0.47164  -0.46831  -0.46735  -0.46651  -0.46090
 Alpha  occ. eigenvalues --   -0.45897  -0.45719  -0.45331  -0.45262  -0.45121
 Alpha  occ. eigenvalues --   -0.44710  -0.44375  -0.44219  -0.44166  -0.43906
 Alpha  occ. eigenvalues --   -0.43593  -0.43541  -0.43454  -0.43441  -0.43128
 Alpha  occ. eigenvalues --   -0.43052  -0.42973  -0.42758  -0.42701  -0.42595
 Alpha  occ. eigenvalues --   -0.42417  -0.42085  -0.41950  -0.41855  -0.41664
 Alpha  occ. eigenvalues --   -0.41363  -0.41293  -0.41055  -0.40957  -0.40866
 Alpha  occ. eigenvalues --   -0.40736  -0.40466  -0.40246  -0.40133  -0.39961
 Alpha  occ. eigenvalues --   -0.39741  -0.39622  -0.39446  -0.39337  -0.39332
 Alpha  occ. eigenvalues --   -0.39189  -0.38848  -0.38824  -0.38559  -0.38458
 Alpha  occ. eigenvalues --   -0.38421  -0.38200  -0.38156  -0.38034  -0.37854
 Alpha  occ. eigenvalues --   -0.37637  -0.37619  -0.37508  -0.37178  -0.37117
 Alpha  occ. eigenvalues --   -0.36727  -0.36689  -0.36625  -0.36440  -0.36383
 Alpha  occ. eigenvalues --   -0.36170  -0.35917  -0.35890  -0.35864  -0.35742
 Alpha  occ. eigenvalues --   -0.35532  -0.35404  -0.35110  -0.35071  -0.34963
 Alpha  occ. eigenvalues --   -0.34863  -0.34806  -0.34541  -0.34479  -0.34011
 Alpha  occ. eigenvalues --   -0.33942  -0.33617  -0.33413  -0.33386  -0.33268
 Alpha  occ. eigenvalues --   -0.32977  -0.32930  -0.32629  -0.32145  -0.31975
 Alpha  occ. eigenvalues --   -0.31792  -0.31527  -0.31101  -0.30950  -0.30573
 Alpha  occ. eigenvalues --   -0.30262  -0.29949  -0.29804  -0.29579  -0.29028
 Alpha  occ. eigenvalues --   -0.28710  -0.28630  -0.28373  -0.28054  -0.27203
 Alpha  occ. eigenvalues --   -0.26935  -0.26915  -0.26847  -0.26364  -0.25835
 Alpha  occ. eigenvalues --   -0.25623  -0.25485  -0.25307  -0.24937  -0.24854
 Alpha  occ. eigenvalues --   -0.24667  -0.24259  -0.23858  -0.23746  -0.23596
 Alpha  occ. eigenvalues --   -0.23463  -0.23387  -0.22876  -0.22650  -0.22573
 Alpha  occ. eigenvalues --   -0.22407  -0.21912  -0.21844  -0.21365  -0.21192
 Alpha  occ. eigenvalues --   -0.21159  -0.21086  -0.20029  -0.20009  -0.19801
 Alpha  occ. eigenvalues --   -0.19666  -0.19371  -0.19002  -0.18809  -0.18628
 Alpha  occ. eigenvalues --   -0.18323  -0.18214  -0.17986
 Alpha virt. eigenvalues --   -0.17049  -0.13232  -0.07340  -0.06717  -0.05932
 Alpha virt. eigenvalues --   -0.04794  -0.02953  -0.00962  -0.00675  -0.00412
 Alpha virt. eigenvalues --   -0.00166   0.00076   0.00893   0.00921   0.01283
 Alpha virt. eigenvalues --    0.01662   0.01674   0.02158   0.02532   0.02781
 Alpha virt. eigenvalues --    0.03273   0.03553   0.03753   0.03912   0.04238
 Alpha virt. eigenvalues --    0.04679   0.04689   0.05149   0.05288   0.05394
 Alpha virt. eigenvalues --    0.05623   0.06046   0.06191   0.06388   0.06555
 Alpha virt. eigenvalues --    0.06775   0.07375   0.07653   0.07789   0.07822
 Alpha virt. eigenvalues --    0.08035   0.08138   0.08548   0.08594   0.08784
 Alpha virt. eigenvalues --    0.08869   0.09182   0.09504   0.09915   0.10313
 Alpha virt. eigenvalues --    0.10478   0.10640   0.10979   0.11080   0.11152
 Alpha virt. eigenvalues --    0.11658   0.11778   0.12034   0.12404   0.12460
 Alpha virt. eigenvalues --    0.12642   0.12995   0.13192   0.13333   0.13684
 Alpha virt. eigenvalues --    0.13689   0.13927   0.14102   0.14211   0.14400
 Alpha virt. eigenvalues --    0.14627   0.14690   0.14922   0.15059   0.15294
 Alpha virt. eigenvalues --    0.15411   0.15594   0.15700   0.15966   0.16109
 Alpha virt. eigenvalues --    0.16252   0.16416   0.16596   0.16863   0.17084
 Alpha virt. eigenvalues --    0.17276   0.17410   0.17785   0.17972   0.18173
 Alpha virt. eigenvalues --    0.18271   0.18496   0.18741   0.18810   0.18945
 Alpha virt. eigenvalues --    0.19035   0.19094   0.19254   0.19318   0.19339
 Alpha virt. eigenvalues --    0.19575   0.19807   0.20076   0.20241   0.20386
 Alpha virt. eigenvalues --    0.20444   0.20623   0.20802   0.21086   0.21291
 Alpha virt. eigenvalues --    0.21564   0.21702   0.21878   0.22263   0.22555
 Alpha virt. eigenvalues --    0.22814   0.22945   0.23222   0.23453   0.23596
 Alpha virt. eigenvalues --    0.23882   0.24182   0.24238   0.24743   0.24926
 Alpha virt. eigenvalues --    0.25124   0.25456   0.25576   0.25750   0.25841
 Alpha virt. eigenvalues --    0.25970   0.26353   0.26509   0.26630   0.26678
 Alpha virt. eigenvalues --    0.26688   0.26971   0.27207   0.27357   0.27601
 Alpha virt. eigenvalues --    0.27750   0.28183   0.28315   0.28465   0.28762
 Alpha virt. eigenvalues --    0.28941   0.29111   0.29379   0.29627   0.29727
 Alpha virt. eigenvalues --    0.29974   0.30092   0.30169   0.30406   0.30465
 Alpha virt. eigenvalues --    0.30739   0.30954   0.30989   0.31184   0.31451
 Alpha virt. eigenvalues --    0.31623   0.31855   0.32656   0.32919   0.33033
 Alpha virt. eigenvalues --    0.33220   0.33478   0.33698   0.33886   0.34526
 Alpha virt. eigenvalues --    0.34940   0.35219   0.35684   0.35727   0.35934
 Alpha virt. eigenvalues --    0.36147   0.36305   0.36461   0.36959   0.36994
 Alpha virt. eigenvalues --    0.37397   0.37663   0.37951   0.38185   0.38480
 Alpha virt. eigenvalues --    0.38618   0.39030   0.39149   0.39571   0.39964
 Alpha virt. eigenvalues --    0.40280   0.40433   0.40809   0.41275   0.41417
 Alpha virt. eigenvalues --    0.41617   0.42192   0.42344   0.42592   0.42858
 Alpha virt. eigenvalues --    0.43285   0.43511   0.44186   0.44209   0.44666
 Alpha virt. eigenvalues --    0.44962   0.45031   0.45391   0.45520   0.45571
 Alpha virt. eigenvalues --    0.45755   0.45984   0.46402   0.46504   0.46618
 Alpha virt. eigenvalues --    0.46787   0.46981   0.47319   0.47406   0.47543
 Alpha virt. eigenvalues --    0.47576   0.48099   0.48278   0.48373   0.48583
 Alpha virt. eigenvalues --    0.48627   0.48770   0.49059   0.49312   0.49400
 Alpha virt. eigenvalues --    0.49527   0.49610   0.49889   0.49932   0.50155
 Alpha virt. eigenvalues --    0.50295   0.50570   0.50875   0.50899   0.51267
 Alpha virt. eigenvalues --    0.51355   0.51795   0.51857   0.51971   0.52345
 Alpha virt. eigenvalues --    0.52469   0.52577   0.52600   0.52848   0.53092
 Alpha virt. eigenvalues --    0.53198   0.53580   0.53600   0.53804   0.53932
 Alpha virt. eigenvalues --    0.54109   0.54225   0.54484   0.54585   0.54839
 Alpha virt. eigenvalues --    0.54901   0.55240   0.55443   0.55810   0.55836
 Alpha virt. eigenvalues --    0.56161   0.56263   0.56491   0.56689   0.56719
 Alpha virt. eigenvalues --    0.56772   0.57132   0.57236   0.57298   0.57364
 Alpha virt. eigenvalues --    0.57481   0.57749   0.57828   0.57953   0.58297
 Alpha virt. eigenvalues --    0.58396   0.58724   0.58998   0.59083   0.59220
 Alpha virt. eigenvalues --    0.59452   0.59480   0.59693   0.59763   0.59825
 Alpha virt. eigenvalues --    0.60022   0.60132   0.60203   0.60716   0.60910
 Alpha virt. eigenvalues --    0.61122   0.61330   0.61405   0.61562   0.61689
 Alpha virt. eigenvalues --    0.61850   0.62050   0.62129   0.62239   0.62476
 Alpha virt. eigenvalues --    0.62708   0.62944   0.62971   0.63253   0.63488
 Alpha virt. eigenvalues --    0.63663   0.63759   0.63866   0.63887   0.64048
 Alpha virt. eigenvalues --    0.64195   0.64352   0.64596   0.64602   0.64815
 Alpha virt. eigenvalues --    0.64869   0.64944   0.65106   0.65302   0.65425
 Alpha virt. eigenvalues --    0.65470   0.65651   0.65739   0.65950   0.66113
 Alpha virt. eigenvalues --    0.66256   0.66312   0.66555   0.66633   0.66735
 Alpha virt. eigenvalues --    0.66822   0.67084   0.67276   0.67354   0.67426
 Alpha virt. eigenvalues --    0.67586   0.67681   0.67754   0.68074   0.68154
 Alpha virt. eigenvalues --    0.68213   0.68397   0.68449   0.68483   0.68612
 Alpha virt. eigenvalues --    0.68713   0.68891   0.68975   0.69064   0.69097
 Alpha virt. eigenvalues --    0.69305   0.69411   0.69466   0.69751   0.69935
 Alpha virt. eigenvalues --    0.69993   0.70037   0.70230   0.70307   0.70437
 Alpha virt. eigenvalues --    0.70612   0.70692   0.70726   0.70876   0.71073
 Alpha virt. eigenvalues --    0.71102   0.71153   0.71214   0.71329   0.71476
 Alpha virt. eigenvalues --    0.71555   0.71721   0.71866   0.71959   0.72151
 Alpha virt. eigenvalues --    0.72219   0.72330   0.72426   0.72536   0.72678
 Alpha virt. eigenvalues --    0.72949   0.72969   0.73244   0.73315   0.73448
 Alpha virt. eigenvalues --    0.73510   0.73779   0.73934   0.74010   0.74128
 Alpha virt. eigenvalues --    0.74372   0.74559   0.74661   0.74752   0.74898
 Alpha virt. eigenvalues --    0.75231   0.75326   0.75425   0.75822   0.75960
 Alpha virt. eigenvalues --    0.76252   0.76531   0.76684   0.76771   0.76981
 Alpha virt. eigenvalues --    0.77321   0.77440   0.77497   0.77617   0.77957
 Alpha virt. eigenvalues --    0.78025   0.78368   0.78543   0.78829   0.78986
 Alpha virt. eigenvalues --    0.79094   0.79350   0.79664   0.79819   0.80050
 Alpha virt. eigenvalues --    0.80135   0.80242   0.80310   0.80627   0.80887
 Alpha virt. eigenvalues --    0.81377   0.81717   0.81904   0.81967   0.82219
 Alpha virt. eigenvalues --    0.82542   0.82733   0.83366   0.83773   0.83848
 Alpha virt. eigenvalues --    0.84039   0.84226   0.84231   0.84570   0.84867
 Alpha virt. eigenvalues --    0.85164   0.85247   0.85462   0.85609   0.86391
 Alpha virt. eigenvalues --    0.86506   0.86699   0.86796   0.86900   0.87111
 Alpha virt. eigenvalues --    0.87642   0.87923   0.88023   0.88587   0.88801
 Alpha virt. eigenvalues --    0.89015   0.89241   0.89403   0.89554   0.89834
 Alpha virt. eigenvalues --    0.90061   0.90758   0.91027   0.91242   0.91481
 Alpha virt. eigenvalues --    0.91788   0.91942   0.92000   0.92082   0.92427
 Alpha virt. eigenvalues --    0.92568   0.92950   0.93383   0.93519   0.93964
 Alpha virt. eigenvalues --    0.94092   0.94195   0.94480   0.95016   0.95287
 Alpha virt. eigenvalues --    0.95493   0.95588   0.95906   0.96192   0.96583
 Alpha virt. eigenvalues --    0.96835   0.97005   0.97370   0.97764   0.98358
 Alpha virt. eigenvalues --    0.98644   0.98827   0.99172   0.99332   0.99789
 Alpha virt. eigenvalues --    0.99892   1.00467   1.00880   1.00941   1.01125
 Alpha virt. eigenvalues --    1.01380   1.01452   1.01649   1.01973   1.02149
 Alpha virt. eigenvalues --    1.02875   1.03216   1.03362   1.03737   1.03961
 Alpha virt. eigenvalues --    1.04011   1.04336   1.04871   1.04923   1.05314
 Alpha virt. eigenvalues --    1.05575   1.05770   1.05880   1.06257   1.06560
 Alpha virt. eigenvalues --    1.07307   1.07613   1.07751   1.08402   1.08832
 Alpha virt. eigenvalues --    1.08959   1.09091   1.09575   1.10156   1.10567
 Alpha virt. eigenvalues --    1.10692   1.10927   1.11064   1.11375   1.11550
 Alpha virt. eigenvalues --    1.11914   1.12127   1.12430   1.12619   1.12734
 Alpha virt. eigenvalues --    1.12883   1.13113   1.13520   1.14050   1.14203
 Alpha virt. eigenvalues --    1.14430   1.14598   1.14839   1.15047   1.15186
 Alpha virt. eigenvalues --    1.15381   1.15575   1.16174   1.16264   1.16491
 Alpha virt. eigenvalues --    1.17248   1.17598   1.17859   1.18227   1.18365
 Alpha virt. eigenvalues --    1.18590   1.18995   1.19149   1.19156   1.19383
 Alpha virt. eigenvalues --    1.19944   1.19990   1.20320   1.20394   1.20546
 Alpha virt. eigenvalues --    1.20752   1.21084   1.21513   1.21851   1.22002
 Alpha virt. eigenvalues --    1.22197   1.22293   1.22860   1.23299   1.23360
 Alpha virt. eigenvalues --    1.23391   1.23681   1.23878   1.24101   1.24457
 Alpha virt. eigenvalues --    1.24496   1.24653   1.25249   1.25351   1.25483
 Alpha virt. eigenvalues --    1.25648   1.26117   1.26699   1.26910   1.27284
 Alpha virt. eigenvalues --    1.27509   1.27702   1.27783   1.28168   1.28370
 Alpha virt. eigenvalues --    1.28817   1.28903   1.29297   1.29443   1.29702
 Alpha virt. eigenvalues --    1.29951   1.30586   1.30687   1.30880   1.30958
 Alpha virt. eigenvalues --    1.31112   1.31259   1.31321   1.31624   1.31875
 Alpha virt. eigenvalues --    1.32173   1.32363   1.32487   1.33032   1.33141
 Alpha virt. eigenvalues --    1.33280   1.33744   1.33927   1.34336   1.34645
 Alpha virt. eigenvalues --    1.34979   1.35090   1.35300   1.35392   1.35836
 Alpha virt. eigenvalues --    1.36531   1.36730   1.36994   1.37190   1.37563
 Alpha virt. eigenvalues --    1.38137   1.38256   1.38511   1.38568   1.38950
 Alpha virt. eigenvalues --    1.39276   1.39422   1.39685   1.40084   1.40316
 Alpha virt. eigenvalues --    1.40585   1.40953   1.41276   1.41527   1.41773
 Alpha virt. eigenvalues --    1.41950   1.42144   1.42977   1.43917   1.44013
 Alpha virt. eigenvalues --    1.44188   1.44586   1.44711   1.44832   1.45339
 Alpha virt. eigenvalues --    1.45523   1.45966   1.46143   1.46427   1.46522
 Alpha virt. eigenvalues --    1.47047   1.47198   1.47535   1.47605   1.47829
 Alpha virt. eigenvalues --    1.48243   1.48637   1.48758   1.49457   1.49700
 Alpha virt. eigenvalues --    1.50408   1.50472   1.51294   1.51500   1.52022
 Alpha virt. eigenvalues --    1.52108   1.52533   1.52851   1.53737   1.53899
 Alpha virt. eigenvalues --    1.54024   1.54268   1.54389   1.54770   1.54955
 Alpha virt. eigenvalues --    1.55198   1.55767   1.55934   1.56411   1.56566
 Alpha virt. eigenvalues --    1.56956   1.57573   1.57722   1.57956   1.58157
 Alpha virt. eigenvalues --    1.58707   1.58756   1.58843   1.59426   1.59836
 Alpha virt. eigenvalues --    1.59949   1.60298   1.60490   1.60738   1.61208
 Alpha virt. eigenvalues --    1.61341   1.62330   1.62371   1.62814   1.63187
 Alpha virt. eigenvalues --    1.63345   1.63412   1.63555   1.64007   1.64281
 Alpha virt. eigenvalues --    1.64790   1.65109   1.65157   1.65650   1.66018
 Alpha virt. eigenvalues --    1.66474   1.66584   1.66958   1.67222   1.67887
 Alpha virt. eigenvalues --    1.68034   1.68252   1.68807   1.69008   1.69212
 Alpha virt. eigenvalues --    1.69412   1.69515   1.70057   1.70156   1.70476
 Alpha virt. eigenvalues --    1.71297   1.71528   1.71637   1.71751   1.72020
 Alpha virt. eigenvalues --    1.72102   1.72359   1.72578   1.73151   1.73259
 Alpha virt. eigenvalues --    1.73360   1.73566   1.73758   1.73842   1.74033
 Alpha virt. eigenvalues --    1.74542   1.74727   1.74870   1.75197   1.75505
 Alpha virt. eigenvalues --    1.75768   1.75950   1.76297   1.76468   1.76512
 Alpha virt. eigenvalues --    1.77047   1.77146   1.77223   1.77478   1.77714
 Alpha virt. eigenvalues --    1.77743   1.77828   1.78039   1.78199   1.78400
 Alpha virt. eigenvalues --    1.78558   1.78834   1.79030   1.79062   1.79699
 Alpha virt. eigenvalues --    1.79748   1.79966   1.80141   1.80259   1.80322
 Alpha virt. eigenvalues --    1.80575   1.80749   1.81001   1.81138   1.81408
 Alpha virt. eigenvalues --    1.81754   1.82073   1.82250   1.82313   1.82532
 Alpha virt. eigenvalues --    1.82609   1.82714   1.83119   1.83242   1.83477
 Alpha virt. eigenvalues --    1.83530   1.83678   1.83783   1.83915   1.83970
 Alpha virt. eigenvalues --    1.84162   1.84283   1.84457   1.84496   1.84816
 Alpha virt. eigenvalues --    1.84946   1.85033   1.85134   1.85570   1.85671
 Alpha virt. eigenvalues --    1.85765   1.85866   1.85972   1.86231   1.86334
 Alpha virt. eigenvalues --    1.86551   1.86701   1.86784   1.86811   1.87221
 Alpha virt. eigenvalues --    1.87427   1.87577   1.87746   1.87999   1.88237
 Alpha virt. eigenvalues --    1.88379   1.88436   1.88496   1.88743   1.88849
 Alpha virt. eigenvalues --    1.89102   1.89348   1.89667   1.89773   1.89969
 Alpha virt. eigenvalues --    1.90072   1.90252   1.90519   1.90707   1.90843
 Alpha virt. eigenvalues --    1.90959   1.91302   1.91525   1.91722   1.91942
 Alpha virt. eigenvalues --    1.92159   1.92425   1.92627   1.92727   1.92881
 Alpha virt. eigenvalues --    1.93230   1.93433   1.93796   1.94030   1.94170
 Alpha virt. eigenvalues --    1.94414   1.94557   1.94934   1.95075   1.95342
 Alpha virt. eigenvalues --    1.95561   1.95634   1.95679   1.96131   1.96303
 Alpha virt. eigenvalues --    1.96543   1.96683   1.96879   1.97228   1.97335
 Alpha virt. eigenvalues --    1.97788   1.97881   1.97984   1.98188   1.98258
 Alpha virt. eigenvalues --    1.98501   1.98751   1.98932   1.99040   1.99281
 Alpha virt. eigenvalues --    1.99391   1.99665   2.00018   2.00544   2.00780
 Alpha virt. eigenvalues --    2.00966   2.01137   2.01220   2.01360   2.01496
 Alpha virt. eigenvalues --    2.01839   2.02143   2.02177   2.02505   2.02633
 Alpha virt. eigenvalues --    2.02816   2.02965   2.03226   2.03594   2.03746
 Alpha virt. eigenvalues --    2.03960   2.04277   2.04651   2.04902   2.05310
 Alpha virt. eigenvalues --    2.05456   2.05665   2.05918   2.06504   2.06677
 Alpha virt. eigenvalues --    2.07015   2.07224   2.07287   2.07875   2.07899
 Alpha virt. eigenvalues --    2.08201   2.08284   2.08581   2.08853   2.09123
 Alpha virt. eigenvalues --    2.09475   2.09554   2.09780   2.10038   2.10235
 Alpha virt. eigenvalues --    2.10711   2.11036   2.11151   2.12129   2.12150
 Alpha virt. eigenvalues --    2.12242   2.12713   2.13186   2.13590   2.13896
 Alpha virt. eigenvalues --    2.13990   2.14226   2.14466   2.14751   2.14865
 Alpha virt. eigenvalues --    2.15287   2.15443   2.15846   2.16018   2.16214
 Alpha virt. eigenvalues --    2.16427   2.16580   2.16950   2.17040   2.17224
 Alpha virt. eigenvalues --    2.17792   2.17947   2.18272   2.18744   2.19222
 Alpha virt. eigenvalues --    2.19672   2.19946   2.20068   2.20267   2.20456
 Alpha virt. eigenvalues --    2.20501   2.21033   2.21370   2.21807   2.22172
 Alpha virt. eigenvalues --    2.22555   2.22836   2.23067   2.23194   2.23691
 Alpha virt. eigenvalues --    2.23890   2.24368   2.24612   2.25075   2.25454
 Alpha virt. eigenvalues --    2.25517   2.25776   2.26483   2.26578   2.26768
 Alpha virt. eigenvalues --    2.27092   2.27637   2.27933   2.28391   2.29003
 Alpha virt. eigenvalues --    2.29203   2.30187   2.30277   2.30365   2.30668
 Alpha virt. eigenvalues --    2.31067   2.31368   2.31745   2.31834   2.32414
 Alpha virt. eigenvalues --    2.32574   2.32735   2.32914   2.33333   2.33362
 Alpha virt. eigenvalues --    2.33744   2.33985   2.34613   2.34893   2.34965
 Alpha virt. eigenvalues --    2.34997   2.35510   2.36101   2.36108   2.36576
 Alpha virt. eigenvalues --    2.36642   2.36694   2.37258   2.37384   2.37901
 Alpha virt. eigenvalues --    2.38170   2.38447   2.39102   2.39372   2.39932
 Alpha virt. eigenvalues --    2.39961   2.40072   2.40346   2.40795   2.41018
 Alpha virt. eigenvalues --    2.41389   2.41721   2.42081   2.42437   2.42743
 Alpha virt. eigenvalues --    2.43182   2.43375   2.44032   2.44178   2.44533
 Alpha virt. eigenvalues --    2.44955   2.45136   2.45331   2.46256   2.46711
 Alpha virt. eigenvalues --    2.46888   2.47025   2.47460   2.48116   2.48279
 Alpha virt. eigenvalues --    2.48439   2.48599   2.49017   2.49664   2.49718
 Alpha virt. eigenvalues --    2.50241   2.50644   2.50748   2.50841   2.51096
 Alpha virt. eigenvalues --    2.51522   2.51597   2.51706   2.52090   2.52792
 Alpha virt. eigenvalues --    2.52946   2.53753   2.54288   2.54987   2.55075
 Alpha virt. eigenvalues --    2.55297   2.55427   2.55911   2.56335   2.57120
 Alpha virt. eigenvalues --    2.57206   2.57575   2.57826   2.58207   2.58410
 Alpha virt. eigenvalues --    2.58786   2.59030   2.59277   2.59493   2.59791
 Alpha virt. eigenvalues --    2.59917   2.60028   2.60347   2.60594   2.61366
 Alpha virt. eigenvalues --    2.61394   2.61808   2.62348   2.62503   2.63420
 Alpha virt. eigenvalues --    2.63867   2.63941   2.64237   2.64326   2.64549
 Alpha virt. eigenvalues --    2.65493   2.65926   2.66024   2.66266   2.66469
 Alpha virt. eigenvalues --    2.66637   2.66782   2.67446   2.67504   2.67716
 Alpha virt. eigenvalues --    2.68395   2.68469   2.68828   2.69102   2.69464
 Alpha virt. eigenvalues --    2.69588   2.69751   2.69864   2.70096   2.70291
 Alpha virt. eigenvalues --    2.70762   2.71325   2.71345   2.71522   2.71761
 Alpha virt. eigenvalues --    2.72052   2.72512   2.72876   2.73478   2.73788
 Alpha virt. eigenvalues --    2.73909   2.74292   2.74486   2.74749   2.74789
 Alpha virt. eigenvalues --    2.74932   2.74993   2.75354   2.75582   2.75651
 Alpha virt. eigenvalues --    2.76003   2.76613   2.76829   2.76863   2.77040
 Alpha virt. eigenvalues --    2.77094   2.77531   2.77589   2.77839   2.78087
 Alpha virt. eigenvalues --    2.78164   2.78225   2.78517   2.78752   2.79078
 Alpha virt. eigenvalues --    2.79407   2.79936   2.80050   2.80434   2.80528
 Alpha virt. eigenvalues --    2.80593   2.81541   2.81645   2.82094   2.82214
 Alpha virt. eigenvalues --    2.82330   2.82678   2.82844   2.83534   2.83681
 Alpha virt. eigenvalues --    2.84033   2.84080   2.84346   2.84555   2.84861
 Alpha virt. eigenvalues --    2.85234   2.85495   2.85963   2.86197   2.86247
 Alpha virt. eigenvalues --    2.86998   2.87483   2.87595   2.87833   2.88132
 Alpha virt. eigenvalues --    2.88299   2.88425   2.89378   2.89909   2.90253
 Alpha virt. eigenvalues --    2.90662   2.90981   2.91344   2.91664   2.91860
 Alpha virt. eigenvalues --    2.92259   2.92381   2.92472   2.92869   2.93423
 Alpha virt. eigenvalues --    2.93757   2.94059   2.94216   2.94582   2.95044
 Alpha virt. eigenvalues --    2.95071   2.95340   2.95799   2.96487   2.96641
 Alpha virt. eigenvalues --    2.96858   2.96982   2.97155   2.97659   2.98212
 Alpha virt. eigenvalues --    2.98399   2.98719   2.99249   3.00075   3.00380
 Alpha virt. eigenvalues --    3.00612   3.01049   3.01184   3.01622   3.01829
 Alpha virt. eigenvalues --    3.02095   3.02265   3.02856   3.03010   3.03423
 Alpha virt. eigenvalues --    3.03568   3.03974   3.04150   3.04486   3.04570
 Alpha virt. eigenvalues --    3.04625   3.04866   3.05048   3.05192   3.05931
 Alpha virt. eigenvalues --    3.06177   3.06199   3.06464   3.06666   3.06737
 Alpha virt. eigenvalues --    3.07346   3.07751   3.08336   3.08962   3.10794
 Alpha virt. eigenvalues --    3.10840   3.11095   3.11258   3.11503   3.12194
 Alpha virt. eigenvalues --    3.12729   3.13038   3.13357   3.13370   3.13927
 Alpha virt. eigenvalues --    3.15277   3.15774   3.16003   3.16990   3.17413
 Alpha virt. eigenvalues --    3.17759   3.18013   3.18226   3.18447   3.18775
 Alpha virt. eigenvalues --    3.19060   3.19617   3.19932   3.20229   3.20273
 Alpha virt. eigenvalues --    3.20654   3.20717   3.22069   3.22184   3.22405
 Alpha virt. eigenvalues --    3.22542   3.22822   3.23311   3.23622   3.24022
 Alpha virt. eigenvalues --    3.24354   3.25282   3.25645   3.26087   3.26842
 Alpha virt. eigenvalues --    3.26872   3.27144   3.27956   3.28341   3.28586
 Alpha virt. eigenvalues --    3.29339   3.29931   3.30208   3.30740   3.31934
 Alpha virt. eigenvalues --    3.34150   3.35248   3.36113   3.37114   3.37547
 Alpha virt. eigenvalues --    3.38369   3.38536   3.39725   3.40325   3.41181
 Alpha virt. eigenvalues --    3.42288   3.43281   3.44283   3.47141   3.49264
 Alpha virt. eigenvalues --    3.50095   3.50276   3.51285   3.52651   3.56835
 Alpha virt. eigenvalues --    3.57524   3.58620   3.59323   3.60468   3.61062
 Alpha virt. eigenvalues --    3.61421   3.61793   3.62605   3.62860   3.63490
 Alpha virt. eigenvalues --    3.64610   3.66035   3.67208   3.67293   3.67755
 Alpha virt. eigenvalues --    3.68504   3.68630   3.68761   3.68829   3.69731
 Alpha virt. eigenvalues --    3.69990   3.70288   3.71513   3.72144   3.72462
 Alpha virt. eigenvalues --    3.72737   3.73264   3.73427   3.73887   3.74077
 Alpha virt. eigenvalues --    3.74644   3.79955   3.82206   4.10391
          Condensed to atoms (all electrons):
 Mulliken charges:
               1
     1  C    0.057934
     2  C   -0.012450
     3  O   -0.312962
     4  H    0.031296
     5  H    0.054561
     6  H    0.022760
     7  N   -0.090485
     8  C    0.141883
     9  C    0.061241
    10  O   -0.231404
    11  C    0.072269
    12  C    0.071794
    13  O   -0.310247
    14  O   -0.352364
    15  H    0.113779
    16  H   -0.018145
    17  H   -0.001560
    18  H   -0.075717
    19  N   -0.173869
    20  C    0.164562
    21  C    0.034161
    22  O   -0.269275
    23  C    0.013025
    24  C    0.031270
    25  C   -0.025735
    26  C   -0.012689
    27  N    0.084068
    28  H    0.102634
    29  H    0.047261
    30  H   -0.029371
    31  H    0.023998
    32  H    0.059772
    33  H   -0.011169
    34  H   -0.002707
    35  H    0.044236
    36  H    0.089905
    37  H    0.084932
    38  H    0.201353
    39  H    0.195273
    40  H    0.195661
    41  N   -0.151309
    42  C    0.123623
    43  C    0.096176
    44  O   -0.247667
    45  C    0.036001
    46  C    0.142822
    47  O   -0.363341
    48  O   -0.428916
    49  H    0.143185
    50  H    0.045675
    51  H    0.053090
    52  H    0.048247
    53  N   -0.113394
    54  C    0.153108
    55  C    0.070055
    56  O   -0.338820
    57  H    0.100556
    58  H    0.045342
    59  H   -0.002205
    60  N   -0.089125
    61  C    0.067068
    62  C    0.125851
    63  O   -0.278358
    64  C    0.075832
    65  C   -0.000597
    66  N   -0.057243
    67  O   -0.237998
    68  H    0.124322
    69  H   -0.019550
    70  H   -0.010936
    71  H    0.010387
    72  H    0.119414
    73  H    0.126832
    74  N   -0.093161
    75  C    0.195066
    76  C    0.058149
    77  O   -0.250415
    78  H    0.128739
    79  H    0.007072
    80  H   -0.004676
    81  N   -0.160328
    82  C    0.129102
    83  C    0.095271
    84  O   -0.289134
    85  C    0.183412
    86  C   -0.046644
    87  C    0.021089
    88  C   -0.025234
    89  C   -0.007682
    90  C   -0.059794
    91  C    0.183555
    92  O   -0.213315
    93  H    0.119308
    94  H    0.033592
    95  H    0.008676
    96  H   -0.018223
    97  H   -0.033198
    98  H   -0.058082
    99  H   -0.019402
   100  H   -0.046709
   101  H    0.175127
   102  N   -0.169405
   103  C    0.150278
   104  C    0.044745
   105  O   -0.297263
   106  C   -0.071523
   107  C    0.043033
   108  C    0.066533
   109  C    0.015527
   110  H    0.151524
   111  H    0.014810
   112  H   -0.006770
   113  H   -0.025889
   114  H   -0.026796
   115  H   -0.013457
   116  H    0.030305
   117  H    0.017832
   118  H    0.016841
   119  H   -0.027231
   120  H    0.013566
   121  N   -0.144268
   122  C    0.078356
   123  C    0.048181
   124  O   -0.304402
   125  C    0.278406
   126  O   -0.355417
   127  H    0.148680
   128  H    0.022199
   129  H   -0.015280
   130  H   -0.031031
   131  H    0.163768
   132  N   -0.125015
   133  C    0.081581
   134  C    0.047643
   135  O   -0.269897
   136  C    0.090263
   137  H    0.159920
   138  H    0.011821
   139  H    0.018026
   140  H   -0.005475
   141  H   -0.000218
   142  N   -0.137552
   143  C    0.067760
   144  C    0.080706
   145  O   -0.272855
   146  C    0.065229
   147  H    0.123227
   148  H    0.018847
   149  H   -0.022149
   150  H    0.039319
   151  H    0.008394
   152  N   -0.131938
   153  C    0.134818
   154  C    0.044775
   155  O   -0.262114
   156  C    0.018256
   157  C    0.042002
   158  C    0.084150
   159  O   -0.431241
   160  O   -0.357251
   161  H    0.151738
   162  H    0.008014
   163  H    0.018923
   164  H    0.000066
   165  H    0.040419
   166  H   -0.008989
   167  N   -0.172348
   168  C    0.142973
   169  H    0.021609
   170  H    0.016018
   171  H    0.018479
   172  H    0.141318
   173  Ca   1.169093
   174  O   -0.313951
   175  H    0.203340
   176  H    0.176647
 Sum of Mulliken charges =  -0.00000
 Mulliken charges with hydrogens summed into heavy atoms:
               1
     1  C    0.166552
     2  C   -0.012450
     3  O   -0.312962
     7  N    0.023295
     8  C    0.123738
     9  C    0.061241
    10  O   -0.231404
    11  C   -0.005008
    12  C    0.071794
    13  O   -0.310247
    14  O   -0.352364
    19  N   -0.071235
    20  C    0.211823
    21  C    0.034161
    22  O   -0.269275
    23  C    0.007653
    24  C    0.079873
    25  C    0.015794
    26  C    0.162148
    27  N    0.676355
    41  N   -0.008124
    42  C    0.169298
    43  C    0.096176
    44  O   -0.247667
    45  C    0.137338
    46  C    0.142822
    47  O   -0.363341
    48  O   -0.428916
    53  N   -0.012839
    54  C    0.196245
    55  C    0.070055
    56  O   -0.338820
    60  N    0.035198
    61  C    0.047518
    62  C    0.125851
    63  O   -0.278358
    64  C    0.075283
    65  C   -0.000597
    66  N    0.189003
    67  O   -0.237998
    74  N    0.035578
    75  C    0.197463
    76  C    0.058149
    77  O   -0.250415
    81  N   -0.041020
    82  C    0.162694
    83  C    0.095271
    84  O   -0.289134
    85  C    0.173865
    86  C   -0.046644
    87  C   -0.012108
    88  C   -0.083316
    89  C   -0.027084
    90  C   -0.106503
    91  C    0.183555
    92  O   -0.038188
   102  N   -0.017881
   103  C    0.165088
   104  C    0.044745
   105  O   -0.297263
   106  C   -0.078293
   107  C   -0.009652
   108  C    0.101212
   109  C    0.018703
   121  N    0.004412
   122  C    0.100556
   123  C    0.048181
   124  O   -0.304402
   125  C    0.232095
   126  O   -0.191649
   132  N    0.034905
   133  C    0.093402
   134  C    0.047643
   135  O   -0.269897
   136  C    0.102596
   142  N   -0.014324
   143  C    0.086607
   144  C    0.080706
   145  O   -0.272855
   146  C    0.090794
   152  N    0.019800
   153  C    0.142831
   154  C    0.044775
   155  O   -0.262114
   156  C    0.037245
   157  C    0.073432
   158  C    0.084150
   159  O   -0.431241
   160  O   -0.357251
   167  N   -0.031030
   168  C    0.199079
   173  Ca   1.169093
   174  O    0.066035
 DipInt: DoE/N= T F RetVal/Mat= T F Init=T NMatP=  1 IDeriv=0 Min/MaxMlt=  0  4
 Entering OneElI...
 OneElI was handed  1333951383 working-precision words.
 Multipole integrals L=0 to 4 MinM= 0 MaxM= 0.
 Requested accuracy = 0.1000D-12
 ShPair: Thresh= 1.00D-13 NBox=     0 BxSize= 0.00D+00 RnKept= 3.05D+01
         NSMCal=               327645 NSMKep=              141493
 PrmmSu-InSpLW:  IPartL=    0 NPrtUS=    1 NPrtUL=    1 DoSpLW=F IThBeg=    0 IThEnd=    0 NThAct=    1.
 PrsmSu:  NPrtUS=   1 ThrOK=F IAlg=1 NPAlg=1 LenDen=           0 ISkipM=0 DoSpLW=F IThBeg=    0 IThEnd=    0.
 Prism:   IPart=     0 DynPar=F LinDyn=F Incr=         512.
 PRISM was handed  1324635143 working-precision words and141493 shell-pairs
 IPart=  0 NShTot=      141493 NBatch=         326 AvBLen=       434.0
 PrsmSu-ThDecC:  IPartSL=    0    0 NPrtUSL=    1    1 IThBeg=    0 IThEnd=    0 CPU=   -1 GPU=   -1 NThAct=    1.
 PrSmSu:  NxtVal=            513.
 Electronic moments (au):
       -716.00000000        -21.48730709         13.39541192         10.08573471
     -60939.10090364     -36858.77357467     -17884.09734695        -96.00985358
       -159.26356404         -0.51535931     253758.09236404     -83927.74173905
      -8070.10482900     -64982.24150988     135550.74218429     -77528.34350726
      18233.94814180       9029.36140501       7862.69991553       3175.88194610
  -10126478.13971232   -4512546.19049335   -1132341.82173021    -789740.19319264
     589404.06753283     159370.61352210    -217139.20799880     321042.30619733
     -40812.07990685   -1930258.51255089   -1946320.61338703    -650589.38407071
     216493.13939260     -88858.50564990     -53811.12471984
 Electronic spatial extent (au):  <R**2>=         115681.9718
 DipInt: DoE/N= F T RetVal/Mat= T F Init=T NMatP=  1 IDeriv=0 Min/MaxMlt=  0  4
 Nuclear    moments (au):
        716.00000000         -0.00000000          0.00000000          0.00000000
      60747.30030233      36387.63198859      17567.56108509         -0.00000000
         -0.00000000          0.00000000    -260107.36389022      84346.20140275
       9559.29007377      64876.88556985    -133061.29103548      80001.82582296
     -20869.62154280      -8528.90052532      -7808.70085761      -2829.75740522
    9994506.60554922    4367293.17245675    1083584.48603183     763584.58967603
    -651734.99954275    -166747.86815705     217105.25959299    -345336.81690398
      39275.72067216    1867882.67264490    1942235.87475739     620956.75183443
    -216960.43914193      90578.71419443      54375.36276326
 Total      moments (au):
         -0.00000000        -21.48730709         13.39541192         10.08573471
       -191.80060131       -471.14158608       -316.53626185        -96.00985358
       -159.26356404         -0.51535931      -6349.27152619        418.45966370
       1489.18524477       -105.35594003       2489.45114881       2473.48231570
      -2635.67340100        500.46087969         53.99905792        346.12454088
    -131971.53416310    -145253.01803660     -48757.33569838     -26155.60351662
     -62330.93200992      -7377.25463494        -33.94840581     -24294.51070665
      -1536.35923469     -62375.83990599      -4084.73862964     -29632.63223628
       -467.29974933       1720.20854453        564.23804342
 Traceless Quadrup. (au):
        134.69221510       -144.64876966          9.95655456        -96.00985358
       -159.26356404         -0.51535931
 Charge=             -0.0000 electrons
 Dipole moment (field-independent basis, Debye):
    X=            -54.6153    Y=             34.0477    Z=             25.6354  Tot=             69.2766
 Quadrupole moment (field-independent basis, Debye-Ang):
   XX=           -257.9784   YY=           -633.7016   ZZ=           -425.7521
   XY=           -129.1365   XZ=           -214.2149   YZ=             -0.6932
 Traceless Quadrupole moment (field-independent basis, Debye-Ang):
   XX=            181.1656   YY=           -194.5575   ZZ=             13.3919
   XY=           -129.1365   XZ=           -214.2149   YZ=             -0.6932
 Octapole moment (field-independent basis, Debye-Ang**2):
  XXX=          -4519.1669  YYY=            297.8435  ZZZ=           1059.9447  XYY=            -74.9883
  XXY=           1771.8954  XXZ=           1760.5294  XZZ=          -1875.9708  YZZ=            356.2088
  YYZ=             38.4344  XYZ=            246.3581
 Hexadecapole moment (field-independent basis, Debye-Ang**3):
 XXXX=         -49706.8080 YYYY=         -54709.2517 ZZZZ=         -18364.3506 XXXY=          -9851.4545
 XXXZ=         -23476.8179 YYYX=          -2778.6278 YYYZ=            -12.7866 ZZZX=          -9150.4777
 ZZZY=           -578.6666 XXYY=         -23493.7323 XXZZ=          -1538.5084 YYZZ=         -11161.0702
 XXYZ=           -176.0075 YYXZ=            647.9130 ZZXY=            212.5191
 N-N= 2.010348544107D+04 E-N=-5.269472645413D+04  KE= 5.290418995542D+03
 Leave Link  601 at Wed Sep 18 14:43:53 2019, MaxMem=  1342177280 cpu:              41.6 elap:               1.1
 FitSet:  NAtFit=   176 NAtPot=   176 NAtFrz=     0 MDM=   180 TotChg=   0.00000
 Merz-Kollman atomic radii used.
 Read replacement radii for each type of atom:
 Rad(20) =   1.700000000000D+00
 Atom Element Radius
    1     6    1.50
    2     6    1.50
    3     8    1.40
    4     1    1.20
    5     1    1.20
    6     1    1.20
    7     7    1.50
    8     6    1.50
    9     6    1.50
   10     8    1.40
   11     6    1.50
   12     6    1.50
   13     8    1.40
   14     8    1.40
   15     1    1.20
   16     1    1.20
   17     1    1.20
   18     1    1.20
   19     7    1.50
   20     6    1.50
   21     6    1.50
   22     8    1.40
   23     6    1.50
   24     6    1.50
   25     6    1.50
   26     6    1.50
   27     7    1.50
   28     1    1.20
   29     1    1.20
   30     1    1.20
   31     1    1.20
   32     1    1.20
   33     1    1.20
   34     1    1.20
   35     1    1.20
   36     1    1.20
   37     1    1.20
   38     1    1.20
   39     1    1.20
   40     1    1.20
   41     7    1.50
   42     6    1.50
   43     6    1.50
   44     8    1.40
[...]
 **** Fit       0.047669
 **** Fit       0.042439
 **** Fit       0.052262
 **** Fit       0.060534
 **** Fit       0.067523
 **** Fit       0.073482
 **** Fit       0.078622
 **** Fit       0.083095
 **** Fit       0.086989
 **** Fit       0.090337
 **** Fit       0.093131
 **** Fit       0.095340
 **** Fit       0.096937
 **** Fit       0.097915
 **** Fit       0.098295
 **** Fit       0.098116
 **** Fit       0.097420
 **** Fit       0.096240
 **** Fit       0.094582
 **** Fit       0.092422
 **** Fit       0.089698
 **** Fit       0.086312
 **** Fit       0.082126
 **** Fit       0.076954
 **** Fit       0.070550
 **** Fit       0.062571
 **** Fit       0.052511
 **** Fit       0.039569
 **** Fit       0.026159
 **** Fit       0.037370
 **** Fit       0.047261
 **** Fit       0.055800
 **** Fit       0.063098
 **** Fit       0.069322
 **** Fit       0.074640
 **** Fit       0.079197
 **** Fit       0.083104
 **** Fit       0.086435
 **** Fit       0.089226
 **** Fit       0.091491
 **** Fit       0.093227
 **** Fit       0.094435
 **** Fit       0.095120
 **** Fit       0.095298
 **** Fit       0.094989
 **** Fit       0.094207
 **** Fit       0.092950
 **** Fit       0.091192
 **** Fit       0.088879
 **** Fit       0.085923
 **** Fit       0.082199
 **** Fit       0.077536
 **** Fit       0.071704
 **** Fit       0.064379
 **** Fit       0.055086
 **** Fit       0.043077
 **** Fit       0.008687
 **** Fit       0.021048
 **** Fit       0.032192
 **** Fit       0.042150
 **** Fit       0.050907
 **** Fit       0.058498
 **** Fit       0.065020
 **** Fit       0.070594
 **** Fit       0.075346
 **** Fit       0.079386
 **** Fit       0.082803
 **** Fit       0.085661
 **** Fit       0.088002
 **** Fit       0.089849
 **** Fit       0.091216
 **** Fit       0.092112
 **** Fit       0.092549
 **** Fit       0.092534
 **** Fit       0.092072
 **** Fit       0.091153
 **** Fit       0.089754
 **** Fit       0.087824
 **** Fit       0.085288
 **** Fit       0.082035
 **** Fit       0.077917
 **** Fit       0.072733
 **** Fit       0.066205
 **** Fit       0.057936
 **** Fit       0.047326
 **** Fit       0.016089
 **** Fit       0.027668
 **** Fit       0.037902
 **** Fit       0.046919
 **** Fit       0.054786
 **** Fit       0.061578
 **** Fit       0.067392
 **** Fit       0.072335
 **** Fit       0.076512
 **** Fit       0.080016
 **** Fit       0.082922
 **** Fit       0.085286
 **** Fit       0.087151
 **** Fit       0.088542
 **** Fit       0.089479
 **** Fit       0.089972
 **** Fit       0.090029
 **** Fit       0.089645
 **** Fit       0.088806
 **** Fit       0.087477
 **** Fit       0.085603
 **** Fit       0.083102
 **** Fit       0.079858
 **** Fit       0.075719
 **** Fit       0.070476
 **** Fit       0.063851
 **** Fit       0.055445
 **** Fit       0.044686
 **** Fit       0.022771
 **** Fit       0.033370
 **** Fit       0.042676
 **** Fit       0.050818
 **** Fit       0.057882
 **** Fit       0.063952
 **** Fit       0.069122
 **** Fit       0.073484
 **** Fit       0.077130
 **** Fit       0.080139
 **** Fit       0.082578
 **** Fit       0.084499
 **** Fit       0.085938
 **** Fit       0.086924
 **** Fit       0.087471
 **** Fit       0.087586
 **** Fit       0.087265
 **** Fit       0.086486
 **** Fit       0.085213
 **** Fit       0.083388
 **** Fit       0.080925
 **** Fit       0.077710
 **** Fit       0.073593
 **** Fit       0.068378
 **** Fit       0.061804
 **** Fit       0.053528
 **** Fit       0.043099
 **** Fit       0.019248
 **** Fit       0.030343
 **** Fit       0.040066
 **** Fit       0.048555
 **** Fit       0.055905
 **** Fit       0.062200
 **** Fit       0.067530
 **** Fit       0.071986
 **** Fit       0.075661
 **** Fit       0.078641
 **** Fit       0.080998
 **** Fit       0.082790
 **** Fit       0.084060
 **** Fit       0.084839
 **** Fit       0.085140
 **** Fit       0.084962
 **** Fit       0.084285
 **** Fit       0.083070
 **** Fit       0.081253
 **** Fit       0.078741
 **** Fit       0.075413
 **** Fit       0.071108
 **** Fit       0.065627
 **** Fit       0.058720
 **** Fit       0.050097
 **** Fit       0.039465
 **** Fit       0.016184
 **** Fit       0.027297
 **** Fit       0.037243
 **** Fit       0.046010
 **** Fit       0.053633
 **** Fit       0.060168
 **** Fit       0.065683
 **** Fit       0.070262
 **** Fit       0.073994
 **** Fit       0.076965
 **** Fit       0.079253
 **** Fit       0.080920
 **** Fit       0.082012
 **** Fit       0.082558
 **** Fit       0.082564
 **** Fit       0.082016
 **** Fit       0.080876
 **** Fit       0.079078
 **** Fit       0.076527
 **** Fit       0.073095
 **** Fit       0.068627
 **** Fit       0.062940
 **** Fit       0.055839
 **** Fit       0.047166
 **** Fit       0.036920
 **** Fit       0.025504
 **** Fit       0.024976
 **** Fit       0.034600
 **** Fit       0.043383
 **** Fit       0.051165
 **** Fit       0.057897
 **** Fit       0.063595
 **** Fit       0.068308
 **** Fit       0.072112
 **** Fit       0.075085
 **** Fit       0.077305
 **** Fit       0.078834
 **** Fit       0.079718
 **** Fit       0.079977
 **** Fit       0.079608
 **** Fit       0.078577
 **** Fit       0.076821
 **** Fit       0.074247
 **** Fit       0.070735
 **** Fit       0.066146
 **** Fit       0.060342
 **** Fit       0.053233
 **** Fit       0.044864
 **** Fit       0.035561
 **** Fit       0.026058
 **** Fit       0.017351
 **** Fit       0.010105
 **** Fit       0.004151
 **** Fit       0.024485
 **** Fit       0.033097
 **** Fit       0.041598
 **** Fit       0.049438
 **** Fit       0.056344
 **** Fit       0.062204
 **** Fit       0.067007
 **** Fit       0.070794
 **** Fit       0.073636
 **** Fit       0.075603
 **** Fit       0.076754
 **** Fit       0.077119
 **** Fit       0.076697
 **** Fit       0.075450
 **** Fit       0.073303
 **** Fit       0.070153
 **** Fit       0.065884
 **** Fit       0.060404
 **** Fit       0.053708
 **** Fit       0.045986
 **** Fit       0.037724
 **** Fit       0.029674
 **** Fit       0.022541
 **** Fit       0.016614
 **** Fit       0.011920
 **** Fit       0.016688
 **** Fit       0.032827
 **** Fit       0.040210
 **** Fit       0.047707
 **** Fit       0.054633
 **** Fit       0.060613
 **** Fit       0.065484
 **** Fit       0.069215
 **** Fit       0.071839
 **** Fit       0.073407
 **** Fit       0.073957
 **** Fit       0.073490
 **** Fit       0.071968
 **** Fit       0.069314
 **** Fit       0.065444
 **** Fit       0.060319
 **** Fit       0.054035
 **** Fit       0.046929
 **** Fit       0.039627
 **** Fit       0.032883
 **** Fit       0.027305
 **** Fit       0.023338
 **** Fit       0.021554
 **** Fit       0.022590
 **** Fit       0.026578
 **** Fit       0.040020
 **** Fit       0.046702
 **** Fit       0.053600
 **** Fit       0.059750
 **** Fit       0.064635
 **** Fit       0.068050
 **** Fit       0.069955
 **** Fit       0.070354
 **** Fit       0.069231
 **** Fit       0.066542
 **** Fit       0.062271
 **** Fit       0.056565
 **** Fit       0.049907
 **** Fit       0.043170
 **** Fit       0.037419
 **** Fit       0.033627
 **** Fit       0.032636
 **** Fit       0.034913
 **** Fit       0.046195
 **** Fit       0.052419
 **** Fit       0.058713
 **** Fit       0.063486
 **** Fit       0.065996
 **** Fit       0.066000
 **** Fit       0.063469
 **** Fit       0.058638
 **** Fit       0.052342
 **** Fit       0.046236
 **** Fit       0.042361
 **** Fit       0.042294
 **** Fit       0.051492
 **** Fit       0.057490
 **** Fit       0.061409
 **** Fit       0.060007
 **** Fit       0.054360
 **** Fit       0.049766
 **** Fit       0.056054
 **** Fit       0.094494
 **** Fit       0.093231
 **** Fit       0.090366
 **** Fit       0.091962
 **** Fit       0.088328
 **** Fit       0.084321
 **** Fit       0.093305
 **** Fit       0.089730
 **** Fit       0.085728
 **** Fit       0.081426
 **** Fit       0.077070
 **** Fit       0.073212
 **** Fit       0.092391
 **** Fit       0.088473
 **** Fit       0.084257
 **** Fit       0.079726
 **** Fit       0.074847
 **** Fit       0.069755
 **** Fit       0.088614
 **** Fit       0.084236
 **** Fit       0.079606
 **** Fit       0.074568
 **** Fit       0.068862
 **** Fit       0.062431
 **** Fit       0.056012
 **** Fit       0.051103
 **** Fit       0.088801
 **** Fit       0.084309
 **** Fit       0.079614
 **** Fit       0.074571
 **** Fit       0.068844
 **** Fit       0.061907
 **** Fit       0.071716
 **** Fit       0.076504
 **** Fit       0.086831
 **** Fit       0.082120
 **** Fit       0.077099
 **** Fit       0.071535
 **** Fit       0.064944
 **** Fit       0.066802
 **** Fit       0.072241
 **** Fit       0.089762
 **** Fit       0.085049
 **** Fit       0.079951
 **** Fit       0.074206
 **** Fit       0.067336
 **** Fit       0.058474
 **** Fit       0.056106
 **** Fit       0.062659
 **** Fit       0.068589
 **** Fit       0.074407
 **** Fit       0.089772
 **** Fit       0.085112
 **** Fit       0.079734
 **** Fit       0.073138
 **** Fit       0.054119
 **** Fit       0.061146
 **** Fit       0.067392
 **** Fit       0.073405
 **** Fit       0.097812
 **** Fit       0.094357
 **** Fit       0.047345
 **** Fit       0.055995
 **** Fit       0.063002
 **** Fit       0.069288
 **** Fit       0.075341
 **** Fit       0.053176
 **** Fit       0.060954
 **** Fit       0.067479
 **** Fit       0.073454
 **** Fit       0.079253
 **** Fit       0.085031
 **** Fit       0.071740
 **** Fit       0.077478
 **** Fit       0.083045
 **** Fit       0.088630
 **** Fit       0.094247
 **** Fit       0.080345
 **** Fit       0.076150
 **** Fit       0.078609
 **** Fit       0.082769
 **** Fit       0.084402
 **** Fit       0.081543
 **** Fit       0.077472
 **** Fit       0.071767
 **** Fit       0.073297
 **** Fit       0.076435
 **** Fit       0.080605
 **** Fit       0.084879
 **** Fit       0.087864
 **** Fit       0.088309
 **** Fit       0.086049
 **** Fit       0.081999
 **** Fit       0.077583
 **** Fit       0.074139
 **** Fit       0.072130
 **** Fit       0.066954
 **** Fit       0.068131
 **** Fit       0.070515
 **** Fit       0.073839
 **** Fit       0.077892
 **** Fit       0.082408
 **** Fit       0.086895
 **** Fit       0.090550
 **** Fit       0.092455
 **** Fit       0.092108
 **** Fit       0.089728
 **** Fit       0.085951
 **** Fit       0.081434
 **** Fit       0.076862
 **** Fit       0.073052
 **** Fit       0.070484
 **** Fit       0.067222
 **** Fit       0.064550
 **** Fit       0.067670
 **** Fit       0.071444
 **** Fit       0.075774
 **** Fit       0.080586
 **** Fit       0.085699
 **** Fit       0.090681
 **** Fit       0.076195
 **** Fit       0.071628
 **** Fit       0.060895
 **** Fit       0.064980
 **** Fit       0.069482
 **** Fit       0.074390
 **** Fit       0.079763
 **** Fit       0.085595
 **** Fit       0.065483
 **** Fit       0.057045
 **** Fit       0.062195
 **** Fit       0.067436
 **** Fit       0.072905
 **** Fit       0.078803
 **** Fit       0.085293
 **** Fit       0.055268
 **** Fit       0.061700
 **** Fit       0.067954
 **** Fit       0.074424
 **** Fit       0.081502
 **** Fit       0.055158
 **** Fit       0.062428
 **** Fit       0.069476
 **** Fit       0.049533
 **** Fit       0.058115
 **** Fit       0.094742
 **** Fit       0.093581
 **** Fit       0.094515
 **** Fit       0.091601
 **** Fit       0.092172
 **** Fit       0.093450
 **** Fit       0.094588
 **** Fit       0.094877
 **** Fit       0.089403
 **** Fit       0.089636
 **** Fit       0.090680
 **** Fit       0.092100
 **** Fit       0.093531
 **** Fit       0.094614
 **** Fit       0.094981
 **** Fit       0.094351
 **** Fit       0.087585
 **** Fit       0.086869
 **** Fit       0.087261
 **** Fit       0.088318
 **** Fit       0.089734
 **** Fit       0.091281
 **** Fit       0.092767
 **** Fit       0.093991
 **** Fit       0.094720
 **** Fit       0.094682
 **** Fit       0.093639
 **** Fit       0.084267
 **** Fit       0.084313
 **** Fit       0.085142
 **** Fit       0.086427
 **** Fit       0.087951
 **** Fit       0.089559
 **** Fit       0.091129
 **** Fit       0.092544
 **** Fit       0.093664
 **** Fit       0.094312
 **** Fit       0.094265
 **** Fit       0.093282
 **** Fit       0.081282
 **** Fit       0.082038
 **** Fit       0.083262
 **** Fit       0.084748
 **** Fit       0.086360
 **** Fit       0.087998
 **** Fit       0.089587
 **** Fit       0.091056
 **** Fit       0.092327
 **** Fit       0.093299
 **** Fit       0.093837
 **** Fit       0.093768
 **** Fit       0.092882
 **** Fit       0.090961
 **** Fit       0.078223
 **** Fit       0.079413
 **** Fit       0.080939
 **** Fit       0.082642
 **** Fit       0.084417
 **** Fit       0.086188
 **** Fit       0.087899
 **** Fit       0.089500
 **** Fit       0.090941
 **** Fit       0.092159
 **** Fit       0.093069
 **** Fit       0.093552
 **** Fit       0.093451
 **** Fit       0.092567
 **** Fit       0.090664
 **** Fit       0.076938
 **** Fit       0.078844
 **** Fit       0.080800
 **** Fit       0.082752
 **** Fit       0.084657
 **** Fit       0.086481
 **** Fit       0.088195
 **** Fit       0.089770
 **** Fit       0.091170
 **** Fit       0.092348
 **** Fit       0.093235
 **** Fit       0.093735
 **** Fit       0.093718
 **** Fit       0.093010
 **** Fit       0.091392
 **** Fit       0.075367
 **** Fit       0.077717
 **** Fit       0.079966
 **** Fit       0.082119
 **** Fit       0.084170
 **** Fit       0.086108
 **** Fit       0.087924
 **** Fit       0.089604
 **** Fit       0.091129
 **** Fit       0.092471
 **** Fit       0.093589
 **** Fit       0.094422
 **** Fit       0.094885
 **** Fit       0.094857
 **** Fit       0.094174
 **** Fit       0.075972
 **** Fit       0.078666
 **** Fit       0.081151
 **** Fit       0.083472
 **** Fit       0.085649
 **** Fit       0.087691
 **** Fit       0.089602
 **** Fit       0.091378
 **** Fit       0.093012
 **** Fit       0.094487
 **** Fit       0.095776
 **** Fit       0.096837
 **** Fit       0.097609
 **** Fit       0.098001
 **** Fit       0.078961
 **** Fit       0.081713
 **** Fit       0.084250
 **** Fit       0.086628
 **** Fit       0.088876
 **** Fit       0.091015
 **** Fit       0.093060
 **** Fit       0.095023
 **** Fit       0.096921
 **** Fit       0.098769
 **** Fit       0.100591
 **** Fit       0.102423
 **** Fit       0.104313
 **** Fit       0.083999
 **** Fit       0.086500
 **** Fit       0.088909
 **** Fit       0.091262
 **** Fit       0.093587
 **** Fit       0.095917
 **** Fit       0.098298
 **** Fit       0.100794
 **** Fit       0.103505
 **** Fit       0.106591
 **** Fit       0.092376
 **** Fit       0.094650
 **** Fit       0.097125
 **** Fit       0.099828
 **** Fit       0.102841
 **** Fit       0.106319
 -----------------------------------------------------------------
 Leave Link  602 at Wed Sep 18 14:44:00 2019, MaxMem=  1342177280 cpu:             159.0 elap:               3.9

 Test job not archived.
 1\1\GINC-C476-124\SP\RB3LYP\SVP\C54H83Ca1N15O23\PENGZHI\18-Sep-2019\0\
 \#b3lyp/svp scf=(tight,noincore) Test #IOP(5/87=12) Density=Current Po
 p=(MK,readradii) iop(6/33=2) iop(6/42=6)\\Ng-31_loop3_1.0\\0,1\C,0,1.6
 27,52.27,22.65\C,0,2.447,53.41,22.07\O,0,1.987,54.07,21.15\H,0,0.662,5
 2.224,22.145\H,0,2.158,51.329,22.504\H,0,1.472,52.439,23.716\N,0,3.707
 ,53.66,22.43\C,0,4.697,54.57,21.87\C,0,5.617,53.91,20.84\O,0,5.587,52.
 7,20.65\C,0,5.537,55.24,22.95\C,0,6.437,54.35,23.79\O,0,6.017,53.62,24
 .72\O,0,7.657,54.37,23.52\H,0,3.977,53.09,23.21\H,0,4.257,55.37,21.27\
 H,0,4.917,55.74,23.7\H,0,6.107,56.04,22.48\N,0,6.417,54.72,20.15\C,0,7
 .477,54.33,19.25\C,0,6.897,53.89,17.91\O,0,7.567,53.6,16.93\C,0,8.477,
 55.48,19.2\C,0,9.047,55.88,20.56\C,0,10.207,56.86,20.43\C,0,10.467,57.
 55,21.77\N,0,11.157,58.84,21.63\H,0,6.427,55.7,20.42\H,0,7.977,53.42,1
 9.59\H,0,7.987,56.34,18.74\H,0,9.237,55.2,18.48\H,0,9.277,55.03,21.2\H
 ,0,8.307,56.4,21.17\H,0,9.957,57.62,19.69\H,0,11.157,56.39,20.17\H,0,1
 1.087,56.86,22.33\H,0,9.557,57.65,22.36\H,0,11.637,59.08,22.49\H,0,11.
 817,58.76,20.87\H,0,10.487,59.57,21.43\N,0,5.557,53.93,17.84\C,0,4.727
 ,53.28,16.86\C,0,4.797,53.82,15.44\O,0,4.317,53.2,14.49\C,0,3.287,53.3
 ,17.36\C,0,2.667,54.66,17.66\O,0,1.467,54.77,17.33\O,0,3.297,55.46,18.
 38\H,0,5.087,54.42,18.59\H,0,4.977,52.22,16.87\H,0,3.287,52.81,18.33\H
 ,0,2.707,52.66,16.69\N,0,5.407,54.98,15.17\C,0,5.307,55.63,13.88\C,0,3
 .937,56.26,13.67\O,0,3.287,56.64,14.65\H,0,5.987,55.4,15.89\H,0,5.457,
 54.94,13.05\H,0,6.107,56.33,13.68\N,0,3.517,56.69,12.48\C,0,4.087,56.7
 ,11.14\C,0,3.037,56.25,10.13\O,0,1.967,56.85,10.09\C,0,4.537,58.12,10.
 81\C,0,5.007,58.35,9.38\N,0,6.257,57.98,9.13\O,0,4.237,58.69,8.49\H,0,
 2.627,57.17,12.48\H,0,5.037,56.17,11.18\H,0,5.267,58.54,11.51\H,0,3.62
 7,58.71,10.95\H,0,6.937,57.55,9.74\H,0,6.497,58.05,8.15\N,0,3.287,55.2
 7,9.27\C,0,4.457,54.42,9.15\C,0,4.397,53.13,9.96\O,0,4.047,53.18,11.14
 \H,0,2.537,55.16,8.6\H,0,5.347,54.96,9.48\H,0,4.557,54.23,8.08\N,0,4.6
 47,52.02,9.27\C,0,4.467,50.68,9.79\C,0,5.627,49.82,9.3\O,0,5.637,49.3,
 8.18\C,0,3.037,50.29,9.45\C,0,1.967,51.31,9.76\C,0,1.277,51.27,10.98\C
 ,0,1.697,52.35,8.86\C,0,0.337,52.26,11.28\C,0,0.777,53.37,9.12\C,0,0.1
 17,53.32,10.37\O,0,-0.723,54.31,10.77\H,0,4.977,52.18,8.32\H,0,4.437,5
 0.8,10.87\H,0,2.807,49.34,9.93\H,0,2.907,50.16,8.38\H,0,1.407,50.43,11
 .65\H,0,2.187,52.41,7.9\H,0,-0.143,52.18,12.25\H,0,0.527,54.11,8.38\H,
 0,-0.943,54.99,10.12\N,0,6.607,49.61,10.18\C,0,7.897,49.05,9.81\C,0,7.
 937,47.55,10.05\O,0,9.007,46.97,9.85\C,0,8.947,49.97,10.43\C,0,8.797,5
 1.41,9.96\C,0,8.917,49.9,11.95\C,0,9.027,51.62,8.46\H,0,6.537,50.,11.1
 1\H,0,8.047,49.09,8.73\H,0,9.897,49.56,10.07\H,0,9.507,52.08,10.44\H,0
 ,7.857,51.86,10.26\H,0,9.897,50.17,12.35\H,0,8.237,50.59,12.44\H,0,8.6
 47,48.88,12.23\H,0,8.127,51.43,7.87\H,0,9.267,52.67,8.3\H,0,9.867,51.0
 5,8.06\N,0,6.897,46.97,10.65\C,0,6.927,45.54,10.88\C,0,7.557,45.18,12.
 22\O,0,7.767,43.98,12.43\C,0,5.557,44.9,10.65\O,0,4.507,45.41,11.43\H,
 0,6.017,47.45,10.69\H,0,7.607,45.09,10.15\H,0,5.637,43.83,10.85\H,0,5.
 317,44.94,9.59\H,0,4.697,46.3,11.74\N,0,7.897,46.18,13.03\C,0,8.257,45
 .98,14.42\C,0,7.057,46.18,15.33\O,0,6.867,47.15,16.06\C,0,9.477,46.82,
 14.78\H,0,7.587,47.11,12.78\H,0,8.537,44.94,14.57\H,0,9.637,47.1,15.82
 \H,0,10.387,46.34,14.42\H,0,9.457,47.7,14.13\N,0,6.107,45.24,15.2\C,0,
 4.957,45.06,16.06\C,0,3.897,46.14,16.19\O,0,3.027,46.04,17.05\C,0,5.51
 7,44.7,17.43\H,0,6.247,44.59,14.45\H,0,4.417,44.18,15.71\H,0,6.227,43.
 87,17.35\H,0,5.997,45.54,17.93\H,0,4.717,44.17,17.95\N,0,3.907,47.14,1
 5.3\C,0,2.777,48.05,15.3\C,0,1.427,47.62,14.74\O,0,0.447,47.77,15.46\C
 ,0,3.277,49.39,14.78\C,0,3.487,49.46,13.27\C,0,4.807,48.86,12.8\O,0,4.
 697,47.78,12.16\O,0,5.847,49.52,12.99\H,0,4.727,47.29,14.73\H,0,2.487,
 48.23,16.34\H,0,4.277,49.5,15.21\H,0,2.677,50.22,15.13\H,0,3.527,50.49
 ,12.92\H,0,2.667,48.93,12.79\N,0,1.447,46.96,13.58\C,0,0.237,46.48,12.
 95\H,0,-0.53,47.253,13.\H,0,0.441,46.239,11.907\H,0,-0.114,45.587,13.4
 68\H,0,2.347,46.72,13.18\Ca,0,1.44,57.51,18.27\O,0,3.56,58.71,17.43\H,
 0,4.19,58.52,16.74\H,0,3.7,59.63,17.64\\Version=ES64L-G16RevA.03\State
 =1-A\HF=-5333.2828168\RMSD=9.294e-10\Dipole=7.3464882,25.070574,7.7690
 993\Quadrupole=10.4930943,82.5036838,-92.9967781,113.2044313,85.362202
 ,162.1129421\PG=C01 [X(C54H83Ca1N15O23)]\\@


 I DO NOT KNOW WHAT I MAY APPEAR TO THE WORLD; BUT TO MYSELF
 I SEEM TO HAVE BEEN ONLY LIKE A BOY PLAYING ON THE SEASHORE,
 AND DIVERTING MYSELF IN NOW AND THEN FINDING A SMOOTHER PEBBLE
 OR A PRETTIER SHELL THAN ORDINARY, WHILST THE GREAT OCEAN OF
 TRUTH LAY ALL UNDISCOVERED BEFORE ME.
                                          -- NEWTON (1642-1726)
 Job cpu time:       0 days 23 hours 16 minutes 10.8 seconds.
 Elapsed time:       0 days  0 hours 29 minutes 27.6 seconds.
 File lengths (MBytes):  RWF=   1517 Int=      0 D2E=      0 Chk=    171 Scr=      1
 Normal termination of Gaussian 16 at Wed Sep 18 14:44:02 2019.
