 Entering Gaussian System, Link 0=g16
 Initial command:
 /home1/apps/gaussian/16rA.03/g16/l1.exe "/scratch/01990/pengzhi/4354911/Gau-324686.inp" -scrdir="/scratch/01990/pengzhi/4354911/"
 Entering Link 1 = /home1/apps/gaussian/16rA.03/g16/l1.exe PID=    324687.
  
 Copyright (c) 1988,1990,1992,1993,1995,1998,2003,2009,2016,
            Gaussian, Inc.  All Rights Reserved.
  
 This is part of the Gaussian(R) 16 program.  It is based on
 the Gaussian(R) 09 system (copyright 2009, Gaussian, Inc.),
 the Gaussian(R) 03 system (copyright 2003, Gaussian, Inc.),
 the Gaussian(R) 98 system (copyright 1998, Gaussian, Inc.),
 the Gaussian(R) 94 system (copyright 1995, Gaussian, Inc.),
 the Gaussian 92(TM) system (copyright 1992, Gaussian, Inc.),
 the Gaussian 90(TM) system (copyright 1990, Gaussian, Inc.),
 the Gaussian 88(TM) system (copyright 1988, Gaussian, Inc.),
 the Gaussian 86(TM) system (copyright 1986, Carnegie Mellon
 University), and the Gaussian 82(TM) system (copyright 1983,
 Carnegie Mellon University). Gaussian is a federally registered
 trademark of Gaussian, Inc.
  
 This software contains proprietary and confidential information,
 including trade secrets, belonging to Gaussian, Inc.
  
 This software is provided under written license and may be
 used, copied, transmitted, or stored only in accord with that
 written license.
  
 The following legend is applicable only to US Government
 contracts under FAR:
  
                    RESTRICTED RIGHTS LEGEND
  
 Use, reproduction and disclosure by the US Government is
 subject to restrictions as set forth in subparagraphs (a)
 and (c) of the Commercial Computer Software - Restricted
 Rights clause in FAR 52.227-19.
  
 Gaussian, Inc.
 340 Quinnipiac St., Bldg. 40, Wallingford CT 06492
  
  
 ---------------------------------------------------------------
 Warning -- This program may not be used in any manner that
 competes with the business of Gaussian, Inc. or will provide
 assistance to any competitor of Gaussian, Inc.  The licensee
 of this program is prohibited from giving any competitor of
 Gaussian, Inc. access to this program.  By using this program,
 the user acknowledges that Gaussian, Inc. is engaged in the
 business of creating and licensing software in the field of
 computational chemistry and represents and warrants to the
 licensee that it is not a competitor of Gaussian, Inc. and that
 it will not use this program in any manner prohibited above.
 ---------------------------------------------------------------
  

 Cite this work as:
 Gaussian 16, Revision A.03,
 M. J. Frisch, G. W. Trucks, H. B. Schlegel, G. E. Scuseria, 
 M. A. Robb, J. R. Cheeseman, G. Scalmani, V. Barone, 
 G. A. Petersson, H. Nakatsuji, X. Li, M. Caricato, A. V. Marenich, 
 J. Bloino, B. G. Janesko, R. Gomperts, B. Mennucci, H. P. Hratchian, 
 J. V. Ortiz, A. F. Izmaylov, J. L. Sonnenberg, D. Williams-Young, 
 F. Ding, F. Lipparini, F. Egidi, J. Goings, B. Peng, A. Petrone, 
 T. Henderson, D. Ranasinghe, V. G. Zakrzewski, J. Gao, N. Rega, 
 G. Zheng, W. Liang, M. Hada, M. Ehara, K. Toyota, R. Fukuda, 
 J. Hasegawa, M. Ishida, T. Nakajima, Y. Honda, O. Kitao, H. Nakai, 
 T. Vreven, K. Throssell, J. A. Montgomery, Jr., J. E. Peralta, 
 F. Ogliaro, M. J. Bearpark, J. J. Heyd, E. N. Brothers, K. N. Kudin, 
 V. N. Staroverov, T. A. Keith, R. Kobayashi, J. Normand, 
 K. Raghavachari, A. P. Rendell, J. C. Burant, S. S. Iyengar, 
 J. Tomasi, M. Cossi, J. M. Millam, M. Klene, C. Adamo, R. Cammi, 
 J. W. Ochterski, R. L. Martin, K. Morokuma, O. Farkas, 
 J. B. Foresman, and D. J. Fox, Gaussian, Inc., Wallingford CT, 2016.
 
 ******************************************
 Gaussian 16:  ES64L-G16RevA.03 25-Dec-2016
                18-Sep-2019 
 ******************************************
 %chk=Ng-31_loop3_10.0.chk
 %nprocshared=48
 Will use up to   48 processors via shared memory.
 %mem=10GB
 %nosave
 ----------------------------------------------------------------------
 #b3lyp/svp scf=(tight,noincore) Test #IOP(5/87=12) Density=Current Pop
 =(MK,readradii) iop(6/33=2) iop(6/42=6)
 ----------------------------------------------------------------------
 1/30=1,38=1,172=1/1;
 2/12=2,17=6,18=5,40=1/2;
 3/5=18,7=101,11=2,25=1,30=1,74=-5/1,2,3;
 4//1;
 5/5=4,32=2,38=5,87=12/2;
 6/7=2,8=2,9=2,10=2,15=8,20=101,22=-1,28=1,33=2,42=6/1,2;
 99/5=1,9=1/99;
 ----------------
 Ng-31_loop3_10.0
 ----------------
 Symbolic Z-matrix:
 Charge =  0 Multiplicity = 1
 C                    -1.74      42.4      101.83 
 C                    -0.32      42.91     101.63 
 O                     0.18      42.8      100.51 
 H                    -2.407     42.901    101.129 
 H                    -1.769     41.325    101.653 
 H                    -2.062     42.61     102.85 
 N                     0.27      43.45     102.7 
 C                     1.59      44.05     102.71 
 C                     2.59      43.16     103.44 
 O                     2.35      42.47     104.42 
 C                     1.61      45.42     103.38 
 C                     0.67      45.5      104.58 
 O                     1.11      45.33     105.74 
 O                    -0.57      45.61     104.48 
 H                    -0.17      43.48     103.61 
 H                     1.9       44.25     101.69 
 H                     1.35      46.2      102.66 
 H                     2.62      45.72     103.64 
 N                     3.84      43.34     103. 
 C                     5.09      43.07     103.68 
 C                     6.21      42.39     102.9 
 O                     6.94      41.59     103.46 
 C                     5.66      44.37     104.23 
 C                     4.87      45.05     105.35 
 C                     5.14      46.54     105.45 
 C                     4.52      47.17     106.7 
 N                     3.08      47.28     106.43 
 H                     3.95      43.79     102.1 
 H                     4.84      42.46     104.54 
 H                     5.88      45.08     103.44 
 H                     6.68      44.25     104.61 
 H                     5.08      44.52     106.28 
 H                     3.8       44.87     105.19 
 H                     4.76      47.08     104.57 
 H                     6.21      46.63     105.6 
 H                     5.        48.14     106.79 
 H                     4.81      46.57     107.57 
 H                     2.65      46.37     106.39 
 H                     2.62      47.86     107.13 
 H                     3.01      47.72     105.52 
 N                     6.29      42.62     101.59 
 C                     7.14      41.84     100.72 
 C                     7.56      42.61     99.48 
 O                     8.74      42.72     99.15 
 C                     6.6       40.42     100.57 
 C                     5.1       40.25     100.39 
 O                     4.54      40.51     99.3 
 O                     4.52      39.75     101.38 
 H                     5.57      43.21     101.18 
 H                     8.05      41.83     101.32 
 H                     6.81      39.85     101.48 
 H                     6.95      39.9      99.68 
 N                     6.56      42.9      98.64 
 C                     6.71      43.66     97.41 
 C                     5.51      43.51     96.48 
 O                     4.53      42.87     96.87 
 H                     5.64      42.67     98.98 
 H                     7.61      43.35     96.87 
 H                     6.74      44.72     97.65 
 N                     5.4       44.19     95.34 
 C                     6.46      44.97     94.74 
 C                     6.35      44.79     93.23 
 O                     5.65      45.52     92.53 
 C                     6.46      46.45     95.09 
 C                     7.71      47.09     94.5 
 N                     7.72      48.36     94.08 
 O                     8.76      46.46     94.45 
 H                     4.62      43.93     94.75 
 H                     7.42      44.52     94.99 
 H                     6.5       46.57     96.18 
 H                     5.56      46.92     94.67 
 H                     6.91      48.9      94.33 
 H                     8.57      48.8      93.75 
 N                     7.11      43.93     92.55 
 C                     8.        42.92     93.08 
 C                     7.26      41.61     93.33 
 O                     6.56      41.53     94.33 
 H                     6.9       43.9      91.56 
 H                     8.56      43.19     93.97 
 H                     8.7       42.69     92.27 
 N                     7.65      40.54     92.63 
 C                     7.02      39.25     92.85 
 C                     8.04      38.13     92.75 
 O                     9.07      38.25     92.09 
 C                     5.88      39.05     91.85 
 C                     4.84      40.15     91.89 
 C                     3.72      40.1      92.72 
 C                     4.85      41.22     90.99 
 C                     2.69      41.05     92.74 
 C                     3.78      42.11     90.82 
 C                     2.73      42.07     91.76 
 O                     1.76      43.03     91.69 
 H                     8.34      40.58     91.89 
 H                     6.57      39.16     93.84 
 H                     5.42      38.07     91.91 
 H                     6.33      39.03     90.86 
 H                     3.56      39.23     93.34 
 H                     5.71      41.3      90.34 
 H                     1.85      41.03     93.41 
 H                     3.88      43.01     90.24 
 H                     1.8       43.42     90.81 
 N                     7.77      37.       93.4 
 C                     8.54      35.78     93.21 
 C                     7.91      35.05     92.04 
 O                     8.42      34.02     91.59 
 C                     8.74      35.01     94.51 
 C                     7.52      34.25     95. 
 C                     9.96      34.09     94.48 
 C                     7.7       33.5      96.32 
 H                     6.96      36.91     94. 
 H                     9.5       36.13     92.85 
 H                     8.96      35.74     95.3 
 H                     7.23      33.58     94.19 
 H                     6.71      34.97     95.13 
 H                     9.59      33.26     93.88 
 H                     10.82     34.56     94. 
 H                     10.21     33.67     95.45 
 H                     8.53      33.84     96.94 
 H                     6.79      33.61     96.92 
 H                     7.85      32.43     96.2 
 N                     6.65      35.32     91.68 
 C                     5.87      34.59     90.7 
 C                     5.31      33.22     91.05 
 O                     5.07      32.45     90.12 
 C                     4.73      35.47     90.18 
 O                     3.75      35.69     91.16 
 H                     6.27      36.12     92.17 
 H                     6.53      34.45     89.85 
 H                     4.25      35.       89.32 
 H                     5.19      36.39     89.82 
 H                     4.12      36.02     91.98 
 N                     5.23      32.85     92.33 
 C                     4.71      31.58     92.82 
 C                     3.72      31.84     93.94 
 O                     4.21      32.3      94.97 
 C                     5.82      30.67     93.34 
 H                     5.51      33.5      93.05 
 H                     4.27      31.17     91.91 
 H                     5.36      29.9      93.96 
 H                     6.35      30.17     92.53 
 H                     6.62      31.19     93.86 
 N                     2.44      31.5      93.8 
 C                     1.48      31.47     94.88 
 C                     1.29      32.78     95.64 
 O                     1.16      32.79     96.86 
 C                     1.66      30.23     95.74 
 H                     2.14      30.96     93. 
 H                     0.56      31.23     94.34 
 H                     0.79      30.15     96.39 
 H                     1.7       29.38     95.06 
 H                     2.54      30.31     96.38 
 N                     1.45      33.9      94.92 
 C                     1.17      35.24     95.4 
 C                    -0.31      35.49     95.17 
 O                    -1.04      35.83     96.1 
 C                     2.15      36.21     94.74 
 C                     3.53      36.23     95.38 
 C                     4.71      36.71     94.56 
 O                     5.48      37.56     95.05 
 O                     4.78      36.31     93.37 
 H                     1.68      33.88     93.94 
 H                     1.29      35.34     96.48 
 H                     1.93      37.28     94.66 
 H                     2.2       35.91     93.69 
 H                     3.7       35.19     95.66 
 H                     3.46      36.85     96.28 
 N                    -0.79      35.15     93.97 
 C                    -2.08      35.56     93.47 
 H                    -2.777     35.657    94.302 
 H                    -1.985     36.52     92.962 
 H                    -2.453     34.813    92.769 
 H                    -0.11      34.94     93.26 
 Ca                    2.78      41.03     97.53 
 O                     0.25      41.57     97.98 
 H                    -0.06      41.82     98.85 
 H                    -0.45      41.84     97.39 
 
 Stoichiometry    C54H83CaN15O23
 Framework group  C1[X(C54H83CaN15O23)]
 Deg. of freedom   522
 Full point group                 C1      NOp   1
 Largest Abelian subgroup         C1      NOp   1
 Largest concise Abelian subgroup C1      NOp   1
                         Standard orientation:                         
 ---------------------------------------------------------------------
 Center     Atomic      Atomic             Coordinates (Angstroms)
 Number     Number       Type             X           Y           Z
 ---------------------------------------------------------------------
      1          6           0        6.010788   -4.950348    3.579179
      2          6           0        6.133243   -3.716864    2.695991
      3          8           0        5.249965   -2.862244    2.773095
      4          1           0        5.949502   -4.643905    4.623031
      5          1           0        5.110773   -5.502896    3.309995
      6          1           0        6.884535   -5.586795    3.438879
      7          7           0        7.209132   -3.660220    1.906146
      8          6           0        7.548134   -2.549567    1.037798
      9          6           0        7.320128   -2.910221   -0.426081
     10          8           0        7.505785   -4.008919   -0.928569
     11          6           0        8.999586   -2.105636    1.187507
     12          6           0        9.950299   -3.276929    1.420355
     13          8           0       10.583189   -3.777315    0.462669
     14          8           0       10.059812   -3.870937    2.513452
     15          1           0        7.886287   -4.409174    1.850210
     16          1           0        6.973423   -1.677641    1.330974
     17          1           0        9.096107   -1.388721    2.006724
     18          1           0        9.315420   -1.492090    0.349945
     19          7           0        7.052367   -1.834665   -1.174402
     20          6           0        7.221323   -1.656348   -2.601797
     21          6           0        6.106651   -0.972637   -3.386172
     22          8           0        5.849414   -1.340047   -4.519900
     23          6           0        8.496683   -0.868861   -2.867734
     24          6           0        9.817238   -1.553794   -2.510103
     25          6           0       10.947464   -0.573453   -2.256094
     26          6           0       12.306933   -1.263131   -2.114711
     27          7           0       12.316264   -1.876722   -0.779788
     28          1           0        6.757028   -0.997947   -0.687290
     29          1           0        7.384087   -2.645890   -3.012302
     30          1           0        8.456731    0.123046   -2.430557
     31          1           0        8.588213   -0.565487   -3.915964
     32          1           0       10.049650   -2.270097   -3.299276
     33          1           0        9.661584   -2.187365   -1.628480
     34          1           0       10.769825    0.022506   -1.348527
     35          1           0       11.030863    0.012544   -3.164473
     36          1           0       13.035720   -0.463435   -2.208285
     37          1           0       12.441223   -1.940852   -2.965394
     38          1           0       11.661261   -2.640275   -0.729222
     39          1           0       13.251643   -2.193693   -0.529600
     40          1           0       12.021022   -1.144129   -0.145170
     41          7           0        5.374088   -0.052237   -2.760381
     42          6           0        4.146609    0.467300   -3.318214
     43          6           0        3.827595    1.863670   -2.812959
     44          8           0        3.589483    2.795462   -3.580074
     45          6           0        3.054456   -0.599250   -3.304980
     46          6           0        2.926327   -1.463720   -2.060965
     47          8           0        2.416072   -1.018805   -1.006929
     48          8           0        3.283744   -2.651878   -2.225377
     49          1           0        5.580162    0.112252   -1.777998
     50          1           0        4.476835    0.648263   -4.341152
     51          1           0        3.244146   -1.327931   -4.098795
     52          1           0        2.041782   -0.203191   -3.356244
     53          7           0        3.544347    1.931580   -1.507257
     54          6           0        3.246166    3.160629   -0.790650
     55          6           0        2.597396    2.903734    0.566001
     56          8           0        2.475329    1.740166    0.957548
     57          1           0        3.681539    1.073208   -0.998066
     58          1           0        2.581534    3.800914   -1.378868
     59          1           0        4.178164    3.669381   -0.556877
     60          7           0        2.322929    3.884762    1.424111
     61          6           0        2.397247    5.295605    1.114270
     62          6           0        1.245161    5.976697    1.844620
     63          8           0        1.353653    6.398928    2.994772
     64          6           0        3.711997    5.973371    1.467776
     65          6           0        3.676372    7.405423    0.949938
     66          7           0        4.312478    8.398743    1.580878
     67          8           0        3.101462    7.666912   -0.100302
     68          1           0        1.792973    3.613535    2.242452
     69          1           0        2.164915    5.442521    0.060212
     70          1           0        4.539519    5.453115    0.969136
     71          1           0        3.838193    5.968700    2.559267
     72          1           0        4.939444    8.109797    2.311374
     73          1           0        4.340304    9.335251    1.197240
     74          7           0        0.096201    6.289935    1.243477
     75          6           0       -0.346789    5.907584   -0.079651
     76          6           0       -1.070383    4.565258   -0.051849
     77          8           0       -0.391325    3.550545    0.023246
     78          1           0       -0.584282    6.708966    1.865133
     79          1           0        0.412393    5.888729   -0.855465
     80          1           0       -1.121644    6.631940   -0.351511
     81          7           0       -2.356499    4.552144   -0.416174
     82          6           0       -3.094684    3.302012   -0.456837
     83          6           0       -4.057586    3.284670   -1.630430
     84          8           0       -4.501679    4.321810   -2.118306
     85          6           0       -3.832279    3.089621    0.866206
     86          6           0       -2.923265    3.117413    2.077041
     87          6           0       -2.305237    1.973930    2.583290
     88          6           0       -2.759951    4.262997    2.861877
     89          6           0       -1.519710    1.930079    3.742955
     90          6           0       -2.144482    4.267671    4.121669
     91          6           0       -1.449676    3.108494    4.523233
     92          8           0       -0.722991    3.155892    5.679556
     93          1           0       -2.886519    5.390912   -0.618279
     94          1           0       -2.449424    2.431257   -0.583816
     95          1           0       -4.467606    2.211018    0.870121
     96          1           0       -4.557516    3.895342    0.954788
     97          1           0       -2.502291    1.017848    2.120713
     98          1           0       -3.212905    5.172773    2.493583
     99          1           0       -1.011068    1.056045    4.106613
    100          1           0       -1.893605    5.184332    4.624854
    101          1           0       -1.042794    3.905480    6.193312
    102          7           0       -4.414540    2.094501   -2.108320
    103          6           0       -5.491825    1.924523   -3.071630
    104          6           0       -6.770904    1.788825   -2.268983
    105          8           0       -7.866886    1.727703   -2.833419
    106          6           0       -5.180759    0.852039   -4.108894
    107          6           0       -5.302950   -0.577296   -3.610728
    108          6           0       -5.966273    1.028880   -5.407893
    109          6           0       -4.962126   -1.660765   -4.634073
    110          1           0       -4.006900    1.235837   -1.760863
    111          1           0       -5.558565    2.888191   -3.562130
    112          1           0       -4.128539    0.965347   -4.401116
    113          1           0       -6.319670   -0.684244   -3.231332
    114          1           0       -4.626960   -0.692195   -2.761472
    115          1           0       -6.949786    0.662834   -5.117184
    116          1           0       -6.019730    2.073429   -5.719279
    117          1           0       -5.629756    0.378147   -6.209829
    118          1           0       -4.357486   -1.330300   -5.479119
    119          1           0       -4.401194   -2.458877   -4.135503
    120          1           0       -5.833739   -2.139208   -5.073600
    121          7           0       -6.720818    1.424399   -0.982599
    122          6           0       -7.858485    1.095085   -0.146557
    123          6           0       -8.571686   -0.235222   -0.332642
    124          8           0       -9.746898   -0.304819    0.027125
    125          6           0       -7.483485    1.250707    1.329775
    126          8           0       -6.577882    0.263092    1.746547
    127          1           0       -5.775023    1.401999   -0.622780
    128          1           0       -8.592034    1.872116   -0.335839
    129          1           0       -8.373921    1.180565    1.956754
    130          1           0       -7.096394    2.262906    1.444735
    131          1           0       -5.807844    0.209543    1.178767
    132          7           0       -7.961371   -1.221487   -0.993322
    133          6           0       -8.509534   -2.548492   -1.242268
    134          6           0       -7.478574   -3.597127   -0.868652
    135          8           0       -6.480249   -3.622932   -1.586483
    136          6           0       -8.903981   -2.739160   -2.704683
    137          1           0       -7.019787   -1.081412   -1.329624
    138          1           0       -9.393602   -2.531906   -0.603560
    139          1           0       -9.004682   -3.809200   -2.888459
    140          1           0       -9.861739   -2.272513   -2.932586
    141          1           0       -8.234311   -2.263226   -3.415900
    142          7           0       -7.720362   -4.457721    0.118523
    143          6           0       -6.929894   -5.637960    0.385161
    144          6           0       -5.444128   -5.401379    0.642705
    145          8           0       -4.594515   -6.158012    0.183285
    146          6           0       -7.259066   -6.751892   -0.594840
    147          1           0       -8.634958   -4.499215    0.546768
    148          1           0       -7.400172   -6.006312    1.300997
    149          1           0       -6.805323   -7.667437   -0.218417
    150          1           0       -8.344001   -6.848134   -0.607148
    151          1           0       -6.833758   -6.557569   -1.580615
    152          7           0       -5.133516   -4.241135    1.239156
    153          6           0       -3.809817   -3.880945    1.710837
    154          6           0       -3.668265   -4.457384    3.108507
    155          8           0       -2.729224   -5.201641    3.387227
    156          6           0       -3.631976   -2.370111    1.560322
    157          6           0       -3.289704   -1.922795    0.147114
    158          6           0       -3.593010   -0.496105   -0.262473
    159          8           0       -2.701510    0.174531   -0.820125
    160          8           0       -4.700981   -0.021573    0.095605
    161          1           0       -5.834591   -3.567976    1.501932
    162          1           0       -3.009963   -4.361235    1.144839
    163          1           0       -2.891255   -1.819342    2.149971
    164          1           0       -4.570180   -1.926894    1.904318
    165          1           0       -3.868264   -2.597386   -0.484626
    166          1           0       -2.219575   -2.103825    0.000990
    167          7           0       -4.696080   -4.259057    3.939328
    168          6           0       -4.637328   -4.479121    5.364221
    169          1           0       -3.944402   -5.292778    5.576962
    170          1           0       -4.293327   -3.570449    5.858858
    171          1           0       -5.629146   -4.740907    5.733414
    172          1           0       -5.386613   -3.590771    3.644103
    173         20           0        1.725650   -0.729272    1.430362
    174          8           0        2.624603   -2.123259    3.465967
    175          1           0        3.424180   -2.644599    3.399783
    176          1           0        2.473677   -2.034982    4.404278
 ---------------------------------------------------------------------
 Rotational constants (GHZ):           0.0207725           0.0095283           0.0081500
 Standard basis: SVP (5D, 7F)
 There are  1809 symmetry adapted cartesian basis functions of A   symmetry.
 There are  1717 symmetry adapted basis functions of A   symmetry.
  1717 basis functions,  2922 primitive gaussians,  1809 cartesian basis functions
   358 alpha electrons      358 beta electrons
       nuclear repulsion energy     19473.1576597684 Hartrees.
 NAtoms=  176 NActive=  176 NUniq=  176 SFac= 1.00D+00 NAtFMM=   60 NAOKFM=T Big=T
 Integral buffers will be    131072 words long.
 Raffenetti 2 integral format.
 Two-electron integral symmetry is turned on.
 One-electron integrals computed using PRISM.
 NBasis=  1717 RedAO= T EigKep=  3.10D-04  NBF=  1717
 NBsUse=  1717 1.00D-06 EigRej= -1.00D+00 NBFU=  1717
 ExpMin= 1.98D-02 ExpMax= 3.51D+04 ExpMxC= 5.28D+03 IAcc=3 IRadAn=         5 AccDes= 0.00D+00
 Harris functional with IExCor=  402 and IRadAn=       5 diagonalized for initial guess.
 HarFok:  IExCor=  402 AccDes= 0.00D+00 IRadAn=         5 IDoV= 1 UseB2=F ITyADJ=14
 ICtDFT=  3500011 ScaDFX=  1.000000  1.000000  1.000000  1.000000
 FoFCou: FMM=F IPFlag=           0 FMFlag=      100000 FMFlg1=        2001
         NFxFlg=           0 DoJE=T BraDBF=F KetDBF=T FulRan=T
         wScrn=  0.000000 ICntrl=       500 IOpCl=  0 I1Cent=   200000004 NGrid=           0
         NMat0=    1 NMatS0=      1 NMatT0=    0 NMatD0=    1 NMtDS0=    0 NMtDT0=    0
 Petite list used in FoFCou.
 Requested convergence on RMS density matrix=1.00D-08 within 128 cycles.
 Requested convergence on MAX density matrix=1.00D-06.
 Requested convergence on             energy=1.00D-06.
 No special actions if energy rises.
 EnCoef did     1 forward-backward iterations
 SCF Done:  E(RB3LYP) =  -5333.42039316     A.U. after   16 cycles
            NFock= 16  Conv=0.32D-08     -V/T= 2.0081
 SCF density gives NOpUse=  1 NOpAll=  1.
 Hyperfine terms turned off by default for NAtoms > 100.

 **********************************************************************

            Population analysis using the SCF density.

 **********************************************************************

 Orbital symmetries:
 BldTbl:  Degeneracy threshold= 1.00D-02
       Occupied  (A) (A) (A) (A) (A) (A) (A) (A) (A) (A) (A) (A)
                 (A) (A) (A) (A) (A) (A) (A) (A) (A) (A) (A) (A)
                 (A) (A) (A) (A) (A) (A) (A) (A) (A) (A) (A) (A)
                 (A) (A) (A) (A) (A) (A) (A) (A) (A) (A) (A) (A)
                 (A) (A) (A) (A) (A) (A) (A) (A) (A) (A) (A) (A)
                 (A) (A) (A) (A) (A) (A) (A) (A) (A) (A) (A) (A)
                 (A) (A) (A) (A) (A) (A) (A) (A) (A) (A) (A) (A)
                 (A) (A) (A) (A) (A) (A) (A) (A) (A) (A) (A) (A)
                 (A) (A) (A) (A) (A) (A) (A) (A) (A) (A) (A) (A)
                 (A) (A) (A) (A) (A) (A) (A) (A) (A) (A) (A) (A)
                 (A) (A) (A) (A) (A) (A) (A) (A) (A) (A) (A) (A)
                 (A) (A) (A) (A) (A) (A) (A) (A) (A) (A) (A) (A)
                 (A) (A) (A) (A) (A) (A) (A) (A) (A) (A) (A) (A)
                 (A) (A) (A) (A) (A) (A) (A) (A) (A) (A) (A) (A)
                 (A) (A) (A) (A) (A) (A) (A) (A) (A) (A) (A) (A)
                 (A) (A) (A) (A) (A) (A) (A) (A) (A) (A) (A) (A)
                 (A) (A) (A) (A) (A) (A) (A) (A) (A) (A) (A) (A)
                 (A) (A) (A) (A) (A) (A) (A) (A) (A) (A) (A) (A)
                 (A) (A) (A) (A) (A) (A) (A) (A) (A) (A) (A) (A)
                 (A) (A) (A) (A) (A) (A) (A) (A) (A) (A) (A) (A)
                 (A) (A) (A) (A) (A) (A) (A) (A) (A) (A) (A) (A)
                 (A) (A) (A) (A) (A) (A) (A) (A) (A) (A) (A) (A)
                 (A) (A) (A) (A) (A) (A) (A) (A) (A) (A) (A) (A)
                 (A) (A) (A) (A) (A) (A) (A) (A) (A) (A) (A) (A)
                 (A) (A) (A) (A) (A) (A) (A) (A) (A) (A) (A) (A)
                 (A) (A) (A) (A) (A) (A) (A) (A) (A) (A) (A) (A)
                 (A) (A) (A) (A) (A) (A) (A) (A) (A) (A) (A) (A)
                 (A) (A) (A) (A) (A) (A) (A) (A) (A) (A) (A) (A)
                 (A) (A) (A) (A) (A) (A) (A) (A) (A) (A) (A) (A)
                 (A) (A) (A) (A) (A) (A) (A) (A) (A) (A)
       Virtual   (A) (A) (A) (A) (A) (A) (A) (A) (A) (A) (A) (A)
                 (A) (A) (A) (A) (A) (A) (A) (A) (A) (A) (A) (A)
                 (A) (A) (A) (A) (A) (A) (A) (A) (A) (A) (A) (A)
                 (A) (A) (A) (A) (A) (A) (A) (A) (A) (A) (A) (A)
                 (A) (A) (A) (A) (A) (A) (A) (A) (A) (A) (A) (A)
                 (A) (A) (A) (A) (A) (A) (A) (A) (A) (A) (A) (A)
                 (A) (A) (A) (A) (A) (A) (A) (A) (A) (A) (A) (A)
                 (A) (A) (A) (A) (A) (A) (A) (A) (A) (A) (A) (A)
                 (A) (A) (A) (A) (A) (A) (A) (A) (A) (A) (A) (A)
                 (A) (A) (A) (A) (A) (A) (A) (A) (A) (A) (A) (A)
                 (A) (A) (A) (A) (A) (A) (A) (A) (A) (A) (A) (A)
                 (A) (A) (A) (A) (A) (A) (A) (A) (A) (A) (A) (A)
                 (A) (A) (A) (A) (A) (A) (A) (A) (A) (A) (A) (A)
                 (A) (A) (A) (A) (A) (A) (A) (A) (A) (A) (A) (A)
                 (A) (A) (A) (A) (A) (A) (A) (A) (A) (A) (A) (A)
                 (A) (A) (A) (A) (A) (A) (A) (A) (A) (A) (A) (A)
                 (A) (A) (A) (A) (A) (A) (A) (A) (A) (A) (A) (A)
                 (A) (A) (A) (A) (A) (A) (A) (A) (A) (A) (A) (A)
                 (A) (A) (A) (A) (A) (A) (A) (A) (A) (A) (A) (A)
                 (A) (A) (A) (A) (A) (A) (A) (A) (A) (A) (A) (A)
                 (A) (A) (A) (A) (A) (A) (A) (A) (A) (A) (A) (A)
                 (A) (A) (A) (A) (A) (A) (A) (A) (A) (A) (A) (A)
                 (A) (A) (A) (A) (A) (A) (A) (A) (A) (A) (A) (A)
                 (A) (A) (A) (A) (A) (A) (A) (A) (A) (A) (A) (A)
                 (A) (A) (A) (A) (A) (A) (A) (A) (A) (A) (A) (A)
                 (A) (A) (A) (A) (A) (A) (A) (A) (A) (A) (A) (A)
                 (A) (A) (A) (A) (A) (A) (A) (A) (A) (A) (A) (A)
                 (A) (A) (A) (A) (A) (A) (A) (A) (A) (A) (A) (A)
                 (A) (A) (A) (A) (A) (A) (A) (A) (A) (A) (A) (A)
                 (A) (A) (A) (A) (A) (A) (A) (A) (A) (A) (A) (A)
                 (A) (A) (A) (A) (A) (A) (A) (A) (A) (A) (A) (A)
                 (A) (A) (A) (A) (A) (A) (A) (A) (A) (A) (A) (A)
                 (A) (A) (A) (A) (A) (A) (A) (A) (A) (A) (A) (A)
                 (A) (A) (A) (A) (A) (A) (A) (A) (A) (A) (A) (A)
                 (A) (A) (A) (A) (A) (A) (A) (A) (A) (A) (A) (A)
                 (A) (A) (A) (A) (A) (A) (A) (A) (A) (A) (A) (A)
                 (A) (A) (A) (A) (A) (A) (A) (A) (A) (A) (A) (A)
                 (A) (A) (A) (A) (A) (A) (A) (A) (A) (A) (A) (A)
                 (A) (A) (A) (A) (A) (A) (A) (A) (A) (A) (A) (A)
                 (A) (A) (A) (A) (A) (A) (A) (A) (A) (A) (A) (A)
                 (A) (A) (A) (A) (A) (A) (A) (A) (A) (A) (A) (A)
                 (A) (A) (A) (A) (A) (A) (A) (A) (A) (A) (A) (A)
                 (A) (A) (A) (A) (A) (A) (A) (A) (A) (A) (A) (A)
                 (A) (A) (A) (A) (A) (A) (A) (A) (A) (A) (A) (A)
                 (A) (A) (A) (A) (A) (A) (A) (A) (A) (A) (A) (A)
                 (A) (A) (A) (A) (A) (A) (A) (A) (A) (A) (A) (A)
                 (A) (A) (A) (A) (A) (A) (A) (A) (A) (A) (A) (A)
                 (A) (A) (A) (A) (A) (A) (A) (A) (A) (A) (A) (A)
                 (A) (A) (A) (A) (A) (A) (A) (A) (A) (A) (A) (A)
                 (A) (A) (A) (A) (A) (A) (A) (A) (A) (A) (A) (A)
                 (A) (A) (A) (A) (A) (A) (A) (A) (A) (A) (A) (A)
                 (A) (A) (A) (A) (A) (A) (A) (A) (A) (A) (A) (A)
                 (A) (A) (A) (A) (A) (A) (A) (A) (A) (A) (A) (A)
                 (A) (A) (A) (A) (A) (A) (A) (A) (A) (A) (A) (A)
                 (A) (A) (A) (A) (A) (A) (A) (A) (A) (A) (A) (A)
                 (A) (A) (A) (A) (A) (A) (A) (A) (A) (A) (A) (A)
                 (A) (A) (A) (A) (A) (A) (A) (A) (A) (A) (A) (A)
                 (A) (A) (A) (A) (A) (A) (A) (A) (A) (A) (A) (A)
                 (A) (A) (A) (A) (A) (A) (A) (A) (A) (A) (A) (A)
                 (A) (A) (A) (A) (A) (A) (A) (A) (A) (A) (A) (A)
                 (A) (A) (A) (A) (A) (A) (A) (A) (A) (A) (A) (A)
                 (A) (A) (A) (A) (A) (A) (A) (A) (A) (A) (A) (A)
                 (A) (A) (A) (A) (A) (A) (A) (A) (A) (A) (A) (A)
                 (A) (A) (A) (A) (A) (A) (A) (A) (A) (A) (A) (A)
                 (A) (A) (A) (A) (A) (A) (A) (A) (A) (A) (A) (A)
                 (A) (A) (A) (A) (A) (A) (A) (A) (A) (A) (A) (A)
                 (A) (A) (A) (A) (A) (A) (A) (A) (A) (A) (A) (A)
                 (A) (A) (A) (A) (A) (A) (A) (A) (A) (A) (A) (A)
                 (A) (A) (A) (A) (A) (A) (A) (A) (A) (A) (A) (A)
                 (A) (A) (A) (A) (A) (A) (A) (A) (A) (A) (A) (A)
                 (A) (A) (A) (A) (A) (A) (A) (A) (A) (A) (A) (A)
                 (A) (A) (A) (A) (A) (A) (A) (A) (A) (A) (A) (A)
                 (A) (A) (A) (A) (A) (A) (A) (A) (A) (A) (A) (A)
                 (A) (A) (A) (A) (A) (A) (A) (A) (A) (A) (A) (A)
                 (A) (A) (A) (A) (A) (A) (A) (A) (A) (A) (A) (A)
                 (A) (A) (A) (A) (A) (A) (A) (A) (A) (A) (A) (A)
                 (A) (A) (A) (A) (A) (A) (A) (A) (A) (A) (A) (A)
                 (A) (A) (A) (A) (A) (A) (A) (A) (A) (A) (A) (A)
                 (A) (A) (A) (A) (A) (A) (A) (A) (A) (A) (A) (A)
                 (A) (A) (A) (A) (A) (A) (A) (A) (A) (A) (A) (A)
                 (A) (A) (A) (A) (A) (A) (A) (A) (A) (A) (A) (A)
                 (A) (A) (A) (A) (A) (A) (A) (A) (A) (A) (A) (A)
                 (A) (A) (A) (A) (A) (A) (A) (A) (A) (A) (A) (A)
                 (A) (A) (A) (A) (A) (A) (A) (A) (A) (A) (A) (A)
                 (A) (A) (A) (A) (A) (A) (A) (A) (A) (A) (A) (A)
                 (A) (A) (A) (A) (A) (A) (A) (A) (A) (A) (A) (A)
                 (A) (A) (A) (A) (A) (A) (A) (A) (A) (A) (A) (A)
                 (A) (A) (A) (A) (A) (A) (A) (A) (A) (A) (A) (A)
                 (A) (A) (A) (A) (A) (A) (A) (A) (A) (A) (A) (A)
                 (A) (A) (A) (A) (A) (A) (A) (A) (A) (A) (A) (A)
                 (A) (A) (A) (A) (A) (A) (A) (A) (A) (A) (A) (A)
                 (A) (A) (A) (A) (A) (A) (A) (A) (A) (A) (A) (A)
                 (A) (A) (A) (A) (A) (A) (A) (A) (A) (A) (A) (A)
                 (A) (A) (A) (A) (A) (A) (A) (A) (A) (A) (A) (A)
                 (A) (A) (A) (A) (A) (A) (A) (A) (A) (A) (A) (A)
                 (A) (A) (A) (A) (A) (A) (A) (A) (A) (A) (A) (A)
                 (A) (A) (A) (A) (A) (A) (A) (A) (A) (A) (A) (A)
                 (A) (A) (A) (A) (A) (A) (A) (A) (A) (A) (A) (A)
                 (A) (A) (A) (A) (A) (A) (A) (A) (A) (A) (A) (A)
                 (A) (A) (A) (A) (A) (A) (A) (A) (A) (A) (A) (A)
                 (A) (A) (A) (A) (A) (A) (A) (A) (A) (A) (A) (A)
                 (A) (A) (A) (A) (A) (A) (A) (A) (A) (A) (A) (A)
                 (A) (A) (A) (A) (A) (A) (A) (A) (A) (A) (A) (A)
                 (A) (A) (A) (A) (A) (A) (A) (A) (A) (A) (A) (A)
                 (A) (A) (A) (A) (A) (A) (A) (A) (A) (A) (A) (A)
                 (A) (A) (A) (A) (A) (A) (A) (A) (A) (A) (A) (A)
                 (A) (A) (A) (A) (A) (A) (A) (A) (A) (A) (A) (A)
                 (A) (A) (A) (A) (A) (A) (A) (A) (A) (A) (A) (A)
                 (A) (A) (A) (A) (A) (A) (A) (A) (A) (A) (A) (A)
                 (A) (A) (A) (A) (A) (A) (A) (A) (A) (A) (A) (A)
                 (A) (A) (A) (A) (A) (A) (A) (A) (A) (A) (A) (A)
                 (A) (A) (A) (A) (A) (A) (A) (A) (A) (A) (A) (A)
                 (A) (A) (A) (A) (A) (A) (A) (A) (A) (A) (A) (A)
                 (A) (A) (A)
 The electronic state is 1-A.
 Alpha  occ. eigenvalues -- -145.54263 -19.23202 -19.18205 -19.17783 -19.12958
 Alpha  occ. eigenvalues --  -19.12179 -19.11945 -19.10810 -19.10746 -19.10586
 Alpha  occ. eigenvalues --  -19.09996 -19.09261 -19.08788 -19.08775 -19.08459
 Alpha  occ. eigenvalues --  -19.07350 -19.06897 -19.06171 -19.05858 -19.05581
 Alpha  occ. eigenvalues --  -19.04983 -19.04655 -19.04528 -19.03339 -15.60054
 Alpha  occ. eigenvalues --  -14.51798 -14.41392 -14.38466 -14.38086 -14.37640
 Alpha  occ. eigenvalues --  -14.37369 -14.37169 -14.36966 -14.36332 -14.36035
 Alpha  occ. eigenvalues --  -14.35236 -14.34748 -14.31919 -14.31263 -14.30558
 Alpha  occ. eigenvalues --  -12.73684 -12.73640 -12.73587 -10.35874 -10.31771
 Alpha  occ. eigenvalues --  -10.31530 -10.31349 -10.31160 -10.29537 -10.29418
 Alpha  occ. eigenvalues --  -10.29356 -10.29044 -10.27982 -10.27726 -10.27592
 Alpha  occ. eigenvalues --  -10.27269 -10.27252 -10.26905 -10.26066 -10.25811
 Alpha  occ. eigenvalues --  -10.25567 -10.25550 -10.25371 -10.25358 -10.24659
 Alpha  occ. eigenvalues --  -10.24536 -10.24361 -10.24204 -10.23606 -10.23310
 Alpha  occ. eigenvalues --  -10.23052 -10.22552 -10.22375 -10.22323 -10.21816
 Alpha  occ. eigenvalues --  -10.21441 -10.21086 -10.20943 -10.20640 -10.20557
 Alpha  occ. eigenvalues --  -10.20461 -10.20429 -10.20384 -10.20081 -10.19766
 Alpha  occ. eigenvalues --  -10.19208 -10.19030 -10.18942 -10.18458 -10.17121
 Alpha  occ. eigenvalues --  -10.16770 -10.16465 -10.16000 -10.15907 -10.14768
 Alpha  occ. eigenvalues --  -10.14346 -10.13767  -1.96305  -1.23831  -1.23486
 Alpha  occ. eigenvalues --   -1.23079  -1.10213  -1.09086  -1.07899  -1.06893
 Alpha  occ. eigenvalues --   -1.06207  -1.05256  -1.05152  -1.04263  -1.04009
 Alpha  occ. eigenvalues --   -1.03736  -1.03208  -1.02471  -1.01869  -1.01026
 Alpha  occ. eigenvalues --   -1.00972  -1.00830  -1.00467  -0.99555  -0.98852
 Alpha  occ. eigenvalues --   -0.98305  -0.97814  -0.95997  -0.94734  -0.94326
 Alpha  occ. eigenvalues --   -0.94181  -0.94126  -0.93007  -0.92987  -0.92630
 Alpha  occ. eigenvalues --   -0.92608  -0.92385  -0.91046  -0.90889  -0.90817
 Alpha  occ. eigenvalues --   -0.89428  -0.88645  -0.88171  -0.86614  -0.86547
 Alpha  occ. eigenvalues --   -0.86245  -0.82640  -0.82061  -0.79787  -0.79429
 Alpha  occ. eigenvalues --   -0.79331  -0.79038  -0.77923  -0.76871  -0.76594
 Alpha  occ. eigenvalues --   -0.76016  -0.75647  -0.74636  -0.74253  -0.73932
 Alpha  occ. eigenvalues --   -0.73273  -0.72955  -0.72636  -0.71769  -0.69953
 Alpha  occ. eigenvalues --   -0.69844  -0.69051  -0.67847  -0.67548  -0.66973
 Alpha  occ. eigenvalues --   -0.66540  -0.65834  -0.65347  -0.65170  -0.64651
 Alpha  occ. eigenvalues --   -0.63769  -0.63344  -0.63227  -0.63138  -0.62541
 Alpha  occ. eigenvalues --   -0.61952  -0.61933  -0.61104  -0.61087  -0.60843
 Alpha  occ. eigenvalues --   -0.60833  -0.60774  -0.60614  -0.59988  -0.59892
 Alpha  occ. eigenvalues --   -0.59479  -0.58632  -0.58197  -0.58160  -0.57851
 Alpha  occ. eigenvalues --   -0.57481  -0.57409  -0.56619  -0.56023  -0.55862
 Alpha  occ. eigenvalues --   -0.55690  -0.55386  -0.54702  -0.54248  -0.53715
 Alpha  occ. eigenvalues --   -0.53577  -0.53525  -0.53300  -0.52702  -0.52485
 Alpha  occ. eigenvalues --   -0.52267  -0.51975  -0.51831  -0.51331  -0.51144
 Alpha  occ. eigenvalues --   -0.51007  -0.50554  -0.50423  -0.50294  -0.49949
 Alpha  occ. eigenvalues --   -0.49457  -0.49351  -0.49250  -0.49206  -0.49112
 Alpha  occ. eigenvalues --   -0.48971  -0.48609  -0.47937  -0.47699  -0.47492
 Alpha  occ. eigenvalues --   -0.47198  -0.46990  -0.46744  -0.46678  -0.46354
 Alpha  occ. eigenvalues --   -0.46249  -0.46074  -0.45911  -0.45875  -0.45770
 Alpha  occ. eigenvalues --   -0.45412  -0.45152  -0.44803  -0.44661  -0.44494
 Alpha  occ. eigenvalues --   -0.44319  -0.44232  -0.44094  -0.43910  -0.43610
 Alpha  occ. eigenvalues --   -0.43335  -0.43326  -0.43193  -0.43106  -0.42888
 Alpha  occ. eigenvalues --   -0.42810  -0.42715  -0.42692  -0.42420  -0.42182
 Alpha  occ. eigenvalues --   -0.42127  -0.42017  -0.41647  -0.41408  -0.41297
 Alpha  occ. eigenvalues --   -0.41256  -0.41230  -0.41013  -0.40918  -0.40825
 Alpha  occ. eigenvalues --   -0.40784  -0.40631  -0.40397  -0.40346  -0.40254
 Alpha  occ. eigenvalues --   -0.40179  -0.40021  -0.39920  -0.39848  -0.39420
 Alpha  occ. eigenvalues --   -0.39340  -0.39169  -0.39150  -0.39053  -0.38876
 Alpha  occ. eigenvalues --   -0.38714  -0.38435  -0.38326  -0.38303  -0.38201
 Alpha  occ. eigenvalues --   -0.37967  -0.37897  -0.37639  -0.37365  -0.37333
 Alpha  occ. eigenvalues --   -0.37178  -0.36807  -0.36506  -0.36372  -0.36114
 Alpha  occ. eigenvalues --   -0.35960  -0.35803  -0.35767  -0.35419  -0.35383
 Alpha  occ. eigenvalues --   -0.35318  -0.35185  -0.34976  -0.34851  -0.34753
 Alpha  occ. eigenvalues --   -0.34697  -0.34484  -0.34141  -0.33714  -0.33517
 Alpha  occ. eigenvalues --   -0.33442  -0.33337  -0.32865  -0.32610  -0.32361
 Alpha  occ. eigenvalues --   -0.32249  -0.30652  -0.30018  -0.29759  -0.29251
 Alpha  occ. eigenvalues --   -0.28936  -0.28890  -0.28834  -0.28506  -0.28399
 Alpha  occ. eigenvalues --   -0.27965  -0.27837  -0.27793  -0.27679  -0.27576
 Alpha  occ. eigenvalues --   -0.27157  -0.26939  -0.26581  -0.26189  -0.25777
 Alpha  occ. eigenvalues --   -0.25729  -0.25682  -0.25066  -0.24977  -0.24859
 Alpha  occ. eigenvalues --   -0.24857  -0.24291  -0.24260  -0.24093  -0.24060
 Alpha  occ. eigenvalues --   -0.23536  -0.23082  -0.23057  -0.22799  -0.22747
 Alpha  occ. eigenvalues --   -0.22595  -0.21816  -0.21700  -0.21604  -0.20388
 Alpha  occ. eigenvalues --   -0.20171  -0.19648  -0.18674
 Alpha virt. eigenvalues --   -0.13122  -0.05417  -0.05133  -0.03735  -0.03546
 Alpha virt. eigenvalues --   -0.02215  -0.01782  -0.01566  -0.01270  -0.01104
 Alpha virt. eigenvalues --   -0.00886  -0.00218  -0.00002   0.00150   0.00206
 Alpha virt. eigenvalues --    0.00367   0.00876   0.01230   0.01869   0.01996
 Alpha virt. eigenvalues --    0.02187   0.02220   0.02319   0.02884   0.03304
 Alpha virt. eigenvalues --    0.03381   0.03616   0.03830   0.03862   0.04392
 Alpha virt. eigenvalues --    0.04663   0.04841   0.04884   0.05078   0.05192
 Alpha virt. eigenvalues --    0.05585   0.05888   0.06099   0.06210   0.06454
 Alpha virt. eigenvalues --    0.06662   0.06975   0.07313   0.07511   0.07741
 Alpha virt. eigenvalues --    0.08169   0.08202   0.08272   0.08523   0.08859
 Alpha virt. eigenvalues --    0.09532   0.09671   0.09903   0.09945   0.10097
 Alpha virt. eigenvalues --    0.10195   0.10572   0.10694   0.10849   0.10935
 Alpha virt. eigenvalues --    0.10964   0.11186   0.11406   0.11764   0.11868
 Alpha virt. eigenvalues --    0.12291   0.12343   0.12504   0.12626   0.12759
 Alpha virt. eigenvalues --    0.12885   0.13132   0.13169   0.13394   0.13484
 Alpha virt. eigenvalues --    0.13681   0.13863   0.13969   0.14171   0.14386
 Alpha virt. eigenvalues --    0.14478   0.14563   0.14749   0.14770   0.14933
 Alpha virt. eigenvalues --    0.15141   0.15242   0.15390   0.15539   0.15758
 Alpha virt. eigenvalues --    0.16078   0.16204   0.16250   0.16315   0.16515
 Alpha virt. eigenvalues --    0.16541   0.16801   0.17023   0.17356   0.17679
 Alpha virt. eigenvalues --    0.17779   0.18013   0.18272   0.18416   0.18574
 Alpha virt. eigenvalues --    0.18724   0.18866   0.18934   0.19018   0.19502
 Alpha virt. eigenvalues --    0.19575   0.19656   0.19937   0.20034   0.20469
 Alpha virt. eigenvalues --    0.20515   0.20677   0.20854   0.20927   0.21209
 Alpha virt. eigenvalues --    0.21274   0.21427   0.21852   0.22101   0.22130
 Alpha virt. eigenvalues --    0.22395   0.22573   0.22754   0.23072   0.23208
 Alpha virt. eigenvalues --    0.23442   0.23820   0.23986   0.24177   0.24235
 Alpha virt. eigenvalues --    0.24718   0.24953   0.25327   0.25511   0.25564
 Alpha virt. eigenvalues --    0.25703   0.25745   0.26077   0.26210   0.26568
 Alpha virt. eigenvalues --    0.26662   0.26848   0.27213   0.27548   0.27647
 Alpha virt. eigenvalues --    0.27807   0.28327   0.28903   0.29166   0.29359
 Alpha virt. eigenvalues --    0.29460   0.29815   0.30060   0.30379   0.30482
 Alpha virt. eigenvalues --    0.30867   0.30962   0.31180   0.31331   0.31659
 Alpha virt. eigenvalues --    0.31887   0.32292   0.32459   0.32765   0.32944
 Alpha virt. eigenvalues --    0.33010   0.33343   0.33685   0.33995   0.34123
 Alpha virt. eigenvalues --    0.34237   0.34676   0.35130   0.35257   0.35374
 Alpha virt. eigenvalues --    0.35600   0.36071   0.36282   0.36513   0.36583
 Alpha virt. eigenvalues --    0.36931   0.37360   0.37587   0.37938   0.38066
 Alpha virt. eigenvalues --    0.38693   0.38743   0.39587   0.39961   0.40088
 Alpha virt. eigenvalues --    0.40458   0.40589   0.40838   0.40985   0.41182
 Alpha virt. eigenvalues --    0.41293   0.41860   0.41924   0.42359   0.42400
 Alpha virt. eigenvalues --    0.42730   0.43025   0.43164   0.43326   0.43466
 Alpha virt. eigenvalues --    0.43719   0.43754   0.43877   0.44092   0.44204
 Alpha virt. eigenvalues --    0.44315   0.44487   0.44567   0.44936   0.45059
 Alpha virt. eigenvalues --    0.45178   0.45212   0.45436   0.45640   0.45808
 Alpha virt. eigenvalues --    0.45897   0.46295   0.46396   0.46803   0.46961
 Alpha virt. eigenvalues --    0.47329   0.47534   0.47638   0.47788   0.48087
 Alpha virt. eigenvalues --    0.48267   0.48460   0.48699   0.48706   0.48870
 Alpha virt. eigenvalues --    0.49004   0.49102   0.49370   0.49751   0.50027
 Alpha virt. eigenvalues --    0.50289   0.50490   0.50518   0.50702   0.50964
 Alpha virt. eigenvalues --    0.51190   0.51593   0.51806   0.51914   0.52039
 Alpha virt. eigenvalues --    0.52175   0.52362   0.52632   0.52743   0.52950
 Alpha virt. eigenvalues --    0.53158   0.53227   0.53490   0.53733   0.54011
 Alpha virt. eigenvalues --    0.54405   0.54591   0.54764   0.55062   0.55537
 Alpha virt. eigenvalues --    0.55693   0.55869   0.56111   0.56198   0.56330
 Alpha virt. eigenvalues --    0.56569   0.56605   0.56641   0.57268   0.57320
 Alpha virt. eigenvalues --    0.57438   0.57547   0.57757   0.57794   0.57827
 Alpha virt. eigenvalues --    0.58050   0.58223   0.58433   0.58561   0.58719
 Alpha virt. eigenvalues --    0.59163   0.59231   0.59258   0.59449   0.59565
 Alpha virt. eigenvalues --    0.59868   0.59884   0.60130   0.60190   0.60296
 Alpha virt. eigenvalues --    0.60385   0.60446   0.60518   0.60704   0.60815
 Alpha virt. eigenvalues --    0.61000   0.61081   0.61283   0.61356   0.61552
 Alpha virt. eigenvalues --    0.61785   0.61876   0.61939   0.62057   0.62350
 Alpha virt. eigenvalues --    0.62418   0.62491   0.62604   0.62695   0.62797
 Alpha virt. eigenvalues --    0.63029   0.63170   0.63211   0.63364   0.63626
 Alpha virt. eigenvalues --    0.63748   0.63901   0.64049   0.64123   0.64252
 Alpha virt. eigenvalues --    0.64338   0.64423   0.64547   0.64817   0.64912
 Alpha virt. eigenvalues --    0.64969   0.65149   0.65199   0.65280   0.65336
 Alpha virt. eigenvalues --    0.65449   0.65523   0.65614   0.65782   0.65838
 Alpha virt. eigenvalues --    0.65962   0.66036   0.66181   0.66328   0.66362
 Alpha virt. eigenvalues --    0.66553   0.66611   0.66666   0.66709   0.66925
 Alpha virt. eigenvalues --    0.67002   0.67157   0.67334   0.67376   0.67427
 Alpha virt. eigenvalues --    0.67622   0.67685   0.67900   0.68004   0.68154
 Alpha virt. eigenvalues --    0.68283   0.68402   0.68529   0.68659   0.68775
 Alpha virt. eigenvalues --    0.68915   0.68964   0.69192   0.69207   0.69282
 Alpha virt. eigenvalues --    0.69328   0.69454   0.69530   0.69572   0.69637
 Alpha virt. eigenvalues --    0.69739   0.69854   0.69969   0.70025   0.70182
 Alpha virt. eigenvalues --    0.70212   0.70354   0.70482   0.70645   0.70798
 Alpha virt. eigenvalues --    0.70977   0.71137   0.71392   0.71544   0.71593
 Alpha virt. eigenvalues --    0.71768   0.71973   0.72018   0.72328   0.72620
 Alpha virt. eigenvalues --    0.72813   0.72875   0.72942   0.73295   0.73448
 Alpha virt. eigenvalues --    0.73865   0.73974   0.74098   0.74237   0.74414
 Alpha virt. eigenvalues --    0.74515   0.74680   0.74790   0.74935   0.75458
 Alpha virt. eigenvalues --    0.75885   0.75979   0.76308   0.76469   0.76629
 Alpha virt. eigenvalues --    0.76654   0.77147   0.77256   0.77550   0.77820
 Alpha virt. eigenvalues --    0.77878   0.78310   0.78454   0.78511   0.78631
 Alpha virt. eigenvalues --    0.78702   0.79000   0.79286   0.79628   0.79734
 Alpha virt. eigenvalues --    0.79946   0.80396   0.80611   0.80983   0.81163
 Alpha virt. eigenvalues --    0.81355   0.81536   0.81719   0.82308   0.82611
 Alpha virt. eigenvalues --    0.82905   0.83490   0.83617   0.84016   0.84182
 Alpha virt. eigenvalues --    0.84520   0.84675   0.84871   0.85154   0.85302
 Alpha virt. eigenvalues --    0.85631   0.86267   0.86490   0.86662   0.86948
 Alpha virt. eigenvalues --    0.87059   0.87153   0.87252   0.87445   0.87713
 Alpha virt. eigenvalues --    0.88317   0.88541   0.88683   0.89074   0.89324
 Alpha virt. eigenvalues --    0.89471   0.89647   0.90375   0.90677   0.90813
 Alpha virt. eigenvalues --    0.91179   0.91372   0.91629   0.92180   0.92303
 Alpha virt. eigenvalues --    0.92520   0.92780   0.93041   0.93235   0.93344
 Alpha virt. eigenvalues --    0.93594   0.93793   0.93971   0.94561   0.94701
 Alpha virt. eigenvalues --    0.94874   0.95044   0.95661   0.95851   0.96054
 Alpha virt. eigenvalues --    0.96485   0.96744   0.96971   0.97185   0.97699
 Alpha virt. eigenvalues --    0.97910   0.98010   0.98177   0.98353   0.98616
 Alpha virt. eigenvalues --    0.98988   0.99538   0.99808   0.99907   1.00181
 Alpha virt. eigenvalues --    1.00533   1.00650   1.01267   1.01456   1.01579
 Alpha virt. eigenvalues --    1.01706   1.02224   1.02734   1.02926   1.03117
 Alpha virt. eigenvalues --    1.03258   1.03768   1.04095   1.04396   1.04571
 Alpha virt. eigenvalues --    1.04957   1.05134   1.05590   1.05687   1.06256
 Alpha virt. eigenvalues --    1.06380   1.06448   1.06657   1.07191   1.07632
 Alpha virt. eigenvalues --    1.07740   1.07860   1.08177   1.08225   1.08655
 Alpha virt. eigenvalues --    1.08920   1.08939   1.09306   1.09581   1.09698
 Alpha virt. eigenvalues --    1.10091   1.10338   1.10429   1.11065   1.11190
 Alpha virt. eigenvalues --    1.11733   1.12036   1.12433   1.12633   1.12841
 Alpha virt. eigenvalues --    1.13033   1.13626   1.13951   1.14131   1.14416
 Alpha virt. eigenvalues --    1.14520   1.14603   1.14967   1.15170   1.15751
 Alpha virt. eigenvalues --    1.15916   1.16009   1.16115   1.16717   1.16870
 Alpha virt. eigenvalues --    1.17062   1.17210   1.17476   1.17810   1.17910
 Alpha virt. eigenvalues --    1.18000   1.18318   1.18686   1.18908   1.19257
 Alpha virt. eigenvalues --    1.19765   1.19976   1.20175   1.20584   1.21086
 Alpha virt. eigenvalues --    1.21281   1.21374   1.21433   1.21668   1.21794
 Alpha virt. eigenvalues --    1.21885   1.22316   1.22550   1.22917   1.22957
 Alpha virt. eigenvalues --    1.23436   1.23907   1.24101   1.24218   1.25096
 Alpha virt. eigenvalues --    1.25339   1.25414   1.25731   1.26003   1.26254
 Alpha virt. eigenvalues --    1.26687   1.26867   1.27113   1.27603   1.27699
 Alpha virt. eigenvalues --    1.28013   1.28108   1.28546   1.28638   1.29246
 Alpha virt. eigenvalues --    1.29321   1.29678   1.30035   1.30725   1.31146
 Alpha virt. eigenvalues --    1.31475   1.31604   1.31841   1.32200   1.32741
 Alpha virt. eigenvalues --    1.32755   1.33089   1.33553   1.33865   1.34074
 Alpha virt. eigenvalues --    1.34415   1.34491   1.34900   1.35024   1.35358
 Alpha virt. eigenvalues --    1.35494   1.35628   1.36154   1.36321   1.36538
 Alpha virt. eigenvalues --    1.36594   1.36788   1.37111   1.37186   1.37568
 Alpha virt. eigenvalues --    1.37980   1.38175   1.38635   1.38773   1.38948
 Alpha virt. eigenvalues --    1.39865   1.39942   1.40312   1.40502   1.40983
 Alpha virt. eigenvalues --    1.41403   1.41655   1.41756   1.42179   1.42709
 Alpha virt. eigenvalues --    1.42785   1.42815   1.42935   1.43246   1.43451
 Alpha virt. eigenvalues --    1.44197   1.44326   1.44564   1.44943   1.45131
 Alpha virt. eigenvalues --    1.45200   1.45354   1.45717   1.45842   1.46801
 Alpha virt. eigenvalues --    1.47037   1.47457   1.47928   1.48338   1.48663
 Alpha virt. eigenvalues --    1.48878   1.49057   1.49498   1.49675   1.49783
 Alpha virt. eigenvalues --    1.49927   1.50552   1.50639   1.50880   1.51198
 Alpha virt. eigenvalues --    1.51524   1.51929   1.52302   1.52327   1.52421
 Alpha virt. eigenvalues --    1.53008   1.53267   1.53845   1.54115   1.54418
 Alpha virt. eigenvalues --    1.54597   1.54880   1.55070   1.55256   1.55756
 Alpha virt. eigenvalues --    1.55790   1.56271   1.56403   1.56854   1.57032
 Alpha virt. eigenvalues --    1.57387   1.57396   1.57550   1.57956   1.58126
 Alpha virt. eigenvalues --    1.58344   1.59001   1.59154   1.59427   1.59887
 Alpha virt. eigenvalues --    1.60114   1.60521   1.60844   1.61061   1.61277
 Alpha virt. eigenvalues --    1.61323   1.61751   1.62584   1.63055   1.63855
 Alpha virt. eigenvalues --    1.64046   1.64406   1.64514   1.64845   1.64965
 Alpha virt. eigenvalues --    1.65414   1.65570   1.65700   1.66380   1.66680
 Alpha virt. eigenvalues --    1.66776   1.67012   1.67552   1.68022   1.68237
 Alpha virt. eigenvalues --    1.68755   1.68965   1.69124   1.69294   1.69508
 Alpha virt. eigenvalues --    1.69819   1.69900   1.70157   1.70507   1.70571
 Alpha virt. eigenvalues --    1.70753   1.70930   1.71328   1.71662   1.71881
 Alpha virt. eigenvalues --    1.72066   1.72713   1.72808   1.72870   1.73054
 Alpha virt. eigenvalues --    1.73248   1.73848   1.73989   1.74167   1.74334
 Alpha virt. eigenvalues --    1.74609   1.74640   1.74789   1.75419   1.75595
 Alpha virt. eigenvalues --    1.75665   1.75933   1.76184   1.76354   1.76516
 Alpha virt. eigenvalues --    1.76525   1.76710   1.76949   1.77211   1.77315
 Alpha virt. eigenvalues --    1.77437   1.77571   1.77731   1.77930   1.77960
 Alpha virt. eigenvalues --    1.78244   1.78283   1.78729   1.78977   1.79071
 Alpha virt. eigenvalues --    1.79133   1.79182   1.79608   1.79714   1.79947
 Alpha virt. eigenvalues --    1.80060   1.80271   1.80607   1.80755   1.80942
 Alpha virt. eigenvalues --    1.81100   1.81254   1.81458   1.81738   1.81970
 Alpha virt. eigenvalues --    1.82125   1.82214   1.82471   1.82744   1.82750
 Alpha virt. eigenvalues --    1.83153   1.83262   1.83451   1.83735   1.84069
 Alpha virt. eigenvalues --    1.84140   1.84355   1.84438   1.84577   1.84723
 Alpha virt. eigenvalues --    1.84803   1.85029   1.85158   1.85288   1.85503
 Alpha virt. eigenvalues --    1.85739   1.85987   1.86085   1.86208   1.86516
 Alpha virt. eigenvalues --    1.86779   1.87115   1.87172   1.87351   1.87633
 Alpha virt. eigenvalues --    1.87758   1.87803   1.88133   1.88182   1.88389
 Alpha virt. eigenvalues --    1.88492   1.89058   1.89160   1.89410   1.89612
 Alpha virt. eigenvalues --    1.89754   1.89816   1.90046   1.90087   1.90313
 Alpha virt. eigenvalues --    1.90472   1.90580   1.90781   1.90859   1.91021
 Alpha virt. eigenvalues --    1.91218   1.91533   1.91850   1.92058   1.92259
 Alpha virt. eigenvalues --    1.92671   1.92851   1.93116   1.93245   1.93446
 Alpha virt. eigenvalues --    1.93778   1.93964   1.93994   1.94246   1.94367
 Alpha virt. eigenvalues --    1.94678   1.94974   1.95168   1.95435   1.95888
 Alpha virt. eigenvalues --    1.96143   1.96255   1.96419   1.96542   1.96743
 Alpha virt. eigenvalues --    1.96872   1.96908   1.97015   1.97321   1.97424
 Alpha virt. eigenvalues --    1.97867   1.97906   1.98207   1.98281   1.98335
 Alpha virt. eigenvalues --    1.98622   1.98948   1.99196   1.99254   1.99669
 Alpha virt. eigenvalues --    1.99818   2.00446   2.00582   2.00653   2.00936
 Alpha virt. eigenvalues --    2.01151   2.01209   2.01526   2.01693   2.01731
 Alpha virt. eigenvalues --    2.02443   2.02793   2.02969   2.03066   2.03381
 Alpha virt. eigenvalues --    2.03821   2.03882   2.03958   2.04071   2.04641
 Alpha virt. eigenvalues --    2.04741   2.04911   2.05198   2.05308   2.05681
 Alpha virt. eigenvalues --    2.06111   2.06369   2.06626   2.06795   2.06833
 Alpha virt. eigenvalues --    2.07178   2.07565   2.07872   2.07979   2.08051
 Alpha virt. eigenvalues --    2.08626   2.08941   2.09210   2.09467   2.09750
 Alpha virt. eigenvalues --    2.10044   2.10436   2.10485   2.10494   2.11062
 Alpha virt. eigenvalues --    2.11304   2.11530   2.11816   2.11869   2.12340
 Alpha virt. eigenvalues --    2.12402   2.12630   2.12866   2.13359   2.13523
 Alpha virt. eigenvalues --    2.13969   2.14034   2.14226   2.14459   2.14738
 Alpha virt. eigenvalues --    2.14930   2.15045   2.15254   2.15369   2.15483
 Alpha virt. eigenvalues --    2.15871   2.16176   2.16595   2.16726   2.16826
 Alpha virt. eigenvalues --    2.17036   2.17955   2.18197   2.18504   2.18780
 Alpha virt. eigenvalues --    2.19376   2.19642   2.19954   2.20129   2.20160
 Alpha virt. eigenvalues --    2.20702   2.21376   2.22110   2.22419   2.22671
 Alpha virt. eigenvalues --    2.22882   2.23109   2.23695   2.23815   2.24039
 Alpha virt. eigenvalues --    2.24585   2.24926   2.25482   2.25720   2.26123
 Alpha virt. eigenvalues --    2.26267   2.27006   2.27311   2.27919   2.27972
 Alpha virt. eigenvalues --    2.28572   2.28592   2.28705   2.29065   2.29169
 Alpha virt. eigenvalues --    2.29379   2.29459   2.30085   2.30542   2.30861
 Alpha virt. eigenvalues --    2.30980   2.31708   2.31882   2.32173   2.32919
 Alpha virt. eigenvalues --    2.33121   2.33672   2.33760   2.33801   2.34132
 Alpha virt. eigenvalues --    2.34834   2.34933   2.35341   2.35840   2.36367
 Alpha virt. eigenvalues --    2.36536   2.36694   2.37158   2.37236   2.37395
 Alpha virt. eigenvalues --    2.38011   2.38332   2.38695   2.38982   2.39112
 Alpha virt. eigenvalues --    2.39328   2.39495   2.40650   2.40875   2.41450
 Alpha virt. eigenvalues --    2.41832   2.41839   2.42274   2.42381   2.42428
 Alpha virt. eigenvalues --    2.43447   2.43568   2.44139   2.44566   2.44913
 Alpha virt. eigenvalues --    2.45080   2.45362   2.45794   2.45848   2.46091
 Alpha virt. eigenvalues --    2.46581   2.46865   2.47193   2.47484   2.48081
 Alpha virt. eigenvalues --    2.48093   2.48318   2.48537   2.48722   2.49027
 Alpha virt. eigenvalues --    2.49754   2.49855   2.50207   2.51318   2.51548
 Alpha virt. eigenvalues --    2.51874   2.51920   2.52568   2.52664   2.53448
 Alpha virt. eigenvalues --    2.53804   2.54626   2.54647   2.55220   2.55451
 Alpha virt. eigenvalues --    2.55596   2.55857   2.55976   2.56228   2.56442
 Alpha virt. eigenvalues --    2.57046   2.57410   2.57994   2.58406   2.58504
 Alpha virt. eigenvalues --    2.58694   2.58894   2.58994   2.59418   2.59530
 Alpha virt. eigenvalues --    2.59592   2.59892   2.60189   2.60686   2.60892
 Alpha virt. eigenvalues --    2.61063   2.61650   2.62189   2.62277   2.62496
 Alpha virt. eigenvalues --    2.62685   2.62841   2.63020   2.63513   2.63997
 Alpha virt. eigenvalues --    2.64412   2.64811   2.65180   2.65402   2.65494
 Alpha virt. eigenvalues --    2.65723   2.66321   2.66515   2.66561   2.66666
 Alpha virt. eigenvalues --    2.66954   2.67320   2.67529   2.67678   2.68150
 Alpha virt. eigenvalues --    2.68279   2.68351   2.68719   2.69541   2.70012
 Alpha virt. eigenvalues --    2.70146   2.70832   2.71039   2.71206   2.71396
 Alpha virt. eigenvalues --    2.71721   2.71857   2.72054   2.72404   2.72747
 Alpha virt. eigenvalues --    2.73030   2.73744   2.73827   2.74036   2.74191
 Alpha virt. eigenvalues --    2.74569   2.74604   2.74733   2.75307   2.75595
 Alpha virt. eigenvalues --    2.75742   2.76612   2.76671   2.77006   2.77145
 Alpha virt. eigenvalues --    2.77267   2.77468   2.77561   2.77826   2.78020
 Alpha virt. eigenvalues --    2.78227   2.78367   2.78508   2.78528   2.79319
 Alpha virt. eigenvalues --    2.79599   2.79715   2.79975   2.80180   2.80422
 Alpha virt. eigenvalues --    2.80453   2.81062   2.81904   2.82133   2.82212
 Alpha virt. eigenvalues --    2.82628   2.82868   2.83297   2.83482   2.84010
 Alpha virt. eigenvalues --    2.84195   2.84778   2.85086   2.85279   2.85288
 Alpha virt. eigenvalues --    2.85961   2.85986   2.86726   2.87010   2.87666
 Alpha virt. eigenvalues --    2.87876   2.87938   2.88057   2.88382   2.88558
 Alpha virt. eigenvalues --    2.88705   2.88774   2.88958   2.89822   2.90096
 Alpha virt. eigenvalues --    2.90610   2.91101   2.91421   2.91520   2.91628
 Alpha virt. eigenvalues --    2.91909   2.92295   2.92355   2.92390   2.92654
 Alpha virt. eigenvalues --    2.92790   2.93263   2.93492   2.93822   2.94189
 Alpha virt. eigenvalues --    2.94417   2.94938   2.95101   2.95502   2.96002
 Alpha virt. eigenvalues --    2.96409   2.96549   2.96963   2.97014   2.97475
 Alpha virt. eigenvalues --    2.97958   2.98290   2.98351   2.98512   2.98527
 Alpha virt. eigenvalues --    2.98667   2.98866   2.99445   2.99913   3.00000
 Alpha virt. eigenvalues --    3.00739   3.00858   3.01323   3.01436   3.01962
 Alpha virt. eigenvalues --    3.02133   3.02417   3.02961   3.03444   3.03478
 Alpha virt. eigenvalues --    3.03976   3.04350   3.04725   3.05013   3.05676
 Alpha virt. eigenvalues --    3.06000   3.06189   3.06465   3.08080   3.08377
 Alpha virt. eigenvalues --    3.09111   3.09354   3.09817   3.10850   3.11558
 Alpha virt. eigenvalues --    3.11562   3.11950   3.12814   3.12981   3.13470
 Alpha virt. eigenvalues --    3.13588   3.14100   3.14170   3.14504   3.14675
 Alpha virt. eigenvalues --    3.14981   3.15211   3.15597   3.15740   3.15888
 Alpha virt. eigenvalues --    3.16568   3.16865   3.17499   3.17606   3.18714
 Alpha virt. eigenvalues --    3.18937   3.19037   3.19217   3.19506   3.19544
 Alpha virt. eigenvalues --    3.19653   3.19955   3.20734   3.21047   3.21248
 Alpha virt. eigenvalues --    3.21523   3.21914   3.22415   3.22770   3.23749
 Alpha virt. eigenvalues --    3.24201   3.24844   3.25289   3.26156   3.26505
 Alpha virt. eigenvalues --    3.26714   3.27296   3.28645   3.29669   3.30473
 Alpha virt. eigenvalues --    3.31426   3.32087   3.32310   3.32660   3.34660
 Alpha virt. eigenvalues --    3.35427   3.35916   3.36050   3.37567   3.38943
 Alpha virt. eigenvalues --    3.39736   3.42658   3.43221   3.43780   3.46822
 Alpha virt. eigenvalues --    3.49592   3.49649   3.51152   3.51727   3.53207
 Alpha virt. eigenvalues --    3.53905   3.54735   3.55127   3.55310   3.55373
 Alpha virt. eigenvalues --    3.56062   3.58135   3.58638   3.60538   3.60615
 Alpha virt. eigenvalues --    3.62219   3.64390   3.64641   3.65627   3.65778
 Alpha virt. eigenvalues --    3.66190   3.66284   3.67149   3.67476   3.68033
 Alpha virt. eigenvalues --    3.68413   3.68662   3.69724   3.70332   3.70578
 Alpha virt. eigenvalues --    3.71545   3.71745   3.71928   3.72500   3.72715
 Alpha virt. eigenvalues --    3.73816   3.76081   3.77648   4.02659
          Condensed to atoms (all electrons):
 Mulliken charges:
               1
     1  C    0.047255
     2  C    0.070401
     3  O   -0.365476
     4  H    0.034065
     5  H    0.043660
     6  H    0.027908
     7  N   -0.085411
     8  C    0.054097
     9  C    0.107425
    10  O   -0.231892
    11  C    0.146254
    12  C   -0.004772
    13  O   -0.378745
    14  O   -0.350227
    15  H    0.161831
    16  H   -0.022220
    17  H   -0.013109
    18  H   -0.089343
    19  N   -0.130118
    20  C    0.142087
    21  C    0.098393
    22  O   -0.244734
    23  C    0.026516
    24  C   -0.000220
    25  C   -0.063533
    26  C    0.054418
    27  N    0.096547
    28  H    0.093443
    29  H    0.032581
    30  H   -0.040136
    31  H    0.013496
    32  H    0.015505
    33  H    0.030045
    34  H    0.015251
    35  H    0.031656
    36  H    0.048564
    37  H    0.073545
    38  H    0.154140
    39  H    0.183957
    40  H    0.170954
    41  N   -0.162531
    42  C    0.113461
    43  C    0.043462
    44  O   -0.254191
    45  C    0.146605
    46  C    0.053346
    47  O   -0.512027
    48  O   -0.318059
    49  H    0.077129
    50  H    0.020889
    51  H    0.039200
    52  H    0.018990
    53  N   -0.159512
    54  C    0.210507
    55  C    0.101364
    56  O   -0.433174
    57  H    0.098501
    58  H    0.075526
    59  H    0.028661
    60  N   -0.071437
    61  C    0.022940
    62  C    0.038537
    63  O   -0.282017
    64  C    0.152845
    65  C   -0.021934
    66  N   -0.022248
    67  O   -0.270831
    68  H    0.139541
    69  H    0.038445
    70  H    0.017244
    71  H    0.018337
    72  H    0.113119
    73  H    0.139882
    74  N   -0.103435
    75  C    0.216653
    76  C    0.047551
    77  O   -0.305314
    78  H    0.133912
    79  H    0.065374
    80  H   -0.006728
    81  N   -0.128436
    82  C    0.087971
    83  C    0.073352
    84  O   -0.296683
    85  C    0.166907
    86  C    0.012699
    87  C    0.009348
    88  C   -0.047895
    89  C   -0.029205
    90  C   -0.001805
    91  C    0.113025
    92  O   -0.210071
    93  H    0.125063
    94  H    0.040411
    95  H    0.009825
    96  H   -0.025101
    97  H   -0.028812
    98  H   -0.038327
    99  H   -0.075250
   100  H   -0.024869
   101  H    0.180442
   102  N   -0.172306
   103  C    0.189915
   104  C    0.020139
   105  O   -0.293866
   106  C   -0.065888
   107  C   -0.051890
   108  C    0.080142
   109  C    0.044850
   110  H    0.143521
   111  H    0.008274
   112  H   -0.010055
   113  H    0.031620
   114  H    0.011461
   115  H    0.007269
   116  H    0.002967
   117  H   -0.005658
   118  H   -0.000357
   119  H    0.012834
   120  H    0.002074
   121  N   -0.157450
   122  C    0.116072
   123  C    0.081786
   124  O   -0.298322
   125  C    0.246784
   126  O   -0.370328
   127  H    0.130520
   128  H    0.008703
   129  H   -0.003121
   130  H   -0.030433
   131  H    0.178897
   132  N   -0.141889
   133  C    0.112487
   134  C    0.071709
   135  O   -0.280331
   136  C    0.079503
   137  H    0.126177
   138  H   -0.014228
   139  H    0.001275
   140  H    0.015004
   141  H    0.029650
   142  N   -0.130044
   143  C    0.023049
   144  C    0.117913
   145  O   -0.242884
   146  C    0.083045
   147  H    0.126339
   148  H    0.000601
   149  H    0.022159
   150  H   -0.012078
   151  H    0.044621
   152  N   -0.147381
   153  C    0.111673
   154  C    0.046959
   155  O   -0.261018
   156  C    0.025424
   157  C    0.095475
   158  C    0.148059
   159  O   -0.382973
   160  O   -0.424815
   161  H    0.120149
   162  H    0.015832
   163  H   -0.042801
   164  H   -0.008784
   165  H    0.034058
   166  H   -0.038226
   167  N   -0.153064
   168  C    0.122901
   169  H    0.044045
   170  H    0.014188
   171  H    0.019446
   172  H    0.102621
   173  Ca   1.524210
   174  O   -0.359336
   175  H    0.186963
   176  H    0.200934
 Sum of Mulliken charges =  -0.00000
 Mulliken charges with hydrogens summed into heavy atoms:
               1
     1  C    0.152888
     2  C    0.070401
     3  O   -0.365476
     7  N    0.076420
     8  C    0.031877
     9  C    0.107425
    10  O   -0.231892
    11  C    0.043803
    12  C   -0.004772
    13  O   -0.378745
    14  O   -0.350227
    19  N   -0.036675
    20  C    0.174667
    21  C    0.098393
    22  O   -0.244734
    23  C   -0.000124
    24  C    0.045330
    25  C   -0.016627
    26  C    0.176527
    27  N    0.605599
    41  N   -0.085402
    42  C    0.134350
    43  C    0.043462
    44  O   -0.254191
    45  C    0.204794
    46  C    0.053346
    47  O   -0.512027
    48  O   -0.318059
    53  N   -0.061011
    54  C    0.314694
    55  C    0.101364
    56  O   -0.433174
    60  N    0.068103
    61  C    0.061385
    62  C    0.038537
    63  O   -0.282017
    64  C    0.188427
    65  C   -0.021934
    66  N    0.230752
    67  O   -0.270831
    74  N    0.030478
    75  C    0.275300
    76  C    0.047551
    77  O   -0.305314
    81  N   -0.003372
    82  C    0.128382
    83  C    0.073352
    84  O   -0.296683
    85  C    0.151631
    86  C    0.012699
    87  C   -0.019464
    88  C   -0.086221
    89  C   -0.104455
    90  C   -0.026675
    91  C    0.113025
    92  O   -0.029629
   102  N   -0.028785
   103  C    0.198188
   104  C    0.020139
   105  O   -0.293866
   106  C   -0.075943
   107  C   -0.008809
   108  C    0.084719
   109  C    0.059400
   121  N   -0.026930
   122  C    0.124775
   123  C    0.081786
   124  O   -0.298322
   125  C    0.213230
   126  O   -0.191431
   132  N   -0.015712
   133  C    0.098260
   134  C    0.071709
   135  O   -0.280331
   136  C    0.125433
   142  N   -0.003705
   143  C    0.023650
   144  C    0.117913
   145  O   -0.242884
   146  C    0.137747
   152  N   -0.027232
   153  C    0.127505
   154  C    0.046959
   155  O   -0.261018
   156  C   -0.026162
   157  C    0.091307
   158  C    0.148059
   159  O   -0.382973
   160  O   -0.424815
   167  N   -0.050442
   168  C    0.200581
   173  Ca   1.524210
   174  O    0.028561
 DipInt: DoE/N= T F RetVal/Mat= T F Init=T NMatP=  1 IDeriv=0 Min/MaxMlt=  0  4
 Entering OneElI...
 OneElI was handed  1333951383 working-precision words.
 Multipole integrals L=0 to 4 MinM= 0 MaxM= 0.
 Requested accuracy = 0.1000D-12
 ShPair: Thresh= 1.00D-13 NBox=     0 BxSize= 0.00D+00 RnKept= 2.55D+01
         NSMCal=               327645 NSMKep=              128792
 PrmmSu-InSpLW:  IPartL=    0 NPrtUS=    1 NPrtUL=    1 DoSpLW=F IThBeg=    0 IThEnd=    0 NThAct=    1.
 PrsmSu:  NPrtUS=   1 ThrOK=F IAlg=1 NPAlg=1 LenDen=           0 ISkipM=0 DoSpLW=F IThBeg=    0 IThEnd=    0.
 Prism:   IPart=     0 DynPar=F LinDyn=F Incr=         512.
 PRISM was handed  1325080281 working-precision words and128792 shell-pairs
 IPart=  0 NShTot=      128792 NBatch=         305 AvBLen=       422.3
 PrsmSu-ThDecC:  IPartSL=    0    0 NPrtUSL=    1    1 IThBeg=    0 IThEnd=    0 CPU=   -1 GPU=   -1 NThAct=    1.
 PrSmSu:  NxtVal=            513.
 Electronic moments (au):
       -716.00000000         12.09400613          4.88440936          6.59289612
     -87621.34291540     -32129.88885940     -15400.68489134         92.24430528
        -48.57410039         17.91159260    -280064.40297234     -68712.66578942
      -3712.37000899       1477.24993005     242780.17161346      98658.22077309
       9126.66422213       5157.60327305     -58425.55492945      -7519.39279379
  -21778643.74742868   -3477399.29971526    -865913.26707871    1648201.34703677
     144210.28153961   -1087178.60054209    -132646.50756914      13363.40134097
      28297.33937956   -2866105.63423593   -1522983.12162918    -549631.26040913
     175464.56029522    -144985.42949862      62394.19718410
 Electronic spatial extent (au):  <R**2>=         135151.9167
 DipInt: DoE/N= F T RetVal/Mat= T F Init=T NMatP=  1 IDeriv=0 Min/MaxMlt=  0  4
 Nuclear    moments (au):
        716.00000000          0.00000000         -0.00000000         -0.00000000
      87322.87708353      31685.31675441      14975.37817989          0.00000000
         -0.00000000         -0.00000000     286553.44529684      69789.78474010
       4198.89621652      -1840.99402759    -242526.22378366     -99262.38369268
      -9209.06905851      -5221.74623853      58823.91490703       7765.61824330
   21585933.79628202    3370741.75527772     813757.90252039   -1625587.81294762
    -177641.69115524    1096542.81386098     136508.33676185     -13945.94530592
     -28039.16992445    2794366.54357643    1461536.33386336     521991.02330538
    -168380.20051649     144345.95711202     -60952.92445890
 Total      moments (au):
         -0.00000000         12.09400613          4.88440936          6.59289612
       -298.46583187       -444.57210499       -425.30671146         92.24430528
        -48.57410039         17.91159260       6489.04232450       1077.11895068
        486.52620753       -363.74409754        253.94782980       -604.16291959
        -82.40483638        -64.14296548        398.35997758        246.22544952
    -192709.95114665    -106657.54443754     -52155.36455832      22613.53408915
     -33431.40961563       9364.21331889       3861.82919271       -582.54396496
        258.16945511     -71739.09065951     -61446.78776581     -27640.23710375
       7084.35977873       -639.47238660       1441.27272520
 Traceless Quadrup. (au):
         90.98238423        -55.12388889        -35.85849535         92.24430528
        -48.57410039         17.91159260
 Charge=             -0.0000 electrons
 Dipole moment (field-independent basis, Debye):
    X=             30.7399    Y=             12.4149    Z=             16.7575  Tot=             37.1468
 Quadrupole moment (field-independent basis, Debye-Ang):
   XX=           -401.4468   YY=           -597.9647   ZZ=           -572.0521
   XY=            124.0718   XZ=            -65.3338   YZ=             24.0917
 Traceless Quadrupole moment (field-independent basis, Debye-Ang):
   XX=            122.3744   YY=            -74.1435   ZZ=            -48.2309
   XY=            124.0718   XZ=            -65.3338   YZ=             24.0917
 Octapole moment (field-independent basis, Debye-Ang**2):
  XXX=           4618.6503  YYY=            766.6518  ZZZ=            346.2906  XYY=           -258.8990
  XXY=            180.7503  XXZ=           -430.0199  XZZ=            -58.6526  YZZ=            -45.6545
  YYZ=            283.5373  XYZ=            175.2538
 Hexadecapole moment (field-independent basis, Debye-Ang**3):
 XXXX=         -72583.8084 YYYY=         -40172.3456 ZZZZ=         -19644.2112 XXXY=           8517.3413
 XXXZ=         -12591.8720 YYYX=           3527.0118 YYYZ=           1454.5501 ZZZX=           -219.4140
 ZZZY=             97.2390 XXYY=         -27020.3815 XXZZ=         -23143.8067 YYZZ=         -10410.6387
 XXYZ=           2668.3096 YYXZ=           -240.8560 ZZXY=            542.8524
 N-N= 1.947315765977D+04 E-N=-5.141907488195D+04  KE= 5.290417534617D+03
 Leave Link  601 at Wed Sep 18 12:49:15 2019, MaxMem=  1342177280 cpu:              39.6 elap:               1.0
 FitSet:  NAtFit=   176 NAtPot=   176 NAtFrz=     0 MDM=   180 TotChg=   0.00000
 Merz-Kollman atomic radii used.
 Read replacement radii for each type of atom:
 Rad(20) =   1.700000000000D+00
 Atom Element Radius
    1     6    1.50
    2     6    1.50
    3     8    1.40
    4     1    1.20
    5     1    1.20
    6     1    1.20
    7     7    1.50
    8     6    1.50
    9     6    1.50
   10     8    1.40
   11     6    1.50
   12     6    1.50
   13     8    1.40
   14     8    1.40
   15     1    1.20
   16     1    1.20
   17     1    1.20
   18     1    1.20
   19     7    1.50
   20     6    1.50
   21     6    1.50
   22     8    1.40
   23     6    1.50
   24     6    1.50
   25     6    1.50
   26     6    1.50
   27     7    1.50
   28     1    1.20
   29     1    1.20
   30     1    1.20
   31     1    1.20
   32     1    1.20
   33     1    1.20
   34     1    1.20
   35     1    1.20
   36     1    1.20
   37     1    1.20
   38     1    1.20
   39     1    1.20
   40     1    1.20
   41     7    1.50
   42     6    1.50
   43     6    1.50
   44     8    1.40
   45     6    1.50
   46     6    1.50
   47     8    1.40
   48     8    1.40
   49     1    1.20
   50     1    1.20
   51     1    1.20
   52     1    1.20
   53     7    1.50
   54     6    1.50
   55     6    1.50
   56     8    1.40
   57     1    1.20
   58     1    1.20
   59     1    1.20
   60     7    1.50
   61     6    1.50
   62     6    1.50
   63     8    1.40
   64     6    1.50
   65     6    1.50
   66     7    1.50
   67     8    1.40
   68     1    1.20
   69     1    1.20
   70     1    1.20
   71     1    1.20
   72     1    1.20
   73     1    1.20
   74     7    1.50
   75     6    1.50
   76     6    1.50
   77     8    1.40
   78     1    1.20
   79     1    1.20
   80     1    1.20
   81     7    1.50
   82     6    1.50
   83     6    1.50
   84     8    1.40
   85     6    1.50
   86     6    1.50
   87     6    1.50
   88     6    1.50
   89     6    1.50
   90     6    1.50
   91     6    1.50
   92     8    1.40
   93     1    1.20
   94     1    1.20
   95     1    1.20
   96     1    1.20
   97     1    1.20
   98     1    1.20
   99     1    1.20
  100     1    1.20
  101     1    1.20
  102     7    1.50
  103     6    1.50
  104     6    1.50
  105     8    1.40
  106     6    1.50
  107     6    1.50
  108     6    1.50
  109     6    1.50
  110     1    1.20
  111     1    1.20
  112     1    1.20
  113     1    1.20
  114     1    1.20
  115     1    1.20
  116     1    1.20
  117     1    1.20
  118     1    1.20
  119     1    1.20
  120     1    1.20
  121     7    1.50
  122     6    1.50
  123     6    1.50
  124     8    1.40
  125     6    1.50
  126     8    1.40
  127     1    1.20
  128     1    1.20
  129     1    1.20
  130     1    1.20
  131     1    1.20
  132     7    1.50
  133     6    1.50
  134     6    1.50
  135     8    1.40
  136     6    1.50
  137     1    1.20
  138     1    1.20
  139     1    1.20
  140     1    1.20
  141     1    1.20
  142     7    1.50
  143     6    1.50
  144     6    1.50
  145     8    1.40
  146     6    1.50
  147     1    1.20
  148     1    1.20
  149     1    1.20
  150     1    1.20
  151     1    1.20
  152     7    1.50
  153     6    1.50
  154     6    1.50
  155     8    1.40
  156     6    1.50
  157     6    1.50
  158     6    1.50
  159     8    1.40
  160     8    1.40
  161     1    1.20
  162     1    1.20
  163     1    1.20
  164     1    1.20
  165     1    1.20
  166     1    1.20
  167     7    1.50
  168     6    1.50
  169     1    1.20
  170     1    1.20
  171     1    1.20
  172     1    1.20
[...]
 **** Fit       0.010960
 **** Fit       0.010718
 **** Fit       0.011472
 **** Fit       0.013000
 **** Fit       0.014560
 **** Fit       0.015548
 **** Fit       0.015803
 **** Fit       0.015387
 **** Fit       0.014506
 **** Fit       0.013406
 **** Fit       0.012304
 **** Fit       0.011370
 **** Fit       0.010721
 **** Fit       0.010423
 **** Fit       0.010491
 **** Fit       0.013011
 **** Fit       0.015074
 **** Fit       0.016485
 **** Fit       0.017052
 **** Fit       0.016803
 **** Fit       0.015933
 **** Fit       0.014704
 **** Fit       0.013364
 **** Fit       0.012108
 **** Fit       0.011079
 **** Fit       0.010376
 **** Fit       0.010056
 **** Fit       0.010130
 **** Fit       0.012630
 **** Fit       0.015448
 **** Fit       0.017419
 **** Fit       0.018305
 **** Fit       0.018134
 **** Fit       0.017141
 **** Fit       0.015657
 **** Fit       0.014003
 **** Fit       0.012428
 **** Fit       0.011107
 **** Fit       0.010161
 **** Fit       0.009673
 **** Fit       0.009671
 **** Fit       0.010132
 **** Fit       0.015361
 **** Fit       0.018054
 **** Fit       0.019408
 **** Fit       0.019448
 **** Fit       0.018430
 **** Fit       0.016742
 **** Fit       0.014782
 **** Fit       0.012871
 **** Fit       0.011227
 **** Fit       0.010001
 **** Fit       0.009302
 **** Fit       0.009193
 **** Fit       0.009674
 **** Fit       0.014637
 **** Fit       0.018256
 **** Fit       0.020186
 **** Fit       0.020482
 **** Fit       0.019451
 **** Fit       0.017553
 **** Fit       0.015282
 **** Fit       0.013045
 **** Fit       0.011122
 **** Fit       0.009699
 **** Fit       0.008920
 **** Fit       0.008889
 **** Fit       0.009629
 **** Fit       0.018059
 **** Fit       0.020554
 **** Fit       0.020950
 **** Fit       0.019709
 **** Fit       0.017460
 **** Fit       0.014842
 **** Fit       0.012366
 **** Fit       0.010377
 **** Fit       0.009123
 **** Fit       0.008815
 **** Fit       0.009597
 **** Fit       0.020331
 **** Fit       0.020664
 **** Fit       0.019125
 **** Fit       0.016572
 **** Fit       0.013806
 **** Fit       0.011431
 **** Fit       0.009887
 **** Fit       0.009551
 **** Fit       0.009699
 **** Fit       0.009368
 **** Fit       0.010354
 **** Fit       0.009896
 **** Fit       0.009527
 **** Fit       0.009150
 **** Fit       0.008806
 **** Fit       0.008713
 **** Fit       0.010401
 **** Fit       0.009992
 **** Fit       0.009709
 **** Fit       0.009444
 **** Fit       0.009116
 **** Fit       0.008705
 **** Fit       0.008278
 **** Fit       0.007978
 **** Fit       0.010247
 **** Fit       0.009922
 **** Fit       0.009720
 **** Fit       0.009542
 **** Fit       0.009303
 **** Fit       0.008953
 **** Fit       0.008486
 **** Fit       0.007948
 **** Fit       0.007437
 **** Fit       0.007095
 **** Fit       0.010399
 **** Fit       0.010018
 **** Fit       0.009819
 **** Fit       0.009704
 **** Fit       0.009581
 **** Fit       0.009376
 **** Fit       0.009039
 **** Fit       0.008554
 **** Fit       0.007942
 **** Fit       0.007265
 **** Fit       0.006619
 **** Fit       0.006141
 **** Fit       0.010203
 **** Fit       0.009960
 **** Fit       0.009854
 **** Fit       0.009798
 **** Fit       0.009712
 **** Fit       0.009529
 **** Fit       0.009203
 **** Fit       0.008714
 **** Fit       0.008070
 **** Fit       0.007307
 **** Fit       0.006486
 **** Fit       0.005700
 **** Fit       0.005075
 **** Fit       0.010366
 **** Fit       0.010160
 **** Fit       0.010085
 **** Fit       0.010052
 **** Fit       0.009975
 **** Fit       0.009784
 **** Fit       0.009426
 **** Fit       0.008880
 **** Fit       0.008146
 **** Fit       0.007254
 **** Fit       0.006257
 **** Fit       0.005232
 **** Fit       0.004290
 **** Fit       0.010907
 **** Fit       0.010684
 **** Fit       0.010592
 **** Fit       0.010537
 **** Fit       0.010432
 **** Fit       0.010201
 **** Fit       0.009791
 **** Fit       0.009172
 **** Fit       0.008343
 **** Fit       0.007326
 **** Fit       0.006166
 **** Fit       0.004926
 **** Fit       0.003693
 **** Fit       0.012379
 **** Fit       0.011893
 **** Fit       0.011614
 **** Fit       0.011445
 **** Fit       0.011283
 **** Fit       0.011031
 **** Fit       0.010613
 **** Fit       0.009979
 **** Fit       0.009110
 **** Fit       0.008012
 **** Fit       0.006716
 **** Fit       0.005272
 **** Fit       0.003747
 **** Fit       0.002231
 **** Fit       0.013679
 **** Fit       0.013129
 **** Fit       0.012722
 **** Fit       0.012315
 **** Fit       0.011783
 **** Fit       0.011035
 **** Fit       0.010021
 **** Fit       0.008729
 **** Fit       0.007181
 **** Fit       0.005424
 **** Fit       0.003526
 **** Fit       0.015803
 **** Fit       0.014817
 **** Fit       0.013969
 **** Fit       0.013053
 **** Fit       0.011918
 **** Fit       0.010479
 **** Fit       0.008714
 **** Fit       0.006646
 **** Fit       0.004335
 **** Fit       0.016189
 **** Fit       0.014620
 **** Fit       0.012898
 **** Fit       0.010873
 **** Fit       0.008488
 **** Fit       0.005763
 **** Fit       0.012805
 **** Fit       0.007149
 **** Fit       0.007170
 **** Fit       0.008354
 **** Fit       0.010327
 **** Fit       0.012647
 **** Fit       0.014951
 **** Fit       0.016985
 **** Fit       0.004658
 **** Fit       0.002147
 **** Fit       0.001186
 **** Fit       0.002045
 **** Fit       0.004356
 **** Fit       0.007426
 **** Fit       0.010647
 **** Fit       0.013615
 **** Fit       0.016064
 **** Fit       0.017784
 **** Fit      -0.002736
 **** Fit      -0.005560
 **** Fit      -0.005860
 **** Fit      -0.003593
 **** Fit       0.000304
 **** Fit       0.004741
 **** Fit       0.009007
 **** Fit       0.012742
 **** Fit       0.015733
 **** Fit       0.017791
 **** Fit      -0.000794
 **** Fit       0.005084
 **** Fit       0.010205
 **** Fit       0.014406
 **** Fit       0.017558
 **** Fit       0.019484
 **** Fit      -0.000420
 **** Fit       0.006808
 **** Fit       0.012729
 **** Fit       0.017343
 **** Fit       0.020562
 **** Fit       0.022174
 **** Fit       0.085348
 **** Fit       0.085258
 **** Fit       0.081817
 **** Fit       0.081650
 **** Fit       0.081180
 **** Fit       0.078270
 **** Fit       0.078628
 **** Fit       0.078444
 **** Fit       0.077789
 **** Fit       0.076881
 **** Fit       0.083934
 **** Fit       0.073073
 **** Fit       0.074717
 **** Fit       0.075317
 **** Fit       0.075454
 **** Fit       0.075427
 **** Fit       0.075009
 **** Fit       0.073791
 **** Fit       0.079829
 **** Fit       0.076895
 **** Fit       0.069789
 **** Fit       0.071492
 **** Fit       0.071825
 **** Fit       0.071629
 **** Fit       0.077069
 **** Fit       0.073952
 **** Fit       0.070034
 **** Fit       0.063112
 **** Fit       0.067140
 **** Fit       0.068674
 **** Fit       0.071452
 **** Fit       0.067561
 **** Fit       0.063139
 **** Fit       0.061102
 **** Fit       0.065250
 **** Fit       0.066482
 **** Fit       0.061223
 **** Fit       0.056891
 **** Fit       0.052836
 **** Fit       0.060782
 **** Fit       0.064564
 **** Fit       0.054664
 **** Fit       0.050857
 **** Fit       0.047707
 **** Fit       0.061778
 **** Fit       0.064808
 **** Fit       0.053110
 **** Fit       0.049467
 **** Fit       0.046507
 **** Fit       0.044251
 **** Fit       0.042398
 **** Fit       0.064132
 **** Fit       0.066014
 **** Fit       0.049666
 **** Fit       0.046443
 **** Fit       0.043872
 **** Fit       0.041926
 **** Fit       0.040348
 **** Fit       0.038963
 **** Fit       0.067196
 **** Fit       0.046204
 **** Fit       0.043329
 **** Fit       0.040933
 **** Fit       0.038971
 **** Fit       0.037251
 **** Fit       0.035629
 **** Fit       0.034077
 **** Fit       0.032605
 **** Fit       0.070598
 **** Fit       0.041178
 **** Fit       0.038501
 **** Fit       0.036069
 **** Fit       0.033782
 **** Fit       0.031498
 **** Fit       0.029141
 **** Fit       0.026704
 **** Fit       0.024184
 **** Fit       0.021487
 **** Fit       0.018385
 **** Fit       0.034878
 **** Fit       0.032043
 **** Fit       0.029105
 **** Fit       0.025974
 **** Fit       0.022585
 **** Fit       0.018952
 **** Fit       0.015180
 **** Fit       0.011446
 **** Fit       0.007986
 **** Fit       0.005107
 **** Fit       0.027823
 **** Fit       0.024332
 **** Fit       0.020324
 **** Fit       0.015741
 **** Fit       0.010587
 **** Fit       0.005011
 **** Fit      -0.000617
 **** Fit       0.022487
 **** Fit       0.018775
 **** Fit       0.014088
 **** Fit       0.008349
 **** Fit       0.001495
 **** Fit       0.010880
 **** Fit       0.005081
 **** Fit      -0.002563
 **** Fit       0.006560
 **** Fit      -0.012488
 **** Fit      -0.015283
 **** Fit       0.044975
 **** Fit       0.049417
 **** Fit       0.041445
 **** Fit       0.042735
 **** Fit       0.044157
 **** Fit       0.042970
 **** Fit       0.048764
 **** Fit       0.054359
 **** Fit       0.059764
 **** Fit       0.065023
 **** Fit       0.070131
 **** Fit       0.037212
 **** Fit       0.035251
 **** Fit       0.034731
 **** Fit       0.035318
 **** Fit       0.036674
 **** Fit       0.038459
 **** Fit       0.043986
 **** Fit       0.050963
 **** Fit       0.057462
 **** Fit       0.063714
 **** Fit       0.069893
 **** Fit       0.076062
 **** Fit       0.082114
 **** Fit       0.083258
 **** Fit       0.074904
 **** Fit       0.065906
 **** Fit       0.056798
 **** Fit       0.048189
 **** Fit       0.040770
 **** Fit       0.035136
 **** Fit       0.031534
 **** Fit       0.029813
 **** Fit       0.029597
 **** Fit       0.030489
 **** Fit       0.032157
 **** Fit       0.034294
 **** Fit       0.049950
 **** Fit       0.058027
 **** Fit       0.065695
 **** Fit       0.073370
 **** Fit       0.076561
 **** Fit       0.064957
 **** Fit       0.053773
 **** Fit       0.043722
 **** Fit       0.035591
 **** Fit       0.029914
 **** Fit       0.026701
 **** Fit       0.025529
 **** Fit       0.025860
 **** Fit       0.027252
 **** Fit       0.029380
 **** Fit       0.031952
 **** Fit       0.050135
 **** Fit       0.060030
 **** Fit       0.065118
 **** Fit       0.052028
 **** Fit       0.040874
 **** Fit       0.032376
 **** Fit       0.026828
 **** Fit       0.023932
 **** Fit       0.023066
 **** Fit       0.023638
 **** Fit       0.025221
 **** Fit       0.027527
 **** Fit       0.045231
 **** Fit       0.034961
 **** Fit       0.028072
 **** Fit       0.024172
 **** Fit       0.022557
 **** Fit       0.022565
 **** Fit       0.023720
 **** Fit       0.025701
 **** Fit       0.045707
 **** Fit       0.035355
 **** Fit       0.028647
 **** Fit       0.024874
 **** Fit       0.023260
 **** Fit       0.023179
 **** Fit       0.024172
 **** Fit       0.037531
 **** Fit       0.030720
 **** Fit       0.026705
 **** Fit       0.024726
 **** Fit       0.024164
 **** Fit       0.024483
 **** Fit       0.038135
 **** Fit       0.031584
 **** Fit       0.027652
 **** Fit       0.025495
 **** Fit       0.024326
 **** Fit       0.033503
 **** Fit       0.028674
 **** Fit       0.025416
 **** Fit       0.028555
 **** Fit       0.044885
 **** Fit       0.039987
 **** Fit       0.023306
 **** Fit       0.023797
 **** Fit       0.054086
 **** Fit       0.053717
 **** Fit       0.055076
 **** Fit       0.055500
 **** Fit       0.054324
 **** Fit       0.052878
 **** Fit       0.052732
 **** Fit       0.053147
 **** Fit       0.054495
 **** Fit       0.055920
 **** Fit       0.056893
 **** Fit       0.057021
 **** Fit       0.056170
 **** Fit       0.054512
 **** Fit       0.052660
 **** Fit       0.051395
 **** Fit       0.051064
 **** Fit       0.051438
 **** Fit       0.052151
 **** Fit       0.052296
 **** Fit       0.053541
 **** Fit       0.055111
 **** Fit       0.056701
 **** Fit       0.057973
 **** Fit       0.058695
 **** Fit       0.058764
 **** Fit       0.058123
 **** Fit       0.056739
 **** Fit       0.054753
 **** Fit       0.052565
 **** Fit       0.050710
 **** Fit       0.049591
 **** Fit       0.049296
 **** Fit       0.049622
 **** Fit       0.050231
 **** Fit       0.050852
 **** Fit       0.051464
 **** Fit       0.051042
 **** Fit       0.052254
 **** Fit       0.053972
 **** Fit       0.055931
 **** Fit       0.057820
 **** Fit       0.059377
 **** Fit       0.060435
 **** Fit       0.060934
 **** Fit       0.060861
 **** Fit       0.060138
 **** Fit       0.058663
 **** Fit       0.056473
 **** Fit       0.053837
 **** Fit       0.051200
 **** Fit       0.049039
 **** Fit       0.047687
 **** Fit       0.047223
 **** Fit       0.047494
 **** Fit       0.048210
 **** Fit       0.049038
 **** Fit       0.049696
 **** Fit       0.050081
 **** Fit       0.050400
 **** Fit       0.049173
 **** Fit       0.050437
 **** Fit       0.052428
 **** Fit       0.054831
 **** Fit       0.057320
 **** Fit       0.059621
 **** Fit       0.061526
 **** Fit       0.062901
 **** Fit       0.063716
 **** Fit       0.063990
 **** Fit       0.063658
 **** Fit       0.062536
 **** Fit       0.060499
 **** Fit       0.057647
 **** Fit       0.054294
 **** Fit       0.050903
 **** Fit       0.047984
 **** Fit       0.045940
 **** Fit       0.044937
 **** Fit       0.044895
 **** Fit       0.045577
 **** Fit       0.046665
 **** Fit       0.047812
 **** Fit       0.048684
 **** Fit       0.049036
 **** Fit       0.048906
 **** Fit       0.048754
 **** Fit       0.046287
 **** Fit       0.047735
 **** Fit       0.050141
 **** Fit       0.053093
 **** Fit       0.056238
 **** Fit       0.059318
 **** Fit       0.062140
 **** Fit       0.064541
 **** Fit       0.066404
 **** Fit       0.067690
 **** Fit       0.068423
 **** Fit       0.068558
 **** Fit       0.067873
 **** Fit       0.066124
 **** Fit       0.063284
 **** Fit       0.059567
 **** Fit       0.055331
 **** Fit       0.051040
 **** Fit       0.047220
 **** Fit       0.044333
 **** Fit       0.042627
 **** Fit       0.042086
 **** Fit       0.042518
 **** Fit       0.043645
 **** Fit       0.045148
 **** Fit       0.046672
 **** Fit       0.047850
 **** Fit       0.048332
 **** Fit       0.047910
 **** Fit       0.046870
 **** Fit       0.046067
 **** Fit       0.051265
 **** Fit       0.055472
 **** Fit       0.059620
 **** Fit       0.063562
 **** Fit       0.067163
 **** Fit       0.070267
 **** Fit       0.072737
 **** Fit       0.074515
 **** Fit       0.075573
 **** Fit       0.075726
 **** Fit       0.074591
 **** Fit       0.071921
 **** Fit       0.067862
 **** Fit       0.062794
 **** Fit       0.057163
 **** Fit       0.051501
 **** Fit       0.046429
 **** Fit       0.042527
 **** Fit       0.040122
 **** Fit       0.039210
 **** Fit       0.039560
 **** Fit       0.040861
 **** Fit       0.079260
 **** Fit       0.082747
 **** Fit       0.085281
 **** Fit       0.086678
 **** Fit       0.086576
 **** Fit       0.084498
 **** Fit       0.080364
 **** Fit       0.074612
 **** Fit       0.067807
 **** Fit       0.060470
 **** Fit       0.053175
 **** Fit       0.046605
 -----------------------------------------------------------------
 Leave Link  602 at Wed Sep 18 12:49:17 2019, MaxMem=  1342177280 cpu:             118.3 elap:               2.5

 Test job not archived.
 1\1\GINC-C503-043\SP\RB3LYP\SVP\C54H83Ca1N15O23\PENGZHI\18-Sep-2019\0\
 \#b3lyp/svp scf=(tight,noincore) Test #IOP(5/87=12) Density=Current Po
 p=(MK,readradii) iop(6/33=2) iop(6/42=6)\\Ng-31_loop3_10.0\\0,1\C,0,-1
 .74,42.4,101.83\C,0,-0.32,42.91,101.63\O,0,0.18,42.8,100.51\H,0,-2.407
 ,42.901,101.129\H,0,-1.769,41.325,101.653\H,0,-2.062,42.61,102.85\N,0,
 0.27,43.45,102.7\C,0,1.59,44.05,102.71\C,0,2.59,43.16,103.44\O,0,2.35,
 42.47,104.42\C,0,1.61,45.42,103.38\C,0,0.67,45.5,104.58\O,0,1.11,45.33
 ,105.74\O,0,-0.57,45.61,104.48\H,0,-0.17,43.48,103.61\H,0,1.9,44.25,10
 1.69\H,0,1.35,46.2,102.66\H,0,2.62,45.72,103.64\N,0,3.84,43.34,103.\C,
 0,5.09,43.07,103.68\C,0,6.21,42.39,102.9\O,0,6.94,41.59,103.46\C,0,5.6
 6,44.37,104.23\C,0,4.87,45.05,105.35\C,0,5.14,46.54,105.45\C,0,4.52,47
 .17,106.7\N,0,3.08,47.28,106.43\H,0,3.95,43.79,102.1\H,0,4.84,42.46,10
 4.54\H,0,5.88,45.08,103.44\H,0,6.68,44.25,104.61\H,0,5.08,44.52,106.28
 \H,0,3.8,44.87,105.19\H,0,4.76,47.08,104.57\H,0,6.21,46.63,105.6\H,0,5
 .,48.14,106.79\H,0,4.81,46.57,107.57\H,0,2.65,46.37,106.39\H,0,2.62,47
 .86,107.13\H,0,3.01,47.72,105.52\N,0,6.29,42.62,101.59\C,0,7.14,41.84,
 100.72\C,0,7.56,42.61,99.48\O,0,8.74,42.72,99.15\C,0,6.6,40.42,100.57\
 C,0,5.1,40.25,100.39\O,0,4.54,40.51,99.3\O,0,4.52,39.75,101.38\H,0,5.5
 7,43.21,101.18\H,0,8.05,41.83,101.32\H,0,6.81,39.85,101.48\H,0,6.95,39
 .9,99.68\N,0,6.56,42.9,98.64\C,0,6.71,43.66,97.41\C,0,5.51,43.51,96.48
 \O,0,4.53,42.87,96.87\H,0,5.64,42.67,98.98\H,0,7.61,43.35,96.87\H,0,6.
 74,44.72,97.65\N,0,5.4,44.19,95.34\C,0,6.46,44.97,94.74\C,0,6.35,44.79
 ,93.23\O,0,5.65,45.52,92.53\C,0,6.46,46.45,95.09\C,0,7.71,47.09,94.5\N
 ,0,7.72,48.36,94.08\O,0,8.76,46.46,94.45\H,0,4.62,43.93,94.75\H,0,7.42
 ,44.52,94.99\H,0,6.5,46.57,96.18\H,0,5.56,46.92,94.67\H,0,6.91,48.9,94
 .33\H,0,8.57,48.8,93.75\N,0,7.11,43.93,92.55\C,0,8.,42.92,93.08\C,0,7.
 26,41.61,93.33\O,0,6.56,41.53,94.33\H,0,6.9,43.9,91.56\H,0,8.56,43.19,
 93.97\H,0,8.7,42.69,92.27\N,0,7.65,40.54,92.63\C,0,7.02,39.25,92.85\C,
 0,8.04,38.13,92.75\O,0,9.07,38.25,92.09\C,0,5.88,39.05,91.85\C,0,4.84,
 40.15,91.89\C,0,3.72,40.1,92.72\C,0,4.85,41.22,90.99\C,0,2.69,41.05,92
 .74\C,0,3.78,42.11,90.82\C,0,2.73,42.07,91.76\O,0,1.76,43.03,91.69\H,0
 ,8.34,40.58,91.89\H,0,6.57,39.16,93.84\H,0,5.42,38.07,91.91\H,0,6.33,3
 9.03,90.86\H,0,3.56,39.23,93.34\H,0,5.71,41.3,90.34\H,0,1.85,41.03,93.
 41\H,0,3.88,43.01,90.24\H,0,1.8,43.42,90.81\N,0,7.77,37.,93.4\C,0,8.54
 ,35.78,93.21\C,0,7.91,35.05,92.04\O,0,8.42,34.02,91.59\C,0,8.74,35.01,
 94.51\C,0,7.52,34.25,95.\C,0,9.96,34.09,94.48\C,0,7.7,33.5,96.32\H,0,6
 .96,36.91,94.\H,0,9.5,36.13,92.85\H,0,8.96,35.74,95.3\H,0,7.23,33.58,9
 4.19\H,0,6.71,34.97,95.13\H,0,9.59,33.26,93.88\H,0,10.82,34.56,94.\H,0
 ,10.21,33.67,95.45\H,0,8.53,33.84,96.94\H,0,6.79,33.61,96.92\H,0,7.85,
 32.43,96.2\N,0,6.65,35.32,91.68\C,0,5.87,34.59,90.7\C,0,5.31,33.22,91.
 05\O,0,5.07,32.45,90.12\C,0,4.73,35.47,90.18\O,0,3.75,35.69,91.16\H,0,
 6.27,36.12,92.17\H,0,6.53,34.45,89.85\H,0,4.25,35.,89.32\H,0,5.19,36.3
 9,89.82\H,0,4.12,36.02,91.98\N,0,5.23,32.85,92.33\C,0,4.71,31.58,92.82
 \C,0,3.72,31.84,93.94\O,0,4.21,32.3,94.97\C,0,5.82,30.67,93.34\H,0,5.5
 1,33.5,93.05\H,0,4.27,31.17,91.91\H,0,5.36,29.9,93.96\H,0,6.35,30.17,9
 2.53\H,0,6.62,31.19,93.86\N,0,2.44,31.5,93.8\C,0,1.48,31.47,94.88\C,0,
 1.29,32.78,95.64\O,0,1.16,32.79,96.86\C,0,1.66,30.23,95.74\H,0,2.14,30
 .96,93.\H,0,0.56,31.23,94.34\H,0,0.79,30.15,96.39\H,0,1.7,29.38,95.06\
 H,0,2.54,30.31,96.38\N,0,1.45,33.9,94.92\C,0,1.17,35.24,95.4\C,0,-0.31
 ,35.49,95.17\O,0,-1.04,35.83,96.1\C,0,2.15,36.21,94.74\C,0,3.53,36.23,
 95.38\C,0,4.71,36.71,94.56\O,0,5.48,37.56,95.05\O,0,4.78,36.31,93.37\H
 ,0,1.68,33.88,93.94\H,0,1.29,35.34,96.48\H,0,1.93,37.28,94.66\H,0,2.2,
 35.91,93.69\H,0,3.7,35.19,95.66\H,0,3.46,36.85,96.28\N,0,-0.79,35.15,9
 3.97\C,0,-2.08,35.56,93.47\H,0,-2.777,35.657,94.302\H,0,-1.985,36.52,9
 2.962\H,0,-2.453,34.813,92.769\H,0,-0.11,34.94,93.26\Ca,0,2.78,41.03,9
 7.53\O,0,0.25,41.57,97.98\H,0,-0.06,41.82,98.85\H,0,-0.45,41.84,97.39\
 \Version=ES64L-G16RevA.03\State=1-A\HF=-5333.4203932\RMSD=3.160e-09\Di
 pole=-3.4951944,13.9821314,2.4232901\Quadrupole=-72.9007071,86.4956202
 ,-13.5949131,45.5989412,68.3795599,65.1534618\PG=C01 [X(C54H83Ca1N15O2
 3)]\\@


 POCKETA-POCKETA
 BARON VON RICHTOFEN
 SLAUGHTERED THE ALLIES WITH
 HARDLY A CARE.
 KILLED EIGHTY-ONE WITH HIS
 BLOOD-COLORED TRIPLANE, THEN
 UN-AEROBATICALLY
 PLUNGED FROM THE AIR.
   -- TONY HOFFMAN
 Job cpu time:       0 days  5 hours 36 minutes  4.6 seconds.
 Elapsed time:       0 days  0 hours  7 minutes  5.7 seconds.
 File lengths (MBytes):  RWF=   1517 Int=      0 D2E=      0 Chk=    171 Scr=      1
 Normal termination of Gaussian 16 at Wed Sep 18 12:49:18 2019.
