 Entering Gaussian System, Link 0=g16
 Initial command:
 /home1/apps/gaussian/16rA.03/g16/l1.exe "/scratch/01990/pengzhi/4362025/Gau-348533.inp" -scrdir="/scratch/01990/pengzhi/4362025/"
 Entering Link 1 = /home1/apps/gaussian/16rA.03/g16/l1.exe PID=    348534.
  
 Copyright (c) 1988,1990,1992,1993,1995,1998,2003,2009,2016,
            Gaussian, Inc.  All Rights Reserved.
  
 This is part of the Gaussian(R) 16 program.  It is based on
 the Gaussian(R) 09 system (copyright 2009, Gaussian, Inc.),
 the Gaussian(R) 03 system (copyright 2003, Gaussian, Inc.),
 the Gaussian(R) 98 system (copyright 1998, Gaussian, Inc.),
 the Gaussian(R) 94 system (copyright 1995, Gaussian, Inc.),
 the Gaussian 92(TM) system (copyright 1992, Gaussian, Inc.),
 the Gaussian 90(TM) system (copyright 1990, Gaussian, Inc.),
 the Gaussian 88(TM) system (copyright 1988, Gaussian, Inc.),
 the Gaussian 86(TM) system (copyright 1986, Carnegie Mellon
 University), and the Gaussian 82(TM) system (copyright 1983,
 Carnegie Mellon University). Gaussian is a federally registered
 trademark of Gaussian, Inc.
  
 This software contains proprietary and confidential information,
 including trade secrets, belonging to Gaussian, Inc.
  
 This software is provided under written license and may be
 used, copied, transmitted, or stored only in accord with that
 written license.
  
 The following legend is applicable only to US Government
 contracts under FAR:
  
                    RESTRICTED RIGHTS LEGEND
  
 Use, reproduction and disclosure by the US Government is
 subject to restrictions as set forth in subparagraphs (a)
 and (c) of the Commercial Computer Software - Restricted
 Rights clause in FAR 52.227-19.
  
 Gaussian, Inc.
 340 Quinnipiac St., Bldg. 40, Wallingford CT 06492
  
  
 ---------------------------------------------------------------
 Warning -- This program may not be used in any manner that
 competes with the business of Gaussian, Inc. or will provide
 assistance to any competitor of Gaussian, Inc.  The licensee
 of this program is prohibited from giving any competitor of
 Gaussian, Inc. access to this program.  By using this program,
 the user acknowledges that Gaussian, Inc. is engaged in the
 business of creating and licensing software in the field of
 computational chemistry and represents and warrants to the
 licensee that it is not a competitor of Gaussian, Inc. and that
 it will not use this program in any manner prohibited above.
 ---------------------------------------------------------------
  

 Cite this work as:
 Gaussian 16, Revision A.03,
 M. J. Frisch, G. W. Trucks, H. B. Schlegel, G. E. Scuseria, 
 M. A. Robb, J. R. Cheeseman, G. Scalmani, V. Barone, 
 G. A. Petersson, H. Nakatsuji, X. Li, M. Caricato, A. V. Marenich, 
 J. Bloino, B. G. Janesko, R. Gomperts, B. Mennucci, H. P. Hratchian, 
 J. V. Ortiz, A. F. Izmaylov, J. L. Sonnenberg, D. Williams-Young, 
 F. Ding, F. Lipparini, F. Egidi, J. Goings, B. Peng, A. Petrone, 
 T. Henderson, D. Ranasinghe, V. G. Zakrzewski, J. Gao, N. Rega, 
 G. Zheng, W. Liang, M. Hada, M. Ehara, K. Toyota, R. Fukuda, 
 J. Hasegawa, M. Ishida, T. Nakajima, Y. Honda, O. Kitao, H. Nakai, 
 T. Vreven, K. Throssell, J. A. Montgomery, Jr., J. E. Peralta, 
 F. Ogliaro, M. J. Bearpark, J. J. Heyd, E. N. Brothers, K. N. Kudin, 
 V. N. Staroverov, T. A. Keith, R. Kobayashi, J. Normand, 
 K. Raghavachari, A. P. Rendell, J. C. Burant, S. S. Iyengar, 
 J. Tomasi, M. Cossi, J. M. Millam, M. Klene, C. Adamo, R. Cammi, 
 J. W. Ochterski, R. L. Martin, K. Morokuma, O. Farkas, 
 J. B. Foresman, and D. J. Fox, Gaussian, Inc., Wallingford CT, 2016.
 
 ******************************************
 Gaussian 16:  ES64L-G16RevA.03 25-Dec-2016
                19-Sep-2019 
 ******************************************
 %chk=Ng-31_loop3_35.0.chk
 %nprocshared=48
 Will use up to   48 processors via shared memory.
 %mem=10GB
 %nosave
 ----------------------------------------------------------------------
 #b3lyp/svp scf=(tight,noincore,xqc) Test #IOP(5/87=12) Density=Current
  Pop=(MK,readradii) iop(6/33=2) iop(6/42=6)
 ----------------------------------------------------------------------
 1/30=1,38=1,172=1/1;
 2/12=2,17=6,18=5,40=1/2;
 3/5=18,7=101,11=2,25=1,30=1,74=-5/1,2,3;
 4//1;
 5/5=4,8=3,13=1,32=2,38=5,87=12/2,8;
 6/7=2,8=2,9=2,10=2,15=8,20=101,22=-1,28=1,33=2,42=6/1,2;
 99/5=1,9=1/99;
 ----------------
 Ng-31_loop3_35.0
 ----------------
 Symbolic Z-matrix:
 Charge =  0 Multiplicity = 1
 C                     87.52     75.47     29.84 
 C                     86.63     74.68     30.79 
 O                     85.48     75.03     31.03 
 H                     88.487    74.975    29.753 
 H                     87.049    75.522    28.858 
 H                     87.663    76.478    30.229 
 N                     87.15     73.54     31.26 
 C                     86.5      72.62     32.17 
 C                     86.68     73.03     33.63 
 O                     85.99     72.55     34.52 
 C                     87.11     71.23     32.05 
 C                     88.62     71.1      32. 
 O                     89.31     72.15     31.96 
 O                     89.23     70.01     32.02 
 H                     88.11     73.44     30.97 
 H                     85.43     72.55     31.98 
 H                     86.64     70.73     31.19 
 H                     86.73     70.47     32.73 
 N                     87.61     73.92     33.98 
 C                     87.71     74.58     35.26 
 C                     88.06     73.56     36.34 
 O                     88.85     72.65     36.11 
 C                     88.78     75.67     35.3 
 C                     88.43     76.8      34.34 
 C                     89.5      77.88     34.28 
 C                     89.43     78.89     33.14 
 N                     88.28     79.8      33.25 
 H                     88.32     74.16     33.29 
 H                     86.76     75.02     35.56 
 H                     89.78     75.25     35.15 
 H                     88.85     76.08     36.31 
 H                     87.58     77.42     34.64 
 H                     88.29     76.48     33.3 
 H                     90.46     77.36     34.19 
 H                     89.56     78.35     35.26 
 H                     89.49     78.56     32.1 
 H                     90.28     79.57     33.24 
 H                     87.56     79.12     33.03 
 H                     88.11     80.16     34.17 
 H                     88.4      80.57     32.61 
 N                     87.37     73.68     37.47 
 C                     87.18     72.78     38.6 
 C                     86.28     71.57     38.37 
 O                     85.94     70.87     39.32 
 C                     86.88     73.51     39.91 
 C                     85.74     74.51     39.83 
 O                     85.9      75.51     39.11 
 O                     84.81     74.36     40.66 
 H                     86.84     74.53     37.56 
 H                     88.16     72.37     38.82 
 H                     87.8      74.02     40.2 
 H                     86.62     72.81     40.7 
 N                     86.04     71.35     37.08 
 C                     85.16     70.32     36.57 
 C                     85.87     69.26     35.74 
 O                     87.08     69.1      35.8 
 H                     86.42     72.03     36.43 
 H                     84.46     70.86     35.94 
 H                     84.6      69.83     37.37 
 N                     85.27     68.43     34.88 
 C                     83.87     68.49     34.51 
 C                     83.66     68.42     33. 
 O                     83.77     67.35     32.4 
 C                     83.2      67.28     35.16 
 C                     83.43     67.28     36.67 
 N                     84.29     66.39     37.17 
 O                     82.84     68.03     37.44 
 H                     85.93     67.88     34.35 
 H                     83.38     69.39     34.87 
 H                     83.57     66.36     34.72 
 H                     82.14     67.33     34.93 
 H                     84.75     65.79     36.5 
 H                     84.18     66.26     38.16 
 N                     83.55     69.54     32.28 
 C                     83.52     70.94     32.64 
 C                     82.25     71.49     33.28 
 O                     82.35     72.63     33.74 
 H                     83.57     69.3      31.3 
 H                     83.84     71.5      31.76 
 H                     84.33     71.13     33.34 
 N                     81.1      70.84     33.18 
 C                     79.91     71.25     33.9 
 C                     80.25     71.19     35.38 
 O                     81.05     70.39     35.85 
 C                     78.73     70.38     33.49 
 C                     78.13     70.76     32.16 
 C                     77.47     71.97     31.96 
 C                     78.26     69.91     31.05 
 C                     76.87     72.29     30.73 
 C                     77.62     70.23     29.85 
 C                     76.81     71.37     29.66 
 O                     76.35     71.76     28.44 
 H                     80.99     69.9      32.82 
 H                     79.81     72.3      33.61 
 H                     77.97     70.45     34.27 
 H                     79.       69.32     33.48 
 H                     77.41     72.57     32.86 
 H                     78.91     69.06     31.2 
 H                     76.32     73.22     30.68 
 H                     77.75     69.61     28.97 
 H                     76.38     71.05     27.78 
 N                     79.53     72.03     36.13 
 C                     80.01     72.5      37.41 
 C                     79.21     71.97     38.59 
 O                     79.61     72.17     39.74 
 C                     80.33     73.99     37.55 
 C                     81.56     74.4      36.75 
 C                     79.17     74.88     37.14 
 C                     82.87     73.75     37.21 
 H                     78.82     72.53     35.61 
 H                     80.97     71.99     37.55 
 H                     80.6      74.14     38.6 
 H                     81.72     75.47     36.89 
 H                     81.49     74.21     35.68 
 H                     78.7      74.62     36.19 
 H                     78.39     74.85     37.91 
 H                     79.43     75.94     37.09 
 H                     83.72     74.29     36.8 
 H                     82.94     73.7      38.29 
 H                     83.1      72.78     36.79 
 N                     78.1      71.26     38.39 
 C                     77.23     70.72     39.42 
 C                     76.46     71.75     40.23 
 O                     75.72     72.48     39.58 
 C                     76.18     69.87     38.7 
 O                     75.83     68.76     39.49 
 H                     77.93     71.23     37.4 
 H                     77.8      70.06     40.07 
 H                     76.55     69.64     37.7 
 H                     75.27     70.45     38.49 
 H                     76.62     68.22     39.6 
 N                     76.63     71.84     41.56 
 C                     75.8      72.68     42.4 
 C                     76.65     73.83     42.92 
 O                     77.88     73.74     42.92 
 C                     75.1      71.8      43.43 
 H                     77.37     71.32     42.01 
 H                     74.94     73.06     41.86 
 H                     74.78     70.84     43.05 
 H                     75.84     71.68     44.22 
 H                     74.23     72.35     43.8 
 N                     75.95     74.86     43.4 
 C                     76.5      75.99     44.13 
 C                     77.68     76.58     43.37 
 O                     78.77     76.77     43.92 
 C                     76.86     75.51     45.53 
 H                     74.95     74.78     43.29 
 H                     75.67     76.67     44.32 
 H                     77.1      76.33     46.21 
 H                     75.99     74.98     45.92 
 H                     77.69     74.8      45.53 
 N                     77.54     76.7      42.05 
 C                     78.51     77.36     41.2 
 C                     77.9      78.2      40.09 
 O                     78.36     79.31     39.81 
 C                     79.48     76.31     40.68 
 C                     80.82     76.84     40.16 
 C                     81.8      77.19     41.26 
 O                     81.91     78.38     41.63 
 O                     82.59     76.29     41.63 
 H                     76.61     76.53     41.68 
 H                     79.12     78.09     41.73 
 H                     78.97     75.81     39.86 
 H                     79.63     75.47     41.36 
 H                     80.53     77.73     39.6 
 H                     81.25     76.13     39.45 
 N                     76.82     77.74     39.45 
 C                     76.19     78.54     38.42 
 H                     75.283    78.994    38.818 
 H                     76.876    79.323    38.097 
 H                     75.936    77.905    37.571 
 H                     76.44     76.87     39.8 
 Ca                    83.23     73.92     42.55 
 O                     81.64     72.11     41.4 
 H                     81.95     71.2      41.43 
 H                     80.9      72.08     40.79 
 
 Stoichiometry    C54H83CaN15O23
 Framework group  C1[X(C54H83CaN15O23)]
 Deg. of freedom   522
 Full point group                 C1      NOp   1
 Largest Abelian subgroup         C1      NOp   1
 Largest concise Abelian subgroup C1      NOp   1
                         Standard orientation:                         
 ---------------------------------------------------------------------
 Center     Atomic      Atomic             Coordinates (Angstroms)
 Number     Number       Type             X           Y           Z
 ---------------------------------------------------------------------
      1          6           0        8.204671   -1.104736    3.977999
      2          6           0        7.047456   -0.569328    3.145598
      3          8           0        5.997298   -0.209636    3.665588
      4          1           0        9.042500   -1.343348    3.323178
      5          1           0        8.512932   -0.349626    4.701638
      6          1           0        7.888392   -2.005362    4.503997
      7          7           0        7.289788   -0.428323    1.837052
      8          6           0        6.353978    0.061632    0.846494
      9          6           0        5.441340   -1.043637    0.319642
     10          8           0        4.420384   -0.787839   -0.305510
     11          6           0        7.096465    0.602264   -0.368014
     12          6           0        8.245611   -0.206681   -0.937723
     13          8           0        8.606877   -1.244770   -0.327756
     14          8           0        8.846867    0.079285   -1.994755
     15          1           0        8.196147   -0.800082    1.600392
     16          1           0        5.716370    0.849014    1.245725
     17          1           0        7.410936    1.631378   -0.138816
     18          1           0        6.485308    0.948678   -1.199209
     19          7           0        5.740600   -2.328596    0.516681
     20          6           0        4.851055   -3.446074    0.307033
     21          6           0        4.542357   -3.587147   -1.180954
     22          8           0        5.413237   -3.392241   -2.022786
     23          6           0        5.427975   -4.779435    0.780227
     24          6           0        5.638873   -4.766829    2.288989
     25          6           0        6.284387   -6.042985    2.808255
     26          6           0        6.837936   -6.034604    4.228858
     27          7           0        5.786389   -5.950318    5.253477
     28          1           0        6.679966   -2.552198    0.841324
     29          1           0        3.891511   -3.293020    0.798917
     30          1           0        6.320101   -5.051607    0.206699
     31          1           0        4.737118   -5.588182    0.531742
     32          1           0        4.723404   -4.784170    2.887751
     33          1           0        6.284844   -3.955326    2.646458
     34          1           0        7.123100   -6.260568    2.137944
     35          1           0        5.596898   -6.866975    2.625773
     36          1           0        7.630533   -5.338037    4.512907
     37          1           0        7.279898   -7.015209    4.423755
     38          1           0        5.519123   -4.987069    5.080503
     39          1           0        4.989691   -6.537306    5.093427
     40          1           0        6.180601   -6.165924    6.156257
     41          7           0        3.265744   -3.820241   -1.469619
     42          6           0        2.512952   -3.733306   -2.714105
     43          6           0        2.205609   -2.332489   -3.233962
     44          8           0        1.433045   -2.184878   -4.177072
     45          6           0        1.302148   -4.666764   -2.754255
     46          6           0        0.370953   -4.546377   -1.560780
     47          8           0        0.811434   -4.885708   -0.449550
     48          8           0       -0.836005   -4.316110   -1.818712
     49          1           0        2.686724   -4.064332   -0.684345
     50          1           0        3.141047   -4.188549   -3.472491
     51          1           0        1.694420   -5.683051   -2.816569
     52          1           0        0.694823   -4.485809   -3.637494
     53          7           0        2.930783   -1.393758   -2.631462
     54          6           0        2.797131    0.028160   -2.867442
     55          6           0        4.035774    0.669645   -3.476427
     56          8           0        4.898380    0.004361   -4.030150
     57          1           0        3.534480   -1.706668   -1.878510
     58          1           0        2.626305    0.444103   -1.879358
     59          1           0        1.932347    0.257377   -3.494584
     60          7           0        4.308120    1.978874   -3.460680
     61          6           0        3.531263    2.978597   -2.755311
     62          6           0        4.401915    3.920030   -1.927802
     63          8           0        5.052872    4.813207   -2.471390
     64          6           0        2.801014    3.790538   -3.824417
     65          6           0        1.955930    2.879731   -4.712822
     66          7           0        2.385225    2.647033   -5.955101
     67          8           0        0.893517    2.385513   -4.351538
     68          1           0        5.228861    2.186004   -3.818917
     69          1           0        2.792417    2.541806   -2.089714
     70          1           0        3.509604    4.353041   -4.423074
     71          1           0        2.178498    4.519058   -3.313797
     72          1           0        3.262640    3.077264   -6.211118
     73          1           0        1.662573    2.287069   -6.552847
     74          7           0        4.627619    3.670852   -0.634795
     75          6           0        4.143355    2.650460    0.267862
     76          6           0        2.706511    2.756291    0.767141
     77          8           0        2.290606    1.764832    1.371485
     78          1           0        5.336775    4.306029   -0.300061
     79          1           0        4.876631    2.564642    1.071192
     80          1           0        4.231675    1.686568   -0.227429
     81          7           0        2.042240    3.900142    0.694017
     82          6           0        0.631931    4.002136    1.015304
     83          6           0       -0.103792    3.076713    0.060368
     84          8           0        0.287869    2.840719   -1.076210
     85          6           0        0.188411    5.456847    0.948163
     86          6           0        0.584481    6.267638    2.156073
     87          6           0        0.048621    6.030661    3.419558
     88          6           0        1.556936    7.275030    2.051226
     89          6           0        0.387162    6.826977    4.527065
     90          6           0        1.846364    8.080224    3.155715
     91          6           0        1.206081    7.971646    4.408731
     92          8           0        1.628390    8.635395    5.519223
     93          1           0        2.352271    4.724469    0.194352
     94          1           0        0.587797    3.569906    2.019211
     95          1           0       -0.896522    5.475488    0.832091
     96          1           0        0.558451    5.945598    0.042187
     97          1           0       -0.692831    5.240820    3.420438
     98          1           0        2.062154    7.323857    1.097355
     99          1           0       -0.125190    6.617696    5.456365
    100          1           0        2.628340    8.829689    3.105564
    101          1           0        2.204640    9.387898    5.313613
    102          7           0       -1.261307    2.616453    0.544950
    103          6           0       -1.845236    1.384979    0.063081
    104          6           0       -3.132401    1.589679   -0.720886
    105          8           0       -3.644561    0.637865   -1.316068
    106          6           0       -1.942467    0.210249    1.039122
    107          6           0       -0.579136   -0.375617    1.384214
    108          6           0       -2.649641    0.578517    2.331440
    109          6           0        0.165386   -1.006715    0.202012
    110          1           0       -1.506777    3.006654    1.446054
    111          1           0       -1.162231    1.043762   -0.723288
    112          1           0       -2.473992   -0.581268    0.501646
    113          1           0       -0.726025   -1.197138    2.086800
    114          1           0        0.117159    0.329498    1.835753
    115          1           0       -2.312790    1.507120    2.795365
    116          1           0       -3.726573    0.675414    2.149702
    117          1           0       -2.595103   -0.200330    3.095719
    118          1           0        0.971236   -1.641250    0.562802
    119          1           0       -0.499680   -1.570439   -0.441186
    120          1           0        0.766943   -0.339183   -0.400258
    121          7           0       -3.691168    2.797048   -0.799876
    122          6           0       -4.927000    3.126867   -1.487873
    123          6           0       -6.191012    2.550227   -0.871708
    124          8           0       -6.407473    2.884619    0.287744
    125          6           0       -5.071663    4.649104   -1.415284
    126          8           0       -5.679460    5.134799   -2.587198
    127          1           0       -3.146293    3.424136   -0.234392
    128          1           0       -4.844890    2.852631   -2.537183
    129          1           0       -4.096854    5.076578   -1.176925
    130          1           0       -5.682560    4.953101   -0.553315
    131          1           0       -5.094899    4.930108   -3.324890
    132          7           0       -6.973212    1.712775   -1.573660
    133          6           0       -8.270813    1.273096   -1.101416
    134          6           0       -8.184584   -0.209026   -0.767832
    135          8           0       -7.278329   -0.898483   -1.241489
    136          6           0       -9.329620    1.707574   -2.109114
    137          1           0       -6.655915    1.352395   -2.462451
    138          1           0       -8.592699    1.837548   -0.233439
    139          1           0       -9.155323    2.681421   -2.544593
    140          1           0       -9.303384    0.929287   -2.870481
    141          1           0      -10.295439    1.709296   -1.595800
    142          7           0       -9.176690   -0.659400    0.003005
    143          6           0       -9.445595   -2.055064    0.306503
    144          6           0       -8.173778   -2.740986    0.786183
    145          8           0       -7.781875   -3.797683    0.279721
    146          6           0      -10.046824   -2.695335   -0.937915
    147          1           0       -9.815561    0.050843    0.328427
    148          1           0      -10.282328   -2.064925    1.004485
    149          1           0      -10.458050   -3.688608   -0.746336
    150          1           0      -10.855357   -2.044580   -1.273611
    151          1           0       -9.332673   -2.764252   -1.761467
    152          7           0       -7.409712   -2.054987    1.635894
    153          6           0       -6.240945   -2.610557    2.287298
    154          6           0       -6.072255   -2.186927    3.737084
    155          8           0       -5.726445   -2.999805    4.598331
    156          6           0       -5.023062   -2.290938    1.433831
    157          6           0       -3.786556   -3.159707    1.685212
    158          6           0       -3.868284   -4.528550    1.042959
    159          8           0       -4.224527   -5.510592    1.731278
    160          8           0       -3.401058   -4.646349   -0.114117
    161          1           0       -7.809361   -1.199311    2.008450
    162          1           0       -6.269094   -3.696165    2.368306
    163          1           0       -4.764405   -1.258056    1.654627
    164          1           0       -5.237204   -2.216446    0.366547
    165          1           0       -3.762263   -3.241313    2.772664
    166          1           0       -2.886708   -2.623734    1.375202
    167          7           0       -6.353922   -0.925479    4.079154
    168          6           0       -6.247024   -0.506208    5.461393
    169          1           0       -7.243268   -0.437802    5.897269
    170          1           0       -5.656817   -1.234280    6.017792
    171          1           0       -5.761939    0.468968    5.508977
    172          1           0       -6.726553   -0.343288    3.340235
    173         20           0       -3.178860   -4.057102   -2.658978
    174          8           0       -3.275270   -1.402325   -2.922726
    175          1           0       -2.926732   -1.049785   -3.746945
    176          1           0       -3.398422   -0.624455   -2.374683
 ---------------------------------------------------------------------
 Rotational constants (GHZ):           0.0195245           0.0116448           0.0097822
 Standard basis: SVP (5D, 7F)
 There are  1809 symmetry adapted cartesian basis functions of A   symmetry.
 There are  1717 symmetry adapted basis functions of A   symmetry.
  1717 basis functions,  2922 primitive gaussians,  1809 cartesian basis functions
   358 alpha electrons      358 beta electrons
       nuclear repulsion energy     20039.0711674587 Hartrees.
 NAtoms=  176 NActive=  176 NUniq=  176 SFac= 1.00D+00 NAtFMM=   60 NAOKFM=T Big=T
 Integral buffers will be    131072 words long.
 Raffenetti 2 integral format.
 Two-electron integral symmetry is turned on.
 One-electron integrals computed using PRISM.
 NBasis=  1717 RedAO= T EigKep=  3.14D-04  NBF=  1717
 NBsUse=  1717 1.00D-06 EigRej= -1.00D+00 NBFU=  1717
 ExpMin= 1.98D-02 ExpMax= 3.51D+04 ExpMxC= 5.28D+03 IAcc=3 IRadAn=         5 AccDes= 0.00D+00
 Harris functional with IExCor=  402 and IRadAn=       5 diagonalized for initial guess.
 HarFok:  IExCor=  402 AccDes= 0.00D+00 IRadAn=         5 IDoV= 1 UseB2=F ITyADJ=14
 ICtDFT=  3500011 ScaDFX=  1.000000  1.000000  1.000000  1.000000
 FoFCou: FMM=F IPFlag=           0 FMFlag=      100000 FMFlg1=        2001
         NFxFlg=           0 DoJE=T BraDBF=F KetDBF=T FulRan=T
         wScrn=  0.000000 ICntrl=       500 IOpCl=  0 I1Cent=   200000004 NGrid=           0
         NMat0=    1 NMatS0=      1 NMatT0=    0 NMatD0=    1 NMtDS0=    0 NMtDT0=    0
 Petite list used in FoFCou.
 Requested convergence on RMS density matrix=1.00D-08 within  32 cycles.
 Requested convergence on MAX density matrix=1.00D-06.
 Requested convergence on             energy=1.00D-06.
 No special actions if energy rises.
 EnCoef did     1 forward-backward iterations
 EnCoef did     5 forward-backward iterations
 EnCoef did     7 forward-backward iterations
 EnCoef did   100 forward-backward iterations
 EnCoef did   100 forward-backward iterations
 EnCoef did    17 forward-backward iterations
 EnCoef did    13 forward-backward iterations
 Rare condition: small coef for last iteration:  0.777D-15
 EnCoef did   100 forward-backward iterations
 EnCoef did   100 forward-backward iterations
 Rare condition: small coef for last iteration:  0.856D-16
 EnCoef did    40 forward-backward iterations
 Rare condition: small coef for last iteration:  0.266D-14
 EnCoef did   100 forward-backward iterations
 EnCoef did   100 forward-backward iterations
 Rare condition: small coef for last iteration:  0.237D-14
 Restarting incremental Fock formation.
 EnCoef did   100 forward-backward iterations
 EnCoef did   100 forward-backward iterations
 Rare condition: small coef for last iteration:  0.103D-15
 EnCoef did   100 forward-backward iterations
 EnCoef did   100 forward-backward iterations
 Rare condition: small coef for last iteration:  0.959D-15
 EnCoef did   100 forward-backward iterations
 EnCoef did   100 forward-backward iterations
 Rare condition: small coef for last iteration: -0.540D-15
 EnCoef did   100 forward-backward iterations
 EnCoef did   100 forward-backward iterations
 Rare condition: small coef for last iteration: -0.104D-14
 EnCoef did   100 forward-backward iterations
 EnCoef did   100 forward-backward iterations
 EnCoef did   100 forward-backward iterations
 >>>>>>>>>> Convergence criterion not met.
 SCF Done:  E(RB3LYP) =  -5332.28353006     A.U. after   33 cycles
            NFock= 32  Conv=0.91D-03     -V/T= 2.0079
 Gradient too large for Newton-Raphson -- use scaled steepest descent instead.
 Gradient too large for Newton-Raphson -- use scaled steepest descent instead.
 LinEq1:  Iter=  0 NonCon=     1 RMS=8.19D-04 Max=5.71D-01 NDo=     1
 AX will form     1 AO Fock derivatives at one time.
 LinEq1:  Iter=  1 NonCon=     1 RMS=1.60D-04 Max=4.81D-02 NDo=     1
 LinEq1:  Iter=  2 NonCon=     1 RMS=2.13D-04 Max=8.64D-02 NDo=     1
 LinEq1:  Iter=  3 NonCon=     1 RMS=1.73D-04 Max=5.51D-02 NDo=     1
 LinEq1:  Iter=  4 NonCon=     1 RMS=1.46D-04 Max=4.79D-02 NDo=     1
 LinEq1:  Iter=  5 NonCon=     1 RMS=1.51D-04 Max=6.35D-02 NDo=     1
 LinEq1:  Iter=  6 NonCon=     1 RMS=1.92D-04 Max=8.35D-02 NDo=     1
 LinEq1:  Iter=  7 NonCon=     1 RMS=2.11D-04 Max=4.76D-02 NDo=     1
 LinEq1:  Iter=  8 NonCon=     1 RMS=1.52D-04 Max=4.26D-02 NDo=     1
 LinEq1:  Iter=  9 NonCon=     1 RMS=9.67D-05 Max=1.67D-02 NDo=     1
 LinEq1:  Iter= 10 NonCon=     1 RMS=6.40D-05 Max=7.26D-03 NDo=     1
 LinEq1:  Iter= 11 NonCon=     1 RMS=5.74D-05 Max=1.29D-02 NDo=     1
 LinEq1:  Iter= 12 NonCon=     1 RMS=3.86D-05 Max=1.02D-02 NDo=     1
 LinEq1:  Iter= 13 NonCon=     1 RMS=3.28D-05 Max=6.03D-03 NDo=     1
 LinEq1:  Iter= 14 NonCon=     1 RMS=2.70D-05 Max=6.93D-03 NDo=     1
 LinEq1:  Iter= 15 NonCon=     1 RMS=1.92D-05 Max=3.25D-03 NDo=     1
 LinEq1:  Iter= 16 NonCon=     1 RMS=1.30D-05 Max=2.71D-03 NDo=     1
 LinEq1:  Iter= 17 NonCon=     1 RMS=1.05D-05 Max=1.99D-03 NDo=     1
 LinEq1:  Iter= 18 NonCon=     1 RMS=6.18D-06 Max=1.23D-03 NDo=     1
 LinEq1:  Iter= 19 NonCon=     1 RMS=4.62D-06 Max=9.33D-04 NDo=     1
 LinEq1:  Iter= 20 NonCon=     1 RMS=3.63D-06 Max=5.83D-04 NDo=     1
 LinEq1:  Iter= 21 NonCon=     1 RMS=2.20D-06 Max=3.91D-04 NDo=     1
 LinEq1:  Iter= 22 NonCon=     1 RMS=1.39D-06 Max=1.88D-04 NDo=     1
 LinEq1:  Iter= 23 NonCon=     1 RMS=1.23D-06 Max=1.89D-04 NDo=     1
 LinEq1:  Iter= 24 NonCon=     1 RMS=7.51D-07 Max=1.30D-04 NDo=     1
 LinEq1:  Iter= 25 NonCon=     1 RMS=5.81D-07 Max=9.05D-05 NDo=     1
 LinEq1:  Iter= 26 NonCon=     1 RMS=4.09D-07 Max=5.08D-05 NDo=     1
 LinEq1:  Iter= 27 NonCon=     1 RMS=2.84D-07 Max=4.08D-05 NDo=     1
 LinEq1:  Iter= 28 NonCon=     1 RMS=1.91D-07 Max=3.15D-05 NDo=     1
 LinEq1:  Iter= 29 NonCon=     1 RMS=1.25D-07 Max=2.51D-05 NDo=     1
 LinEq1:  Iter= 30 NonCon=     1 RMS=9.81D-08 Max=2.25D-05 NDo=     1
 LinEq1:  Iter= 31 NonCon=     1 RMS=7.01D-08 Max=1.81D-05 NDo=     1
 LinEq1:  Iter= 32 NonCon=     1 RMS=4.38D-08 Max=1.07D-05 NDo=     1
 LinEq1:  Iter= 33 NonCon=     1 RMS=3.53D-08 Max=8.39D-06 NDo=     1
 LinEq1:  Iter= 34 NonCon=     1 RMS=2.56D-08 Max=4.73D-06 NDo=     1
 LinEq1:  Iter= 35 NonCon=     1 RMS=1.62D-08 Max=3.02D-06 NDo=     1
 LinEq1:  Iter= 36 NonCon=     1 RMS=1.22D-08 Max=1.96D-06 NDo=     1
 LinEq1:  Iter= 37 NonCon=     1 RMS=8.94D-09 Max=1.21D-06 NDo=     1
 LinEq1:  Iter= 38 NonCon=     1 RMS=5.90D-09 Max=7.51D-07 NDo=     1
 LinEq1:  Iter= 39 NonCon=     1 RMS=4.30D-09 Max=6.46D-07 NDo=     1
 LinEq1:  Iter= 40 NonCon=     0 RMS=3.00D-09 Max=4.39D-07 NDo=     1
 Linear equations converged to 5.309D-08 5.309D-07 after    40 iterations.
 Incorrect curvature in search direction -- initial direction reversed.
 LinEq1:  Iter=  0 NonCon=     1 RMS=2.18D-04 Max=1.48D-01 NDo=     1
 LinEq1:  Iter=  1 NonCon=     1 RMS=1.60D-04 Max=6.71D-02 NDo=     1
 LinEq1:  Iter=  2 NonCon=     1 RMS=1.15D-04 Max=3.02D-02 NDo=     1
 LinEq1:  Iter=  3 NonCon=     1 RMS=2.03D-04 Max=9.18D-02 NDo=     1
 LinEq1:  Iter=  4 NonCon=     1 RMS=5.22D-05 Max=1.43D-02 NDo=     1
 LinEq1:  Iter=  5 NonCon=     1 RMS=7.50D-05 Max=2.16D-02 NDo=     1
 LinEq1:  Iter=  6 NonCon=     1 RMS=4.15D-05 Max=8.89D-03 NDo=     1
 LinEq1:  Iter=  7 NonCon=     1 RMS=3.55D-05 Max=6.88D-03 NDo=     1
 LinEq1:  Iter=  8 NonCon=     1 RMS=2.71D-05 Max=6.32D-03 NDo=     1
 LinEq1:  Iter=  9 NonCon=     1 RMS=2.16D-05 Max=9.23D-03 NDo=     1
 LinEq1:  Iter= 10 NonCon=     1 RMS=2.07D-05 Max=6.80D-03 NDo=     1
 LinEq1:  Iter= 11 NonCon=     1 RMS=1.73D-05 Max=4.23D-03 NDo=     1
 LinEq1:  Iter= 12 NonCon=     1 RMS=1.36D-05 Max=1.83D-03 NDo=     1
 LinEq1:  Iter= 13 NonCon=     1 RMS=9.36D-06 Max=1.75D-03 NDo=     1
 LinEq1:  Iter= 14 NonCon=     1 RMS=6.83D-06 Max=1.21D-03 NDo=     1
 LinEq1:  Iter= 15 NonCon=     1 RMS=5.14D-06 Max=1.00D-03 NDo=     1
 LinEq1:  Iter= 16 NonCon=     1 RMS=3.06D-06 Max=8.05D-04 NDo=     1
 LinEq1:  Iter= 17 NonCon=     1 RMS=2.38D-06 Max=6.48D-04 NDo=     1
 LinEq1:  Iter= 18 NonCon=     1 RMS=1.89D-06 Max=4.72D-04 NDo=     1
 LinEq1:  Iter= 19 NonCon=     1 RMS=1.31D-06 Max=2.72D-04 NDo=     1
 LinEq1:  Iter= 20 NonCon=     1 RMS=8.66D-07 Max=1.49D-04 NDo=     1
 LinEq1:  Iter= 21 NonCon=     1 RMS=5.73D-07 Max=7.39D-05 NDo=     1
 LinEq1:  Iter= 22 NonCon=     1 RMS=4.80D-07 Max=7.21D-05 NDo=     1
 LinEq1:  Iter= 23 NonCon=     1 RMS=2.88D-07 Max=4.48D-05 NDo=     1
 LinEq1:  Iter= 24 NonCon=     1 RMS=2.27D-07 Max=3.06D-05 NDo=     1
 LinEq1:  Iter= 25 NonCon=     1 RMS=1.58D-07 Max=2.60D-05 NDo=     1
 LinEq1:  Iter= 26 NonCon=     1 RMS=1.03D-07 Max=2.24D-05 NDo=     1
 LinEq1:  Iter= 27 NonCon=     1 RMS=7.26D-08 Max=1.35D-05 NDo=     1
 LinEq1:  Iter= 28 NonCon=     1 RMS=5.76D-08 Max=1.17D-05 NDo=     1
 LinEq1:  Iter= 29 NonCon=     1 RMS=3.66D-08 Max=7.42D-06 NDo=     1
 LinEq1:  Iter= 30 NonCon=     1 RMS=2.69D-08 Max=4.35D-06 NDo=     1
 LinEq1:  Iter= 31 NonCon=     1 RMS=1.89D-08 Max=2.26D-06 NDo=     1
 LinEq1:  Iter= 32 NonCon=     1 RMS=1.30D-08 Max=1.17D-06 NDo=     1
 LinEq1:  Iter= 33 NonCon=     1 RMS=7.93D-09 Max=7.77D-07 NDo=     1
 LinEq1:  Iter= 34 NonCon=     1 RMS=5.33D-09 Max=7.39D-07 NDo=     1
 LinEq1:  Iter= 35 NonCon=     1 RMS=3.99D-09 Max=7.55D-07 NDo=     1
 LinEq1:  Iter= 36 NonCon=     1 RMS=2.82D-09 Max=6.75D-07 NDo=     1
 LinEq1:  Iter= 37 NonCon=     0 RMS=2.08D-09 Max=5.30D-07 NDo=     1
 Linear equations converged to 6.007D-08 6.007D-07 after    37 iterations.
     Accept linear search using points  1 and  2.
 LinEq1:  Iter=  0 NonCon=     1 RMS=3.19D-05 Max=1.62D-02 NDo=     1
 LinEq1:  Iter=  1 NonCon=     1 RMS=7.83D-05 Max=4.14D-02 NDo=     1
 LinEq1:  Iter=  2 NonCon=     1 RMS=2.50D-05 Max=9.72D-03 NDo=     1
 LinEq1:  Iter=  3 NonCon=     1 RMS=4.66D-05 Max=2.42D-02 NDo=     1
 LinEq1:  Iter=  4 NonCon=     1 RMS=1.25D-05 Max=4.82D-03 NDo=     1
 LinEq1:  Iter=  5 NonCon=     1 RMS=1.74D-05 Max=4.53D-03 NDo=     1
 LinEq1:  Iter=  6 NonCon=     1 RMS=7.67D-06 Max=1.70D-03 NDo=     1
 LinEq1:  Iter=  7 NonCon=     1 RMS=8.19D-06 Max=1.04D-03 NDo=     1
 LinEq1:  Iter=  8 NonCon=     1 RMS=5.52D-06 Max=9.90D-04 NDo=     1
 LinEq1:  Iter=  9 NonCon=     1 RMS=3.75D-06 Max=4.89D-04 NDo=     1
 LinEq1:  Iter= 10 NonCon=     1 RMS=2.25D-06 Max=3.13D-04 NDo=     1
 LinEq1:  Iter= 11 NonCon=     1 RMS=1.96D-06 Max=4.30D-04 NDo=     1
 LinEq1:  Iter= 12 NonCon=     1 RMS=1.36D-06 Max=2.39D-04 NDo=     1
 LinEq1:  Iter= 13 NonCon=     1 RMS=1.00D-06 Max=1.91D-04 NDo=     1
 LinEq1:  Iter= 14 NonCon=     1 RMS=6.40D-07 Max=1.11D-04 NDo=     1
 LinEq1:  Iter= 15 NonCon=     1 RMS=5.11D-07 Max=1.27D-04 NDo=     1
 LinEq1:  Iter= 16 NonCon=     1 RMS=3.53D-07 Max=9.06D-05 NDo=     1
 LinEq1:  Iter= 17 NonCon=     1 RMS=2.79D-07 Max=7.69D-05 NDo=     1
 LinEq1:  Iter= 18 NonCon=     1 RMS=2.01D-07 Max=4.81D-05 NDo=     1
 LinEq1:  Iter= 19 NonCon=     1 RMS=1.44D-07 Max=3.51D-05 NDo=     1
 LinEq1:  Iter= 20 NonCon=     1 RMS=9.53D-08 Max=1.71D-05 NDo=     1
 LinEq1:  Iter= 21 NonCon=     1 RMS=7.60D-08 Max=1.12D-05 NDo=     1
 LinEq1:  Iter= 22 NonCon=     1 RMS=5.41D-08 Max=7.30D-06 NDo=     1
 LinEq1:  Iter= 23 NonCon=     1 RMS=3.92D-08 Max=5.94D-06 NDo=     1
 LinEq1:  Iter= 24 NonCon=     1 RMS=2.74D-08 Max=3.99D-06 NDo=     1
 LinEq1:  Iter= 25 NonCon=     1 RMS=1.83D-08 Max=2.19D-06 NDo=     1
 LinEq1:  Iter= 26 NonCon=     1 RMS=1.24D-08 Max=1.64D-06 NDo=     1
 LinEq1:  Iter= 27 NonCon=     1 RMS=1.01D-08 Max=1.76D-06 NDo=     1
 LinEq1:  Iter= 28 NonCon=     1 RMS=6.46D-09 Max=9.53D-07 NDo=     1
 LinEq1:  Iter= 29 NonCon=     1 RMS=4.15D-09 Max=5.91D-07 NDo=     1
 LinEq1:  Iter= 30 NonCon=     1 RMS=3.09D-09 Max=5.10D-07 NDo=     1
 LinEq1:  Iter= 31 NonCon=     1 RMS=2.11D-09 Max=3.77D-07 NDo=     1
 LinEq1:  Iter= 32 NonCon=     1 RMS=1.35D-09 Max=2.92D-07 NDo=     1
 LinEq1:  Iter= 33 NonCon=     0 RMS=9.54D-10 Max=2.19D-07 NDo=     1
 Linear equations converged to 2.368D-08 2.368D-07 after    33 iterations.
     Minimum is close to point  2 DX=  4.66D-02 DF= -4.50D-09 DXR=  4.46D-02 DFR=  1.99D-03 which will be used.
 LinEq1:  Iter=  0 NonCon=     1 RMS=1.48D-06 Max=9.17D-04 NDo=     1
 LinEq1:  Iter=  1 NonCon=     1 RMS=2.60D-06 Max=1.55D-03 NDo=     1
 LinEq1:  Iter=  2 NonCon=     1 RMS=5.76D-07 Max=2.36D-04 NDo=     1
 LinEq1:  Iter=  3 NonCon=     1 RMS=1.40D-06 Max=8.26D-04 NDo=     1
 LinEq1:  Iter=  4 NonCon=     1 RMS=2.87D-07 Max=5.11D-05 NDo=     1
 LinEq1:  Iter=  5 NonCon=     1 RMS=4.09D-07 Max=1.39D-04 NDo=     1
 LinEq1:  Iter=  6 NonCon=     1 RMS=2.44D-07 Max=6.31D-05 NDo=     1
 LinEq1:  Iter=  7 NonCon=     1 RMS=2.44D-07 Max=8.04D-05 NDo=     1
 LinEq1:  Iter=  8 NonCon=     1 RMS=1.48D-07 Max=2.64D-05 NDo=     1
 LinEq1:  Iter=  9 NonCon=     1 RMS=9.21D-08 Max=1.59D-05 NDo=     1
 LinEq1:  Iter= 10 NonCon=     1 RMS=8.56D-08 Max=1.35D-05 NDo=     1
 LinEq1:  Iter= 11 NonCon=     1 RMS=5.77D-08 Max=1.60D-05 NDo=     1
 LinEq1:  Iter= 12 NonCon=     1 RMS=4.02D-08 Max=1.07D-05 NDo=     1
 LinEq1:  Iter= 13 NonCon=     1 RMS=2.54D-08 Max=5.81D-06 NDo=     1
 LinEq1:  Iter= 14 NonCon=     1 RMS=2.24D-08 Max=5.02D-06 NDo=     1
 LinEq1:  Iter= 15 NonCon=     1 RMS=1.38D-08 Max=2.90D-06 NDo=     1
 LinEq1:  Iter= 16 NonCon=     1 RMS=1.03D-08 Max=1.80D-06 NDo=     1
 LinEq1:  Iter= 17 NonCon=     1 RMS=7.49D-09 Max=1.42D-06 NDo=     1
 LinEq1:  Iter= 18 NonCon=     1 RMS=5.65D-09 Max=1.00D-06 NDo=     1
 LinEq1:  Iter= 19 NonCon=     1 RMS=4.00D-09 Max=6.54D-07 NDo=     1
 LinEq1:  Iter= 20 NonCon=     1 RMS=2.69D-09 Max=3.16D-07 NDo=     1
 LinEq1:  Iter= 21 NonCon=     1 RMS=1.74D-09 Max=2.23D-07 NDo=     1
 LinEq1:  Iter= 22 NonCon=     1 RMS=1.46D-09 Max=1.72D-07 NDo=     1
 LinEq1:  Iter= 23 NonCon=     1 RMS=9.07D-10 Max=1.55D-07 NDo=     1
 LinEq1:  Iter= 24 NonCon=     1 RMS=6.13D-10 Max=9.87D-08 NDo=     1
 LinEq1:  Iter= 25 NonCon=     1 RMS=3.67D-10 Max=6.74D-08 NDo=     1
 LinEq1:  Iter= 26 NonCon=     1 RMS=2.87D-10 Max=3.61D-08 NDo=     1
 LinEq1:  Iter= 27 NonCon=     1 RMS=2.14D-10 Max=2.86D-08 NDo=     1
 LinEq1:  Iter= 28 NonCon=     1 RMS=1.40D-10 Max=2.40D-08 NDo=     1
 LinEq1:  Iter= 29 NonCon=     1 RMS=7.57D-11 Max=8.97D-09 NDo=     1
 LinEq1:  Iter= 30 NonCon=     1 RMS=5.59D-11 Max=8.29D-09 NDo=     1
 LinEq1:  Iter= 31 NonCon=     0 RMS=4.41D-11 Max=6.42D-09 NDo=     1
 Linear equations converged to 6.908D-10 6.908D-09 after    31 iterations.
 SCF Done:  E(RB3LYP) =  -5333.29938061     a.u. after    7 cycles
            Convg  =    0.8751D-07                   156 Fock formations.
              S**2 =  0.0000                  -V/T =  2.0081
 SCF density gives NOpUse=  1 NOpAll=  1.
 Hyperfine terms turned off by default for NAtoms > 100.

 **********************************************************************

            Population analysis using the SCF density.

 **********************************************************************

 Orbital symmetries:
 BldTbl:  Degeneracy threshold= 1.00D-02
       Occupied  (A) (A) (A) (A) (A) (A) (A) (A) (A) (A) (A) (A)
                 (A) (A) (A) (A) (A) (A) (A) (A) (A) (A) (A) (A)
                 (A) (A) (A) (A) (A) (A) (A) (A) (A) (A) (A) (A)
                 (A) (A) (A) (A) (A) (A) (A) (A) (A) (A) (A) (A)
                 (A) (A) (A) (A) (A) (A) (A) (A) (A) (A) (A) (A)
                 (A) (A) (A) (A) (A) (A) (A) (A) (A) (A) (A) (A)
                 (A) (A) (A) (A) (A) (A) (A) (A) (A) (A) (A) (A)
                 (A) (A) (A) (A) (A) (A) (A) (A) (A) (A) (A) (A)
                 (A) (A) (A) (A) (A) (A) (A) (A) (A) (A) (A) (A)
                 (A) (A) (A) (A) (A) (A) (A) (A) (A) (A) (A) (A)
                 (A) (A) (A) (A) (A) (A) (A) (A) (A) (A) (A) (A)
                 (A) (A) (A) (A) (A) (A) (A) (A) (A) (A) (A) (A)
                 (A) (A) (A) (A) (A) (A) (A) (A) (A) (A) (A) (A)
                 (A) (A) (A) (A) (A) (A) (A) (A) (A) (A) (A) (A)
                 (A) (A) (A) (A) (A) (A) (A) (A) (A) (A) (A) (A)
                 (A) (A) (A) (A) (A) (A) (A) (A) (A) (A) (A) (A)
                 (A) (A) (A) (A) (A) (A) (A) (A) (A) (A) (A) (A)
                 (A) (A) (A) (A) (A) (A) (A) (A) (A) (A) (A) (A)
                 (A) (A) (A) (A) (A) (A) (A) (A) (A) (A) (A) (A)
                 (A) (A) (A) (A) (A) (A) (A) (A) (A) (A) (A) (A)
                 (A) (A) (A) (A) (A) (A) (A) (A) (A) (A) (A) (A)
                 (A) (A) (A) (A) (A) (A) (A) (A) (A) (A) (A) (A)
                 (A) (A) (A) (A) (A) (A) (A) (A) (A) (A) (A) (A)
                 (A) (A) (A) (A) (A) (A) (A) (A) (A) (A) (A) (A)
                 (A) (A) (A) (A) (A) (A) (A) (A) (A) (A) (A) (A)
                 (A) (A) (A) (A) (A) (A) (A) (A) (A) (A) (A) (A)
                 (A) (A) (A) (A) (A) (A) (A) (A) (A) (A) (A) (A)
                 (A) (A) (A) (A) (A) (A) (A) (A) (A) (A) (A) (A)
                 (A) (A) (A) (A) (A) (A) (A) (A) (A) (A) (A) (A)
                 (A) (A) (A) (A) (A) (A) (A) (A) (A) (A)
       Virtual   (A) (A) (A) (A) (A) (A) (A) (A) (A) (A) (A) (A)
                 (A) (A) (A) (A) (A) (A) (A) (A) (A) (A) (A) (A)
                 (A) (A) (A) (A) (A) (A) (A) (A) (A) (A) (A) (A)
                 (A) (A) (A) (A) (A) (A) (A) (A) (A) (A) (A) (A)
                 (A) (A) (A) (A) (A) (A) (A) (A) (A) (A) (A) (A)
                 (A) (A) (A) (A) (A) (A) (A) (A) (A) (A) (A) (A)
                 (A) (A) (A) (A) (A) (A) (A) (A) (A) (A) (A) (A)
                 (A) (A) (A) (A) (A) (A) (A) (A) (A) (A) (A) (A)
                 (A) (A) (A) (A) (A) (A) (A) (A) (A) (A) (A) (A)
                 (A) (A) (A) (A) (A) (A) (A) (A) (A) (A) (A) (A)
                 (A) (A) (A) (A) (A) (A) (A) (A) (A) (A) (A) (A)
                 (A) (A) (A) (A) (A) (A) (A) (A) (A) (A) (A) (A)
                 (A) (A) (A) (A) (A) (A) (A) (A) (A) (A) (A) (A)
                 (A) (A) (A) (A) (A) (A) (A) (A) (A) (A) (A) (A)
                 (A) (A) (A) (A) (A) (A) (A) (A) (A) (A) (A) (A)
                 (A) (A) (A) (A) (A) (A) (A) (A) (A) (A) (A) (A)
                 (A) (A) (A) (A) (A) (A) (A) (A) (A) (A) (A) (A)
                 (A) (A) (A) (A) (A) (A) (A) (A) (A) (A) (A) (A)
                 (A) (A) (A) (A) (A) (A) (A) (A) (A) (A) (A) (A)
                 (A) (A) (A) (A) (A) (A) (A) (A) (A) (A) (A) (A)
                 (A) (A) (A) (A) (A) (A) (A) (A) (A) (A) (A) (A)
                 (A) (A) (A) (A) (A) (A) (A) (A) (A) (A) (A) (A)
                 (A) (A) (A) (A) (A) (A) (A) (A) (A) (A) (A) (A)
                 (A) (A) (A) (A) (A) (A) (A) (A) (A) (A) (A) (A)
                 (A) (A) (A) (A) (A) (A) (A) (A) (A) (A) (A) (A)
                 (A) (A) (A) (A) (A) (A) (A) (A) (A) (A) (A) (A)
                 (A) (A) (A) (A) (A) (A) (A) (A) (A) (A) (A) (A)
                 (A) (A) (A) (A) (A) (A) (A) (A) (A) (A) (A) (A)
                 (A) (A) (A) (A) (A) (A) (A) (A) (A) (A) (A) (A)
                 (A) (A) (A) (A) (A) (A) (A) (A) (A) (A) (A) (A)
                 (A) (A) (A) (A) (A) (A) (A) (A) (A) (A) (A) (A)
                 (A) (A) (A) (A) (A) (A) (A) (A) (A) (A) (A) (A)
                 (A) (A) (A) (A) (A) (A) (A) (A) (A) (A) (A) (A)
                 (A) (A) (A) (A) (A) (A) (A) (A) (A) (A) (A) (A)
                 (A) (A) (A) (A) (A) (A) (A) (A) (A) (A) (A) (A)
                 (A) (A) (A) (A) (A) (A) (A) (A) (A) (A) (A) (A)
                 (A) (A) (A) (A) (A) (A) (A) (A) (A) (A) (A) (A)
                 (A) (A) (A) (A) (A) (A) (A) (A) (A) (A) (A) (A)
                 (A) (A) (A) (A) (A) (A) (A) (A) (A) (A) (A) (A)
                 (A) (A) (A) (A) (A) (A) (A) (A) (A) (A) (A) (A)
                 (A) (A) (A) (A) (A) (A) (A) (A) (A) (A) (A) (A)
                 (A) (A) (A) (A) (A) (A) (A) (A) (A) (A) (A) (A)
                 (A) (A) (A) (A) (A) (A) (A) (A) (A) (A) (A) (A)
                 (A) (A) (A) (A) (A) (A) (A) (A) (A) (A) (A) (A)
                 (A) (A) (A) (A) (A) (A) (A) (A) (A) (A) (A) (A)
                 (A) (A) (A) (A) (A) (A) (A) (A) (A) (A) (A) (A)
                 (A) (A) (A) (A) (A) (A) (A) (A) (A) (A) (A) (A)
                 (A) (A) (A) (A) (A) (A) (A) (A) (A) (A) (A) (A)
                 (A) (A) (A) (A) (A) (A) (A) (A) (A) (A) (A) (A)
                 (A) (A) (A) (A) (A) (A) (A) (A) (A) (A) (A) (A)
                 (A) (A) (A) (A) (A) (A) (A) (A) (A) (A) (A) (A)
                 (A) (A) (A) (A) (A) (A) (A) (A) (A) (A) (A) (A)
                 (A) (A) (A) (A) (A) (A) (A) (A) (A) (A) (A) (A)
                 (A) (A) (A) (A) (A) (A) (A) (A) (A) (A) (A) (A)
                 (A) (A) (A) (A) (A) (A) (A) (A) (A) (A) (A) (A)
                 (A) (A) (A) (A) (A) (A) (A) (A) (A) (A) (A) (A)
                 (A) (A) (A) (A) (A) (A) (A) (A) (A) (A) (A) (A)
                 (A) (A) (A) (A) (A) (A) (A) (A) (A) (A) (A) (A)
                 (A) (A) (A) (A) (A) (A) (A) (A) (A) (A) (A) (A)
                 (A) (A) (A) (A) (A) (A) (A) (A) (A) (A) (A) (A)
                 (A) (A) (A) (A) (A) (A) (A) (A) (A) (A) (A) (A)
                 (A) (A) (A) (A) (A) (A) (A) (A) (A) (A) (A) (A)
                 (A) (A) (A) (A) (A) (A) (A) (A) (A) (A) (A) (A)
                 (A) (A) (A) (A) (A) (A) (A) (A) (A) (A) (A) (A)
                 (A) (A) (A) (A) (A) (A) (A) (A) (A) (A) (A) (A)
                 (A) (A) (A) (A) (A) (A) (A) (A) (A) (A) (A) (A)
                 (A) (A) (A) (A) (A) (A) (A) (A) (A) (A) (A) (A)
                 (A) (A) (A) (A) (A) (A) (A) (A) (A) (A) (A) (A)
                 (A) (A) (A) (A) (A) (A) (A) (A) (A) (A) (A) (A)
                 (A) (A) (A) (A) (A) (A) (A) (A) (A) (A) (A) (A)
                 (A) (A) (A) (A) (A) (A) (A) (A) (A) (A) (A) (A)
                 (A) (A) (A) (A) (A) (A) (A) (A) (A) (A) (A) (A)
                 (A) (A) (A) (A) (A) (A) (A) (A) (A) (A) (A) (A)
                 (A) (A) (A) (A) (A) (A) (A) (A) (A) (A) (A) (A)
                 (A) (A) (A) (A) (A) (A) (A) (A) (A) (A) (A) (A)
                 (A) (A) (A) (A) (A) (A) (A) (A) (A) (A) (A) (A)
                 (A) (A) (A) (A) (A) (A) (A) (A) (A) (A) (A) (A)
                 (A) (A) (A) (A) (A) (A) (A) (A) (A) (A) (A) (A)
                 (A) (A) (A) (A) (A) (A) (A) (A) (A) (A) (A) (A)
                 (A) (A) (A) (A) (A) (A) (A) (A) (A) (A) (A) (A)
                 (A) (A) (A) (A) (A) (A) (A) (A) (A) (A) (A) (A)
                 (A) (A) (A) (A) (A) (A) (A) (A) (A) (A) (A) (A)
                 (A) (A) (A) (A) (A) (A) (A) (A) (A) (A) (A) (A)
                 (A) (A) (A) (A) (A) (A) (A) (A) (A) (A) (A) (A)
                 (A) (A) (A) (A) (A) (A) (A) (A) (A) (A) (A) (A)
                 (A) (A) (A) (A) (A) (A) (A) (A) (A) (A) (A) (A)
                 (A) (A) (A) (A) (A) (A) (A) (A) (A) (A) (A) (A)
                 (A) (A) (A) (A) (A) (A) (A) (A) (A) (A) (A) (A)
                 (A) (A) (A) (A) (A) (A) (A) (A) (A) (A) (A) (A)
                 (A) (A) (A) (A) (A) (A) (A) (A) (A) (A) (A) (A)
                 (A) (A) (A) (A) (A) (A) (A) (A) (A) (A) (A) (A)
                 (A) (A) (A) (A) (A) (A) (A) (A) (A) (A) (A) (A)
                 (A) (A) (A) (A) (A) (A) (A) (A) (A) (A) (A) (A)
                 (A) (A) (A) (A) (A) (A) (A) (A) (A) (A) (A) (A)
                 (A) (A) (A) (A) (A) (A) (A) (A) (A) (A) (A) (A)
                 (A) (A) (A) (A) (A) (A) (A) (A) (A) (A) (A) (A)
                 (A) (A) (A) (A) (A) (A) (A) (A) (A) (A) (A) (A)
                 (A) (A) (A) (A) (A) (A) (A) (A) (A) (A) (A) (A)
                 (A) (A) (A) (A) (A) (A) (A) (A) (A) (A) (A) (A)
                 (A) (A) (A) (A) (A) (A) (A) (A) (A) (A) (A) (A)
                 (A) (A) (A) (A) (A) (A) (A) (A) (A) (A) (A) (A)
                 (A) (A) (A) (A) (A) (A) (A) (A) (A) (A) (A) (A)
                 (A) (A) (A) (A) (A) (A) (A) (A) (A) (A) (A) (A)
                 (A) (A) (A) (A) (A) (A) (A) (A) (A) (A) (A) (A)
                 (A) (A) (A) (A) (A) (A) (A) (A) (A) (A) (A) (A)
                 (A) (A) (A) (A) (A) (A) (A) (A) (A) (A) (A) (A)
                 (A) (A) (A) (A) (A) (A) (A) (A) (A) (A) (A) (A)
                 (A) (A) (A) (A) (A) (A) (A) (A) (A) (A) (A) (A)
                 (A) (A) (A) (A) (A) (A) (A) (A) (A) (A) (A) (A)
                 (A) (A) (A) (A) (A) (A) (A) (A) (A) (A) (A) (A)
                 (A) (A) (A) (A) (A) (A) (A) (A) (A) (A) (A) (A)
                 (A) (A) (A) (A) (A) (A) (A) (A) (A) (A) (A) (A)
                 (A) (A) (A) (A) (A) (A) (A) (A) (A) (A) (A) (A)
                 (A) (A) (A)
 The electronic state is 1-A.
 Alpha  occ. eigenvalues -- -145.48179 -19.17906 -19.16766 -19.15514 -19.12292
 Alpha  occ. eigenvalues --  -19.12182 -19.11310 -19.11221 -19.09056 -19.09010
 Alpha  occ. eigenvalues --  -19.08237 -19.07968 -19.06970 -19.06789 -19.05698
 Alpha  occ. eigenvalues --  -19.05062 -19.04819 -19.04497 -19.03736 -19.03106
 Alpha  occ. eigenvalues --  -19.02721 -19.00402 -18.96563 -18.95407 -15.54040
 Alpha  occ. eigenvalues --  -14.56614 -14.38666 -14.38028 -14.37655 -14.37504
 Alpha  occ. eigenvalues --  -14.36009 -14.35517 -14.35506 -14.34699 -14.32960
 Alpha  occ. eigenvalues --  -14.32149 -14.31665 -14.30801 -14.30657 -14.29586
 Alpha  occ. eigenvalues --  -12.67633 -12.67611 -12.67585 -10.34161 -10.30694
 Alpha  occ. eigenvalues --  -10.30512 -10.30197 -10.29410 -10.28230 -10.28042
 Alpha  occ. eigenvalues --  -10.27091 -10.26949 -10.26639 -10.26212 -10.25930
 Alpha  occ. eigenvalues --  -10.25811 -10.25573 -10.25528 -10.25454 -10.25037
 Alpha  occ. eigenvalues --  -10.24880 -10.24574 -10.23995 -10.23751 -10.23507
 Alpha  occ. eigenvalues --  -10.23424 -10.22911 -10.22778 -10.22285 -10.21955
 Alpha  occ. eigenvalues --  -10.21927 -10.21660 -10.21654 -10.21556 -10.20991
 Alpha  occ. eigenvalues --  -10.20949 -10.20735 -10.20607 -10.20487 -10.20429
 Alpha  occ. eigenvalues --  -10.20428 -10.20238 -10.19851 -10.19114 -10.18908
 Alpha  occ. eigenvalues --  -10.18697 -10.18250 -10.18174 -10.17830 -10.17254
 Alpha  occ. eigenvalues --  -10.16417 -10.15944 -10.15422 -10.14004 -10.13361
 Alpha  occ. eigenvalues --  -10.13240 -10.12743  -1.90526  -1.17816  -1.17654
 Alpha  occ. eigenvalues --   -1.17324  -1.12582  -1.06126  -1.05847  -1.05214
 Alpha  occ. eigenvalues --   -1.04542  -1.04243  -1.03454  -1.02634  -1.02086
 Alpha  occ. eigenvalues --   -1.01936  -1.01488  -1.01085  -1.00584  -1.00069
 Alpha  occ. eigenvalues --   -0.98785  -0.98463  -0.98115  -0.97692  -0.96807
 Alpha  occ. eigenvalues --   -0.95686  -0.95498  -0.95242  -0.94172  -0.93735
 Alpha  occ. eigenvalues --   -0.93086  -0.92180  -0.91196  -0.90851  -0.90620
 Alpha  occ. eigenvalues --   -0.89416  -0.88972  -0.88467  -0.88023  -0.87944
 Alpha  occ. eigenvalues --   -0.87611  -0.87232  -0.86410  -0.86072  -0.85775
 Alpha  occ. eigenvalues --   -0.81955  -0.81400  -0.80931  -0.80069  -0.80040
 Alpha  occ. eigenvalues --   -0.79086  -0.77708  -0.76727  -0.76190  -0.75421
 Alpha  occ. eigenvalues --   -0.75315  -0.75028  -0.74587  -0.73553  -0.72795
 Alpha  occ. eigenvalues --   -0.72689  -0.71663  -0.71619  -0.70976  -0.70489
 Alpha  occ. eigenvalues --   -0.70092  -0.69256  -0.69050  -0.68446  -0.67410
 Alpha  occ. eigenvalues --   -0.66958  -0.66618  -0.66358  -0.65053  -0.63387
 Alpha  occ. eigenvalues --   -0.63220  -0.62665  -0.62529  -0.62324  -0.61819
 Alpha  occ. eigenvalues --   -0.61055  -0.60849  -0.60420  -0.60154  -0.59997
 Alpha  occ. eigenvalues --   -0.59940  -0.59072  -0.58840  -0.57967  -0.57816
 Alpha  occ. eigenvalues --   -0.57476  -0.57421  -0.57324  -0.56313  -0.56073
 Alpha  occ. eigenvalues --   -0.55882  -0.55817  -0.55499  -0.54780  -0.54583
 Alpha  occ. eigenvalues --   -0.54260  -0.53831  -0.53660  -0.53034  -0.53005
 Alpha  occ. eigenvalues --   -0.52633  -0.52502  -0.52174  -0.51736  -0.51446
 Alpha  occ. eigenvalues --   -0.51218  -0.50937  -0.50616  -0.50425  -0.49901
 Alpha  occ. eigenvalues --   -0.49612  -0.49462  -0.49038  -0.48901  -0.48781
 Alpha  occ. eigenvalues --   -0.48519  -0.48385  -0.47950  -0.47725  -0.47457
 Alpha  occ. eigenvalues --   -0.47314  -0.46929  -0.46561  -0.46196  -0.46095
 Alpha  occ. eigenvalues --   -0.45992  -0.45654  -0.45281  -0.45002  -0.44933
 Alpha  occ. eigenvalues --   -0.44559  -0.44437  -0.44400  -0.44158  -0.44100
 Alpha  occ. eigenvalues --   -0.43972  -0.43730  -0.43580  -0.43563  -0.43475
 Alpha  occ. eigenvalues --   -0.43279  -0.43228  -0.43084  -0.42969  -0.42899
 Alpha  occ. eigenvalues --   -0.42632  -0.42501  -0.42215  -0.41891  -0.41821
 Alpha  occ. eigenvalues --   -0.41783  -0.41517  -0.41450  -0.41301  -0.41140
 Alpha  occ. eigenvalues --   -0.40829  -0.40684  -0.40677  -0.40418  -0.40217
 Alpha  occ. eigenvalues --   -0.39902  -0.39729  -0.39621  -0.39554  -0.39474
 Alpha  occ. eigenvalues --   -0.39428  -0.39210  -0.39085  -0.38867  -0.38737
 Alpha  occ. eigenvalues --   -0.38696  -0.38588  -0.38455  -0.38266  -0.38219
 Alpha  occ. eigenvalues --   -0.38123  -0.38099  -0.37868  -0.37769  -0.37558
 Alpha  occ. eigenvalues --   -0.37499  -0.37195  -0.37150  -0.36857  -0.36725
 Alpha  occ. eigenvalues --   -0.36524  -0.36250  -0.36058  -0.35824  -0.35722
 Alpha  occ. eigenvalues --   -0.35589  -0.35547  -0.35405  -0.35286  -0.35085
 Alpha  occ. eigenvalues --   -0.34789  -0.34729  -0.34656  -0.34603  -0.34517
 Alpha  occ. eigenvalues --   -0.34234  -0.33884  -0.33845  -0.33364  -0.32973
 Alpha  occ. eigenvalues --   -0.32246  -0.32158  -0.32066  -0.32045  -0.31644
 Alpha  occ. eigenvalues --   -0.31440  -0.31289  -0.30997  -0.30525  -0.30335
 Alpha  occ. eigenvalues --   -0.30311  -0.30026  -0.29821  -0.29749  -0.29292
 Alpha  occ. eigenvalues --   -0.27900  -0.27670  -0.27618  -0.27450  -0.26977
 Alpha  occ. eigenvalues --   -0.26836  -0.26708  -0.26500  -0.26198  -0.25996
 Alpha  occ. eigenvalues --   -0.25586  -0.24965  -0.24945  -0.24845  -0.24776
 Alpha  occ. eigenvalues --   -0.24660  -0.23963  -0.23835  -0.23457  -0.23199
 Alpha  occ. eigenvalues --   -0.23111  -0.22644  -0.21913  -0.21676  -0.21430
 Alpha  occ. eigenvalues --   -0.21223  -0.20930  -0.20729  -0.20368  -0.19655
 Alpha  occ. eigenvalues --   -0.19241  -0.19229  -0.18950  -0.18499  -0.16026
 Alpha  occ. eigenvalues --   -0.14648  -0.13336  -0.10725
 Alpha virt. eigenvalues --   -0.11647  -0.09469  -0.03435  -0.02872  -0.02599
 Alpha virt. eigenvalues --   -0.02029  -0.01406  -0.01094  -0.00120  -0.00022
 Alpha virt. eigenvalues --    0.00089   0.00197   0.00718   0.00853   0.01391
 Alpha virt. eigenvalues --    0.01685   0.01773   0.01832   0.02245   0.02920
 Alpha virt. eigenvalues --    0.03054   0.03062   0.03241   0.03601   0.03673
 Alpha virt. eigenvalues --    0.03836   0.04155   0.04545   0.04623   0.04812
 Alpha virt. eigenvalues --    0.05210   0.05482   0.05560   0.06196   0.06401
 Alpha virt. eigenvalues --    0.06486   0.06683   0.06757   0.06896   0.07032
 Alpha virt. eigenvalues --    0.07542   0.07797   0.07881   0.07982   0.08342
 Alpha virt. eigenvalues --    0.08409   0.08801   0.09230   0.09541   0.09644
 Alpha virt. eigenvalues --    0.09849   0.10146   0.10436   0.10461   0.10600
 Alpha virt. eigenvalues --    0.10777   0.10925   0.11266   0.11394   0.11522
 Alpha virt. eigenvalues --    0.11667   0.11856   0.12119   0.12190   0.12346
 Alpha virt. eigenvalues --    0.12426   0.12787   0.12859   0.12918   0.13228
 Alpha virt. eigenvalues --    0.13311   0.13408   0.13571   0.13695   0.13741
 Alpha virt. eigenvalues --    0.13963   0.14313   0.14484   0.14582   0.14817
 Alpha virt. eigenvalues --    0.14837   0.15044   0.15287   0.15419   0.15463
 Alpha virt. eigenvalues --    0.15943   0.16164   0.16521   0.16574   0.16648
 Alpha virt. eigenvalues --    0.16834   0.17011   0.17045   0.17373   0.17616
 Alpha virt. eigenvalues --    0.17881   0.17969   0.18267   0.18454   0.18629
 Alpha virt. eigenvalues --    0.18758   0.18963   0.19116   0.19155   0.19413
 Alpha virt. eigenvalues --    0.19571   0.19653   0.19934   0.20078   0.20277
 Alpha virt. eigenvalues --    0.20469   0.20558   0.20849   0.21154   0.21367
 Alpha virt. eigenvalues --    0.21569   0.21644   0.21895   0.22092   0.22285
 Alpha virt. eigenvalues --    0.22658   0.22874   0.22930   0.23237   0.23505
 Alpha virt. eigenvalues --    0.23733   0.23835   0.24091   0.24156   0.24462
 Alpha virt. eigenvalues --    0.24549   0.24888   0.25058   0.25310   0.25547
 Alpha virt. eigenvalues --    0.25798   0.25977   0.26096   0.26296   0.26367
 Alpha virt. eigenvalues --    0.26554   0.27347   0.27396   0.27566   0.27815
 Alpha virt. eigenvalues --    0.27955   0.28245   0.28425   0.28689   0.28852
 Alpha virt. eigenvalues --    0.28993   0.29221   0.29610   0.30012   0.30133
 Alpha virt. eigenvalues --    0.30287   0.30498   0.30778   0.30994   0.31335
 Alpha virt. eigenvalues --    0.31486   0.31680   0.31815   0.31903   0.32298
 Alpha virt. eigenvalues --    0.32703   0.33041   0.33083   0.33748   0.34017
 Alpha virt. eigenvalues --    0.34377   0.34716   0.34812   0.34975   0.35046
 Alpha virt. eigenvalues --    0.35487   0.35677   0.35977   0.36314   0.36444
 Alpha virt. eigenvalues --    0.36863   0.37144   0.37471   0.37702   0.37807
 Alpha virt. eigenvalues --    0.38349   0.38563   0.39046   0.39333   0.39617
 Alpha virt. eigenvalues --    0.39712   0.39864   0.40152   0.40429   0.40595
 Alpha virt. eigenvalues --    0.40771   0.41169   0.41533   0.41620   0.41697
 Alpha virt. eigenvalues --    0.41934   0.41950   0.42141   0.42388   0.42450
 Alpha virt. eigenvalues --    0.42836   0.42993   0.43295   0.43409   0.43636
 Alpha virt. eigenvalues --    0.43722   0.44369   0.44481   0.44596   0.44760
 Alpha virt. eigenvalues --    0.45094   0.45247   0.45676   0.45797   0.45903
 Alpha virt. eigenvalues --    0.46057   0.46140   0.46533   0.46747   0.46859
 Alpha virt. eigenvalues --    0.47017   0.47256   0.47323   0.47704   0.47809
 Alpha virt. eigenvalues --    0.48220   0.49087   0.49264   0.49330   0.49449
 Alpha virt. eigenvalues --    0.49559   0.49758   0.50048   0.50184   0.50359
 Alpha virt. eigenvalues --    0.50637   0.50853   0.50927   0.51159   0.51427
 Alpha virt. eigenvalues --    0.51492   0.51610   0.51763   0.51940   0.52024
 Alpha virt. eigenvalues --    0.52180   0.52302   0.52473   0.52549   0.52826
 Alpha virt. eigenvalues --    0.53282   0.53399   0.53554   0.53810   0.54293
 Alpha virt. eigenvalues --    0.54341   0.54469   0.54598   0.54719   0.54974
 Alpha virt. eigenvalues --    0.55145   0.55178   0.55349   0.55584   0.55684
 Alpha virt. eigenvalues --    0.55886   0.56212   0.56505   0.56672   0.56895
 Alpha virt. eigenvalues --    0.56932   0.57415   0.57437   0.57632   0.57907
 Alpha virt. eigenvalues --    0.57965   0.58008   0.58607   0.58673   0.58929
 Alpha virt. eigenvalues --    0.59114   0.59274   0.59476   0.59642   0.59894
 Alpha virt. eigenvalues --    0.59921   0.60046   0.60365   0.60439   0.60616
 Alpha virt. eigenvalues --    0.60723   0.60848   0.60898   0.61051   0.61322
 Alpha virt. eigenvalues --    0.61508   0.61684   0.61762   0.61835   0.61930
 Alpha virt. eigenvalues --    0.62054   0.62151   0.62223   0.62385   0.62448
 Alpha virt. eigenvalues --    0.62648   0.62855   0.62904   0.63082   0.63151
 Alpha virt. eigenvalues --    0.63417   0.63515   0.63631   0.63743   0.64040
 Alpha virt. eigenvalues --    0.64062   0.64104   0.64311   0.64548   0.64635
 Alpha virt. eigenvalues --    0.64680   0.64763   0.64906   0.65057   0.65163
 Alpha virt. eigenvalues --    0.65185   0.65297   0.65436   0.65640   0.65828
 Alpha virt. eigenvalues --    0.65879   0.65952   0.66046   0.66083   0.66197
 Alpha virt. eigenvalues --    0.66280   0.66344   0.66426   0.66599   0.66668
 Alpha virt. eigenvalues --    0.66980   0.67067   0.67110   0.67180   0.67268
 Alpha virt. eigenvalues --    0.67445   0.67532   0.67561   0.67690   0.67810
 Alpha virt. eigenvalues --    0.67891   0.68079   0.68176   0.68302   0.68381
 Alpha virt. eigenvalues --    0.68521   0.68553   0.68626   0.68786   0.69040
 Alpha virt. eigenvalues --    0.69183   0.69400   0.69489   0.69630   0.69765
 Alpha virt. eigenvalues --    0.69859   0.70026   0.70209   0.70480   0.70662
 Alpha virt. eigenvalues --    0.70747   0.70825   0.70971   0.71175   0.71366
 Alpha virt. eigenvalues --    0.71455   0.71602   0.71890   0.72051   0.72155
 Alpha virt. eigenvalues --    0.72274   0.72338   0.72485   0.72540   0.72847
 Alpha virt. eigenvalues --    0.73194   0.73284   0.73459   0.73540   0.73603
 Alpha virt. eigenvalues --    0.73897   0.73972   0.74075   0.74313   0.74504
 Alpha virt. eigenvalues --    0.74576   0.74661   0.74761   0.75051   0.75268
 Alpha virt. eigenvalues --    0.75282   0.75489   0.75718   0.76032   0.76216
 Alpha virt. eigenvalues --    0.76257   0.76287   0.76495   0.76602   0.76726
 Alpha virt. eigenvalues --    0.77103   0.77285   0.77652   0.77734   0.78086
 Alpha virt. eigenvalues --    0.78636   0.78658   0.78834   0.78913   0.79251
 Alpha virt. eigenvalues --    0.79563   0.79635   0.80055   0.80283   0.80307
 Alpha virt. eigenvalues --    0.80710   0.80888   0.80912   0.81473   0.81615
 Alpha virt. eigenvalues --    0.81742   0.81819   0.82196   0.82384   0.82772
 Alpha virt. eigenvalues --    0.83079   0.83233   0.83692   0.83798   0.83936
 Alpha virt. eigenvalues --    0.83978   0.84114   0.84323   0.84598   0.84700
 Alpha virt. eigenvalues --    0.85537   0.85696   0.86150   0.86430   0.86679
 Alpha virt. eigenvalues --    0.86798   0.86910   0.87119   0.87489   0.87586
 Alpha virt. eigenvalues --    0.87879   0.88010   0.88518   0.88685   0.88756
 Alpha virt. eigenvalues --    0.89018   0.89499   0.89816   0.89878   0.90041
 Alpha virt. eigenvalues --    0.90320   0.90901   0.91727   0.91836   0.91996
 Alpha virt. eigenvalues --    0.92274   0.92737   0.92929   0.93167   0.93361
 Alpha virt. eigenvalues --    0.93374   0.93610   0.93745   0.93943   0.94808
 Alpha virt. eigenvalues --    0.95094   0.95232   0.95402   0.95671   0.95775
 Alpha virt. eigenvalues --    0.96325   0.96627   0.96802   0.97320   0.97413
 Alpha virt. eigenvalues --    0.97627   0.97949   0.98038   0.98718   0.98764
 Alpha virt. eigenvalues --    0.98858   0.99232   0.99369   0.99460   1.00607
 Alpha virt. eigenvalues --    1.00806   1.01065   1.01281   1.01624   1.01774
 Alpha virt. eigenvalues --    1.02106   1.02205   1.02378   1.02609   1.02916
 Alpha virt. eigenvalues --    1.03256   1.03802   1.04084   1.04150   1.04413
 Alpha virt. eigenvalues --    1.05246   1.05441   1.05520   1.05598   1.06102
 Alpha virt. eigenvalues --    1.06540   1.06653   1.07018   1.07227   1.07368
 Alpha virt. eigenvalues --    1.08042   1.08335   1.08564   1.08833   1.08970
 Alpha virt. eigenvalues --    1.09307   1.09468   1.09677   1.10035   1.10169
 Alpha virt. eigenvalues --    1.10616   1.10689   1.10708   1.11161   1.11451
 Alpha virt. eigenvalues --    1.11623   1.12030   1.12303   1.12871   1.13139
 Alpha virt. eigenvalues --    1.13268   1.13631   1.14022   1.14187   1.14434
 Alpha virt. eigenvalues --    1.14700   1.14875   1.15534   1.15754   1.15895
 Alpha virt. eigenvalues --    1.16300   1.16572   1.16659   1.16836   1.17057
 Alpha virt. eigenvalues --    1.17508   1.17676   1.17948   1.18231   1.18463
 Alpha virt. eigenvalues --    1.18610   1.18790   1.19189   1.19580   1.19763
 Alpha virt. eigenvalues --    1.19948   1.20189   1.20358   1.20671   1.21009
 Alpha virt. eigenvalues --    1.21279   1.21374   1.21459   1.21623   1.21864
 Alpha virt. eigenvalues --    1.21991   1.22512   1.22667   1.22941   1.23050
 Alpha virt. eigenvalues --    1.23418   1.24016   1.24282   1.24492   1.24687
 Alpha virt. eigenvalues --    1.24921   1.25160   1.25248   1.25391   1.25599
 Alpha virt. eigenvalues --    1.25872   1.26116   1.26572   1.26708   1.27001
 Alpha virt. eigenvalues --    1.27315   1.27399   1.27657   1.27913   1.28011
 Alpha virt. eigenvalues --    1.28128   1.28674   1.28882   1.29103   1.29395
 Alpha virt. eigenvalues --    1.29799   1.30204   1.30429   1.30553   1.30856
 Alpha virt. eigenvalues --    1.31256   1.31378   1.31582   1.31778   1.32079
 Alpha virt. eigenvalues --    1.32547   1.33142   1.33458   1.33579   1.34038
 Alpha virt. eigenvalues --    1.34166   1.34687   1.34756   1.35548   1.35709
 Alpha virt. eigenvalues --    1.35992   1.36206   1.36499   1.36752   1.36979
 Alpha virt. eigenvalues --    1.37377   1.37417   1.38052   1.38207   1.38362
 Alpha virt. eigenvalues --    1.38833   1.38961   1.39077   1.39681   1.39740
 Alpha virt. eigenvalues --    1.39919   1.40169   1.40647   1.41160   1.41255
 Alpha virt. eigenvalues --    1.41707   1.42094   1.42136   1.42991   1.43155
 Alpha virt. eigenvalues --    1.43278   1.43480   1.43618   1.44117   1.44175
 Alpha virt. eigenvalues --    1.44314   1.44912   1.45338   1.46204   1.46262
 Alpha virt. eigenvalues --    1.46423   1.46695   1.46875   1.47023   1.47219
 Alpha virt. eigenvalues --    1.47636   1.47853   1.47961   1.48355   1.48870
 Alpha virt. eigenvalues --    1.49344   1.49577   1.49915   1.49975   1.50436
 Alpha virt. eigenvalues --    1.50596   1.50921   1.50960   1.51263   1.51791
 Alpha virt. eigenvalues --    1.52206   1.52291   1.52502   1.52896   1.53153
 Alpha virt. eigenvalues --    1.53373   1.53605   1.53806   1.54225   1.54701
 Alpha virt. eigenvalues --    1.54883   1.55137   1.55452   1.56037   1.56271
 Alpha virt. eigenvalues --    1.56698   1.56962   1.57290   1.57435   1.57664
 Alpha virt. eigenvalues --    1.57837   1.58043   1.58566   1.58761   1.59375
 Alpha virt. eigenvalues --    1.59728   1.59983   1.60186   1.60333   1.60534
 Alpha virt. eigenvalues --    1.60763   1.60967   1.61550   1.61897   1.62074
 Alpha virt. eigenvalues --    1.62197   1.62837   1.63563   1.63996   1.64884
 Alpha virt. eigenvalues --    1.65027   1.65145   1.65686   1.66235   1.66401
 Alpha virt. eigenvalues --    1.66669   1.66949   1.67000   1.67461   1.67575
 Alpha virt. eigenvalues --    1.67829   1.68193   1.68349   1.68829   1.69291
 Alpha virt. eigenvalues --    1.69818   1.70006   1.70228   1.70357   1.70678
 Alpha virt. eigenvalues --    1.70965   1.71260   1.71359   1.71518   1.71781
 Alpha virt. eigenvalues --    1.72013   1.72185   1.72325   1.72969   1.73162
 Alpha virt. eigenvalues --    1.73219   1.73462   1.73651   1.73720   1.74129
 Alpha virt. eigenvalues --    1.74307   1.74502   1.74574   1.74905   1.74938
 Alpha virt. eigenvalues --    1.75077   1.75448   1.75584   1.75694   1.75767
 Alpha virt. eigenvalues --    1.76020   1.76227   1.76403   1.76529   1.76640
 Alpha virt. eigenvalues --    1.76806   1.77172   1.77226   1.77293   1.77409
 Alpha virt. eigenvalues --    1.77798   1.77909   1.78378   1.78431   1.78532
 Alpha virt. eigenvalues --    1.78651   1.78773   1.78908   1.79008   1.79069
 Alpha virt. eigenvalues --    1.79327   1.79450   1.79730   1.79821   1.80085
 Alpha virt. eigenvalues --    1.80198   1.80356   1.80498   1.80630   1.80791
 Alpha virt. eigenvalues --    1.80956   1.81136   1.81561   1.81871   1.81962
 Alpha virt. eigenvalues --    1.82031   1.82379   1.82540   1.83036   1.83229
 Alpha virt. eigenvalues --    1.83347   1.83477   1.83636   1.83860   1.83934
 Alpha virt. eigenvalues --    1.84112   1.84317   1.84507   1.84800   1.84861
 Alpha virt. eigenvalues --    1.85111   1.85333   1.85527   1.85576   1.85660
 Alpha virt. eigenvalues --    1.86091   1.86190   1.86678   1.86709   1.86909
 Alpha virt. eigenvalues --    1.87060   1.87228   1.87587   1.87650   1.87819
 Alpha virt. eigenvalues --    1.88089   1.88248   1.88260   1.88394   1.88581
 Alpha virt. eigenvalues --    1.88731   1.89008   1.89142   1.89434   1.89516
 Alpha virt. eigenvalues --    1.89736   1.89988   1.90207   1.90514   1.90662
 Alpha virt. eigenvalues --    1.90905   1.91032   1.91257   1.91285   1.91761
 Alpha virt. eigenvalues --    1.91999   1.92166   1.92320   1.92591   1.92700
 Alpha virt. eigenvalues --    1.92996   1.93293   1.93515   1.93901   1.94017
 Alpha virt. eigenvalues --    1.94375   1.94652   1.94817   1.94867   1.95219
 Alpha virt. eigenvalues --    1.95261   1.95473   1.95545   1.96005   1.96089
 Alpha virt. eigenvalues --    1.96289   1.96728   1.96895   1.97507   1.97609
 Alpha virt. eigenvalues --    1.97718   1.98237   1.98288   1.98527   1.98575
 Alpha virt. eigenvalues --    1.98771   1.98897   1.99231   1.99472   1.99639
 Alpha virt. eigenvalues --    1.99880   2.00142   2.00188   2.00343   2.00944
 Alpha virt. eigenvalues --    2.01325   2.01806   2.01954   2.02336   2.02428
 Alpha virt. eigenvalues --    2.02786   2.03058   2.03296   2.03361   2.03715
 Alpha virt. eigenvalues --    2.03892   2.04031   2.04209   2.04426   2.04553
 Alpha virt. eigenvalues --    2.04884   2.05229   2.05303   2.05525   2.05883
 Alpha virt. eigenvalues --    2.06339   2.06464   2.06828   2.07272   2.07422
 Alpha virt. eigenvalues --    2.07582   2.07656   2.07916   2.08318   2.08406
 Alpha virt. eigenvalues --    2.08689   2.08746   2.09018   2.09311   2.09784
 Alpha virt. eigenvalues --    2.09928   2.10096   2.10481   2.10687   2.10920
 Alpha virt. eigenvalues --    2.11037   2.11114   2.11210   2.11590   2.11843
 Alpha virt. eigenvalues --    2.12061   2.12165   2.12331   2.12790   2.13017
 Alpha virt. eigenvalues --    2.13582   2.13667   2.14006   2.14202   2.14327
 Alpha virt. eigenvalues --    2.14698   2.14966   2.15336   2.15545   2.15821
 Alpha virt. eigenvalues --    2.15941   2.16091   2.16658   2.16879   2.17197
 Alpha virt. eigenvalues --    2.17373   2.17823   2.18113   2.18751   2.18928
 Alpha virt. eigenvalues --    2.18994   2.19201   2.19341   2.19746   2.19981
 Alpha virt. eigenvalues --    2.20362   2.20692   2.20754   2.21383   2.21860
 Alpha virt. eigenvalues --    2.22112   2.22214   2.22833   2.23021   2.23785
 Alpha virt. eigenvalues --    2.24018   2.24388   2.24710   2.24811   2.24972
 Alpha virt. eigenvalues --    2.25801   2.26030   2.26115   2.26333   2.26388
 Alpha virt. eigenvalues --    2.26666   2.27143   2.27543   2.28243   2.28672
 Alpha virt. eigenvalues --    2.29174   2.29690   2.29903   2.30604   2.30931
 Alpha virt. eigenvalues --    2.31262   2.31519   2.31729   2.32002   2.32388
 Alpha virt. eigenvalues --    2.32778   2.33285   2.33344   2.33426   2.33971
 Alpha virt. eigenvalues --    2.34636   2.34834   2.35226   2.35470   2.35612
 Alpha virt. eigenvalues --    2.35828   2.36208   2.36291   2.36671   2.37089
 Alpha virt. eigenvalues --    2.37526   2.37905   2.38096   2.38168   2.39144
 Alpha virt. eigenvalues --    2.39223   2.39664   2.39806   2.40053   2.40156
 Alpha virt. eigenvalues --    2.40596   2.40962   2.41270   2.41636   2.41733
 Alpha virt. eigenvalues --    2.42072   2.42311   2.42655   2.42909   2.43502
 Alpha virt. eigenvalues --    2.43629   2.43876   2.44018   2.44558   2.45228
 Alpha virt. eigenvalues --    2.45552   2.46115   2.46668   2.47171   2.47250
 Alpha virt. eigenvalues --    2.47749   2.48211   2.48228   2.48434   2.49255
 Alpha virt. eigenvalues --    2.49386   2.49716   2.50238   2.50582   2.51142
 Alpha virt. eigenvalues --    2.51275   2.51865   2.52048   2.52146   2.52381
 Alpha virt. eigenvalues --    2.52897   2.53099   2.53812   2.54138   2.54218
 Alpha virt. eigenvalues --    2.54310   2.54716   2.54802   2.55468   2.55780
 Alpha virt. eigenvalues --    2.56042   2.56345   2.56560   2.56775   2.57502
 Alpha virt. eigenvalues --    2.57939   2.58183   2.58459   2.58760   2.58939
 Alpha virt. eigenvalues --    2.59245   2.59457   2.59655   2.60153   2.60187
 Alpha virt. eigenvalues --    2.60404   2.60488   2.60649   2.60815   2.60974
 Alpha virt. eigenvalues --    2.61766   2.62083   2.62887   2.63061   2.63892
 Alpha virt. eigenvalues --    2.64109   2.64221   2.64366   2.64711   2.65178
 Alpha virt. eigenvalues --    2.65252   2.65393   2.65817   2.66152   2.66203
 Alpha virt. eigenvalues --    2.66732   2.66974   2.67697   2.67838   2.68461
 Alpha virt. eigenvalues --    2.68644   2.69092   2.70035   2.70442   2.70720
 Alpha virt. eigenvalues --    2.71060   2.71184   2.71268   2.71530   2.71777
 Alpha virt. eigenvalues --    2.72051   2.72119   2.72481   2.72524   2.72779
 Alpha virt. eigenvalues --    2.72946   2.72997   2.73087   2.73969   2.74355
 Alpha virt. eigenvalues --    2.74696   2.74821   2.75032   2.75516   2.75729
 Alpha virt. eigenvalues --    2.75796   2.76086   2.76398   2.76565   2.76986
 Alpha virt. eigenvalues --    2.77159   2.77167   2.77265   2.77742   2.78058
 Alpha virt. eigenvalues --    2.78406   2.78521   2.78749   2.78985   2.79299
 Alpha virt. eigenvalues --    2.79491   2.79932   2.80428   2.80654   2.80745
 Alpha virt. eigenvalues --    2.81159   2.81669   2.81847   2.81877   2.81984
 Alpha virt. eigenvalues --    2.82281   2.82707   2.82796   2.82837   2.83049
 Alpha virt. eigenvalues --    2.83421   2.83469   2.84112   2.84177   2.84883
 Alpha virt. eigenvalues --    2.85036   2.85252   2.85359   2.86103   2.86187
 Alpha virt. eigenvalues --    2.86649   2.86735   2.87157   2.87296   2.87469
 Alpha virt. eigenvalues --    2.87626   2.87835   2.88678   2.89142   2.89220
 Alpha virt. eigenvalues --    2.89789   2.90786   2.90873   2.90957   2.91041
 Alpha virt. eigenvalues --    2.91108   2.91430   2.91729   2.91758   2.92049
 Alpha virt. eigenvalues --    2.92452   2.93066   2.93211   2.93768   2.94034
 Alpha virt. eigenvalues --    2.94225   2.94396   2.94606   2.94862   2.95099
 Alpha virt. eigenvalues --    2.95355   2.95543   2.95868   2.96209   2.96330
 Alpha virt. eigenvalues --    2.96485   2.97058   2.97193   2.97650   2.97807
 Alpha virt. eigenvalues --    2.98147   2.98545   2.98762   2.99022   2.99285
 Alpha virt. eigenvalues --    2.99491   2.99960   3.00054   3.00795   3.01418
 Alpha virt. eigenvalues --    3.01524   3.01767   3.02296   3.02845   3.03414
 Alpha virt. eigenvalues --    3.03538   3.03776   3.03946   3.04222   3.05033
 Alpha virt. eigenvalues --    3.05302   3.05704   3.05962   3.06331   3.07255
 Alpha virt. eigenvalues --    3.08041   3.08393   3.09021   3.09158   3.09861
 Alpha virt. eigenvalues --    3.10286   3.10813   3.11079   3.11369   3.11697
 Alpha virt. eigenvalues --    3.12547   3.12600   3.13242   3.13827   3.14058
 Alpha virt. eigenvalues --    3.14139   3.14491   3.15347   3.15530   3.15869
 Alpha virt. eigenvalues --    3.16006   3.16603   3.17508   3.17517   3.18334
 Alpha virt. eigenvalues --    3.18638   3.18802   3.19111   3.19158   3.19356
 Alpha virt. eigenvalues --    3.19468   3.19579   3.19932   3.20646   3.21065
 Alpha virt. eigenvalues --    3.21170   3.22103   3.22528   3.22664   3.23728
 Alpha virt. eigenvalues --    3.23855   3.24418   3.24667   3.24993   3.25968
 Alpha virt. eigenvalues --    3.26419   3.26758   3.27293   3.27573   3.27938
 Alpha virt. eigenvalues --    3.28170   3.29533   3.30108   3.30664   3.31442
 Alpha virt. eigenvalues --    3.31675   3.32106   3.33480   3.33742   3.34185
 Alpha virt. eigenvalues --    3.34320   3.35153   3.38416   3.38585   3.41270
 Alpha virt. eigenvalues --    3.43013   3.45421   3.46197   3.47925   3.48460
 Alpha virt. eigenvalues --    3.51316   3.51695   3.53540   3.54826   3.54882
 Alpha virt. eigenvalues --    3.56322   3.56597   3.56663   3.57263   3.57770
 Alpha virt. eigenvalues --    3.58280   3.58546   3.60898   3.61772   3.62691
 Alpha virt. eigenvalues --    3.63474   3.66502   3.66754   3.67404   3.67643
 Alpha virt. eigenvalues --    3.67917   3.68481   3.68847   3.69518   3.70758
 Alpha virt. eigenvalues --    3.70869   3.70965   3.71232   3.72691   3.73841
 Alpha virt. eigenvalues --    3.74505   3.75139   3.75425   3.76165   3.76581
 Alpha virt. eigenvalues --    3.76992   3.77157   3.79945   3.87165
          Condensed to atoms (all electrons):
 Mulliken charges:
               1
     1  C    0.069199
     2  C   -0.037408
     3  O   -0.303654
     4  H    0.012890
     5  H    0.039982
     6  H   -0.029050
     7  N   -0.122850
     8  C    0.183883
     9  C    0.109535
    10  O   -0.305972
    11  C    0.008838
    12  C    0.075119
    13  O   -0.407897
    14  O   -0.334861
    15  H    0.113610
    16  H   -0.015102
    17  H   -0.026307
    18  H    0.000943
    19  N   -0.085553
    20  C    0.121531
    21  C    0.025613
    22  O   -0.240839
    23  C    0.027496
    24  C    0.025411
    25  C   -0.037692
    26  C    0.026956
    27  N    0.086646
    28  H    0.112560
    29  H   -0.004758
    30  H    0.035579
    31  H    0.013255
    32  H   -0.018850
    33  H    0.018115
    34  H    0.049178
    35  H    0.025128
    36  H    0.081992
    37  H    0.045354
    38  H    0.190818
    39  H    0.173466
    40  H    0.171102
    41  N   -0.160210
    42  C    0.103486
    43  C    0.074726
    44  O   -0.300492
    45  C    0.071187
    46  C    0.164608
    47  O   -0.348097
    48  O   -0.492606
    49  H    0.113857
    50  H    0.021067
    51  H   -0.007142
    52  H   -0.036428
    53  N   -0.122956
    54  C    0.192439
    55  C   -0.004157
    56  O   -0.241782
    57  H    0.148167
    58  H    0.040323
    59  H    0.046831
    60  N   -0.125657
    61  C    0.040369
    62  C    0.048996
    63  O   -0.276534
    64  C    0.151812
    65  C   -0.030711
    66  N   -0.018663
    67  O   -0.272033
    68  H    0.134478
    69  H    0.031553
    70  H   -0.008143
    71  H   -0.013171
    72  H    0.117367
    73  H    0.123060
    74  N   -0.125823
    75  C    0.131955
    76  C    0.054713
    77  O   -0.270644
    78  H    0.122743
    79  H    0.069565
    80  H    0.072609
    81  N   -0.101379
    82  C    0.054076
    83  C    0.075747
    84  O   -0.228317
    85  C    0.149441
    86  C   -0.049972
    87  C    0.021949
    88  C    0.018757
    89  C   -0.028300
    90  C   -0.048180
    91  C    0.190950
    92  O   -0.199138
    93  H    0.112443
    94  H    0.021491
    95  H   -0.004447
[...]
 **** Fit      -0.013438
 **** Fit      -0.009512
 **** Fit      -0.007644
 **** Fit      -0.004293
 **** Fit      -0.001380
 **** Fit      -0.027676
 **** Fit      -0.021679
 **** Fit      -0.016269
 **** Fit      -0.011597
 **** Fit      -0.009304
 **** Fit      -0.005522
 **** Fit      -0.025774
 **** Fit      -0.019278
 **** Fit      -0.013828
 **** Fit      -0.010951
 **** Fit      -0.006644
 **** Fit      -0.022647
 **** Fit      -0.016198
 **** Fit      -0.012381
 **** Fit      -0.018694
 **** Fit       0.006121
 **** Fit       0.007250
 **** Fit       0.008177
 **** Fit       0.008840
 **** Fit       0.009265
 **** Fit       0.005665
 **** Fit       0.006952
 **** Fit       0.008055
 **** Fit       0.008905
 **** Fit       0.009505
 **** Fit       0.009904
 **** Fit       0.010173
 **** Fit       0.005283
 **** Fit       0.006755
 **** Fit       0.008030
 **** Fit       0.009042
 **** Fit       0.009779
 **** Fit       0.010283
 **** Fit       0.010622
 **** Fit       0.010871
 **** Fit       0.011093
 **** Fit       0.003192
 **** Fit       0.004931
 **** Fit       0.006563
 **** Fit       0.007994
 **** Fit       0.009154
 **** Fit       0.010020
 **** Fit       0.010621
 **** Fit       0.011022
 **** Fit       0.011302
 **** Fit       0.011535
 **** Fit       0.011778
 **** Fit       0.012073
 **** Fit       0.002755
 **** Fit       0.004746
 **** Fit       0.006597
 **** Fit       0.008215
 **** Fit       0.009520
 **** Fit       0.010479
 **** Fit       0.011122
 **** Fit       0.011530
 **** Fit       0.011801
 **** Fit       0.012031
 **** Fit       0.012294
 **** Fit       0.012640
 **** Fit       0.002474
 **** Fit       0.004639
 **** Fit       0.006659
 **** Fit       0.008439
 **** Fit       0.009873
 **** Fit       0.010913
 **** Fit       0.011585
 **** Fit       0.011982
 **** Fit       0.012221
 **** Fit       0.012422
 **** Fit       0.012680
 **** Fit       0.013063
 **** Fit       0.013606
 **** Fit       0.002385
 **** Fit       0.004661
 **** Fit       0.006830
 **** Fit       0.008762
 **** Fit       0.010306
 **** Fit       0.011389
 **** Fit       0.012046
 **** Fit       0.012387
 **** Fit       0.012564
 **** Fit       0.012724
 **** Fit       0.012992
 **** Fit       0.013456
 **** Fit       0.014163
 **** Fit       0.015121
 **** Fit       0.009248
 **** Fit       0.010858
 **** Fit       0.011900
 **** Fit       0.012441
 **** Fit       0.012654
 **** Fit       0.012753
 **** Fit       0.012939
 **** Fit       0.013374
 **** Fit       0.014165
 **** Fit       0.015357
 **** Fit       0.011200
 **** Fit       0.012122
 **** Fit       0.012497
 **** Fit       0.012596
 **** Fit       0.012727
 **** Fit       0.013168
 **** Fit       0.014121
 **** Fit       0.015698
 **** Fit       0.011840
 **** Fit       0.012129
 **** Fit       0.012280
 **** Fit       0.012716
 **** Fit       0.013797
 **** Fit       0.015762
 **** Fit       0.011428
 **** Fit       0.011843
 **** Fit       0.012699
 **** Fit       0.014614
 **** Fit       0.018014
 **** Fit       0.011780
 **** Fit       0.013433
 **** Fit       0.020863
 **** Fit       0.023835
 **** Fit       0.027090
 **** Fit       0.030273
 **** Fit       0.033059
 **** Fit       0.012705
 **** Fit       0.014396
 **** Fit       0.017290
 **** Fit       0.021201
 **** Fit       0.025688
 **** Fit       0.030267
 **** Fit       0.034535
 **** Fit       0.038202
 **** Fit       0.041052
 **** Fit       0.007305
 **** Fit       0.010187
 **** Fit       0.014639
 **** Fit       0.020544
 **** Fit       0.027060
 **** Fit       0.033461
 **** Fit       0.039289
 **** Fit       0.023607
 **** Fit       0.032599
 **** Fit       0.040809
 **** Fit       0.030074
 **** Fit      -0.010083
 **** Fit      -0.008500
 **** Fit      -0.007991
 **** Fit      -0.008355
 **** Fit      -0.009271
 **** Fit      -0.010452
 **** Fit      -0.011725
 **** Fit      -0.013068
 **** Fit      -0.014606
 **** Fit      -0.016597
 **** Fit      -0.019402
 **** Fit      -0.023455
 **** Fit      -0.029230
 **** Fit       0.004970
 **** Fit       0.006639
 **** Fit       0.007516
 **** Fit       0.007662
 **** Fit       0.007241
 **** Fit       0.006423
 **** Fit       0.005328
 **** Fit       0.003992
 **** Fit       0.002360
 **** Fit       0.000289
 **** Fit      -0.002443
 **** Fit      -0.006115
 **** Fit      -0.011049
 **** Fit      -0.017564
 **** Fit       0.008501
 **** Fit       0.011448
 **** Fit       0.013705
 **** Fit       0.015798
 **** Fit       0.017761
 **** Fit       0.019382
 **** Fit       0.020477
 **** Fit       0.020989
 **** Fit       0.020963
 **** Fit       0.020487
 **** Fit       0.019644
 **** Fit       0.018480
 **** Fit       0.016984
 **** Fit       0.015088
 **** Fit       0.012664
 **** Fit       0.009534
 **** Fit       0.005481
 **** Fit       0.000267
 **** Fit      -0.006322
 **** Fit       0.019378
 **** Fit       0.022969
 **** Fit       0.025518
 **** Fit       0.027475
 **** Fit       0.029118
 **** Fit       0.030484
 **** Fit       0.031500
 **** Fit       0.032100
 **** Fit       0.032267
 **** Fit       0.032023
 **** Fit       0.031409
 **** Fit       0.030452
 **** Fit       0.029158
 **** Fit       0.027493
 **** Fit       0.025385
 **** Fit       0.022726
 **** Fit       0.019372
 **** Fit       0.015159
 **** Fit       0.009919
 **** Fit       0.003513
 **** Fit       0.028638
 **** Fit       0.032494
 **** Fit       0.035338
 **** Fit       0.037393
 **** Fit       0.038935
 **** Fit       0.040122
 **** Fit       0.040989
 **** Fit       0.041514
 **** Fit       0.041676
 **** Fit       0.041473
 **** Fit       0.040916
 **** Fit       0.040013
 **** Fit       0.038761
 **** Fit       0.037129
 **** Fit       0.035061
 **** Fit       0.032468
 **** Fit       0.029239
 **** Fit       0.025242
 **** Fit       0.020341
 **** Fit       0.014421
 **** Fit       0.007431
 **** Fit       0.032230
 **** Fit       0.036654
 **** Fit       0.040389
 **** Fit       0.043313
 **** Fit       0.045472
 **** Fit       0.047032
 **** Fit       0.048154
 **** Fit       0.048928
 **** Fit       0.049383
 **** Fit       0.049517
 **** Fit       0.049325
 **** Fit       0.048803
 **** Fit       0.047948
 **** Fit       0.046749
 **** Fit       0.045178
 **** Fit       0.043186
 **** Fit       0.040705
 **** Fit       0.037645
 **** Fit       0.033903
 **** Fit       0.029370
 **** Fit       0.023953
 **** Fit       0.017598
 **** Fit       0.010332
 **** Fit       0.041105
 **** Fit       0.045042
 **** Fit       0.048311
 **** Fit       0.050891
 **** Fit       0.052818
 **** Fit       0.054195
 **** Fit       0.055136
 **** Fit       0.055716
 **** Fit       0.055970
 **** Fit       0.055908
 **** Fit       0.055528
 **** Fit       0.054823
 **** Fit       0.053780
 **** Fit       0.052376
 **** Fit       0.050574
 **** Fit       0.048318
 **** Fit       0.045540
 **** Fit       0.042154
 **** Fit       0.038074
 **** Fit       0.033218
 **** Fit       0.027529
 **** Fit       0.021005
 **** Fit       0.048503
 **** Fit       0.051930
 **** Fit       0.054769
 **** Fit       0.057021
 **** Fit       0.058716
 **** Fit       0.059917
 **** Fit       0.060698
 **** Fit       0.061118
 **** Fit       0.061208
 **** Fit       0.060980
 **** Fit       0.060433
 **** Fit       0.059556
 **** Fit       0.058331
 **** Fit       0.056728
 **** Fit       0.054706
 **** Fit       0.052207
 **** Fit       0.049168
 **** Fit       0.045518
 **** Fit       0.041192
 **** Fit       0.036141
 **** Fit       0.030357
 **** Fit       0.023905
 **** Fit       0.054127
 **** Fit       0.057169
 **** Fit       0.059752
 **** Fit       0.061818
 **** Fit       0.063367
 **** Fit       0.064436
 **** Fit       0.065074
 **** Fit       0.065325
 **** Fit       0.065216
 **** Fit       0.064753
 **** Fit       0.063931
 **** Fit       0.062733
 **** Fit       0.061130
 **** Fit       0.059080
 **** Fit       0.056532
 **** Fit       0.053425
 **** Fit       0.049697
 **** Fit       0.045299
 **** Fit       0.040206
 **** Fit       0.034447
 **** Fit       0.028142
 **** Fit       0.058921
 **** Fit       0.061401
 **** Fit       0.063667
 **** Fit       0.065530
 **** Fit       0.066927
 **** Fit       0.067856
 **** Fit       0.068344
 **** Fit       0.068416
 **** Fit       0.068089
 **** Fit       0.067362
 **** Fit       0.066225
 **** Fit       0.064650
 **** Fit       0.062599
 **** Fit       0.060025
 **** Fit       0.056875
 **** Fit       0.053099
 **** Fit       0.048669
 **** Fit       0.043590
 **** Fit       0.037931
 **** Fit       0.031854
 **** Fit       0.014635
 **** Fit       0.014494
 **** Fit       0.018882
 **** Fit       0.027384
 **** Fit       0.062913
 **** Fit       0.064738
 **** Fit       0.066634
 **** Fit       0.068272
 **** Fit       0.069505
 **** Fit       0.070285
 **** Fit       0.070606
 **** Fit       0.070477
 **** Fit       0.069901
 **** Fit       0.068868
 **** Fit       0.067359
 **** Fit       0.065339
 **** Fit       0.062769
 **** Fit       0.059607
 **** Fit       0.055822
 **** Fit       0.051413
 **** Fit       0.046424
 **** Fit       0.040968
 **** Fit       0.035222
 **** Fit       0.030017
 **** Fit       0.028043
 **** Fit       0.029345
 **** Fit       0.034328
 **** Fit       0.042235
 **** Fit       0.065345
 **** Fit       0.066283
 **** Fit       0.067790
 **** Fit       0.069363
 **** Fit       0.070672
 **** Fit       0.071548
 **** Fit       0.071922
 **** Fit       0.071770
 **** Fit       0.071080
 **** Fit       0.069837
 **** Fit       0.068015
 **** Fit       0.065583
 **** Fit       0.062510
 **** Fit       0.058785
 **** Fit       0.054438
 **** Fit       0.049565
 **** Fit       0.044347
 **** Fit       0.039051
 **** Fit       0.034058
 **** Fit       0.040251
 **** Fit       0.039397
 **** Fit       0.041548
 **** Fit       0.046560
 **** Fit       0.053170
 **** Fit       0.059431
 **** Fit       0.063675
 **** Fit       0.065774
 **** Fit       0.066948
 **** Fit       0.068182
 **** Fit       0.069614
 **** Fit       0.070965
 **** Fit       0.071953
 **** Fit       0.072409
 **** Fit       0.072249
 **** Fit       0.071433
 **** Fit       0.069934
 **** Fit       0.067731
 **** Fit       0.064810
 **** Fit       0.061192
 **** Fit       0.056967
 **** Fit       0.052328
 **** Fit       0.047609
 **** Fit       0.043325
 **** Fit       0.048844
 **** Fit       0.048814
 **** Fit       0.051742
 **** Fit       0.056672
 **** Fit       0.061658
 **** Fit       0.065267
 **** Fit       0.067599
 **** Fit       0.069388
 **** Fit       0.070870
 **** Fit       0.071849
 **** Fit       0.072089
 **** Fit       0.071450
 **** Fit       0.069868
 **** Fit       0.067335
 **** Fit       0.063912
 **** Fit       0.059795
 **** Fit       0.055392
 **** Fit       0.051403
 **** Fit       0.055868
 **** Fit       0.056554
 **** Fit       0.060075
 **** Fit       0.064283
 **** Fit       0.067511
 **** Fit       0.069670
 **** Fit       0.070822
 **** Fit       0.070704
 **** Fit       0.069125
 **** Fit       0.066143
 **** Fit       0.062183
 **** Fit       0.058233
 **** Fit       0.061448
 **** Fit       0.063139
 **** Fit       0.066853
 **** Fit       0.068808
 **** Fit       0.067732
 **** Fit       0.064157
 **** Fit       0.065720
 **** Fit      -0.030846
 **** Fit      -0.026744
 **** Fit       0.024542
 **** Fit       0.030698
 **** Fit       0.025382
 **** Fit       0.021794
 **** Fit       0.020176
 **** Fit       0.021985
 **** Fit       0.028023
 **** Fit       0.038843
 **** Fit       0.031804
 **** Fit       0.031236
 **** Fit       0.029641
 **** Fit       0.027588
 **** Fit       0.026320
 **** Fit       0.027226
 **** Fit       0.031400
 **** Fit       0.039628
 **** Fit       0.031980
 **** Fit       0.030943
 **** Fit       0.030662
 **** Fit       0.032276
 **** Fit       0.036835
 **** Fit       0.045171
 **** Fit       0.034064
 **** Fit       0.034384
 **** Fit       0.036451
 **** Fit       0.041203
 **** Fit       0.049367
 **** Fit       0.042104
 **** Fit       0.048505
 **** Fit       0.058105
 **** Fit       0.060668
 **** Fit      -0.028373
 **** Fit      -0.024823
 **** Fit      -0.020619
 **** Fit      -0.014615
 **** Fit      -0.030256
 **** Fit      -0.026839
 **** Fit      -0.022982
 **** Fit      -0.017131
 **** Fit      -0.009229
 **** Fit      -0.000536
 **** Fit      -0.028471
 **** Fit      -0.024898
 **** Fit      -0.014374
 **** Fit      -0.006085
 **** Fit       0.002828
 **** Fit       0.011092
 **** Fit       0.018032
 **** Fit       0.023453
 **** Fit       0.027393
 **** Fit       0.029961
 **** Fit      -0.022662
 **** Fit      -0.018942
 **** Fit      -0.014198
 **** Fit      -0.007491
 **** Fit       0.000661
 **** Fit       0.008986
 **** Fit       0.016466
 **** Fit       0.022600
 **** Fit       0.027228
 **** Fit       0.030374
 **** Fit       0.032133
 **** Fit      -0.016878
 **** Fit      -0.013963
 **** Fit      -0.010328
 **** Fit      -0.005486
 **** Fit       0.000833
 **** Fit       0.008000
 **** Fit       0.015032
 **** Fit       0.021196
 **** Fit       0.026124
 **** Fit       0.029711
 **** Fit       0.032024
 **** Fit       0.033240
 **** Fit       0.033695
 **** Fit      -0.006038
 **** Fit      -0.005974
 **** Fit      -0.003698
 **** Fit      -0.000017
 **** Fit       0.005002
 **** Fit       0.011009
 **** Fit       0.017203
 **** Fit       0.022802
 **** Fit       0.027341
 **** Fit       0.030672
 **** Fit       0.032905
 **** Fit       0.034373
 **** Fit       0.035679
 **** Fit       0.037723
 **** Fit       0.022488
 **** Fit       0.007530
 **** Fit      -0.002044
 **** Fit       0.005211
 **** Fit       0.004417
 **** Fit       0.006208
 **** Fit       0.009723
 **** Fit       0.014423
 **** Fit       0.019610
 **** Fit       0.024521
 **** Fit       0.028629
 **** Fit       0.031770
 **** Fit       0.034133
 **** Fit       0.036226
 **** Fit       0.038824
 **** Fit       0.042772
 **** Fit       0.048594
 **** Fit       0.055992
 **** Fit       0.063427
 **** Fit       0.046907
 **** Fit       0.032349
 **** Fit       0.019231
 **** Fit       0.009901
 **** Fit       0.014802
 **** Fit       0.013577
 **** Fit       0.015263
 **** Fit       0.018785
 **** Fit       0.023159
 **** Fit       0.027475
 **** Fit       0.031172
 **** Fit       0.034222
 **** Fit       0.037102
 **** Fit       0.040561
 **** Fit       0.045121
 **** Fit       0.050373
 **** Fit       0.054515
 **** Fit       0.054879
 **** Fit       0.049768
 **** Fit       0.040125
 **** Fit       0.029074
 **** Fit       0.019978
 **** Fit       0.022634
 **** Fit       0.021392
 **** Fit       0.023667
 **** Fit       0.027617
 **** Fit       0.031734
 **** Fit       0.035515
 **** Fit       0.039385
 **** Fit       0.043480
 **** Fit       0.046092
 **** Fit       0.044208
 **** Fit       0.037138
 **** Fit       0.028442
 **** Fit       0.028839
 **** Fit       0.028502
 **** Fit       0.032526
 **** Fit       0.037081
 **** Fit       0.039319
 **** Fit       0.035071
 **** Fit       0.033601
 -----------------------------------------------------------------
 Leave Link  602 at Thu Sep 19 18:54:31 2019, MaxMem=  1342177280 cpu:             126.6 elap:               2.7

 Test job not archived.
 1\1\GINC-C506-094\SP\RB3LYP\SVP\C54H83Ca1N15O23\PENGZHI\19-Sep-2019\0\
 \#b3lyp/svp scf=(tight,noincore,xqc) Test #IOP(5/87=12) Density=Curren
 t Pop=(MK,readradii) iop(6/33=2) iop(6/42=6)\\Ng-31_loop3_35.0\\0,1\C,
 0,87.52,75.47,29.84\C,0,86.63,74.68,30.79\O,0,85.48,75.03,31.03\H,0,88
 .487,74.975,29.753\H,0,87.049,75.522,28.858\H,0,87.663,76.478,30.229\N
 ,0,87.15,73.54,31.26\C,0,86.5,72.62,32.17\C,0,86.68,73.03,33.63\O,0,85
 .99,72.55,34.52\C,0,87.11,71.23,32.05\C,0,88.62,71.1,32.\O,0,89.31,72.
 15,31.96\O,0,89.23,70.01,32.02\H,0,88.11,73.44,30.97\H,0,85.43,72.55,3
 1.98\H,0,86.64,70.73,31.19\H,0,86.73,70.47,32.73\N,0,87.61,73.92,33.98
 \C,0,87.71,74.58,35.26\C,0,88.06,73.56,36.34\O,0,88.85,72.65,36.11\C,0
 ,88.78,75.67,35.3\C,0,88.43,76.8,34.34\C,0,89.5,77.88,34.28\C,0,89.43,
 78.89,33.14\N,0,88.28,79.8,33.25\H,0,88.32,74.16,33.29\H,0,86.76,75.02
 ,35.56\H,0,89.78,75.25,35.15\H,0,88.85,76.08,36.31\H,0,87.58,77.42,34.
 64\H,0,88.29,76.48,33.3\H,0,90.46,77.36,34.19\H,0,89.56,78.35,35.26\H,
 0,89.49,78.56,32.1\H,0,90.28,79.57,33.24\H,0,87.56,79.12,33.03\H,0,88.
 11,80.16,34.17\H,0,88.4,80.57,32.61\N,0,87.37,73.68,37.47\C,0,87.18,72
 .78,38.6\C,0,86.28,71.57,38.37\O,0,85.94,70.87,39.32\C,0,86.88,73.51,3
 9.91\C,0,85.74,74.51,39.83\O,0,85.9,75.51,39.11\O,0,84.81,74.36,40.66\
 H,0,86.84,74.53,37.56\H,0,88.16,72.37,38.82\H,0,87.8,74.02,40.2\H,0,86
 .62,72.81,40.7\N,0,86.04,71.35,37.08\C,0,85.16,70.32,36.57\C,0,85.87,6
 9.26,35.74\O,0,87.08,69.1,35.8\H,0,86.42,72.03,36.43\H,0,84.46,70.86,3
 5.94\H,0,84.6,69.83,37.37\N,0,85.27,68.43,34.88\C,0,83.87,68.49,34.51\
 C,0,83.66,68.42,33.\O,0,83.77,67.35,32.4\C,0,83.2,67.28,35.16\C,0,83.4
 3,67.28,36.67\N,0,84.29,66.39,37.17\O,0,82.84,68.03,37.44\H,0,85.93,67
 .88,34.35\H,0,83.38,69.39,34.87\H,0,83.57,66.36,34.72\H,0,82.14,67.33,
 34.93\H,0,84.75,65.79,36.5\H,0,84.18,66.26,38.16\N,0,83.55,69.54,32.28
 \C,0,83.52,70.94,32.64\C,0,82.25,71.49,33.28\O,0,82.35,72.63,33.74\H,0
 ,83.57,69.3,31.3\H,0,83.84,71.5,31.76\H,0,84.33,71.13,33.34\N,0,81.1,7
 0.84,33.18\C,0,79.91,71.25,33.9\C,0,80.25,71.19,35.38\O,0,81.05,70.39,
 35.85\C,0,78.73,70.38,33.49\C,0,78.13,70.76,32.16\C,0,77.47,71.97,31.9
 6\C,0,78.26,69.91,31.05\C,0,76.87,72.29,30.73\C,0,77.62,70.23,29.85\C,
 0,76.81,71.37,29.66\O,0,76.35,71.76,28.44\H,0,80.99,69.9,32.82\H,0,79.
 81,72.3,33.61\H,0,77.97,70.45,34.27\H,0,79.,69.32,33.48\H,0,77.41,72.5
 7,32.86\H,0,78.91,69.06,31.2\H,0,76.32,73.22,30.68\H,0,77.75,69.61,28.
 97\H,0,76.38,71.05,27.78\N,0,79.53,72.03,36.13\C,0,80.01,72.5,37.41\C,
 0,79.21,71.97,38.59\O,0,79.61,72.17,39.74\C,0,80.33,73.99,37.55\C,0,81
 .56,74.4,36.75\C,0,79.17,74.88,37.14\C,0,82.87,73.75,37.21\H,0,78.82,7
 2.53,35.61\H,0,80.97,71.99,37.55\H,0,80.6,74.14,38.6\H,0,81.72,75.47,3
 6.89\H,0,81.49,74.21,35.68\H,0,78.7,74.62,36.19\H,0,78.39,74.85,37.91\
 H,0,79.43,75.94,37.09\H,0,83.72,74.29,36.8\H,0,82.94,73.7,38.29\H,0,83
 .1,72.78,36.79\N,0,78.1,71.26,38.39\C,0,77.23,70.72,39.42\C,0,76.46,71
 .75,40.23\O,0,75.72,72.48,39.58\C,0,76.18,69.87,38.7\O,0,75.83,68.76,3
 9.49\H,0,77.93,71.23,37.4\H,0,77.8,70.06,40.07\H,0,76.55,69.64,37.7\H,
 0,75.27,70.45,38.49\H,0,76.62,68.22,39.6\N,0,76.63,71.84,41.56\C,0,75.
 8,72.68,42.4\C,0,76.65,73.83,42.92\O,0,77.88,73.74,42.92\C,0,75.1,71.8
 ,43.43\H,0,77.37,71.32,42.01\H,0,74.94,73.06,41.86\H,0,74.78,70.84,43.
 05\H,0,75.84,71.68,44.22\H,0,74.23,72.35,43.8\N,0,75.95,74.86,43.4\C,0
 ,76.5,75.99,44.13\C,0,77.68,76.58,43.37\O,0,78.77,76.77,43.92\C,0,76.8
 6,75.51,45.53\H,0,74.95,74.78,43.29\H,0,75.67,76.67,44.32\H,0,77.1,76.
 33,46.21\H,0,75.99,74.98,45.92\H,0,77.69,74.8,45.53\N,0,77.54,76.7,42.
 05\C,0,78.51,77.36,41.2\C,0,77.9,78.2,40.09\O,0,78.36,79.31,39.81\C,0,
 79.48,76.31,40.68\C,0,80.82,76.84,40.16\C,0,81.8,77.19,41.26\O,0,81.91
 ,78.38,41.63\O,0,82.59,76.29,41.63\H,0,76.61,76.53,41.68\H,0,79.12,78.
 09,41.73\H,0,78.97,75.81,39.86\H,0,79.63,75.47,41.36\H,0,80.53,77.73,3
 9.6\H,0,81.25,76.13,39.45\N,0,76.82,77.74,39.45\C,0,76.19,78.54,38.42\
 H,0,75.283,78.994,38.818\H,0,76.876,79.323,38.097\H,0,75.936,77.905,37
 .571\H,0,76.44,76.87,39.8\Ca,0,83.23,73.92,42.55\O,0,81.64,72.11,41.4\
 H,0,81.95,71.2,41.43\H,0,80.9,72.08,40.79\\Version=ES64L-G16RevA.03\St
 ate=1-A\HF=-5333.2993806\RMSD=8.872e-11\Dipole=-5.8071909,5.7940741,1.
 5095679\Quadrupole=-28.4582809,6.5876912,21.8705897,167.3875369,-6.720
 4191,-129.364412\PG=C01 [X(C54H83Ca1N15O23)]\\@


 A leading authority is anyone who has guessed right more than once.
 -- Frank A. Clark
 Job cpu time:       2 days 12 hours 53 minutes 32.5 seconds.
 Elapsed time:       0 days  1 hours 17 minutes 35.2 seconds.
 File lengths (MBytes):  RWF=   1807 Int=      0 D2E=      0 Chk=    171 Scr=      1
 Normal termination of Gaussian 16 at Thu Sep 19 18:54:33 2019.
