 Entering Gaussian System, Link 0=g16
 Initial command:
 /home1/apps/gaussian/16rA.03/g16/l1.exe "/scratch/01990/pengzhi/4354930/Gau-27117.inp" -scrdir="/scratch/01990/pengzhi/4354930/"
 Entering Link 1 = /home1/apps/gaussian/16rA.03/g16/l1.exe PID=     27118.
  
 Copyright (c) 1988,1990,1992,1993,1995,1998,2003,2009,2016,
            Gaussian, Inc.  All Rights Reserved.
  
 This is part of the Gaussian(R) 16 program.  It is based on
 the Gaussian(R) 09 system (copyright 2009, Gaussian, Inc.),
 the Gaussian(R) 03 system (copyright 2003, Gaussian, Inc.),
 the Gaussian(R) 98 system (copyright 1998, Gaussian, Inc.),
 the Gaussian(R) 94 system (copyright 1995, Gaussian, Inc.),
 the Gaussian 92(TM) system (copyright 1992, Gaussian, Inc.),
 the Gaussian 90(TM) system (copyright 1990, Gaussian, Inc.),
 the Gaussian 88(TM) system (copyright 1988, Gaussian, Inc.),
 the Gaussian 86(TM) system (copyright 1986, Carnegie Mellon
 University), and the Gaussian 82(TM) system (copyright 1983,
 Carnegie Mellon University). Gaussian is a federally registered
 trademark of Gaussian, Inc.
  
 This software contains proprietary and confidential information,
 including trade secrets, belonging to Gaussian, Inc.
  
 This software is provided under written license and may be
 used, copied, transmitted, or stored only in accord with that
 written license.
  
 The following legend is applicable only to US Government
 contracts under FAR:
  
                    RESTRICTED RIGHTS LEGEND
  
 Use, reproduction and disclosure by the US Government is
 subject to restrictions as set forth in subparagraphs (a)
 and (c) of the Commercial Computer Software - Restricted
 Rights clause in FAR 52.227-19.
  
 Gaussian, Inc.
 340 Quinnipiac St., Bldg. 40, Wallingford CT 06492
  
  
 ---------------------------------------------------------------
 Warning -- This program may not be used in any manner that
 competes with the business of Gaussian, Inc. or will provide
 assistance to any competitor of Gaussian, Inc.  The licensee
 of this program is prohibited from giving any competitor of
 Gaussian, Inc. access to this program.  By using this program,
 the user acknowledges that Gaussian, Inc. is engaged in the
 business of creating and licensing software in the field of
 computational chemistry and represents and warrants to the
 licensee that it is not a competitor of Gaussian, Inc. and that
 it will not use this program in any manner prohibited above.
 ---------------------------------------------------------------
  

 Cite this work as:
 Gaussian 16, Revision A.03,
 M. J. Frisch, G. W. Trucks, H. B. Schlegel, G. E. Scuseria, 
 M. A. Robb, J. R. Cheeseman, G. Scalmani, V. Barone, 
 G. A. Petersson, H. Nakatsuji, X. Li, M. Caricato, A. V. Marenich, 
 J. Bloino, B. G. Janesko, R. Gomperts, B. Mennucci, H. P. Hratchian, 
 J. V. Ortiz, A. F. Izmaylov, J. L. Sonnenberg, D. Williams-Young, 
 F. Ding, F. Lipparini, F. Egidi, J. Goings, B. Peng, A. Petrone, 
 T. Henderson, D. Ranasinghe, V. G. Zakrzewski, J. Gao, N. Rega, 
 G. Zheng, W. Liang, M. Hada, M. Ehara, K. Toyota, R. Fukuda, 
 J. Hasegawa, M. Ishida, T. Nakajima, Y. Honda, O. Kitao, H. Nakai, 
 T. Vreven, K. Throssell, J. A. Montgomery, Jr., J. E. Peralta, 
 F. Ogliaro, M. J. Bearpark, J. J. Heyd, E. N. Brothers, K. N. Kudin, 
 V. N. Staroverov, T. A. Keith, R. Kobayashi, J. Normand, 
 K. Raghavachari, A. P. Rendell, J. C. Burant, S. S. Iyengar, 
 J. Tomasi, M. Cossi, J. M. Millam, M. Klene, C. Adamo, R. Cammi, 
 J. W. Ochterski, R. L. Martin, K. Morokuma, O. Farkas, 
 J. B. Foresman, and D. J. Fox, Gaussian, Inc., Wallingford CT, 2016.
 
 ******************************************
 Gaussian 16:  ES64L-G16RevA.03 25-Dec-2016
                18-Sep-2019 
 ******************************************
 %chk=Ng-31_loop3_26.0.chk
 %nprocshared=48
 Will use up to   48 processors via shared memory.
 %mem=10GB
 %nosave
 ----------------------------------------------------------------------
 #b3lyp/svp scf=(tight,noincore) Test #IOP(5/87=12) Density=Current Pop
 =(MK,readradii) iop(6/33=2) iop(6/42=6)
 ----------------------------------------------------------------------
 1/30=1,38=1,172=1/1;
 2/12=2,17=6,18=5,40=1/2;
 3/5=18,7=101,11=2,25=1,30=1,74=-5/1,2,3;
 4//1;
 5/5=4,32=2,38=5,87=12/2;
 6/7=2,8=2,9=2,10=2,15=8,20=101,22=-1,28=1,33=2,42=6/1,2;
 99/5=1,9=1/99;
 ----------------
 Ng-31_loop3_26.0
 ----------------
 Symbolic Z-matrix:
 Charge =  0 Multiplicity = 1
 C                     6.05      42.99     14.66 
 C                     7.45      42.66     14.16 
 O                     7.79      41.61     13.61 
 H                     5.344     42.255    14.273 
 H                     6.038     42.966    15.75 
 H                     5.765     43.984    14.315 
 N                     8.36      43.61     14.38 
 C                     9.79      43.56     14.17 
 C                     10.55     43.2      15.44 
 O                     9.94      43.11     16.51 
 C                     10.27     44.85     13.51 
 C                     9.85      46.18     14.13 
 O                     8.81      46.2      14.83 
 O                     10.51     47.18     13.8 
 H                     8.05      44.42     14.9 
 H                     9.92      42.86     13.35 
 H                     9.94      44.88     12.47 
 H                     11.36     44.85     13.5 
 N                     11.85     42.95     15.25 
 C                     12.71     42.46     16.3 
 C                     13.45     41.22     15.81 
 O                     14.58     40.92     16.19 
 C                     13.48     43.65     16.87 
 C                     13.88     43.32     18.31 
 C                     14.55     44.48     19.04 
 C                     14.88     44.27     20.52 
 N                     15.9      43.21     20.57 
 H                     12.19     43.01     14.3 
 H                     12.17     42.1      17.18 
 H                     12.87     44.54     16.77 
 H                     14.33     43.82     16.21 
 H                     14.59     42.51     18.16 
 H                     13.02     43.11     18.94 
 H                     14.03     45.44     18.96 
 H                     15.47     44.71     18.51 
 H                     13.93     43.99     20.96 
 H                     15.1      45.25     20.94 
 H                     15.51     42.39     20.11 
 H                     16.83     43.46     20.29 
 H                     16.       42.9      21.52 
 N                     12.88     40.55     14.81 
 C                     13.21     39.25     14.26 
 C                     13.11     39.06     12.75 
 O                     13.77     38.22     12.14 
 C                     12.36     38.2      14.97 
 C                     10.86     38.47     14.99 
 O                     10.43     39.36     14.23 
 O                     10.1      37.68     15.6 
 H                     11.91     40.74     14.6 
 H                     14.25     39.01     14.46 
 H                     12.57     38.15     16.04 
 H                     12.57     37.26     14.46 
 N                     12.34     39.95     12.12 
 C                     11.86     39.75     10.77 
 C                     10.41     40.17     10.61 
 O                     9.74      40.42     11.62 
 H                     11.73     40.45     12.76 
 H                     12.06     38.79     10.31 
 H                     12.42     40.47     10.17 
 N                     9.83      40.26     9.41 
 C                     10.39     39.81     8.16 
 C                     9.26      39.53     7.18 
 O                     8.47      40.46     7.03 
 C                     11.35     40.88     7.64 
 C                     11.84     40.58     6.23 
 N                     11.43     41.24     5.14 
 O                     12.56     39.6      6.05 
 H                     8.9       40.67     9.39 
 H                     10.91     38.87     8.28 
 H                     12.22     41.       8.28 
 H                     10.75     41.79     7.54 
 H                     10.87     42.08     5.06 
 H                     11.92     40.93     4.32 
 N                     9.13      38.37     6.55 
 C                     9.99      37.2      6.63 
 C                     9.61      36.28     7.78 
 O                     9.26      36.61     8.91 
 H                     8.36      38.4      5.89 
 H                     11.06     37.38     6.62 
 H                     9.86      36.61     5.72 
 N                     9.64      34.99     7.44 
 C                     9.12      33.96     8.31 
 C                     10.16     32.88     8.58 
 O                     10.54     32.12     7.69 
 C                     7.81      33.42     7.75 
 C                     6.68      34.41     7.55 
 C                     6.17      34.96     8.73 
 C                     6.2       34.77     6.28 
 C                     5.1       35.86     8.64 
 C                     5.2       35.74     6.19 
 C                     4.58      36.19     7.37 
 O                     3.61      37.15     7.29 
 H                     9.9       34.78     6.49 
 H                     8.98      34.37     9.31 
 H                     7.42      32.59     8.35 
 H                     7.97      33.01     6.75 
 H                     6.62      34.76     9.69 
 H                     6.81      34.47     5.45 
 H                     4.71      36.32     9.54 
 H                     4.86      36.07     5.21 
 H                     3.3       37.17     6.38 
 N                     10.49     32.55     9.83 
 C                     11.22     31.33     10.12 
 C                     10.44     30.05     9.88 
 O                     11.05     28.99     9.82 
 C                     11.84     31.39     11.52 
 C                     10.84     31.16     12.65 
 C                     13.05     30.49     11.75 
 C                     11.32     31.08     14.09 
 H                     10.21     33.14     10.6 
 H                     12.08     31.35     9.46 
 H                     12.2      32.41     11.62 
 H                     10.48     30.17     12.36 
 H                     10.01     31.86     12.7 
 H                     13.78     30.78     11. 
 H                     13.48     30.71     12.73 
 H                     12.71     29.45     11.73 
 H                     11.81     30.1      14.15 
 H                     12.04     31.89     14.19 
 H                     10.52     31.3      14.78 
 N                     9.12      30.08     9.66 
 C                     8.1       29.07     9.46 
 C                     7.65      28.42     10.76 
 O                     6.87      27.47     10.77 
 C                     6.9       29.7      8.77 
 O                     6.39      30.76     9.55 
 H                     8.76      31.02     9.62 
 H                     8.46      28.29     8.78 
 H                     6.13      28.95     8.59 
 H                     7.14      29.95     7.73 
 H                     5.62      31.04     9.05 
 N                     8.        28.97     11.92 
 C                     7.71      28.47     13.25 
 C                     7.18      29.55     14.18 
 O                     7.92      30.42     14.65 
 C                     8.98      27.73     13.67 
 H                     8.68      29.71     11.98 
 H                     6.89      27.76     13.21 
 H                     9.22      26.96     12.94 
 H                     9.78      28.45     13.82 
 H                     8.79      27.27     14.64 
 N                     5.89      29.46     14.5 
 C                     5.09      30.27     15.41 
 C                     5.1       31.75     15.03 
 O                     5.12      32.65     15.87 
 C                     5.35      30.       16.89 
 H                     5.39      28.64     14.2 
 H                     4.08      29.94     15.16 
 H                     5.37      28.91     16.97 
 H                     6.32      30.47     17.06 
 H                     4.61      30.51     17.51 
 N                     5.24      32.08     13.75 
 C                     5.35      33.44     13.26 
 C                     3.95      34.03     13.13 
 O                     3.91      35.23     12.87 
 C                     6.01      33.51     11.88 
 C                     7.45      33.02     11.84 
 C                     8.36      34.02     12.54 
 O                     8.38      34.17     13.79 
 O                     9.21      34.66     11.9 
 H                     5.37      31.34     13.07 
 H                     5.94      34.04     13.94 
 H                     6.06      34.57     11.61 
 H                     5.38      32.99     11.16 
 H                     7.77      32.94     10.8 
 H                     7.49      32.03     12.3 
 N                     2.86      33.26     13.13 
 C                     1.46      33.66     13.1 
 H                     0.868     32.954    13.683 
 H                     1.357     34.658    13.526 
 H                     1.105     33.666    12.069 
 H                     3.01      32.26     13.21 
 Ca                    7.99      39.04     13.17 
 O                     7.84      36.86     14.63 
 H                     8.47      37.       15.34 
 H                     7.68      35.92     14.64 
 
 Stoichiometry    C54H83CaN15O23
 Framework group  C1[X(C54H83CaN15O23)]
 Deg. of freedom   522
 Full point group                 C1      NOp   1
 Largest Abelian subgroup         C1      NOp   1
 Largest concise Abelian subgroup C1      NOp   1
                         Standard orientation:                         
 ---------------------------------------------------------------------
 Center     Atomic      Atomic             Coordinates (Angstroms)
 Number     Number       Type             X           Y           Z
 ---------------------------------------------------------------------
      1          6           0        5.462475   -0.079174    5.226639
      2          6           0        5.481441    0.183954    3.726871
      3          8           0        4.490204    0.334524    3.008973
      4          1           0        4.458140    0.095608    5.612893
      5          1           0        5.750179   -1.113276    5.418159
      6          1           0        6.164178    0.591371    5.722894
      7          7           0        6.698211    0.222263    3.181892
      8          6           0        7.062310    0.301547    1.784521
      9          6           0        7.352838   -1.067253    1.182788
     10          8           0        7.379097   -2.061334    1.915053
     11          6           0        8.190964    1.311021    1.591642
     12          6           0        9.428001    1.191779    2.477769
     13          8           0        9.305750    0.613069    3.583278
     14          8           0       10.449635    1.782582    2.088264
     15          1           0        7.474722    0.019328    3.797073
     16          1           0        6.239475    0.836016    1.319134
     17          1           0        7.810756    2.324423    1.732559
     18          1           0        8.545913    1.242506    0.563285
     19          7           0        7.500047   -1.062926   -0.146464
     20          6           0        7.643205   -2.274083   -0.917699
     21          6           0        6.629559   -2.270789   -2.056913
     22          8           0        6.839774   -2.807772   -3.142620
     23          6           0        9.130551   -2.477082   -1.201413
     24          6           0        9.378747   -3.970521   -1.426220
     25          6           0       10.852251   -4.326949   -1.596939
     26          6           0       11.196939   -5.813831   -1.714292
     27          7           0       10.592358   -6.280535   -2.972533
     28          1           0        7.392643   -0.172426   -0.612484
     29          1           0        7.394896   -3.182432   -0.361960
     30          1           0        9.702391   -2.048175   -0.387018
     31          1           0        9.372887   -1.860343   -2.066228
     32          1           0        8.839876   -4.144840   -2.354622
     33          1           0        9.088515   -4.571358   -0.568688
     34          1           0       11.522369   -3.900431   -0.843664
     35          1           0       11.208913   -3.818092   -2.488038
     36          1           0       10.759575   -6.252088   -0.824829
     37          1           0       12.271667   -5.904836   -1.566378
     38          1           0        9.594297   -6.087358   -2.920991
     39          1           0       11.042143   -6.001428   -3.824350
     40          1           0       10.619253   -7.284254   -2.993133
     41          7           0        5.552196   -1.506842   -1.885232
     42          6           0        4.332725   -1.437316   -2.665909
     43          6           0        3.694998   -0.069424   -2.885853
     44          8           0        2.980526    0.183481   -3.854806
     45          6           0        3.312930   -2.388961   -2.046643
     46          6           0        3.069208   -2.212254   -0.552430
     47          8           0        3.510469   -1.174297   -0.020892
     48          8           0        2.284169   -2.991075    0.039983
     49          1           0        5.344381   -1.177465   -0.952803
     50          1           0        4.515656   -1.778627   -3.680425
     51          1           0        3.644369   -3.428593   -2.075161
     52          1           0        2.389490   -2.230814   -2.603464
     53          7           0        4.062004    0.870345   -2.011758
     54          6           0        3.336513    2.111368   -1.849208
     55          6           0        3.192448    2.503169   -0.389674
     56          8           0        3.487702    1.681108    0.486990
     57          1           0        4.495577    0.474404   -1.182936
     58          1           0        2.406163    2.216575   -2.393800
     59          1           0        3.995783    2.872174   -2.271744
     60          7           0        2.738179    3.704838   -0.023433
     61          6           0        2.157883    4.695511   -0.895457
     62          6           0        1.253356    5.608196   -0.080266
     63          8           0        1.787729    6.110170    0.906633
     64          6           0        3.286386    5.466793   -1.579930
     65          6           0        2.772102    6.662295   -2.370175
     66          7           0        2.918140    7.934565   -1.980555
     67          8           0        2.074926    6.459935   -3.362241
     68          1           0        2.796053    3.924265    0.967477
     69          1           0        1.517256    4.237841   -1.636088
     70          1           0        3.863885    4.840757   -2.254817
     71          1           0        3.879504    5.901526   -0.769178
     72          1           0        3.467151    8.324699   -1.224260
     73          1           0        2.564409    8.570837   -2.672388
     74          7           0       -0.014141    5.831782   -0.400987
     75          6           0       -0.761603    5.312276   -1.535144
     76          6           0       -1.383688    3.954926   -1.245469
     77          8           0       -0.876916    3.023070   -0.626497
     78          1           0       -0.429588    6.518570    0.219598
     79          1           0       -0.251255    5.304058   -2.492681
     80          1           0       -1.596676    5.986117   -1.739330
     81          7           0       -2.632296    3.851290   -1.704640
     82          6           0       -3.479783    2.731821   -1.362945
     83          6           0       -4.032572    2.049840   -2.608026
     84          8           0       -4.847442    2.612773   -3.338227
     85          6           0       -4.556652    3.176580   -0.381190
     86          6           0       -4.094274    3.769602    0.934686
     87          6           0       -3.427701    2.874019    1.776476
     88          6           0       -4.292884    5.118381    1.272695
     89          6           0       -2.994997    3.329665    3.028736
     90          6           0       -3.774215    5.591914    2.479239
     91          6           0       -3.233733    4.671493    3.395756
     92          8           0       -2.711340    5.130187    4.572873
     93          1           0       -3.008909    4.659211   -2.173284
     94          1           0       -2.869447    1.933612   -0.940984
     95          1           0       -5.259093    2.367646   -0.150539
     96          1           0       -5.160423    3.973360   -0.821990
     97          1           0       -3.184056    1.871825    1.459705
     98          1           0       -4.601098    5.758767    0.469009
     99          1           0       -2.450478    2.659913    3.683436
    100          1           0       -3.870522    6.647604    2.726514
    101          1           0       -3.056621    6.016389    4.714385
    102          7           0       -3.861957    0.740444   -2.799524
    103          6           0       -4.636737    0.015997   -3.789621
    104          6           0       -6.113515   -0.120682   -3.465820
    105          8           0       -6.884301   -0.454417   -4.356780
    106          6           0       -3.976891   -1.327937   -4.115879
    107          6           0       -4.187390   -2.396456   -3.046413
    108          6           0       -4.323403   -1.925515   -5.475964
    109          6           0       -3.687981   -3.813857   -3.274372
    110          1           0       -3.201711    0.227841   -2.233208
    111          1           0       -4.526090    0.582967   -4.707174
    112          1           0       -2.912173   -1.114333   -4.143218
    113          1           0       -5.279716   -2.421211   -3.043033
    114          1           0       -3.815629   -2.155300   -2.053923
    115          1           0       -4.038348   -1.176144   -6.208553
    116          1           0       -3.702659   -2.807771   -5.649173
    117          1           0       -5.376562   -2.222474   -5.459503
    118          1           0       -4.391691   -4.225924   -4.008601
    119          1           0       -2.694041   -3.694670   -3.701430
    120          1           0       -3.554358   -4.334897   -2.338872
    121          7           0       -6.583070    0.190818   -2.251659
    122          6           0       -7.884192    0.121906   -1.616968
    123          6           0       -8.243202   -1.283485   -1.157634
    124          8           0       -9.351200   -1.547819   -0.695608
    125          6           0       -7.909537    1.063930   -0.423255
    126          8           0       -6.899013    0.712055    0.497139
    127          1           0       -5.866928    0.561663   -1.647991
    128          1           0       -8.663275    0.481845   -2.298051
    129          1           0       -8.888892    1.043325    0.054488
    130          1           0       -7.904669    2.108523   -0.755671
    131          1           0       -7.043529    1.329833    1.217393
    132          7           0       -7.300057   -2.221714   -1.129287
    133          6           0       -7.462951   -3.617759   -0.772184
    134          6           0       -6.397890   -4.103008    0.198578
    135          8           0       -5.237068   -4.314282   -0.166462
    136          6           0       -7.591196   -4.346340   -2.109952
    137          1           0       -6.393730   -2.084868   -1.545753
    138          1           0       -8.382496   -3.753630   -0.211758
    139          1           0       -8.415043   -3.927435   -2.683707
    140          1           0       -6.637608   -4.309422   -2.629766
    141          1           0       -7.788725   -5.397225   -1.897294
    142          7           0       -6.810391   -4.341741    1.442543
    143          6           0       -6.082660   -4.877138    2.586203
    144          6           0       -4.856868   -4.035766    2.938949
    145          8           0       -3.799083   -4.534400    3.324247
    146          6           0       -5.814940   -6.378637    2.517454
    147          1           0       -7.798583   -4.291467    1.625163
    148          1           0       -6.783000   -4.677266    3.399268
    149          1           0       -6.766172   -6.811918    2.197571
    150          1           0       -5.024748   -6.454479    1.768758
    151          1           0       -5.420792   -6.743166    3.468173
    152          7           0       -4.881814   -2.731707    2.682616
    153          6           0       -3.762783   -1.833076    2.887633
    154          6           0       -3.728846   -1.417524    4.354318
    155          8           0       -2.736928   -0.777224    4.693900
    156          6           0       -3.879710   -0.556996    2.049273
    157          6           0       -3.859390   -0.782514    0.544604
    158          6           0       -2.459689   -1.180159    0.096478
    159          8           0       -1.958934   -2.310413    0.335580
    160          8           0       -1.788698   -0.428559   -0.629172
    161          1           0       -5.700409   -2.342241    2.229715
    162          1           0       -2.833800   -2.319808    2.621957
    163          1           0       -2.987095    0.040507    2.261939
    164          1           0       -4.761334   -0.003550    2.368860
    165          1           0       -4.125195    0.148438    0.041538
    166          1           0       -4.604873   -1.542598    0.300008
    167          7           0       -4.779518   -1.591403    5.158590
    168          6           0       -4.887807   -1.332217    6.587574
    169          1           0       -5.549870   -2.070138    7.041375
    170          1           0       -3.901192   -1.399894    7.045941
    171          1           0       -5.295231   -0.333357    6.746652
    172          1           0       -5.607092   -2.004547    4.742255
    173         20           0        2.116916   -0.105642    2.002863
    174          8           0        0.525667   -2.183615    1.765259
    175          1           0        1.062491   -2.851912    1.334215
    176          1           0       -0.369801   -2.489010    1.646213
 ---------------------------------------------------------------------
 Rotational constants (GHZ):           0.0218965           0.0101748           0.0091339
 Standard basis: SVP (5D, 7F)
 There are  1809 symmetry adapted cartesian basis functions of A   symmetry.
 There are  1717 symmetry adapted basis functions of A   symmetry.
  1717 basis functions,  2922 primitive gaussians,  1809 cartesian basis functions
   358 alpha electrons      358 beta electrons
       nuclear repulsion energy     19953.2079395639 Hartrees.
 NAtoms=  176 NActive=  176 NUniq=  176 SFac= 1.00D+00 NAtFMM=   60 NAOKFM=T Big=T
 Integral buffers will be    131072 words long.
 Raffenetti 2 integral format.
 Two-electron integral symmetry is turned on.
 One-electron integrals computed using PRISM.
 NBasis=  1717 RedAO= T EigKep=  3.17D-04  NBF=  1717
 NBsUse=  1717 1.00D-06 EigRej= -1.00D+00 NBFU=  1717
 ExpMin= 1.98D-02 ExpMax= 3.51D+04 ExpMxC= 5.28D+03 IAcc=3 IRadAn=         5 AccDes= 0.00D+00
 Harris functional with IExCor=  402 and IRadAn=       5 diagonalized for initial guess.
 HarFok:  IExCor=  402 AccDes= 0.00D+00 IRadAn=         5 IDoV= 1 UseB2=F ITyADJ=14
 ICtDFT=  3500011 ScaDFX=  1.000000  1.000000  1.000000  1.000000
 FoFCou: FMM=F IPFlag=           0 FMFlag=      100000 FMFlg1=        2001
         NFxFlg=           0 DoJE=T BraDBF=F KetDBF=T FulRan=T
         wScrn=  0.000000 ICntrl=       500 IOpCl=  0 I1Cent=   200000004 NGrid=           0
         NMat0=    1 NMatS0=      1 NMatT0=    0 NMatD0=    1 NMtDS0=    0 NMtDT0=    0
 Petite list used in FoFCou.
 Requested convergence on RMS density matrix=1.00D-08 within 128 cycles.
 Requested convergence on MAX density matrix=1.00D-06.
 Requested convergence on             energy=1.00D-06.
 No special actions if energy rises.
 EnCoef did     1 forward-backward iterations
 EnCoef did     3 forward-backward iterations
 EnCoef did     4 forward-backward iterations
 Restarting incremental Fock formation.
 SCF Done:  E(RB3LYP) =  -5333.38531267     A.U. after   24 cycles
            NFock= 24  Conv=0.21D-08     -V/T= 2.0081
 SCF density gives NOpUse=  1 NOpAll=  1.
 Hyperfine terms turned off by default for NAtoms > 100.

 **********************************************************************

            Population analysis using the SCF density.

 **********************************************************************

 Orbital symmetries:
 BldTbl:  Degeneracy threshold= 1.00D-02
       Occupied  (A) (A) (A) (A) (A) (A) (A) (A) (A) (A) (A) (A)
                 (A) (A) (A) (A) (A) (A) (A) (A) (A) (A) (A) (A)
                 (A) (A) (A) (A) (A) (A) (A) (A) (A) (A) (A) (A)
                 (A) (A) (A) (A) (A) (A) (A) (A) (A) (A) (A) (A)
                 (A) (A) (A) (A) (A) (A) (A) (A) (A) (A) (A) (A)
                 (A) (A) (A) (A) (A) (A) (A) (A) (A) (A) (A) (A)
                 (A) (A) (A) (A) (A) (A) (A) (A) (A) (A) (A) (A)
                 (A) (A) (A) (A) (A) (A) (A) (A) (A) (A) (A) (A)
                 (A) (A) (A) (A) (A) (A) (A) (A) (A) (A) (A) (A)
                 (A) (A) (A) (A) (A) (A) (A) (A) (A) (A) (A) (A)
                 (A) (A) (A) (A) (A) (A) (A) (A) (A) (A) (A) (A)
                 (A) (A) (A) (A) (A) (A) (A) (A) (A) (A) (A) (A)
                 (A) (A) (A) (A) (A) (A) (A) (A) (A) (A) (A) (A)
                 (A) (A) (A) (A) (A) (A) (A) (A) (A) (A) (A) (A)
                 (A) (A) (A) (A) (A) (A) (A) (A) (A) (A) (A) (A)
                 (A) (A) (A) (A) (A) (A) (A) (A) (A) (A) (A) (A)
                 (A) (A) (A) (A) (A) (A) (A) (A) (A) (A) (A) (A)
                 (A) (A) (A) (A) (A) (A) (A) (A) (A) (A) (A) (A)
                 (A) (A) (A) (A) (A) (A) (A) (A) (A) (A) (A) (A)
                 (A) (A) (A) (A) (A) (A) (A) (A) (A) (A) (A) (A)
                 (A) (A) (A) (A) (A) (A) (A) (A) (A) (A) (A) (A)
                 (A) (A) (A) (A) (A) (A) (A) (A) (A) (A) (A) (A)
                 (A) (A) (A) (A) (A) (A) (A) (A) (A) (A) (A) (A)
                 (A) (A) (A) (A) (A) (A) (A) (A) (A) (A) (A) (A)
                 (A) (A) (A) (A) (A) (A) (A) (A) (A) (A) (A) (A)
                 (A) (A) (A) (A) (A) (A) (A) (A) (A) (A) (A) (A)
                 (A) (A) (A) (A) (A) (A) (A) (A) (A) (A) (A) (A)
                 (A) (A) (A) (A) (A) (A) (A) (A) (A) (A) (A) (A)
                 (A) (A) (A) (A) (A) (A) (A) (A) (A) (A) (A) (A)
                 (A) (A) (A) (A) (A) (A) (A) (A) (A) (A)
       Virtual   (A) (A) (A) (A) (A) (A) (A) (A) (A) (A) (A) (A)
                 (A) (A) (A) (A) (A) (A) (A) (A) (A) (A) (A) (A)
                 (A) (A) (A) (A) (A) (A) (A) (A) (A) (A) (A) (A)
                 (A) (A) (A) (A) (A) (A) (A) (A) (A) (A) (A) (A)
                 (A) (A) (A) (A) (A) (A) (A) (A) (A) (A) (A) (A)
                 (A) (A) (A) (A) (A) (A) (A) (A) (A) (A) (A) (A)
                 (A) (A) (A) (A) (A) (A) (A) (A) (A) (A) (A) (A)
                 (A) (A) (A) (A) (A) (A) (A) (A) (A) (A) (A) (A)
                 (A) (A) (A) (A) (A) (A) (A) (A) (A) (A) (A) (A)
                 (A) (A) (A) (A) (A) (A) (A) (A) (A) (A) (A) (A)
                 (A) (A) (A) (A) (A) (A) (A) (A) (A) (A) (A) (A)
                 (A) (A) (A) (A) (A) (A) (A) (A) (A) (A) (A) (A)
                 (A) (A) (A) (A) (A) (A) (A) (A) (A) (A) (A) (A)
                 (A) (A) (A) (A) (A) (A) (A) (A) (A) (A) (A) (A)
                 (A) (A) (A) (A) (A) (A) (A) (A) (A) (A) (A) (A)
                 (A) (A) (A) (A) (A) (A) (A) (A) (A) (A) (A) (A)
                 (A) (A) (A) (A) (A) (A) (A) (A) (A) (A) (A) (A)
                 (A) (A) (A) (A) (A) (A) (A) (A) (A) (A) (A) (A)
                 (A) (A) (A) (A) (A) (A) (A) (A) (A) (A) (A) (A)
                 (A) (A) (A) (A) (A) (A) (A) (A) (A) (A) (A) (A)
                 (A) (A) (A) (A) (A) (A) (A) (A) (A) (A) (A) (A)
                 (A) (A) (A) (A) (A) (A) (A) (A) (A) (A) (A) (A)
                 (A) (A) (A) (A) (A) (A) (A) (A) (A) (A) (A) (A)
                 (A) (A) (A) (A) (A) (A) (A) (A) (A) (A) (A) (A)
                 (A) (A) (A) (A) (A) (A) (A) (A) (A) (A) (A) (A)
                 (A) (A) (A) (A) (A) (A) (A) (A) (A) (A) (A) (A)
                 (A) (A) (A) (A) (A) (A) (A) (A) (A) (A) (A) (A)
                 (A) (A) (A) (A) (A) (A) (A) (A) (A) (A) (A) (A)
                 (A) (A) (A) (A) (A) (A) (A) (A) (A) (A) (A) (A)
                 (A) (A) (A) (A) (A) (A) (A) (A) (A) (A) (A) (A)
                 (A) (A) (A) (A) (A) (A) (A) (A) (A) (A) (A) (A)
                 (A) (A) (A) (A) (A) (A) (A) (A) (A) (A) (A) (A)
                 (A) (A) (A) (A) (A) (A) (A) (A) (A) (A) (A) (A)
                 (A) (A) (A) (A) (A) (A) (A) (A) (A) (A) (A) (A)
                 (A) (A) (A) (A) (A) (A) (A) (A) (A) (A) (A) (A)
                 (A) (A) (A) (A) (A) (A) (A) (A) (A) (A) (A) (A)
                 (A) (A) (A) (A) (A) (A) (A) (A) (A) (A) (A) (A)
                 (A) (A) (A) (A) (A) (A) (A) (A) (A) (A) (A) (A)
                 (A) (A) (A) (A) (A) (A) (A) (A) (A) (A) (A) (A)
                 (A) (A) (A) (A) (A) (A) (A) (A) (A) (A) (A) (A)
                 (A) (A) (A) (A) (A) (A) (A) (A) (A) (A) (A) (A)
                 (A) (A) (A) (A) (A) (A) (A) (A) (A) (A) (A) (A)
                 (A) (A) (A) (A) (A) (A) (A) (A) (A) (A) (A) (A)
                 (A) (A) (A) (A) (A) (A) (A) (A) (A) (A) (A) (A)
                 (A) (A) (A) (A) (A) (A) (A) (A) (A) (A) (A) (A)
                 (A) (A) (A) (A) (A) (A) (A) (A) (A) (A) (A) (A)
                 (A) (A) (A) (A) (A) (A) (A) (A) (A) (A) (A) (A)
                 (A) (A) (A) (A) (A) (A) (A) (A) (A) (A) (A) (A)
                 (A) (A) (A) (A) (A) (A) (A) (A) (A) (A) (A) (A)
                 (A) (A) (A) (A) (A) (A) (A) (A) (A) (A) (A) (A)
                 (A) (A) (A) (A) (A) (A) (A) (A) (A) (A) (A) (A)
                 (A) (A) (A) (A) (A) (A) (A) (A) (A) (A) (A) (A)
                 (A) (A) (A) (A) (A) (A) (A) (A) (A) (A) (A) (A)
                 (A) (A) (A) (A) (A) (A) (A) (A) (A) (A) (A) (A)
                 (A) (A) (A) (A) (A) (A) (A) (A) (A) (A) (A) (A)
                 (A) (A) (A) (A) (A) (A) (A) (A) (A) (A) (A) (A)
                 (A) (A) (A) (A) (A) (A) (A) (A) (A) (A) (A) (A)
                 (A) (A) (A) (A) (A) (A) (A) (A) (A) (A) (A) (A)
                 (A) (A) (A) (A) (A) (A) (A) (A) (A) (A) (A) (A)
                 (A) (A) (A) (A) (A) (A) (A) (A) (A) (A) (A) (A)
                 (A) (A) (A) (A) (A) (A) (A) (A) (A) (A) (A) (A)
                 (A) (A) (A) (A) (A) (A) (A) (A) (A) (A) (A) (A)
                 (A) (A) (A) (A) (A) (A) (A) (A) (A) (A) (A) (A)
                 (A) (A) (A) (A) (A) (A) (A) (A) (A) (A) (A) (A)
                 (A) (A) (A) (A) (A) (A) (A) (A) (A) (A) (A) (A)
                 (A) (A) (A) (A) (A) (A) (A) (A) (A) (A) (A) (A)
                 (A) (A) (A) (A) (A) (A) (A) (A) (A) (A) (A) (A)
                 (A) (A) (A) (A) (A) (A) (A) (A) (A) (A) (A) (A)
                 (A) (A) (A) (A) (A) (A) (A) (A) (A) (A) (A) (A)
                 (A) (A) (A) (A) (A) (A) (A) (A) (A) (A) (A) (A)
                 (A) (A) (A) (A) (A) (A) (A) (A) (A) (A) (A) (A)
                 (A) (A) (A) (A) (A) (A) (A) (A) (A) (A) (A) (A)
                 (A) (A) (A) (A) (A) (A) (A) (A) (A) (A) (A) (A)
                 (A) (A) (A) (A) (A) (A) (A) (A) (A) (A) (A) (A)
                 (A) (A) (A) (A) (A) (A) (A) (A) (A) (A) (A) (A)
                 (A) (A) (A) (A) (A) (A) (A) (A) (A) (A) (A) (A)
                 (A) (A) (A) (A) (A) (A) (A) (A) (A) (A) (A) (A)
                 (A) (A) (A) (A) (A) (A) (A) (A) (A) (A) (A) (A)
                 (A) (A) (A) (A) (A) (A) (A) (A) (A) (A) (A) (A)
                 (A) (A) (A) (A) (A) (A) (A) (A) (A) (A) (A) (A)
                 (A) (A) (A) (A) (A) (A) (A) (A) (A) (A) (A) (A)
                 (A) (A) (A) (A) (A) (A) (A) (A) (A) (A) (A) (A)
                 (A) (A) (A) (A) (A) (A) (A) (A) (A) (A) (A) (A)
                 (A) (A) (A) (A) (A) (A) (A) (A) (A) (A) (A) (A)
                 (A) (A) (A) (A) (A) (A) (A) (A) (A) (A) (A) (A)
                 (A) (A) (A) (A) (A) (A) (A) (A) (A) (A) (A) (A)
                 (A) (A) (A) (A) (A) (A) (A) (A) (A) (A) (A) (A)
                 (A) (A) (A) (A) (A) (A) (A) (A) (A) (A) (A) (A)
                 (A) (A) (A) (A) (A) (A) (A) (A) (A) (A) (A) (A)
                 (A) (A) (A) (A) (A) (A) (A) (A) (A) (A) (A) (A)
                 (A) (A) (A) (A) (A) (A) (A) (A) (A) (A) (A) (A)
                 (A) (A) (A) (A) (A) (A) (A) (A) (A) (A) (A) (A)
                 (A) (A) (A) (A) (A) (A) (A) (A) (A) (A) (A) (A)
                 (A) (A) (A) (A) (A) (A) (A) (A) (A) (A) (A) (A)
                 (A) (A) (A) (A) (A) (A) (A) (A) (A) (A) (A) (A)
                 (A) (A) (A) (A) (A) (A) (A) (A) (A) (A) (A) (A)
                 (A) (A) (A) (A) (A) (A) (A) (A) (A) (A) (A) (A)
                 (A) (A) (A) (A) (A) (A) (A) (A) (A) (A) (A) (A)
                 (A) (A) (A) (A) (A) (A) (A) (A) (A) (A) (A) (A)
                 (A) (A) (A) (A) (A) (A) (A) (A) (A) (A) (A) (A)
                 (A) (A) (A) (A) (A) (A) (A) (A) (A) (A) (A) (A)
                 (A) (A) (A) (A) (A) (A) (A) (A) (A) (A) (A) (A)
                 (A) (A) (A) (A) (A) (A) (A) (A) (A) (A) (A) (A)
                 (A) (A) (A) (A) (A) (A) (A) (A) (A) (A) (A) (A)
                 (A) (A) (A) (A) (A) (A) (A) (A) (A) (A) (A) (A)
                 (A) (A) (A) (A) (A) (A) (A) (A) (A) (A) (A) (A)
                 (A) (A) (A) (A) (A) (A) (A) (A) (A) (A) (A) (A)
                 (A) (A) (A) (A) (A) (A) (A) (A) (A) (A) (A) (A)
                 (A) (A) (A) (A) (A) (A) (A) (A) (A) (A) (A) (A)
                 (A) (A) (A) (A) (A) (A) (A) (A) (A) (A) (A) (A)
                 (A) (A) (A) (A) (A) (A) (A) (A) (A) (A) (A) (A)
                 (A) (A) (A) (A) (A) (A) (A) (A) (A) (A) (A) (A)
                 (A) (A) (A) (A) (A) (A) (A) (A) (A) (A) (A) (A)
                 (A) (A) (A)
 The electronic state is 1-A.
 Alpha  occ. eigenvalues -- -145.47457 -19.16013 -19.15349 -19.13629 -19.11636
 Alpha  occ. eigenvalues --  -19.10971 -19.10471 -19.10333 -19.10296 -19.09881
 Alpha  occ. eigenvalues --  -19.08867 -19.08812 -19.08632 -19.07543 -19.07503
 Alpha  occ. eigenvalues --  -19.07120 -19.07013 -19.06529 -19.06502 -19.05005
 Alpha  occ. eigenvalues --  -18.99806 -18.98868 -18.97381 -18.96279 -15.53225
 Alpha  occ. eigenvalues --  -14.59308 -14.38592 -14.38578 -14.36759 -14.35970
 Alpha  occ. eigenvalues --  -14.35906 -14.35519 -14.35126 -14.34591 -14.33940
 Alpha  occ. eigenvalues --  -14.33621 -14.33286 -14.33260 -14.32511 -14.31824
 Alpha  occ. eigenvalues --  -12.66850 -12.66819 -12.66752 -10.35531 -10.32366
 Alpha  occ. eigenvalues --  -10.30685 -10.29975 -10.29409 -10.28628 -10.28413
 Alpha  occ. eigenvalues --  -10.27643 -10.27295 -10.27289 -10.27235 -10.26697
 Alpha  occ. eigenvalues --  -10.26221 -10.26110 -10.25781 -10.25777 -10.25440
 Alpha  occ. eigenvalues --  -10.25394 -10.25323 -10.24915 -10.24830 -10.24766
 Alpha  occ. eigenvalues --  -10.24523 -10.24106 -10.23339 -10.23075 -10.22081
 Alpha  occ. eigenvalues --  -10.22004 -10.21976 -10.21871 -10.21672 -10.21669
 Alpha  occ. eigenvalues --  -10.20166 -10.20109 -10.19744 -10.19347 -10.19297
 Alpha  occ. eigenvalues --  -10.19192 -10.18915 -10.18540 -10.18400 -10.18343
 Alpha  occ. eigenvalues --  -10.18216 -10.17283 -10.17053 -10.16888 -10.16888
 Alpha  occ. eigenvalues --  -10.16534 -10.16015 -10.14260 -10.14038 -10.14006
 Alpha  occ. eigenvalues --  -10.13462 -10.13313  -1.89557  -1.17069  -1.16769
 Alpha  occ. eigenvalues --   -1.16282  -1.14621  -1.06609  -1.05164  -1.04802
 Alpha  occ. eigenvalues --   -1.03738  -1.03645  -1.03587  -1.02979  -1.02821
 Alpha  occ. eigenvalues --   -1.02013  -1.01630  -1.01243  -1.01095  -1.01050
 Alpha  occ. eigenvalues --   -1.00812  -1.00480  -0.99655  -0.99486  -0.96422
 Alpha  occ. eigenvalues --   -0.95487  -0.94596  -0.94471  -0.93844  -0.92462
 Alpha  occ. eigenvalues --   -0.92356  -0.92233  -0.91775  -0.91028  -0.90979
 Alpha  occ. eigenvalues --   -0.90790  -0.90563  -0.90389  -0.89903  -0.89470
 Alpha  occ. eigenvalues --   -0.89300  -0.88963  -0.88860  -0.84671  -0.83257
 Alpha  occ. eigenvalues --   -0.83026  -0.82059  -0.80428  -0.79189  -0.78557
 Alpha  occ. eigenvalues --   -0.78223  -0.78080  -0.76970  -0.76604  -0.75925
 Alpha  occ. eigenvalues --   -0.75406  -0.75336  -0.74863  -0.74680  -0.74346
 Alpha  occ. eigenvalues --   -0.74052  -0.72188  -0.72128  -0.71135  -0.70924
 Alpha  occ. eigenvalues --   -0.70809  -0.70162  -0.69139  -0.67686  -0.67245
 Alpha  occ. eigenvalues --   -0.66399  -0.66049  -0.65043  -0.64588  -0.64467
 Alpha  occ. eigenvalues --   -0.63628  -0.62921  -0.62381  -0.62304  -0.62025
 Alpha  occ. eigenvalues --   -0.61832  -0.60521  -0.60131  -0.59876  -0.59812
 Alpha  occ. eigenvalues --   -0.59723  -0.59297  -0.58411  -0.58129  -0.58054
 Alpha  occ. eigenvalues --   -0.57874  -0.57603  -0.57334  -0.56834  -0.56460
 Alpha  occ. eigenvalues --   -0.56179  -0.55745  -0.55642  -0.55325  -0.54917
 Alpha  occ. eigenvalues --   -0.54781  -0.54268  -0.53781  -0.53537  -0.52915
 Alpha  occ. eigenvalues --   -0.52834  -0.52715  -0.52484  -0.52126  -0.51202
 Alpha  occ. eigenvalues --   -0.50967  -0.50800  -0.50584  -0.50055  -0.49877
 Alpha  occ. eigenvalues --   -0.49621  -0.49239  -0.49181  -0.49078  -0.48829
 Alpha  occ. eigenvalues --   -0.48326  -0.48129  -0.47949  -0.47549  -0.47312
 Alpha  occ. eigenvalues --   -0.47138  -0.47039  -0.47022  -0.46868  -0.46482
 Alpha  occ. eigenvalues --   -0.46128  -0.46008  -0.45892  -0.45273  -0.45101
 Alpha  occ. eigenvalues --   -0.45009  -0.44827  -0.44721  -0.44609  -0.44528
 Alpha  occ. eigenvalues --   -0.44331  -0.44267  -0.43837  -0.43599  -0.43463
 Alpha  occ. eigenvalues --   -0.43332  -0.43244  -0.43041  -0.42998  -0.42584
 Alpha  occ. eigenvalues --   -0.42476  -0.42242  -0.42167  -0.41889  -0.41771
 Alpha  occ. eigenvalues --   -0.41632  -0.41482  -0.41371  -0.41279  -0.41259
 Alpha  occ. eigenvalues --   -0.41119  -0.40926  -0.40682  -0.40570  -0.40559
 Alpha  occ. eigenvalues --   -0.40476  -0.40392  -0.40273  -0.40183  -0.40108
 Alpha  occ. eigenvalues --   -0.39788  -0.39270  -0.39222  -0.39047  -0.38965
 Alpha  occ. eigenvalues --   -0.38887  -0.38743  -0.38607  -0.38488  -0.38456
 Alpha  occ. eigenvalues --   -0.38236  -0.38084  -0.37987  -0.37826  -0.37679
 Alpha  occ. eigenvalues --   -0.37482  -0.37405  -0.37386  -0.37000  -0.36820
 Alpha  occ. eigenvalues --   -0.36597  -0.36542  -0.36515  -0.36218  -0.36048
 Alpha  occ. eigenvalues --   -0.35880  -0.35423  -0.35406  -0.35162  -0.35026
 Alpha  occ. eigenvalues --   -0.34904  -0.34844  -0.34665  -0.34601  -0.34513
 Alpha  occ. eigenvalues --   -0.34142  -0.34041  -0.33892  -0.33862  -0.33393
 Alpha  occ. eigenvalues --   -0.33179  -0.32939  -0.32835  -0.32768  -0.31992
 Alpha  occ. eigenvalues --   -0.30296  -0.30063  -0.29921  -0.29661  -0.29618
 Alpha  occ. eigenvalues --   -0.29182  -0.28886  -0.28866  -0.28699  -0.28502
 Alpha  occ. eigenvalues --   -0.28312  -0.27791  -0.27679  -0.27577  -0.27532
 Alpha  occ. eigenvalues --   -0.27266  -0.26930  -0.26674  -0.26613  -0.26104
 Alpha  occ. eigenvalues --   -0.25949  -0.25859  -0.25789  -0.25577  -0.25442
 Alpha  occ. eigenvalues --   -0.25370  -0.25030  -0.24971  -0.24729  -0.24374
 Alpha  occ. eigenvalues --   -0.23860  -0.23855  -0.23736  -0.23354  -0.23292
 Alpha  occ. eigenvalues --   -0.22890  -0.22811  -0.22510  -0.21872  -0.21516
 Alpha  occ. eigenvalues --   -0.21399  -0.21353  -0.17656  -0.17042  -0.14666
 Alpha  occ. eigenvalues --   -0.14506  -0.13873  -0.12845
 Alpha virt. eigenvalues --   -0.10609  -0.07623  -0.05121  -0.04017  -0.02424
 Alpha virt. eigenvalues --   -0.02146  -0.01552  -0.00351  -0.00046   0.00463
 Alpha virt. eigenvalues --    0.00906   0.01291   0.01765   0.01835   0.01905
 Alpha virt. eigenvalues --    0.02032   0.02392   0.02459   0.02806   0.02941
 Alpha virt. eigenvalues --    0.03091   0.03231   0.03423   0.03965   0.04056
 Alpha virt. eigenvalues --    0.04421   0.04528   0.04725   0.04883   0.04948
 Alpha virt. eigenvalues --    0.05009   0.05268   0.05497   0.06055   0.06204
 Alpha virt. eigenvalues --    0.06392   0.07076   0.07374   0.07456   0.08099
 Alpha virt. eigenvalues --    0.08172   0.08445   0.08553   0.08687   0.08713
 Alpha virt. eigenvalues --    0.08765   0.09178   0.09525   0.09878   0.09927
 Alpha virt. eigenvalues --    0.09985   0.10309   0.10364   0.10580   0.10951
 Alpha virt. eigenvalues --    0.11517   0.11679   0.11800   0.11964   0.12173
 Alpha virt. eigenvalues --    0.12287   0.12385   0.12448   0.12545   0.12723
 Alpha virt. eigenvalues --    0.12867   0.12981   0.13138   0.13418   0.13544
 Alpha virt. eigenvalues --    0.13759   0.13839   0.13992   0.14075   0.14440
 Alpha virt. eigenvalues --    0.14477   0.14719   0.14754   0.14941   0.15028
 Alpha virt. eigenvalues --    0.15312   0.15359   0.15576   0.15823   0.15893
 Alpha virt. eigenvalues --    0.16025   0.16377   0.16514   0.16597   0.16843
 Alpha virt. eigenvalues --    0.17059   0.17147   0.17370   0.17459   0.17525
 Alpha virt. eigenvalues --    0.17772   0.18129   0.18190   0.18237   0.18507
 Alpha virt. eigenvalues --    0.18562   0.18852   0.19048   0.19284   0.19401
 Alpha virt. eigenvalues --    0.19529   0.19714   0.19777   0.20047   0.20148
 Alpha virt. eigenvalues --    0.20309   0.20469   0.20914   0.21023   0.21134
 Alpha virt. eigenvalues --    0.21484   0.21719   0.21914   0.22254   0.22452
 Alpha virt. eigenvalues --    0.22590   0.22697   0.22931   0.23247   0.23497
 Alpha virt. eigenvalues --    0.23749   0.23775   0.24353   0.24410   0.24443
 Alpha virt. eigenvalues --    0.24623   0.24862   0.25233   0.25285   0.25537
 Alpha virt. eigenvalues --    0.25851   0.25977   0.26256   0.26438   0.26897
 Alpha virt. eigenvalues --    0.27006   0.27066   0.27431   0.27611   0.27722
 Alpha virt. eigenvalues --    0.27997   0.28076   0.28150   0.28372   0.28523
 Alpha virt. eigenvalues --    0.28750   0.29042   0.29276   0.29336   0.29487
 Alpha virt. eigenvalues --    0.29953   0.29994   0.30186   0.30425   0.30604
 Alpha virt. eigenvalues --    0.30856   0.31061   0.31245   0.31562   0.31696
 Alpha virt. eigenvalues --    0.31830   0.32341   0.32461   0.33030   0.33271
 Alpha virt. eigenvalues --    0.33625   0.33798   0.34077   0.34281   0.34383
 Alpha virt. eigenvalues --    0.35069   0.35492   0.35592   0.35697   0.35940
 Alpha virt. eigenvalues --    0.36180   0.36518   0.36963   0.37240   0.37430
 Alpha virt. eigenvalues --    0.37691   0.37812   0.38718   0.39210   0.39374
 Alpha virt. eigenvalues --    0.39534   0.39933   0.40011   0.40231   0.41232
 Alpha virt. eigenvalues --    0.41297   0.41479   0.41773   0.41914   0.42123
 Alpha virt. eigenvalues --    0.42296   0.42691   0.42789   0.43537   0.43751
 Alpha virt. eigenvalues --    0.43837   0.43962   0.44192   0.44215   0.44421
 Alpha virt. eigenvalues --    0.44458   0.44550   0.44752   0.45046   0.45093
 Alpha virt. eigenvalues --    0.45123   0.45472   0.45629   0.45855   0.45986
 Alpha virt. eigenvalues --    0.46246   0.46559   0.46667   0.46831   0.46927
 Alpha virt. eigenvalues --    0.47003   0.47565   0.47863   0.47992   0.48205
 Alpha virt. eigenvalues --    0.48387   0.48474   0.48829   0.48886   0.49172
 Alpha virt. eigenvalues --    0.49264   0.49645   0.49730   0.49807   0.49937
 Alpha virt. eigenvalues --    0.50208   0.50220   0.50502   0.50674   0.50897
 Alpha virt. eigenvalues --    0.51331   0.51395   0.51463   0.51700   0.51826
 Alpha virt. eigenvalues --    0.52311   0.52542   0.52669   0.52941   0.53188
 Alpha virt. eigenvalues --    0.53454   0.53678   0.53711   0.53888   0.54189
 Alpha virt. eigenvalues --    0.54199   0.54316   0.54481   0.54684   0.54774
 Alpha virt. eigenvalues --    0.55172   0.55302   0.55458   0.55562   0.55763
 Alpha virt. eigenvalues --    0.55945   0.56396   0.56516   0.56717   0.56774
 Alpha virt. eigenvalues --    0.56831   0.57150   0.57231   0.57430   0.57557
 Alpha virt. eigenvalues --    0.57951   0.58033   0.58211   0.58335   0.58507
 Alpha virt. eigenvalues --    0.58799   0.58933   0.59179   0.59417   0.59517
 Alpha virt. eigenvalues --    0.59746   0.59837   0.59908   0.60024   0.60146
 Alpha virt. eigenvalues --    0.60261   0.60498   0.60718   0.60765   0.61047
 Alpha virt. eigenvalues --    0.61241   0.61458   0.61543   0.61600   0.61812
 Alpha virt. eigenvalues --    0.61985   0.62099   0.62263   0.62413   0.62496
 Alpha virt. eigenvalues --    0.62750   0.62843   0.63007   0.63093   0.63241
 Alpha virt. eigenvalues --    0.63345   0.63489   0.63560   0.63726   0.64003
 Alpha virt. eigenvalues --    0.64198   0.64298   0.64388   0.64536   0.64553
 Alpha virt. eigenvalues --    0.64666   0.64752   0.64849   0.64916   0.65020
 Alpha virt. eigenvalues --    0.65182   0.65294   0.65447   0.65498   0.65598
 Alpha virt. eigenvalues --    0.65731   0.65771   0.65847   0.65938   0.66003
 Alpha virt. eigenvalues --    0.66197   0.66306   0.66350   0.66460   0.66528
 Alpha virt. eigenvalues --    0.66710   0.66787   0.66873   0.67000   0.67042
 Alpha virt. eigenvalues --    0.67146   0.67255   0.67471   0.67697   0.67866
 Alpha virt. eigenvalues --    0.67958   0.67962   0.68062   0.68134   0.68196
 Alpha virt. eigenvalues --    0.68325   0.68526   0.68659   0.68750   0.68820
 Alpha virt. eigenvalues --    0.68994   0.69077   0.69188   0.69266   0.69339
 Alpha virt. eigenvalues --    0.69426   0.69576   0.69606   0.69805   0.70022
 Alpha virt. eigenvalues --    0.70134   0.70152   0.70273   0.70434   0.70539
 Alpha virt. eigenvalues --    0.70615   0.70718   0.70791   0.70863   0.71065
 Alpha virt. eigenvalues --    0.71339   0.71481   0.71574   0.71805   0.72064
 Alpha virt. eigenvalues --    0.72295   0.72442   0.72660   0.72883   0.73017
 Alpha virt. eigenvalues --    0.73158   0.73219   0.73485   0.73632   0.73799
 Alpha virt. eigenvalues --    0.73975   0.74176   0.74440   0.74520   0.74626
 Alpha virt. eigenvalues --    0.74905   0.74986   0.75250   0.75899   0.76029
 Alpha virt. eigenvalues --    0.76179   0.76215   0.76346   0.76585   0.76602
 Alpha virt. eigenvalues --    0.76935   0.77055   0.77165   0.77322   0.77470
 Alpha virt. eigenvalues --    0.77647   0.77698   0.77977   0.78066   0.78444
 Alpha virt. eigenvalues --    0.78514   0.78967   0.79226   0.79283   0.79629
 Alpha virt. eigenvalues --    0.79676   0.80005   0.80094   0.80191   0.80462
 Alpha virt. eigenvalues --    0.80907   0.80930   0.81456   0.81870   0.82163
 Alpha virt. eigenvalues --    0.82309   0.82614   0.82920   0.82943   0.83220
 Alpha virt. eigenvalues --    0.83744   0.84084   0.84201   0.84285   0.84843
 Alpha virt. eigenvalues --    0.85054   0.85338   0.85851   0.86012   0.86263
 Alpha virt. eigenvalues --    0.86426   0.86729   0.86989   0.87278   0.87568
 Alpha virt. eigenvalues --    0.87833   0.88237   0.88523   0.88702   0.89048
 Alpha virt. eigenvalues --    0.89758   0.89863   0.90020   0.90450   0.90574
 Alpha virt. eigenvalues --    0.90731   0.90848   0.91196   0.91724   0.91825
 Alpha virt. eigenvalues --    0.91955   0.92474   0.92558   0.92940   0.93328
 Alpha virt. eigenvalues --    0.93412   0.93771   0.94627   0.94810   0.94955
 Alpha virt. eigenvalues --    0.95268   0.95571   0.95672   0.96132   0.96194
 Alpha virt. eigenvalues --    0.96419   0.96865   0.96894   0.97429   0.97760
 Alpha virt. eigenvalues --    0.97943   0.98131   0.98484   0.98775   0.99267
 Alpha virt. eigenvalues --    0.99384   0.99636   0.99829   1.00066   1.00441
 Alpha virt. eigenvalues --    1.00761   1.00964   1.01816   1.02374   1.02463
 Alpha virt. eigenvalues --    1.03009   1.03216   1.03630   1.03670   1.03844
 Alpha virt. eigenvalues --    1.04081   1.04260   1.04750   1.04836   1.05330
 Alpha virt. eigenvalues --    1.05424   1.05510   1.06232   1.06488   1.06726
 Alpha virt. eigenvalues --    1.06951   1.07197   1.07548   1.07924   1.08252
 Alpha virt. eigenvalues --    1.08413   1.08663   1.08694   1.08941   1.09151
 Alpha virt. eigenvalues --    1.09396   1.09664   1.10109   1.10372   1.10713
 Alpha virt. eigenvalues --    1.10890   1.11026   1.11115   1.11547   1.11761
 Alpha virt. eigenvalues --    1.11938   1.12479   1.12762   1.13008   1.13084
 Alpha virt. eigenvalues --    1.13203   1.13733   1.14008   1.14232   1.14436
 Alpha virt. eigenvalues --    1.14446   1.14892   1.14982   1.15261   1.15554
 Alpha virt. eigenvalues --    1.15609   1.16025   1.16152   1.16424   1.16876
 Alpha virt. eigenvalues --    1.17104   1.17449   1.17577   1.17862   1.18238
 Alpha virt. eigenvalues --    1.18508   1.18778   1.18905   1.19195   1.19443
 Alpha virt. eigenvalues --    1.19712   1.19936   1.20286   1.20470   1.20533
 Alpha virt. eigenvalues --    1.21425   1.21612   1.21713   1.21954   1.22213
 Alpha virt. eigenvalues --    1.22679   1.22924   1.23087   1.23389   1.23493
 Alpha virt. eigenvalues --    1.23619   1.24354   1.24373   1.24715   1.24849
 Alpha virt. eigenvalues --    1.24869   1.25140   1.25273   1.25501   1.25689
 Alpha virt. eigenvalues --    1.26018   1.26533   1.26538   1.26832   1.27089
 Alpha virt. eigenvalues --    1.27269   1.27850   1.28125   1.28353   1.28472
 Alpha virt. eigenvalues --    1.28898   1.29164   1.29455   1.29546   1.29871
 Alpha virt. eigenvalues --    1.30304   1.30646   1.30962   1.31147   1.31551
 Alpha virt. eigenvalues --    1.31695   1.31923   1.32154   1.32510   1.32587
 Alpha virt. eigenvalues --    1.33211   1.33730   1.33768   1.34112   1.34272
 Alpha virt. eigenvalues --    1.34556   1.34751   1.35182   1.35700   1.35988
 Alpha virt. eigenvalues --    1.36209   1.36411   1.36472   1.36693   1.36854
 Alpha virt. eigenvalues --    1.37169   1.37363   1.37967   1.38003   1.38585
 Alpha virt. eigenvalues --    1.38848   1.39127   1.39254   1.39630   1.40359
 Alpha virt. eigenvalues --    1.40397   1.40513   1.41033   1.41513   1.41730
 Alpha virt. eigenvalues --    1.41912   1.42006   1.42231   1.42482   1.42710
 Alpha virt. eigenvalues --    1.43380   1.43774   1.43857   1.44459   1.44514
 Alpha virt. eigenvalues --    1.45034   1.45364   1.45670   1.46047   1.46394
 Alpha virt. eigenvalues --    1.47060   1.47185   1.47292   1.47763   1.47801
 Alpha virt. eigenvalues --    1.48396   1.48539   1.48640   1.48817   1.48908
 Alpha virt. eigenvalues --    1.49466   1.49773   1.50226   1.50411   1.50472
 Alpha virt. eigenvalues --    1.50751   1.51068   1.51316   1.51668   1.51892
 Alpha virt. eigenvalues --    1.52130   1.52188   1.52277   1.52566   1.52652
 Alpha virt. eigenvalues --    1.52934   1.53793   1.54075   1.54267   1.54430
 Alpha virt. eigenvalues --    1.54882   1.55134   1.55441   1.55605   1.55951
 Alpha virt. eigenvalues --    1.56225   1.56892   1.57355   1.57705   1.58104
 Alpha virt. eigenvalues --    1.58135   1.58769   1.59043   1.59581   1.59788
 Alpha virt. eigenvalues --    1.59957   1.60147   1.60751   1.60817   1.61338
 Alpha virt. eigenvalues --    1.61404   1.61580   1.61687   1.62141   1.62880
 Alpha virt. eigenvalues --    1.63144   1.63353   1.63582   1.63713   1.64253
 Alpha virt. eigenvalues --    1.64541   1.64871   1.65022   1.65384   1.65697
 Alpha virt. eigenvalues --    1.65896   1.66026   1.66789   1.67004   1.67467
 Alpha virt. eigenvalues --    1.67964   1.68139   1.68422   1.68521   1.68697
 Alpha virt. eigenvalues --    1.68964   1.69039   1.69257   1.69843   1.70221
 Alpha virt. eigenvalues --    1.70432   1.70781   1.71093   1.71191   1.71787
 Alpha virt. eigenvalues --    1.71982   1.72155   1.72384   1.72500   1.72946
 Alpha virt. eigenvalues --    1.73035   1.73186   1.73528   1.73805   1.74308
 Alpha virt. eigenvalues --    1.74539   1.74586   1.74900   1.75350   1.75580
 Alpha virt. eigenvalues --    1.75717   1.75828   1.76136   1.76181   1.76307
 Alpha virt. eigenvalues --    1.76580   1.76845   1.77117   1.77275   1.77491
 Alpha virt. eigenvalues --    1.77651   1.77716   1.77906   1.78066   1.78134
 Alpha virt. eigenvalues --    1.78258   1.78379   1.78720   1.78909   1.79051
 Alpha virt. eigenvalues --    1.79087   1.79322   1.79473   1.79660   1.79718
 Alpha virt. eigenvalues --    1.79889   1.80029   1.80305   1.80521   1.80665
 Alpha virt. eigenvalues --    1.80869   1.80958   1.81067   1.81419   1.81547
 Alpha virt. eigenvalues --    1.81673   1.81803   1.82150   1.82199   1.82319
 Alpha virt. eigenvalues --    1.82515   1.82660   1.82888   1.83224   1.83477
 Alpha virt. eigenvalues --    1.83550   1.83620   1.83824   1.83943   1.83966
 Alpha virt. eigenvalues --    1.84250   1.84444   1.84511   1.84677   1.84883
 Alpha virt. eigenvalues --    1.85030   1.85130   1.85312   1.85577   1.85791
 Alpha virt. eigenvalues --    1.86126   1.86541   1.86616   1.86632   1.86899
 Alpha virt. eigenvalues --    1.87018   1.87102   1.87306   1.87690   1.87758
 Alpha virt. eigenvalues --    1.88033   1.88141   1.88505   1.88562   1.88692
 Alpha virt. eigenvalues --    1.89054   1.89267   1.89585   1.89814   1.89939
 Alpha virt. eigenvalues --    1.90171   1.90240   1.90428   1.90525   1.90655
 Alpha virt. eigenvalues --    1.90988   1.91240   1.91402   1.91546   1.91758
 Alpha virt. eigenvalues --    1.92080   1.92177   1.92247   1.92409   1.92667
 Alpha virt. eigenvalues --    1.92829   1.92967   1.93321   1.93488   1.93753
 Alpha virt. eigenvalues --    1.93761   1.93980   1.94453   1.94501   1.94663
 Alpha virt. eigenvalues --    1.95081   1.95227   1.95438   1.95588   1.96007
 Alpha virt. eigenvalues --    1.96261   1.96413   1.96460   1.96599   1.96719
 Alpha virt. eigenvalues --    1.97126   1.97255   1.97624   1.97897   1.98062
 Alpha virt. eigenvalues --    1.98275   1.98427   1.98561   1.98996   1.99081
 Alpha virt. eigenvalues --    1.99371   1.99915   2.00093   2.00320   2.00593
 Alpha virt. eigenvalues --    2.00662   2.00916   2.01030   2.01217   2.01942
 Alpha virt. eigenvalues --    2.02152   2.02258   2.02271   2.02840   2.02992
 Alpha virt. eigenvalues --    2.03527   2.03678   2.03742   2.04082   2.04372
 Alpha virt. eigenvalues --    2.04439   2.04655   2.04949   2.05260   2.05501
 Alpha virt. eigenvalues --    2.05736   2.05959   2.06275   2.06443   2.06752
 Alpha virt. eigenvalues --    2.07213   2.07231   2.07355   2.07620   2.08188
 Alpha virt. eigenvalues --    2.08620   2.08752   2.09194   2.09274   2.09502
 Alpha virt. eigenvalues --    2.09950   2.10233   2.10243   2.10489   2.11063
 Alpha virt. eigenvalues --    2.11199   2.11318   2.11635   2.11865   2.12060
 Alpha virt. eigenvalues --    2.12157   2.12427   2.12686   2.12797   2.13179
 Alpha virt. eigenvalues --    2.13664   2.13716   2.13791   2.14829   2.15081
 Alpha virt. eigenvalues --    2.15187   2.15889   2.16118   2.16411   2.16634
 Alpha virt. eigenvalues --    2.16871   2.17103   2.17280   2.17691   2.18023
 Alpha virt. eigenvalues --    2.18671   2.18721   2.18945   2.19326   2.19662
 Alpha virt. eigenvalues --    2.19759   2.20194   2.20511   2.21035   2.21273
 Alpha virt. eigenvalues --    2.21530   2.21558   2.22128   2.22319   2.22920
 Alpha virt. eigenvalues --    2.22955   2.23567   2.23576   2.23839   2.24099
 Alpha virt. eigenvalues --    2.24421   2.24566   2.24889   2.25019   2.25775
 Alpha virt. eigenvalues --    2.26049   2.26716   2.27066   2.27302   2.27804
 Alpha virt. eigenvalues --    2.28048   2.28508   2.28911   2.29217   2.29342
 Alpha virt. eigenvalues --    2.29803   2.29873   2.29900   2.30048   2.30488
 Alpha virt. eigenvalues --    2.30581   2.30846   2.31063   2.31375   2.31880
 Alpha virt. eigenvalues --    2.32070   2.32111   2.33133   2.33292   2.33383
 Alpha virt. eigenvalues --    2.33576   2.33885   2.33964   2.34273   2.34415
 Alpha virt. eigenvalues --    2.34900   2.35647   2.35917   2.36103   2.36436
 Alpha virt. eigenvalues --    2.36656   2.36884   2.37282   2.37893   2.38225
 Alpha virt. eigenvalues --    2.38276   2.38465   2.38560   2.38740   2.38945
 Alpha virt. eigenvalues --    2.39730   2.39882   2.40085   2.40205   2.40569
 Alpha virt. eigenvalues --    2.41114   2.41371   2.41544   2.41602   2.42235
 Alpha virt. eigenvalues --    2.42371   2.43185   2.43245   2.43350   2.43551
 Alpha virt. eigenvalues --    2.44254   2.44690   2.44908   2.44973   2.46056
 Alpha virt. eigenvalues --    2.46484   2.46649   2.46700   2.46931   2.47184
 Alpha virt. eigenvalues --    2.47316   2.47489   2.48649   2.48924   2.49619
 Alpha virt. eigenvalues --    2.50124   2.50551   2.50721   2.51122   2.51518
 Alpha virt. eigenvalues --    2.51858   2.52218   2.52740   2.53594   2.53981
 Alpha virt. eigenvalues --    2.54399   2.54665   2.55349   2.55564   2.55779
 Alpha virt. eigenvalues --    2.55890   2.56251   2.56779   2.57043   2.57336
 Alpha virt. eigenvalues --    2.57523   2.57813   2.57951   2.58275   2.59331
 Alpha virt. eigenvalues --    2.59723   2.59857   2.60098   2.60124   2.60233
 Alpha virt. eigenvalues --    2.60636   2.60734   2.60933   2.61103   2.61848
 Alpha virt. eigenvalues --    2.62546   2.62615   2.62904   2.63136   2.63327
 Alpha virt. eigenvalues --    2.63694   2.63949   2.64286   2.64597   2.64724
 Alpha virt. eigenvalues --    2.65219   2.65727   2.65985   2.66506   2.66611
 Alpha virt. eigenvalues --    2.66797   2.66930   2.67586   2.67901   2.68206
 Alpha virt. eigenvalues --    2.68586   2.68709   2.68955   2.69079   2.69440
 Alpha virt. eigenvalues --    2.69933   2.70259   2.70569   2.70790   2.70951
 Alpha virt. eigenvalues --    2.71650   2.71775   2.72109   2.72359   2.72631
 Alpha virt. eigenvalues --    2.73236   2.73373   2.73749   2.74091   2.74314
 Alpha virt. eigenvalues --    2.74428   2.74883   2.75097   2.75213   2.75581
 Alpha virt. eigenvalues --    2.76105   2.76313   2.76470   2.77147   2.77247
 Alpha virt. eigenvalues --    2.77355   2.77480   2.77795   2.78125   2.78184
 Alpha virt. eigenvalues --    2.78345   2.78469   2.78700   2.78836   2.79096
 Alpha virt. eigenvalues --    2.79413   2.79559   2.79921   2.80211   2.80685
 Alpha virt. eigenvalues --    2.81033   2.81453   2.81606   2.81742   2.82050
 Alpha virt. eigenvalues --    2.82220   2.82648   2.82933   2.83012   2.83066
 Alpha virt. eigenvalues --    2.83359   2.83758   2.84328   2.85119   2.85588
 Alpha virt. eigenvalues --    2.85812   2.85864   2.86520   2.86770   2.86974
 Alpha virt. eigenvalues --    2.87084   2.87484   2.87762   2.88109   2.88176
 Alpha virt. eigenvalues --    2.88275   2.88452   2.88941   2.89419   2.89475
 Alpha virt. eigenvalues --    2.90187   2.91031   2.91088   2.91161   2.91307
 Alpha virt. eigenvalues --    2.91408   2.91608   2.92000   2.92437   2.92623
 Alpha virt. eigenvalues --    2.93163   2.93309   2.93685   2.93816   2.94041
 Alpha virt. eigenvalues --    2.94509   2.94748   2.94826   2.95038   2.95211
 Alpha virt. eigenvalues --    2.95490   2.96305   2.96763   2.96868   2.96909
 Alpha virt. eigenvalues --    2.97494   2.97852   2.97977   2.98290   2.98529
 Alpha virt. eigenvalues --    2.98588   2.98788   2.98921   2.99070   3.00182
 Alpha virt. eigenvalues --    3.00229   3.00295   3.00680   3.00755   3.01311
 Alpha virt. eigenvalues --    3.01569   3.01944   3.02198   3.02242   3.02893
 Alpha virt. eigenvalues --    3.02998   3.03630   3.03927   3.04436   3.04767
 Alpha virt. eigenvalues --    3.04871   3.05418   3.06299   3.06713   3.07011
 Alpha virt. eigenvalues --    3.07432   3.07946   3.08658   3.08796   3.08917
 Alpha virt. eigenvalues --    3.09587   3.09953   3.10484   3.11824   3.11886
 Alpha virt. eigenvalues --    3.12356   3.13208   3.13298   3.13561   3.14554
 Alpha virt. eigenvalues --    3.14899   3.15373   3.15596   3.15610   3.15821
 Alpha virt. eigenvalues --    3.16013   3.17179   3.17399   3.17421   3.17798
 Alpha virt. eigenvalues --    3.17825   3.17977   3.18676   3.18760   3.19153
 Alpha virt. eigenvalues --    3.19420   3.19624   3.19885   3.20445   3.20666
 Alpha virt. eigenvalues --    3.21136   3.21575   3.21897   3.22073   3.22140
 Alpha virt. eigenvalues --    3.23362   3.23422   3.24030   3.24520   3.24943
 Alpha virt. eigenvalues --    3.25204   3.25736   3.26738   3.27527   3.27708
 Alpha virt. eigenvalues --    3.29047   3.29097   3.29575   3.29729   3.30812
 Alpha virt. eigenvalues --    3.32001   3.32050   3.32687   3.33383   3.33572
 Alpha virt. eigenvalues --    3.34221   3.35075   3.35279   3.37387   3.37827
 Alpha virt. eigenvalues --    3.37987   3.40666   3.45472   3.46160   3.47977
 Alpha virt. eigenvalues --    3.51597   3.53981   3.54877   3.56317   3.57076
 Alpha virt. eigenvalues --    3.57393   3.57710   3.58005   3.58334   3.58581
 Alpha virt. eigenvalues --    3.58844   3.60329   3.61110   3.62043   3.62734
 Alpha virt. eigenvalues --    3.64739   3.65013   3.66420   3.66551   3.67739
 Alpha virt. eigenvalues --    3.67981   3.68065   3.68256   3.68684   3.69040
 Alpha virt. eigenvalues --    3.69108   3.70218   3.70630   3.70973   3.71451
 Alpha virt. eigenvalues --    3.71692   3.73795   3.74283   3.76807   3.77325
 Alpha virt. eigenvalues --    3.79673   3.80845   3.81610   3.88584
          Condensed to atoms (all electrons):
 Mulliken charges:
               1
     1  C    0.038417
     2  C    0.064345
     3  O   -0.421854
     4  H   -0.002052
     5  H    0.058776
     6  H    0.059240
     7  N   -0.090307
     8  C    0.112027
     9  C    0.118889
    10  O   -0.266905
    11  C    0.009921
    12  C    0.056190
    13  O   -0.404910
    14  O   -0.376828
    15  H    0.118616
    16  H   -0.002001
    17  H    0.002072
    18  H   -0.043771
    19  N   -0.164008
    20  C    0.101625
    21  C    0.052340
    22  O   -0.293055
    23  C    0.101262
    24  C   -0.052428
    25  C   -0.059263
    26  C    0.041178
    27  N    0.093111
    28  H    0.130524
    29  H    0.027668
    30  H    0.039987
    31  H    0.002410
    32  H    0.013446
    33  H    0.024186
    34  H    0.055722
    35  H    0.008891
    36  H    0.078797
    37  H    0.085648
    38  H    0.197330
    39  H    0.195479
    40  H    0.179440
    41  N   -0.139466
    42  C    0.110706
    43  C    0.055083
    44  O   -0.264114
    45  C    0.057579
    46  C    0.114848
    47  O   -0.470952
    48  O   -0.365796
    49  H    0.148499
    50  H    0.012872
    51  H    0.013872
    52  H    0.057155
    53  N   -0.151307
    54  C    0.216379
    55  C    0.027546
    56  O   -0.351721
    57  H    0.135153
    58  H    0.074428
    59  H    0.023041
    60  N   -0.082771
    61  C    0.065461
    62  C    0.048430
    63  O   -0.283381
    64  C    0.154254
    65  C   -0.031273
    66  N   -0.046293
    67  O   -0.282436
    68  H    0.137104
    69  H    0.016587
    70  H    0.038518
    71  H   -0.004250
    72  H    0.128092
    73  H    0.127362
    74  N   -0.090347
    75  C    0.167073
    76  C    0.054605
    77  O   -0.269684
    78  H    0.139561
    79  H    0.077562
    80  H   -0.001477
    81  N   -0.137456
    82  C    0.148232
    83  C    0.036096
    84  O   -0.300916
    85  C    0.138150
    86  C   -0.067047
    87  C    0.006546
    88  C    0.004131
    89  C   -0.038495
    90  C   -0.063090
    91  C    0.174381
    92  O   -0.201175
    93  H    0.110528
    94  H    0.035088
    95  H   -0.011293
    96  H   -0.030262
    97  H   -0.002996
    98  H   -0.039193
    99  H   -0.014091
   100  H   -0.037556
   101  H    0.170188
   102  N   -0.162049
   103  C    0.198981
   104  C    0.029732
   105  O   -0.269885
   106  C   -0.103378
   107  C   -0.126020
   108  C    0.080446
   109  C    0.059918
   110  H    0.140700
   111  H    0.011085
   112  H   -0.002294
   113  H    0.012722
   114  H    0.047019
   115  H   -0.005985
   116  H   -0.001135
   117  H    0.023982
   118  H    0.003622
   119  H    0.000529
   120  H    0.042431
   121  N   -0.146095
   122  C    0.154439
   123  C    0.067505
   124  O   -0.297037
   125  C    0.172239
   126  O   -0.281826
   127  H    0.145022
   128  H    0.029325
   129  H    0.006313
   130  H    0.009436
   131  H    0.180588
   132  N   -0.139462
   133  C    0.089456
   134  C    0.076660
   135  O   -0.248538
   136  C    0.058922
   137  H    0.138922
   138  H   -0.023200
   139  H    0.035720
   140  H    0.039335
   141  H   -0.005136
   142  N   -0.148121
   143  C    0.063129
   144  C    0.052150
   145  O   -0.260463
   146  C    0.095414
   147  H    0.123592
   148  H   -0.011311
   149  H   -0.004727
   150  H    0.052207
   151  H    0.028767
   152  N   -0.152581
   153  C    0.165211
   154  C    0.062963
   155  O   -0.308417
   156  C   -0.045584
   157  C    0.118183
   158  C    0.030420
   159  O   -0.389834
   160  O   -0.356426
   161  H    0.111155
   162  H    0.023164
   163  H    0.023990
   164  H   -0.036090
   165  H   -0.037768
   166  H   -0.011332
   167  N   -0.147863
   168  C    0.133104
   169  H    0.014585
   170  H    0.039068
   171  H    0.021265
   172  H    0.099606
   173  Ca   1.468526
   174  O   -0.373715
   175  H    0.181903
   176  H    0.196398
 Sum of Mulliken charges =  -0.00000
 Mulliken charges with hydrogens summed into heavy atoms:
               1
     1  C    0.154381
     2  C    0.064345
     3  O   -0.421854
     7  N    0.028310
     8  C    0.110027
     9  C    0.118889
    10  O   -0.266905
    11  C   -0.031778
    12  C    0.056190
    13  O   -0.404910
    14  O   -0.376828
    19  N   -0.033484
    20  C    0.129293
    21  C    0.052340
    22  O   -0.293055
    23  C    0.143659
    24  C   -0.014796
    25  C    0.005350
    26  C    0.205623
    27  N    0.665360
    41  N    0.009033
    42  C    0.123578
    43  C    0.055083
    44  O   -0.264114
    45  C    0.128607
    46  C    0.114848
    47  O   -0.470952
    48  O   -0.365796
    53  N   -0.016155
    54  C    0.313847
    55  C    0.027546
    56  O   -0.351721
    60  N    0.054332
    61  C    0.082047
    62  C    0.048430
    63  O   -0.283381
    64  C    0.188523
    65  C   -0.031273
    66  N    0.209161
    67  O   -0.282436
    74  N    0.049214
    75  C    0.243157
    76  C    0.054605
    77  O   -0.269684
    81  N   -0.026928
    82  C    0.183320
    83  C    0.036096
    84  O   -0.300916
    85  C    0.096595
    86  C   -0.067047
    87  C    0.003549
    88  C   -0.035062
    89  C   -0.052586
    90  C   -0.100647
    91  C    0.174381
    92  O   -0.030987
   102  N   -0.021349
   103  C    0.210065
   104  C    0.029732
   105  O   -0.269885
   106  C   -0.105672
   107  C   -0.066280
   108  C    0.097308
   109  C    0.106499
   121  N   -0.001074
   122  C    0.183764
   123  C    0.067505
   124  O   -0.297037
   125  C    0.187988
   126  O   -0.101238
   132  N   -0.000540
   133  C    0.066256
   134  C    0.076660
   135  O   -0.248538
   136  C    0.128841
   142  N   -0.024528
   143  C    0.051818
   144  C    0.052150
   145  O   -0.260463
   146  C    0.171660
   152  N   -0.041427
   153  C    0.188376
   154  C    0.062963
   155  O   -0.308417
   156  C   -0.057684
   157  C    0.069083
   158  C    0.030420
   159  O   -0.389834
   160  O   -0.356426
   167  N   -0.048257
   168  C    0.208022
   173  Ca   1.468526
   174  O    0.004586
 DipInt: DoE/N= T F RetVal/Mat= T F Init=T NMatP=  1 IDeriv=0 Min/MaxMlt=  0  4
 Entering OneElI...
 OneElI was handed  1333951383 working-precision words.
 Multipole integrals L=0 to 4 MinM= 0 MaxM= 0.
 Requested accuracy = 0.1000D-12
 ShPair: Thresh= 1.00D-13 NBox=     0 BxSize= 0.00D+00 RnKept= 2.55D+01
         NSMCal=               327645 NSMKep=              135759
 PrmmSu-InSpLW:  IPartL=    0 NPrtUS=    1 NPrtUL=    1 DoSpLW=F IThBeg=    0 IThEnd=    0 NThAct=    1.
 PrsmSu:  NPrtUS=   1 ThrOK=F IAlg=1 NPAlg=1 LenDen=           0 ISkipM=0 DoSpLW=F IThBeg=    0 IThEnd=    0.
 Prism:   IPart=     0 DynPar=F LinDyn=F Incr=         512.
 PRISM was handed  1324815699 working-precision words and135759 shell-pairs
 IPart=  0 NShTot=      135759 NBatch=         317 AvBLen=       428.3
 PrsmSu-ThDecC:  IPartSL=    0    0 NPrtUSL=    1    1 IThBeg=    0 IThEnd=    0 CPU=   -1 GPU=   -1 NThAct=    1.
 PrSmSu:  NxtVal=            513.
 Electronic moments (au):
       -716.00000000          6.48023292         -4.40366629         -2.01324108
     -78964.85624534     -28079.49074765     -17290.63134772       -213.66625941
       -186.94741485         44.10368622    -279925.84339477     -60360.27419435
     -24639.37804781     -13500.65520027     212792.16663054      20996.06983022
      27001.37850150      10626.12763866      15533.71096314     -33215.61362444
  -17133303.38112813   -2809040.30222381   -1062461.17255982    1624977.78782811
    -228206.27078671     -11743.97333917     125282.77778780      14492.74065424
     -11599.98547961   -2937498.02108113   -1725304.98368136    -541112.67202485
    -599364.80538797     584496.02766056     -71833.79061707
 Electronic spatial extent (au):  <R**2>=         124334.9783
 DipInt: DoE/N= F T RetVal/Mat= T F Init=T NMatP=  1 IDeriv=0 Min/MaxMlt=  0  4
 Nuclear    moments (au):
        716.00000000          0.00000000          0.00000000         -0.00000000
      78661.41520512      27821.56150357      16859.98539410         -0.00000000
          0.00000000         -0.00000000     282775.77303489      59871.75444964
      24986.13939159      15777.27152703    -217427.71189042     -23308.22599435
     -26808.90379641     -11028.52327746     -16218.14704325      34129.34909548
   16906875.36602716    2746085.62782162    1002307.55406090   -1720951.86525666
     154938.71102477     -16699.00749056    -117768.22599303     -22217.03888321
      13922.86656791    2929143.43196907    1671467.98524498     518625.31478083
     616659.10918941    -600437.58552251      65566.48694158
 Total      moments (au):
         -0.00000000          6.48023292         -4.40366629         -2.01324108
       -303.44104022       -257.92924408       -430.64595361       -213.66625941
       -186.94741485         44.10368622       2849.92964012       -488.51974471
        346.76134378       2276.61632677      -4635.54525988      -2312.15616412
        192.47470509       -402.39563880       -684.43608011        913.73547104
    -226428.01510097     -62954.67440219     -60153.61849892     -95974.07742854
     -73267.55976194     -28442.98082973       7514.55179477      -7724.29822898
       2322.88108829      -8354.58911206     -53836.99843638     -22487.35724403
      17294.30380144     -15941.55786195      -6267.30367549
 Traceless Quadrup. (au):
         27.23103908         72.74283522        -99.97387431       -213.66625941
       -186.94741485         44.10368622
 Charge=             -0.0000 electrons
 Dipole moment (field-independent basis, Debye):
    X=             16.4711    Y=            -11.1930    Z=             -5.1171  Tot=             20.5613
 Quadrupole moment (field-independent basis, Debye-Ang):
   XX=           -408.1386   YY=           -346.9237   ZZ=           -579.2336
   XY=           -287.3884   XZ=           -251.4507   YZ=             59.3210
 Traceless Quadrupole moment (field-independent basis, Debye-Ang):
   XX=             36.6267   YY=             97.8416   ZZ=           -134.4683
   XY=           -287.3884   XZ=           -251.4507   YZ=             59.3210
 Octapole moment (field-independent basis, Debye-Ang**2):
  XXX=           2028.4701  YYY=           -347.7095  ZZZ=            246.8114  XYY=           1620.4078
  XXY=          -3299.4025  XXZ=          -1645.7037  XZZ=            136.9961  YZZ=           -286.4097
  YYZ=           -487.1552  XYZ=            650.3617
 Hexadecapole moment (field-independent basis, Debye-Ang**3):
 XXXX=         -85283.6481 YYYY=         -23711.7492 ZZZZ=         -22656.7372 XXXY=         -36148.4397
 XXXZ=         -27596.0763 YYYX=         -10712.9905 YYYZ=           2830.3405 ZZZX=          -2909.3411
 ZZZY=            874.9084 XXYY=          -3146.7389 XXZZ=         -20277.5952 YYZZ=          -8469.8170
 XXYZ=           6513.8641 YYXZ=          -6004.3551 ZZXY=          -2360.5671
 N-N= 1.995320793956D+04 E-N=-5.238823251539D+04  KE= 5.290355152725D+03
 Leave Link  601 at Wed Sep 18 14:41:50 2019, MaxMem=  1342177280 cpu:              40.5 elap:               1.1
 FitSet:  NAtFit=   176 NAtPot=   176 NAtFrz=     0 MDM=   180 TotChg=   0.00000
 Merz-Kollman atomic radii used.
 Read replacement radii for each type of atom:
 Rad(20) =   1.700000000000D+00
 Atom Element Radius
    1     6    1.50
    2     6    1.50
    3     8    1.40
    4     1    1.20
    5     1    1.20
    6     1    1.20
    7     7    1.50
    8     6    1.50
    9     6    1.50
   10     8    1.40
   11     6    1.50
   12     6    1.50
   13     8    1.40
   14     8    1.40
   15     1    1.20
   16     1    1.20
   17     1    1.20
   18     1    1.20
   19     7    1.50
   20     6    1.50
   21     6    1.50
   22     8    1.40
   23     6    1.50
   24     6    1.50
   25     6    1.50
   26     6    1.50
   27     7    1.50
   28     1    1.20
   29     1    1.20
   30     1    1.20
   31     1    1.20
   32     1    1.20
   33     1    1.20
   34     1    1.20
   35     1    1.20
   36     1    1.20
   37     1    1.20
   38     1    1.20
   39     1    1.20
   40     1    1.20
   41     7    1.50
   42     6    1.50
   43     6    1.50
   44     8    1.40
   45     6    1.50
   46     6    1.50
   47     8    1.40
   48     8    1.40
   49     1    1.20
   50     1    1.20
   51     1    1.20
   52     1    1.20
   53     7    1.50
   54     6    1.50
   55     6    1.50
   56     8    1.40
   57     1    1.20
   58     1    1.20
   59     1    1.20
   60     7    1.50
   61     6    1.50
   62     6    1.50
   63     8    1.40
   64     6    1.50
   65     6    1.50
   66     7    1.50
   67     8    1.40
   68     1    1.20
   69     1    1.20
   70     1    1.20
   71     1    1.20
   72     1    1.20
   73     1    1.20
   74     7    1.50
   75     6    1.50
   76     6    1.50
   77     8    1.40
   78     1    1.20
   79     1    1.20
   80     1    1.20
   81     7    1.50
   82     6    1.50
   83     6    1.50
   84     8    1.40
   85     6    1.50
   86     6    1.50
   87     6    1.50
   88     6    1.50
   89     6    1.50
   90     6    1.50
   91     6    1.50
   92     8    1.40
   93     1    1.20
   94     1    1.20
   95     1    1.20
   96     1    1.20
   97     1    1.20
   98     1    1.20
   99     1    1.20
  100     1    1.20
  101     1    1.20
  102     7    1.50
  103     6    1.50
  104     6    1.50
  105     8    1.40
  106     6    1.50
  107     6    1.50
  108     6    1.50
  109     6    1.50
  110     1    1.20
  111     1    1.20
  112     1    1.20
  113     1    1.20
  114     1    1.20
  115     1    1.20
  116     1    1.20
  117     1    1.20
  118     1    1.20
  119     1    1.20
  120     1    1.20
  121     7    1.50
  122     6    1.50
  123     6    1.50
  124     8    1.40
  125     6    1.50
  126     8    1.40
  127     1    1.20
  128     1    1.20
  129     1    1.20
  130     1    1.20
  131     1    1.20
  132     7    1.50
  133     6    1.50
  134     6    1.50
  135     8    1.40
  136     6    1.50
  137     1    1.20
  138     1    1.20
  139     1    1.20
  140     1    1.20
  141     1    1.20
  142     7    1.50
  143     6    1.50
  144     6    1.50
  145     8    1.40
  146     6    1.50
  147     1    1.20
  148     1    1.20
  149     1    1.20
  150     1    1.20
  151     1    1.20
  152     7    1.50
  153     6    1.50
  154     6    1.50
  155     8    1.40
  156     6    1.50
  157     6    1.50
  158     6    1.50
  159     8    1.40
  160     8    1.40
  161     1    1.20
  162     1    1.20
  163     1    1.20
  164     1    1.20
  165     1    1.20
  166     1    1.20
  167     7    1.50
  168     6    1.50
  169     1    1.20
  170     1    1.20
[...]
 **** Fit       0.005359
 **** Fit       0.005548
 **** Fit       0.005297
 **** Fit       0.004553
 **** Fit       0.003489
 **** Fit       0.002501
 **** Fit       0.006162
 **** Fit       0.006352
 **** Fit       0.006250
 **** Fit       0.005783
 **** Fit       0.004945
 **** Fit       0.003828
 **** Fit       0.002621
 **** Fit       0.001584
 **** Fit       0.006763
 **** Fit       0.007074
 **** Fit       0.007190
 **** Fit       0.007032
 **** Fit       0.006546
 **** Fit       0.005715
 **** Fit       0.004577
 **** Fit       0.003235
 **** Fit       0.001854
 **** Fit       0.000646
 **** Fit       0.007545
 **** Fit       0.007891
 **** Fit       0.008063
 **** Fit       0.007989
 **** Fit       0.007609
 **** Fit       0.006888
 **** Fit       0.005821
 **** Fit       0.004452
 **** Fit       0.002879
 **** Fit       0.001252
 **** Fit      -0.000236
 **** Fit      -0.001375
 **** Fit       0.008410
 **** Fit       0.008787
 **** Fit       0.009007
 **** Fit       0.009007
 **** Fit       0.008728
 **** Fit       0.008124
 **** Fit       0.007169
 **** Fit       0.005867
 **** Fit       0.004262
 **** Fit       0.002444
 **** Fit       0.000555
 **** Fit      -0.001227
 **** Fit      -0.002700
 **** Fit       0.009376
 **** Fit       0.009811
 **** Fit       0.010090
 **** Fit       0.010144
 **** Fit       0.009908
 **** Fit       0.009325
 **** Fit       0.008352
 **** Fit       0.006970
 **** Fit       0.005199
 **** Fit       0.003108
 **** Fit       0.000821
 **** Fit      -0.001476
 **** Fit      -0.003560
 **** Fit       0.010567
 **** Fit       0.011060
 **** Fit       0.011396
 **** Fit       0.011507
 **** Fit       0.011324
 **** Fit       0.010778
 **** Fit       0.009812
 **** Fit       0.008384
 **** Fit       0.006486
 **** Fit       0.004157
 **** Fit       0.001495
 **** Fit      -0.001330
 **** Fit      -0.004078
 **** Fit       0.012380
 **** Fit       0.012876
 **** Fit       0.013172
 **** Fit       0.013194
 **** Fit       0.012860
 **** Fit       0.012089
 **** Fit       0.010808
 **** Fit       0.008964
 **** Fit       0.006544
 **** Fit       0.003592
 **** Fit       0.000229
 **** Fit      -0.003321
 **** Fit      -0.006736
 **** Fit       0.014744
 **** Fit       0.015251
 **** Fit       0.015478
 **** Fit       0.015326
 **** Fit       0.014682
 **** Fit       0.013429
 **** Fit       0.011464
 **** Fit       0.008721
 **** Fit       0.005197
 **** Fit       0.000991
 **** Fit      -0.003648
 **** Fit       0.018258
 **** Fit       0.018543
 **** Fit       0.018334
 **** Fit       0.017469
 **** Fit       0.015771
 **** Fit       0.013072
 **** Fit       0.009259
 **** Fit       0.004324
 **** Fit      -0.001560
 **** Fit      -0.000477
 **** Fit      -0.001774
 **** Fit      -0.001283
 **** Fit      -0.001153
 **** Fit      -0.003117
 **** Fit      -0.002970
 **** Fit      -0.002299
 **** Fit      -0.000775
 **** Fit      -0.002027
 **** Fit      -0.002804
 **** Fit      -0.004622
 **** Fit      -0.004605
 **** Fit      -0.004289
 **** Fit      -0.003597
 **** Fit      -0.002485
 **** Fit      -0.001995
 **** Fit      -0.003147
 **** Fit      -0.003924
 **** Fit      -0.004396
 **** Fit      -0.006413
 **** Fit      -0.006478
 **** Fit      -0.006335
 **** Fit      -0.005904
 **** Fit      -0.005107
 **** Fit      -0.003901
 **** Fit      -0.003202
 **** Fit      -0.004407
 **** Fit      -0.005250
 **** Fit      -0.005819
 **** Fit      -0.006191
 **** Fit      -0.008640
 **** Fit      -0.008795
 **** Fit      -0.008781
 **** Fit      -0.008511
 **** Fit      -0.007894
 **** Fit      -0.006863
 **** Fit      -0.004435
 **** Fit      -0.005828
 **** Fit      -0.006821
 **** Fit      -0.007515
 **** Fit      -0.008008
 **** Fit      -0.008373
 **** Fit      -0.011506
 **** Fit      -0.011788
 **** Fit      -0.011916
 **** Fit      -0.011799
 **** Fit      -0.011338
 **** Fit      -0.010459
 **** Fit      -0.009114
 **** Fit      -0.007640
 **** Fit      -0.008795
 **** Fit      -0.009622
 **** Fit      -0.010235
 **** Fit      -0.010722
 **** Fit      -0.011142
 **** Fit      -0.015311
 **** Fit      -0.015815
 **** Fit      -0.016132
 **** Fit      -0.016130
 **** Fit      -0.015689
 **** Fit      -0.014724
 **** Fit      -0.013195
 **** Fit      -0.009233
 **** Fit      -0.010831
 **** Fit      -0.011973
 **** Fit      -0.012817
 **** Fit      -0.013500
 **** Fit      -0.014120
 **** Fit      -0.014726
 **** Fit      -0.020518
 **** Fit      -0.021419
 **** Fit      -0.022052
 **** Fit      -0.022223
 **** Fit      -0.021774
 **** Fit      -0.020621
 **** Fit      -0.018763
 **** Fit      -0.013173
 **** Fit      -0.014725
 **** Fit      -0.015860
 **** Fit      -0.016780
 **** Fit      -0.017644
 **** Fit      -0.018550
 **** Fit      -0.019523
 **** Fit      -0.019180
 **** Fit      -0.020418
 **** Fit      -0.021573
 **** Fit      -0.022850
 **** Fit      -0.024350
 **** Fit      -0.026067
 **** Fit      -0.023906
 **** Fit      -0.025411
 **** Fit      -0.027025
 **** Fit      -0.029094
 **** Fit       0.001315
 **** Fit       0.002464
 **** Fit       0.003517
 **** Fit      -0.000942
 **** Fit       0.000141
 **** Fit       0.001352
 **** Fit       0.002493
 **** Fit       0.003483
 **** Fit       0.004340
 **** Fit      -0.002158
 **** Fit      -0.000832
 **** Fit       0.000542
 **** Fit       0.001819
 **** Fit       0.002929
 **** Fit       0.003865
 **** Fit       0.004675
 **** Fit       0.005437
 **** Fit      -0.004699
 **** Fit      -0.003197
 **** Fit      -0.001574
 **** Fit       0.000009
 **** Fit       0.001443
 **** Fit       0.002676
 **** Fit       0.003707
 **** Fit       0.004576
 **** Fit       0.005350
 **** Fit       0.006114
 **** Fit      -0.007886
 **** Fit      -0.006157
 **** Fit      -0.004281
 **** Fit      -0.002397
 **** Fit      -0.000619
 **** Fit       0.000972
 **** Fit       0.002337
 **** Fit       0.003481
 **** Fit       0.004436
 **** Fit       0.005261
 **** Fit       0.006026
 **** Fit       0.006816
 **** Fit      -0.009198
 **** Fit      -0.006862
 **** Fit      -0.004557
 **** Fit      -0.002374
 **** Fit      -0.000400
 **** Fit       0.001310
 **** Fit       0.002747
 **** Fit       0.003940
 **** Fit       0.004939
 **** Fit       0.005816
 **** Fit       0.006654
 **** Fit       0.007543
 **** Fit      -0.012965
 **** Fit      -0.010039
 **** Fit      -0.007264
 **** Fit      -0.004647
 **** Fit      -0.002254
 **** Fit      -0.000149
 **** Fit       0.001643
 **** Fit       0.003138
 **** Fit       0.004382
 **** Fit       0.005439
 **** Fit       0.006389
 **** Fit       0.007326
 **** Fit       0.008350
 **** Fit      -0.016988
 **** Fit      -0.013223
 **** Fit      -0.009865
 **** Fit      -0.006772
 **** Fit      -0.003947
 **** Fit      -0.001446
 **** Fit       0.000700
 **** Fit       0.002502
 **** Fit       0.004003
 **** Fit       0.005269
 **** Fit       0.006386
 **** Fit       0.007459
 **** Fit       0.008603
 **** Fit      -0.020044
 **** Fit      -0.015262
 **** Fit      -0.011234
 **** Fit      -0.007632
 **** Fit      -0.004394
 **** Fit      -0.001558
 **** Fit       0.000856
 **** Fit       0.002873
 **** Fit       0.004553
 **** Fit       0.005987
 **** Fit       0.007299
 **** Fit       0.008640
 **** Fit       0.010180
 **** Fit      -0.021624
 **** Fit      -0.015981
 **** Fit      -0.011384
 **** Fit      -0.007348
 **** Fit      -0.003777
 **** Fit      -0.000695
 **** Fit       0.001897
 **** Fit       0.004047
 **** Fit       0.005859
 **** Fit       0.007493
 **** Fit       0.009161
 **** Fit      -0.015848
 **** Fit      -0.010877
 **** Fit      -0.006540
 **** Fit      -0.002742
 **** Fit       0.000499
 **** Fit       0.003202
 **** Fit       0.005462
 **** Fit       0.007468
 **** Fit       0.009501
 **** Fit      -0.012451
 **** Fit      -0.007324
 **** Fit      -0.002888
 **** Fit       0.000858
 **** Fit       0.003953
 **** Fit       0.006588
 **** Fit       0.019082
 **** Fit       0.020432
 **** Fit       0.021559
 **** Fit       0.022381
 **** Fit       0.022741
 **** Fit       0.022410
 **** Fit       0.017775
 **** Fit       0.019362
 **** Fit       0.020826
 **** Fit       0.022187
 **** Fit       0.023389
 **** Fit       0.024300
 **** Fit       0.017178
 **** Fit       0.018838
 **** Fit       0.020448
 **** Fit       0.022100
 **** Fit       0.023793
 **** Fit       0.025453
 **** Fit       0.016407
 **** Fit       0.018116
 **** Fit       0.019815
 **** Fit       0.021693
 **** Fit       0.023824
 **** Fit       0.026180
 **** Fit       0.016481
 **** Fit       0.018145
 **** Fit       0.019946
 **** Fit       0.022131
 **** Fit       0.024803
 **** Fit       0.016602
 **** Fit       0.018290
 **** Fit       0.020262
 **** Fit       0.022772
 **** Fit       0.038999
 **** Fit       0.037062
 **** Fit       0.035557
 **** Fit       0.039760
 **** Fit       0.040180
 **** Fit       0.038163
 **** Fit       0.034989
 **** Fit       0.032756
 **** Fit       0.032300
 **** Fit       0.032866
 **** Fit       0.041035
 **** Fit       0.041215
 **** Fit       0.039108
 **** Fit       0.035303
 **** Fit       0.031171
 **** Fit       0.028265
 **** Fit       0.027250
 **** Fit       0.027763
 **** Fit       0.029013
 **** Fit       0.030137
 **** Fit       0.036423
 **** Fit       0.040222
 **** Fit       0.042200
 **** Fit       0.042112
 **** Fit       0.039943
 **** Fit       0.035894
 **** Fit       0.030636
 **** Fit       0.025475
 **** Fit       0.021830
 **** Fit       0.020275
 **** Fit       0.020472
 **** Fit       0.021853
 **** Fit       0.023855
 **** Fit       0.025815
 **** Fit       0.027110
 **** Fit       0.034461
 **** Fit       0.039308
 **** Fit       0.042260
 **** Fit       0.043251
 **** Fit       0.042302
 **** Fit       0.039392
 **** Fit       0.034522
 **** Fit       0.028037
 **** Fit       0.021043
 **** Fit       0.015265
 **** Fit       0.011967
 **** Fit       0.011066
 **** Fit       0.011783
 **** Fit       0.013621
 **** Fit       0.016293
 **** Fit       0.019286
 **** Fit       0.021905
 **** Fit       0.023581
 **** Fit       0.024059
 **** Fit       0.032481
 **** Fit       0.038103
 **** Fit       0.041776
 **** Fit       0.043585
 **** Fit       0.043657
 **** Fit       0.042049
 **** Fit       0.038652
 **** Fit       0.033236
 **** Fit       0.025784
 **** Fit       0.017034
 **** Fit       0.000372
 **** Fit       0.001383
 **** Fit       0.003357
 **** Fit       0.006449
 **** Fit       0.010369
 **** Fit       0.014345
 **** Fit       0.017592
 **** Fit       0.019642
 **** Fit       0.020359
 **** Fit       0.032160
 **** Fit       0.037979
 **** Fit       0.041751
 **** Fit       0.043686
 **** Fit       0.044017
 **** Fit       0.042903
 **** Fit       0.040317
 **** Fit       0.035943
 **** Fit       0.029287
 **** Fit       0.020167
 **** Fit       0.007875
 **** Fit       0.012115
 **** Fit       0.014860
 **** Fit       0.016066
 **** Fit       0.015900
 **** Fit       0.032303
 **** Fit       0.038033
 **** Fit       0.041667
 **** Fit       0.043510
 **** Fit       0.043887
 **** Fit       0.043057
 **** Fit       0.041137
 **** Fit       0.037966
 **** Fit       0.032982
 **** Fit       0.025447
 **** Fit       0.006068
 **** Fit       0.009438
 **** Fit       0.011076
 **** Fit       0.011184
 **** Fit       0.025181
 **** Fit       0.033030
 **** Fit       0.038456
 **** Fit       0.041697
 **** Fit       0.043181
 **** Fit       0.043332
 **** Fit       0.042479
 **** Fit       0.040846
 **** Fit       0.038492
 **** Fit       0.003421
 **** Fit       0.005359
 **** Fit       0.005735
 **** Fit       0.004704
 **** Fit       0.030629
 **** Fit       0.037387
 **** Fit       0.041229
 **** Fit       0.042780
 **** Fit       0.042798
 **** Fit       0.041806
 **** Fit       0.040117
 **** Fit       0.037963
 **** Fit       0.035444
 **** Fit      -0.001880
 **** Fit      -0.000670
 **** Fit      -0.000907
 **** Fit      -0.002644
 **** Fit       0.041238
 **** Fit       0.038926
 **** Fit       0.036269
 **** Fit       0.033485
 **** Fit      -0.008850
 **** Fit      -0.008098
 **** Fit      -0.008651
 **** Fit      -0.010861
 **** Fit       0.036825
 **** Fit       0.032955
 **** Fit       0.029172
 **** Fit       0.025774
 **** Fit      -0.017091
 **** Fit      -0.019012
 **** Fit       0.028847
 **** Fit       0.023512
 **** Fit       0.015292
 **** Fit      -0.029116
 **** Fit      -0.009590
 **** Fit       0.000743
 **** Fit      -0.007764
 **** Fit      -0.020068
 **** Fit      -0.020143
 **** Fit      -0.011717
 **** Fit      -0.006331
 **** Fit      -0.030625
 **** Fit      -0.030913
 **** Fit      -0.027717
 **** Fit      -0.022068
 **** Fit      -0.013942
 **** Fit      -0.002831
 **** Fit      -0.039301
 **** Fit      -0.036785
 **** Fit      -0.033294
 **** Fit      -0.028720
 **** Fit      -0.023089
 **** Fit      -0.016093
 **** Fit      -0.006982
 **** Fit       0.005187
 **** Fit      -0.043435
 **** Fit      -0.041044
 **** Fit      -0.037701
 **** Fit      -0.033598
 **** Fit      -0.029022
 **** Fit      -0.023962
 **** Fit      -0.018078
 **** Fit      -0.010725
 **** Fit      -0.000968
 **** Fit      -0.045916
 **** Fit      -0.042809
 **** Fit      -0.038782
 **** Fit      -0.034477
 **** Fit      -0.030133
 **** Fit      -0.025671
 **** Fit      -0.020790
 **** Fit      -0.014968
 **** Fit      -0.007417
 **** Fit       0.002958
 **** Fit      -0.045053
 **** Fit      -0.040447
 **** Fit      -0.035986
 **** Fit      -0.031816
 **** Fit      -0.027840
 **** Fit      -0.023817
 **** Fit      -0.019351
 **** Fit      -0.013819
 **** Fit      -0.006302
 **** Fit      -0.046541
 **** Fit      -0.041553
 **** Fit      -0.037072
 **** Fit      -0.033123
 **** Fit      -0.029603
 **** Fit      -0.026336
 **** Fit      -0.023043
 **** Fit      -0.019266
 **** Fit      -0.014296
 **** Fit      -0.007103
 **** Fit      -0.043776
 **** Fit      -0.039112
 **** Fit      -0.035183
 **** Fit      -0.031908
 **** Fit      -0.043943
 **** Fit      -0.039355
 **** Fit      -0.044519
 **** Fit      -0.028462
 **** Fit      -0.025984
 **** Fit      -0.023593
 **** Fit      -0.020616
 **** Fit      -0.015951
 **** Fit      -0.032941
 **** Fit      -0.030734
 **** Fit      -0.029174
 **** Fit      -0.028037
 **** Fit      -0.026903
 **** Fit      -0.039339
 **** Fit      -0.036375
 **** Fit      -0.034307
 **** Fit      -0.033161
 **** Fit      -0.032821
 **** Fit      -0.043557
 **** Fit      -0.040422
 **** Fit      -0.038382
 **** Fit      -0.037486
 **** Fit      -0.050139
 **** Fit      -0.046177
 **** Fit      -0.043614
 **** Fit      -0.042479
 **** Fit      -0.056769
 **** Fit      -0.051871
 **** Fit      -0.049033
 **** Fit      -0.060354
 **** Fit      -0.056168
 **** Fit      -0.071040
 **** Fit      -0.047826
 **** Fit      -0.049464
 **** Fit      -0.051877
 **** Fit      -0.053497
 **** Fit      -0.059777
 **** Fit      -0.051197
 **** Fit      -0.066495
 **** Fit      -0.057085
 **** Fit      -0.049409
 **** Fit      -0.066954
 **** Fit      -0.057867
 **** Fit      -0.050539
 **** Fit      -0.064736
 **** Fit      -0.056456
 -----------------------------------------------------------------
 Leave Link  602 at Wed Sep 18 14:41:53 2019, MaxMem=  1342177280 cpu:             132.9 elap:               2.8

 Test job not archived.
 1\1\GINC-C485-011\SP\RB3LYP\SVP\C54H83Ca1N15O23\PENGZHI\18-Sep-2019\0\
 \#b3lyp/svp scf=(tight,noincore) Test #IOP(5/87=12) Density=Current Po
 p=(MK,readradii) iop(6/33=2) iop(6/42=6)\\Ng-31_loop3_26.0\\0,1\C,0,6.
 05,42.99,14.66\C,0,7.45,42.66,14.16\O,0,7.79,41.61,13.61\H,0,5.344,42.
 255,14.273\H,0,6.038,42.966,15.75\H,0,5.765,43.984,14.315\N,0,8.36,43.
 61,14.38\C,0,9.79,43.56,14.17\C,0,10.55,43.2,15.44\O,0,9.94,43.11,16.5
 1\C,0,10.27,44.85,13.51\C,0,9.85,46.18,14.13\O,0,8.81,46.2,14.83\O,0,1
 0.51,47.18,13.8\H,0,8.05,44.42,14.9\H,0,9.92,42.86,13.35\H,0,9.94,44.8
 8,12.47\H,0,11.36,44.85,13.5\N,0,11.85,42.95,15.25\C,0,12.71,42.46,16.
 3\C,0,13.45,41.22,15.81\O,0,14.58,40.92,16.19\C,0,13.48,43.65,16.87\C,
 0,13.88,43.32,18.31\C,0,14.55,44.48,19.04\C,0,14.88,44.27,20.52\N,0,15
 .9,43.21,20.57\H,0,12.19,43.01,14.3\H,0,12.17,42.1,17.18\H,0,12.87,44.
 54,16.77\H,0,14.33,43.82,16.21\H,0,14.59,42.51,18.16\H,0,13.02,43.11,1
 8.94\H,0,14.03,45.44,18.96\H,0,15.47,44.71,18.51\H,0,13.93,43.99,20.96
 \H,0,15.1,45.25,20.94\H,0,15.51,42.39,20.11\H,0,16.83,43.46,20.29\H,0,
 16.,42.9,21.52\N,0,12.88,40.55,14.81\C,0,13.21,39.25,14.26\C,0,13.11,3
 9.06,12.75\O,0,13.77,38.22,12.14\C,0,12.36,38.2,14.97\C,0,10.86,38.47,
 14.99\O,0,10.43,39.36,14.23\O,0,10.1,37.68,15.6\H,0,11.91,40.74,14.6\H
 ,0,14.25,39.01,14.46\H,0,12.57,38.15,16.04\H,0,12.57,37.26,14.46\N,0,1
 2.34,39.95,12.12\C,0,11.86,39.75,10.77\C,0,10.41,40.17,10.61\O,0,9.74,
 40.42,11.62\H,0,11.73,40.45,12.76\H,0,12.06,38.79,10.31\H,0,12.42,40.4
 7,10.17\N,0,9.83,40.26,9.41\C,0,10.39,39.81,8.16\C,0,9.26,39.53,7.18\O
 ,0,8.47,40.46,7.03\C,0,11.35,40.88,7.64\C,0,11.84,40.58,6.23\N,0,11.43
 ,41.24,5.14\O,0,12.56,39.6,6.05\H,0,8.9,40.67,9.39\H,0,10.91,38.87,8.2
 8\H,0,12.22,41.,8.28\H,0,10.75,41.79,7.54\H,0,10.87,42.08,5.06\H,0,11.
 92,40.93,4.32\N,0,9.13,38.37,6.55\C,0,9.99,37.2,6.63\C,0,9.61,36.28,7.
 78\O,0,9.26,36.61,8.91\H,0,8.36,38.4,5.89\H,0,11.06,37.38,6.62\H,0,9.8
 6,36.61,5.72\N,0,9.64,34.99,7.44\C,0,9.12,33.96,8.31\C,0,10.16,32.88,8
 .58\O,0,10.54,32.12,7.69\C,0,7.81,33.42,7.75\C,0,6.68,34.41,7.55\C,0,6
 .17,34.96,8.73\C,0,6.2,34.77,6.28\C,0,5.1,35.86,8.64\C,0,5.2,35.74,6.1
 9\C,0,4.58,36.19,7.37\O,0,3.61,37.15,7.29\H,0,9.9,34.78,6.49\H,0,8.98,
 34.37,9.31\H,0,7.42,32.59,8.35\H,0,7.97,33.01,6.75\H,0,6.62,34.76,9.69
 \H,0,6.81,34.47,5.45\H,0,4.71,36.32,9.54\H,0,4.86,36.07,5.21\H,0,3.3,3
 7.17,6.38\N,0,10.49,32.55,9.83\C,0,11.22,31.33,10.12\C,0,10.44,30.05,9
 .88\O,0,11.05,28.99,9.82\C,0,11.84,31.39,11.52\C,0,10.84,31.16,12.65\C
 ,0,13.05,30.49,11.75\C,0,11.32,31.08,14.09\H,0,10.21,33.14,10.6\H,0,12
 .08,31.35,9.46\H,0,12.2,32.41,11.62\H,0,10.48,30.17,12.36\H,0,10.01,31
 .86,12.7\H,0,13.78,30.78,11.\H,0,13.48,30.71,12.73\H,0,12.71,29.45,11.
 73\H,0,11.81,30.1,14.15\H,0,12.04,31.89,14.19\H,0,10.52,31.3,14.78\N,0
 ,9.12,30.08,9.66\C,0,8.1,29.07,9.46\C,0,7.65,28.42,10.76\O,0,6.87,27.4
 7,10.77\C,0,6.9,29.7,8.77\O,0,6.39,30.76,9.55\H,0,8.76,31.02,9.62\H,0,
 8.46,28.29,8.78\H,0,6.13,28.95,8.59\H,0,7.14,29.95,7.73\H,0,5.62,31.04
 ,9.05\N,0,8.,28.97,11.92\C,0,7.71,28.47,13.25\C,0,7.18,29.55,14.18\O,0
 ,7.92,30.42,14.65\C,0,8.98,27.73,13.67\H,0,8.68,29.71,11.98\H,0,6.89,2
 7.76,13.21\H,0,9.22,26.96,12.94\H,0,9.78,28.45,13.82\H,0,8.79,27.27,14
 .64\N,0,5.89,29.46,14.5\C,0,5.09,30.27,15.41\C,0,5.1,31.75,15.03\O,0,5
 .12,32.65,15.87\C,0,5.35,30.,16.89\H,0,5.39,28.64,14.2\H,0,4.08,29.94,
 15.16\H,0,5.37,28.91,16.97\H,0,6.32,30.47,17.06\H,0,4.61,30.51,17.51\N
 ,0,5.24,32.08,13.75\C,0,5.35,33.44,13.26\C,0,3.95,34.03,13.13\O,0,3.91
 ,35.23,12.87\C,0,6.01,33.51,11.88\C,0,7.45,33.02,11.84\C,0,8.36,34.02,
 12.54\O,0,8.38,34.17,13.79\O,0,9.21,34.66,11.9\H,0,5.37,31.34,13.07\H,
 0,5.94,34.04,13.94\H,0,6.06,34.57,11.61\H,0,5.38,32.99,11.16\H,0,7.77,
 32.94,10.8\H,0,7.49,32.03,12.3\N,0,2.86,33.26,13.13\C,0,1.46,33.66,13.
 1\H,0,0.868,32.954,13.683\H,0,1.357,34.658,13.526\H,0,1.105,33.666,12.
 069\H,0,3.01,32.26,13.21\Ca,0,7.99,39.04,13.17\O,0,7.84,36.86,14.63\H,
 0,8.47,37.,15.34\H,0,7.68,35.92,14.64\\Version=ES64L-G16RevA.03\State=
 1-A\HF=-5333.3853127\RMSD=2.061e-09\Dipole=4.3384024,3.8093924,5.66618
 3\Quadrupole=46.19515,-193.0877014,146.8925514,150.5628855,172.788674,
 86.8297684\PG=C01 [X(C54H83Ca1N15O23)]\\@


 THERE ARE TWO THINGS THAT EVERYBODY THINKS THEY CAN DO BETTER THAN
 ANYONE ELSE - PUNCH THE FIRE, AND EDIT A DAILY PAPER.
 -- UNCLE ESEK, "CENTURY MAGAZINE", 1885
 Job cpu time:       0 days  8 hours 46 minutes  8.7 seconds.
 Elapsed time:       0 days  0 hours 11 minutes  6.3 seconds.
 File lengths (MBytes):  RWF=   1517 Int=      0 D2E=      0 Chk=    171 Scr=      1
 Normal termination of Gaussian 16 at Wed Sep 18 14:41:55 2019.
