 Entering Gaussian System, Link 0=g16
 Initial command:
 /home1/apps/gaussian/16rA.03/g16/l1.exe "/scratch/01990/pengzhi/4354922/Gau-47769.inp" -scrdir="/scratch/01990/pengzhi/4354922/"
 Entering Link 1 = /home1/apps/gaussian/16rA.03/g16/l1.exe PID=     47770.
  
 Copyright (c) 1988,1990,1992,1993,1995,1998,2003,2009,2016,
            Gaussian, Inc.  All Rights Reserved.
  
 This is part of the Gaussian(R) 16 program.  It is based on
 the Gaussian(R) 09 system (copyright 2009, Gaussian, Inc.),
 the Gaussian(R) 03 system (copyright 2003, Gaussian, Inc.),
 the Gaussian(R) 98 system (copyright 1998, Gaussian, Inc.),
 the Gaussian(R) 94 system (copyright 1995, Gaussian, Inc.),
 the Gaussian 92(TM) system (copyright 1992, Gaussian, Inc.),
 the Gaussian 90(TM) system (copyright 1990, Gaussian, Inc.),
 the Gaussian 88(TM) system (copyright 1988, Gaussian, Inc.),
 the Gaussian 86(TM) system (copyright 1986, Carnegie Mellon
 University), and the Gaussian 82(TM) system (copyright 1983,
 Carnegie Mellon University). Gaussian is a federally registered
 trademark of Gaussian, Inc.
  
 This software contains proprietary and confidential information,
 including trade secrets, belonging to Gaussian, Inc.
  
 This software is provided under written license and may be
 used, copied, transmitted, or stored only in accord with that
 written license.
  
 The following legend is applicable only to US Government
 contracts under FAR:
  
                    RESTRICTED RIGHTS LEGEND
  
 Use, reproduction and disclosure by the US Government is
 subject to restrictions as set forth in subparagraphs (a)
 and (c) of the Commercial Computer Software - Restricted
 Rights clause in FAR 52.227-19.
  
 Gaussian, Inc.
 340 Quinnipiac St., Bldg. 40, Wallingford CT 06492
  
  
 ---------------------------------------------------------------
 Warning -- This program may not be used in any manner that
 competes with the business of Gaussian, Inc. or will provide
 assistance to any competitor of Gaussian, Inc.  The licensee
 of this program is prohibited from giving any competitor of
 Gaussian, Inc. access to this program.  By using this program,
 the user acknowledges that Gaussian, Inc. is engaged in the
 business of creating and licensing software in the field of
 computational chemistry and represents and warrants to the
 licensee that it is not a competitor of Gaussian, Inc. and that
 it will not use this program in any manner prohibited above.
 ---------------------------------------------------------------
  

 Cite this work as:
 Gaussian 16, Revision A.03,
 M. J. Frisch, G. W. Trucks, H. B. Schlegel, G. E. Scuseria, 
 M. A. Robb, J. R. Cheeseman, G. Scalmani, V. Barone, 
 G. A. Petersson, H. Nakatsuji, X. Li, M. Caricato, A. V. Marenich, 
 J. Bloino, B. G. Janesko, R. Gomperts, B. Mennucci, H. P. Hratchian, 
 J. V. Ortiz, A. F. Izmaylov, J. L. Sonnenberg, D. Williams-Young, 
 F. Ding, F. Lipparini, F. Egidi, J. Goings, B. Peng, A. Petrone, 
 T. Henderson, D. Ranasinghe, V. G. Zakrzewski, J. Gao, N. Rega, 
 G. Zheng, W. Liang, M. Hada, M. Ehara, K. Toyota, R. Fukuda, 
 J. Hasegawa, M. Ishida, T. Nakajima, Y. Honda, O. Kitao, H. Nakai, 
 T. Vreven, K. Throssell, J. A. Montgomery, Jr., J. E. Peralta, 
 F. Ogliaro, M. J. Bearpark, J. J. Heyd, E. N. Brothers, K. N. Kudin, 
 V. N. Staroverov, T. A. Keith, R. Kobayashi, J. Normand, 
 K. Raghavachari, A. P. Rendell, J. C. Burant, S. S. Iyengar, 
 J. Tomasi, M. Cossi, J. M. Millam, M. Klene, C. Adamo, R. Cammi, 
 J. W. Ochterski, R. L. Martin, K. Morokuma, O. Farkas, 
 J. B. Foresman, and D. J. Fox, Gaussian, Inc., Wallingford CT, 2016.
 
 ******************************************
 Gaussian 16:  ES64L-G16RevA.03 25-Dec-2016
                18-Sep-2019 
 ******************************************
 %chk=Ng-31_loop3_19.0.chk
 %nprocshared=48
 Will use up to   48 processors via shared memory.
 %mem=10GB
 %nosave
 ----------------------------------------------------------------------
 #b3lyp/svp scf=(tight,noincore) Test #IOP(5/87=12) Density=Current Pop
 =(MK,readradii) iop(6/33=2) iop(6/42=6)
 ----------------------------------------------------------------------
 1/30=1,38=1,172=1/1;
 2/12=2,17=6,18=5,40=1/2;
 3/5=18,7=101,11=2,25=1,30=1,74=-5/1,2,3;
 4//1;
 5/5=4,32=2,38=5,87=12/2;
 6/7=2,8=2,9=2,10=2,15=8,20=101,22=-1,28=1,33=2,42=6/1,2;
 99/5=1,9=1/99;
 ----------------
 Ng-31_loop3_19.0
 ----------------
 Symbolic Z-matrix:
 Charge =  0 Multiplicity = 1
 C                     62.66     59.17     36.35 
 C                     62.67     58.01     37.34 
 O                     61.66     57.39     37.67 
 H                     62.992    60.079    36.852 
 H                     63.333    58.947    35.522 
 H                     61.649    59.315    35.969 
 N                     63.86     57.69     37.84 
 C                     64.19     56.51     38.62 
 C                     63.69     56.62     40.05 
 O                     62.72     55.98     40.46 
 C                     65.69     56.32     38.44 
 C                     66.56     57.54     38.69 
 O                     66.08     58.65     39. 
 O                     67.79     57.4      38.47 
 H                     64.71     58.12     37.5 
 H                     63.64     55.69     38.14 
 H                     65.89     55.82     37.49 
 H                     66.       55.55     39.15 
 N                     64.22     57.55     40.86 
 C                     63.64     58.04     42.09 
 C                     63.99     57.09     43.23 
 O                     65.15     56.94     43.61 
 C                     64.13     59.45     42.41 
 C                     63.52     60.47     41.44 
 C                     63.92     61.89     41.83 
 C                     63.38     63.02     40.96 
 N                     63.27     62.6      39.55 
 H                     64.83     58.2      40.4 
 H                     62.56     58.05     41.96 
 H                     65.22     59.5      42.41 
 H                     63.89     59.73     43.43 
 H                     62.45     60.27     41.53 
 H                     63.83     60.26     40.42 
 H                     65.       61.94     41.8 
 H                     63.56     62.1      42.84 
 H                     63.9      63.97     41.07 
 H                     62.35     63.21     41.25 
 H                     62.7      61.77     39.56 
 H                     62.66     63.33     39.2 
 H                     64.11     62.54     39. 
 N                     62.97     56.35     43.66 
 C                     63.03     55.31     44.66 
 C                     63.36     53.94     44.08 
 O                     63.77     53.01     44.78 
 C                     61.69     55.29     45.4 
 C                     61.18     56.6      45.96 
 O                     61.84     57.4      46.66 
 O                     59.97     56.82     45.72 
 H                     62.08     56.65     43.29 
 H                     63.84     55.61     45.33 
 H                     61.74     54.43     46.07 
 H                     60.97     55.09     44.61 
 N                     63.23     53.76     42.77 
 C                     64.05     52.77     42.09 
 C                     65.55     53.07     42.12 
 O                     66.03     53.99     42.77 
 H                     63.06     54.6      42.23 
 H                     63.81     52.63     41.04 
 H                     63.96     51.87     42.69 
 N                     66.36     52.11     41.68 
 C                     66.17     50.72     41.29 
 C                     67.04     50.2      40.16 
 O                     68.08     49.57     40.35 
 C                     66.18     49.93     42.6 
 C                     66.02     48.44     42.37 
 N                     67.08     47.64     42.5 
 O                     64.99     48.04     41.83 
 H                     67.31     52.35     41.91 
 H                     65.13     50.55     41.02 
 H                     65.33     50.13     43.25 
 H                     67.09     50.06     43.19 
 H                     67.89     48.14     42.83 
 H                     66.98     46.64     42.63 
 N                     66.78     50.45     38.88 
 C                     65.97     51.57     38.45 
 C                     64.51     51.2      38.22 
 O                     63.67     51.99     37.79 
 H                     67.3      49.97     38.15 
 H                     66.37     52.11     37.58 
 H                     65.91     52.33     39.22 
 N                     64.13     49.95     38.49 
 C                     62.79     49.42     38.55 
 C                     62.1      50.13     39.71 
 O                     62.78     50.4      40.7 
 C                     62.85     47.9      38.66 
 C                     63.41     47.23     37.43 
 C                     62.51     46.97     36.38 
 C                     64.75     46.84     37.36 
 C                     62.99     46.33     35.23 
 C                     65.24     46.24     36.19 
 C                     64.35     45.97     35.13 
 O                     64.72     45.12     34.13 
 H                     64.83     49.33     38.86 
 H                     62.29     49.74     37.64 
 H                     61.84     47.57     38.92 
 H                     63.52     47.6      39.46 
 H                     61.49     47.32     36.46 
 H                     65.48     47.03     38.14 
 H                     62.37     46.17     34.37 
 H                     66.23     45.83     36.31 
 H                     65.68     45.1      34.11 
 N                     60.84     50.57     39.6 
 C                     60.17     51.45     40.53 
 C                     59.11     50.62     41.24 
 O                     58.51     49.73     40.64 
 C                     59.59     52.62     39.76 
 C                     60.73     53.47     39.18 
 C                     58.64     52.21     38.64 
 C                     60.29     54.75     38.49 
 H                     60.28     50.17     38.86 
 H                     60.87     51.79     41.3 
 H                     59.03     53.28     40.42 
 H                     61.22     52.84     38.43 
 H                     61.5      53.59     39.95 
 H                     57.82     51.63     39.06 
 H                     58.35     53.09     38.06 
 H                     59.21     51.68     37.88 
 H                     59.9      54.58     37.48 
 H                     59.47     55.29     38.96 
 H                     61.12     55.45     38.53 
 N                     58.74     51.02     42.46 
 C                     57.76     50.44     43.36 
 C                     56.3      50.52     42.95 
 O                     55.98     50.71     41.77 
 C                     58.2      49.04     43.8 
 O                     57.86     48.14     42.77 
 H                     59.25     51.8      42.84 
 H                     57.78     51.11     44.22 
 H                     57.66     48.62     44.65 
 H                     59.26     48.92     44.01 
 H                     58.1      48.38     41.87 
 N                     55.4      50.41     43.92 
 C                     53.96     50.52     43.82 
 C                     53.45     51.95     43.95 
 O                     54.06     52.7      44.7 
 C                     53.26     49.65     44.86 
 H                     55.7      50.22     44.86 
 H                     53.74     50.12     42.83 
 H                     53.47     48.6      44.66 
 H                     53.75     49.89     45.81 
 H                     52.18     49.73     44.81 
 N                     52.46     52.29     43.12 
 C                     52.02     53.65     42.86 
 C                     53.12     54.66     42.57 
 O                     53.23     55.76     43.11 
 C                     51.03     53.99     43.97 
 H                     52.09     51.54     42.55 
 H                     51.42     53.56     41.96 
 H                     50.63     55.       43.88 
 H                     50.29     53.18     43.96 
 H                     51.52     53.88     44.93 
 N                     53.99     54.21     41.66 
 C                     54.93     55.16     41.09 
 C                     54.65     55.47     39.63 
 O                     54.8      56.61     39.19 
 C                     56.33     54.59     41.29 
 C                     57.41     55.64     41.48 
 C                     57.3      56.43     42.77 
 O                     57.62     55.84     43.82 
 O                     56.91     57.62     42.67 
 H                     53.88     53.24     41.4 
 H                     54.91     56.11     41.62 
 H                     56.52     53.91     40.46 
 H                     56.41     53.97     42.19 
 H                     57.29     56.32     40.64 
 H                     58.4      55.18     41.35 
 N                     54.11     54.51     38.88 
 C                     53.11     54.72     37.85 
 H                     52.255    55.244    38.276 
 H                     53.537    55.317    37.045 
 H                     52.785    53.757    37.456 
 H                     54.21     53.54     39.11 
 Ca                    57.54     56.1      46.33 
 O                     57.6      53.64     45.75 
 H                     58.34     53.05     45.95 
 H                     56.86     53.05     45.63 
 
 Stoichiometry    C54H83CaN15O23
 Framework group  C1[X(C54H83CaN15O23)]
 Deg. of freedom   522
 Full point group                 C1      NOp   1
 Largest Abelian subgroup         C1      NOp   1
 Largest concise Abelian subgroup C1      NOp   1
                         Standard orientation:                         
 ---------------------------------------------------------------------
 Center     Atomic      Atomic             Coordinates (Angstroms)
 Number     Number       Type             X           Y           Z
 ---------------------------------------------------------------------
      1          6           0       -1.956436    5.295586    5.176022
      2          6           0       -1.887565    4.320293    4.005611
      3          8           0       -0.990079    3.490808    3.864636
      4          1           0       -1.887826    6.317340    4.802098
      5          1           0       -2.901944    5.165261    5.702587
      6          1           0       -1.129187    5.103443    5.859431
      7          7           0       -2.876972    4.410875    3.121661
      8          6           0       -3.176280    3.478921    2.048546
      9          6           0       -2.209908    3.626583    0.886082
     10          8           0       -1.326307    2.799396    0.654543
     11          6           0       -4.650764    3.692952    1.734560
     12          6           0       -5.090341    5.128507    1.502710
     13          8           0       -4.299881    6.090944    1.589245
     14          8           0       -6.320457    5.309827    1.316058
     15          1           0       -3.673784    5.013650    3.278991
     16          1           0       -3.018374    2.483966    2.484929
     17          1           0       -5.266764    3.151639    2.455688
     18          1           0       -4.864455    3.136797    0.819067
     19          7           0       -2.213209    4.762731    0.171201
     20          6           0       -1.157110    5.224355   -0.701129
     21          6           0       -1.301553    4.562791   -2.067171
     22          8           0       -2.266462    4.791552   -2.794576
     23          6           0       -1.183367    6.743845   -0.846254
     24          6           0       -0.728052    7.421282    0.452656
     25          6           0       -0.646078    8.934142    0.270894
     26          6           0       -0.196416    9.748533    1.479187
     27          7           0       -0.667222    9.138403    2.737234
     28          1           0       -2.782441    5.492785    0.557459
     29          1           0       -0.211666    4.916467   -0.259836
     30          1           0       -2.168703    7.095068   -1.156664
     31          1           0       -0.555932    7.073512   -1.667257
     32          1           0        0.236199    6.944310    0.641646
     33          1           0       -1.403930    7.177749    1.267813
     34          1           0       -1.632445    9.278756   -0.008608
     35          1           0        0.072117    9.162473   -0.520219
     36          1           0       -0.423474   10.811732    1.423934
     37          1           0        0.885706    9.679441    1.552247
     38          1           0       -0.327114    8.190799    2.720671
     39          1           0       -0.066104    9.618789    3.397072
     40          1           0       -1.634932    9.245187    2.989887
     41          7           0       -0.387674    3.629032   -2.323724
     42          6           0       -0.334467    2.783173   -3.492865
     43          6           0       -1.137098    1.497045   -3.338411
     44          8           0       -1.481135    0.815163   -4.307780
     45          6           0        1.136979    2.485168   -3.792263
     46          6           0        2.084053    3.661492   -3.887730
     47          8           0        1.895739    4.696085   -4.565783
     48          8           0        3.157687    3.503279   -3.261329
     49          1           0        0.367119    3.619545   -1.653501
     50          1           0       -0.781137    3.379762   -4.292594
     51          1           0        1.127420    1.765818   -4.612899
     52          1           0        1.482899    1.993550   -2.886089
     53          7           0       -1.502406    1.122549   -2.117058
     54          6           0       -2.702481    0.321902   -1.933520
     55          6           0       -3.996925    1.029139   -2.339884
     56          8           0       -4.010988    2.121451   -2.893017
     57          1           0       -1.343511    1.806000   -1.386479
     58          1           0       -2.870190   -0.012025   -0.913684
     59          1           0       -2.616676   -0.483443   -2.656124
     60          7           0       -5.099820    0.284849   -2.370776
     61          6           0       -5.367106   -1.140955   -2.244522
     62          6           0       -6.661070   -1.537612   -1.557122
     63          8           0       -7.687317   -1.823416   -2.173347
     64          6           0       -5.107552   -1.723257   -3.635154
     65          6           0       -5.370225   -3.215508   -3.687963
     66          7           0       -6.472859   -3.665214   -4.290012
     67          8           0       -4.700572   -3.952006   -2.965720
     68          1           0       -5.836987    0.807250   -2.814264
     69          1           0       -4.545678   -1.626889   -1.722483
     70          1           0       -4.065698   -1.686813   -3.948539
     71          1           0       -5.710524   -1.270834   -4.425621
     72          1           0       -6.990386   -2.921566   -4.730641
     73          1           0       -6.559483   -4.628431   -4.592680
     74          7           0       -6.801854   -1.535168   -0.234747
     75          6           0       -5.958402   -0.749436    0.640817
     76          6           0       -4.783885   -1.537652    1.207055
     77          8           0       -3.986306   -1.074413    2.021843
     78          1           0       -7.631351   -1.940270    0.191313
     79          1           0       -6.499107   -0.234838    1.447866
     80          1           0       -5.473666    0.055439    0.101088
     81          7           0       -4.622602   -2.799007    0.803606
     82          6           0       -3.494997   -3.669149    1.030451
     83          6           0       -2.313208   -3.037663    0.302165
     84          8           0       -2.539201   -2.465065   -0.763884
     85          6           0       -3.850170   -5.085349    0.589621
     86          6           0       -4.927966   -5.723891    1.429871
     87          6           0       -4.518979   -6.355897    2.618735
     88          6           0       -6.263311   -5.730797    1.018280
     89          6           0       -5.489854   -6.977971    3.414301
     90          6           0       -7.241224   -6.314556    1.837982
     91          6           0       -6.846990   -6.954571    3.031112
     92          8           0       -7.713092   -7.788076    3.674957
     93          1           0       -5.274781   -3.147062    0.121828
     94          1           0       -3.275380   -3.619774    2.093386
     95          1           0       -2.912004   -5.647695    0.575066
     96          1           0       -4.258050   -5.082348   -0.416622
     97          1           0       -3.481662   -6.296656    2.918341
     98          1           0       -6.623984   -5.247186    0.116373
     99          1           0       -5.250200   -7.412577    4.364714
    100          1           0       -8.196631   -6.413784    1.348133
    101          1           0       -8.601916   -7.542249    3.406703
    102          7           0       -1.100922   -2.983814    0.868523
    103          6           0        0.022360   -2.214238    0.384590
    104          6           0        1.047751   -3.209131   -0.140156
    105          8           0        1.195131   -4.299941    0.408036
    106          6           0        0.551379   -1.360168    1.519889
    107          6           0       -0.498626   -0.307385    1.904125
    108          6           0        0.949023   -2.157812    2.757081
    109          6           0       -0.046033    0.700589    2.946836
    110          1           0       -0.928740   -3.614877    1.638791
    111          1           0       -0.280961   -1.597470   -0.467521
    112          1           0        1.433690   -0.803782    1.208824
    113          1           0       -1.340798   -0.866181    2.326019
    114          1           0       -0.914805    0.119458    0.984995
    115          1           0        1.712216   -2.884825    2.484708
    116          1           0        1.212940   -1.474808    3.568716
    117          1           0        0.052539   -2.600405    3.185833
    118          1           0       -0.069718    0.301418    3.967229
    119          1           0        0.982886    1.046107    2.864114
    120          1           0       -0.635747    1.603239    2.812814
    121          7           0        1.888494   -2.775959   -1.083985
    122          6           0        2.960703   -3.486374   -1.756650
    123          6           0        4.174142   -3.869160   -0.927711
    124          8           0        4.108788   -3.927802    0.306465
    125          6           0        2.396690   -4.640438   -2.591651
    126          8           0        2.158369   -5.723138   -1.721327
    127          1           0        1.724363   -1.842966   -1.423819
    128          1           0        3.382830   -2.733419   -2.422809
    129          1           0        3.085252   -5.082350   -3.313520
    130          1           0        1.472221   -4.432638   -3.124826
    131          1           0        1.687124   -5.542510   -0.902485
    132          7           0        5.301348   -4.100963   -1.590036
    133          6           0        6.608276   -4.410117   -1.049607
    134          6           0        7.436208   -3.174357   -0.718960
    135          8           0        7.299449   -2.194917   -1.439442
    136          6           0        7.407573   -5.300754   -1.996386
    137          1           0        5.303611   -4.078476   -2.594620
    138          1           0        6.384876   -4.978328   -0.146431
    139          1           0        6.914562   -6.267268   -2.093292
    140          1           0        7.335046   -4.814738   -2.975532
    141          1           0        8.395690   -5.531813   -1.614894
    142          7           0        8.135334   -3.232242    0.417909
    143          6           0        8.751493   -2.093317    1.076695
    144          6           0        7.871921   -0.862413    1.236153
    145          8           0        8.198784    0.284163    0.932468
    146          6           0       10.108395   -1.903983    0.405302
    147          1           0        8.113724   -4.121890    0.899945
    148          1           0        8.974849   -2.460814    2.073268
    149          1           0       10.667886   -1.065427    0.820024
    150          1           0       10.601573   -2.882451    0.461657
    151          1           0        9.961517   -1.749867   -0.656995
    152          7           0        6.668098   -1.164399    1.733258
    153          6           0        5.826528   -0.070861    2.188159
    154          6           0        5.656325   -0.039810    3.696856
    155          8           0        5.623228    1.031101    4.303283
    156          6           0        4.487899   -0.197994    1.469265
    157          6           0        3.798243    1.126584    1.195645
    158          6           0        4.511662    2.012354    0.192278
    159          8           0        4.444091    1.673659   -1.005103
    160          8           0        5.098602    3.023768    0.651346
    161          1           0        6.465046   -2.151543    1.803379
    162          1           0        6.235525    0.895439    1.900433
    163          1           0        3.881747   -0.898148    2.043516
    164          1           0        4.582206   -0.651215    0.476040
    165          1           0        3.774173    1.633425    2.157379
    166          1           0        2.746965    0.947903    0.928273
    167          7           0        5.682447   -1.199656    4.352428
    168          6           0        6.294027   -1.409564    5.651238
    169          1           0        7.336470   -1.094633    5.616459
    170          1           0        5.763339   -0.824902    6.401774
    171          1           0        6.243643   -2.467010    5.911044
    172          1           0        5.453559   -2.065861    3.903987
    173         20           0        5.426015    2.218731   -3.266258
    174          8           0        4.628100   -0.180209   -3.262228
    175          1           0        3.888379   -0.510228   -3.790999
    176          1           0        5.132847   -0.963271   -3.056935
 ---------------------------------------------------------------------
 Rotational constants (GHZ):           0.0173248           0.0135420           0.0100585
 Standard basis: SVP (5D, 7F)
 There are  1809 symmetry adapted cartesian basis functions of A   symmetry.
 There are  1717 symmetry adapted basis functions of A   symmetry.
  1717 basis functions,  2922 primitive gaussians,  1809 cartesian basis functions
   358 alpha electrons      358 beta electrons
       nuclear repulsion energy     20218.2792135019 Hartrees.
 NAtoms=  176 NActive=  176 NUniq=  176 SFac= 1.00D+00 NAtFMM=   60 NAOKFM=T Big=T
 Integral buffers will be    131072 words long.
 Raffenetti 2 integral format.
 Two-electron integral symmetry is turned on.
 One-electron integrals computed using PRISM.
 NBasis=  1717 RedAO= T EigKep=  2.93D-04  NBF=  1717
 NBsUse=  1717 1.00D-06 EigRej= -1.00D+00 NBFU=  1717
 ExpMin= 1.98D-02 ExpMax= 3.51D+04 ExpMxC= 5.28D+03 IAcc=3 IRadAn=         5 AccDes= 0.00D+00
 Harris functional with IExCor=  402 and IRadAn=       5 diagonalized for initial guess.
 HarFok:  IExCor=  402 AccDes= 0.00D+00 IRadAn=         5 IDoV= 1 UseB2=F ITyADJ=14
 ICtDFT=  3500011 ScaDFX=  1.000000  1.000000  1.000000  1.000000
 FoFCou: FMM=F IPFlag=           0 FMFlag=      100000 FMFlg1=        2001
         NFxFlg=           0 DoJE=T BraDBF=F KetDBF=T FulRan=T
         wScrn=  0.000000 ICntrl=       500 IOpCl=  0 I1Cent=   200000004 NGrid=           0
         NMat0=    1 NMatS0=      1 NMatT0=    0 NMatD0=    1 NMtDS0=    0 NMtDT0=    0
 Petite list used in FoFCou.
 Requested convergence on RMS density matrix=1.00D-08 within 128 cycles.
 Requested convergence on MAX density matrix=1.00D-06.
 Requested convergence on             energy=1.00D-06.
 No special actions if energy rises.
 EnCoef did     3 forward-backward iterations
 EnCoef did     2 forward-backward iterations
 EnCoef did     3 forward-backward iterations
 Rare condition: small coef for last iteration:  0.000D+00
 Rare condition: small coef for last iteration:  0.000D+00
 EnCoef did   100 forward-backward iterations
 EnCoef did   100 forward-backward iterations
 Rare condition: small coef for last iteration:  0.673D-16
 Restarting incremental Fock formation.
 EnCoef did   100 forward-backward iterations
 Rare condition: small coef for last iteration:  0.000D+00
 EnCoef did   100 forward-backward iterations
 EnCoef did   100 forward-backward iterations
 Rare condition: small coef for last iteration: -0.239D-15
 EnCoef did   100 forward-backward iterations
 EnCoef did   100 forward-backward iterations
 Rare condition: small coef for last iteration:  0.000D+00
 EnCoef did   100 forward-backward iterations
 EnCoef did   100 forward-backward iterations
 EnCoef did     3 forward-backward iterations
 SCF Done:  E(RB3LYP) =  -5333.29913806     A.U. after   40 cycles
            NFock= 40  Conv=0.20D-09     -V/T= 2.0081
 SCF density gives NOpUse=  1 NOpAll=  1.
 Hyperfine terms turned off by default for NAtoms > 100.

 **********************************************************************

            Population analysis using the SCF density.

 **********************************************************************

 Orbital symmetries:
 BldTbl:  Degeneracy threshold= 1.00D-02
       Occupied  (A) (A) (A) (A) (A) (A) (A) (A) (A) (A) (A) (A)
                 (A) (A) (A) (A) (A) (A) (A) (A) (A) (A) (A) (A)
                 (A) (A) (A) (A) (A) (A) (A) (A) (A) (A) (A) (A)
                 (A) (A) (A) (A) (A) (A) (A) (A) (A) (A) (A) (A)
                 (A) (A) (A) (A) (A) (A) (A) (A) (A) (A) (A) (A)
                 (A) (A) (A) (A) (A) (A) (A) (A) (A) (A) (A) (A)
                 (A) (A) (A) (A) (A) (A) (A) (A) (A) (A) (A) (A)
                 (A) (A) (A) (A) (A) (A) (A) (A) (A) (A) (A) (A)
                 (A) (A) (A) (A) (A) (A) (A) (A) (A) (A) (A) (A)
                 (A) (A) (A) (A) (A) (A) (A) (A) (A) (A) (A) (A)
                 (A) (A) (A) (A) (A) (A) (A) (A) (A) (A) (A) (A)
                 (A) (A) (A) (A) (A) (A) (A) (A) (A) (A) (A) (A)
                 (A) (A) (A) (A) (A) (A) (A) (A) (A) (A) (A) (A)
                 (A) (A) (A) (A) (A) (A) (A) (A) (A) (A) (A) (A)
                 (A) (A) (A) (A) (A) (A) (A) (A) (A) (A) (A) (A)
                 (A) (A) (A) (A) (A) (A) (A) (A) (A) (A) (A) (A)
                 (A) (A) (A) (A) (A) (A) (A) (A) (A) (A) (A) (A)
                 (A) (A) (A) (A) (A) (A) (A) (A) (A) (A) (A) (A)
                 (A) (A) (A) (A) (A) (A) (A) (A) (A) (A) (A) (A)
                 (A) (A) (A) (A) (A) (A) (A) (A) (A) (A) (A) (A)
                 (A) (A) (A) (A) (A) (A) (A) (A) (A) (A) (A) (A)
                 (A) (A) (A) (A) (A) (A) (A) (A) (A) (A) (A) (A)
                 (A) (A) (A) (A) (A) (A) (A) (A) (A) (A) (A) (A)
                 (A) (A) (A) (A) (A) (A) (A) (A) (A) (A) (A) (A)
                 (A) (A) (A) (A) (A) (A) (A) (A) (A) (A) (A) (A)
                 (A) (A) (A) (A) (A) (A) (A) (A) (A) (A) (A) (A)
                 (A) (A) (A) (A) (A) (A) (A) (A) (A) (A) (A) (A)
                 (A) (A) (A) (A) (A) (A) (A) (A) (A) (A) (A) (A)
                 (A) (A) (A) (A) (A) (A) (A) (A) (A) (A) (A) (A)
                 (A) (A) (A) (A) (A) (A) (A) (A) (A) (A)
       Virtual   (A) (A) (A) (A) (A) (A) (A) (A) (A) (A) (A) (A)
                 (A) (A) (A) (A) (A) (A) (A) (A) (A) (A) (A) (A)
                 (A) (A) (A) (A) (A) (A) (A) (A) (A) (A) (A) (A)
                 (A) (A) (A) (A) (A) (A) (A) (A) (A) (A) (A) (A)
                 (A) (A) (A) (A) (A) (A) (A) (A) (A) (A) (A) (A)
                 (A) (A) (A) (A) (A) (A) (A) (A) (A) (A) (A) (A)
                 (A) (A) (A) (A) (A) (A) (A) (A) (A) (A) (A) (A)
                 (A) (A) (A) (A) (A) (A) (A) (A) (A) (A) (A) (A)
                 (A) (A) (A) (A) (A) (A) (A) (A) (A) (A) (A) (A)
                 (A) (A) (A) (A) (A) (A) (A) (A) (A) (A) (A) (A)
                 (A) (A) (A) (A) (A) (A) (A) (A) (A) (A) (A) (A)
                 (A) (A) (A) (A) (A) (A) (A) (A) (A) (A) (A) (A)
                 (A) (A) (A) (A) (A) (A) (A) (A) (A) (A) (A) (A)
                 (A) (A) (A) (A) (A) (A) (A) (A) (A) (A) (A) (A)
                 (A) (A) (A) (A) (A) (A) (A) (A) (A) (A) (A) (A)
                 (A) (A) (A) (A) (A) (A) (A) (A) (A) (A) (A) (A)
                 (A) (A) (A) (A) (A) (A) (A) (A) (A) (A) (A) (A)
                 (A) (A) (A) (A) (A) (A) (A) (A) (A) (A) (A) (A)
                 (A) (A) (A) (A) (A) (A) (A) (A) (A) (A) (A) (A)
                 (A) (A) (A) (A) (A) (A) (A) (A) (A) (A) (A) (A)
                 (A) (A) (A) (A) (A) (A) (A) (A) (A) (A) (A) (A)
                 (A) (A) (A) (A) (A) (A) (A) (A) (A) (A) (A) (A)
                 (A) (A) (A) (A) (A) (A) (A) (A) (A) (A) (A) (A)
                 (A) (A) (A) (A) (A) (A) (A) (A) (A) (A) (A) (A)
                 (A) (A) (A) (A) (A) (A) (A) (A) (A) (A) (A) (A)
                 (A) (A) (A) (A) (A) (A) (A) (A) (A) (A) (A) (A)
                 (A) (A) (A) (A) (A) (A) (A) (A) (A) (A) (A) (A)
                 (A) (A) (A) (A) (A) (A) (A) (A) (A) (A) (A) (A)
                 (A) (A) (A) (A) (A) (A) (A) (A) (A) (A) (A) (A)
                 (A) (A) (A) (A) (A) (A) (A) (A) (A) (A) (A) (A)
                 (A) (A) (A) (A) (A) (A) (A) (A) (A) (A) (A) (A)
                 (A) (A) (A) (A) (A) (A) (A) (A) (A) (A) (A) (A)
                 (A) (A) (A) (A) (A) (A) (A) (A) (A) (A) (A) (A)
                 (A) (A) (A) (A) (A) (A) (A) (A) (A) (A) (A) (A)
                 (A) (A) (A) (A) (A) (A) (A) (A) (A) (A) (A) (A)
                 (A) (A) (A) (A) (A) (A) (A) (A) (A) (A) (A) (A)
                 (A) (A) (A) (A) (A) (A) (A) (A) (A) (A) (A) (A)
                 (A) (A) (A) (A) (A) (A) (A) (A) (A) (A) (A) (A)
                 (A) (A) (A) (A) (A) (A) (A) (A) (A) (A) (A) (A)
                 (A) (A) (A) (A) (A) (A) (A) (A) (A) (A) (A) (A)
                 (A) (A) (A) (A) (A) (A) (A) (A) (A) (A) (A) (A)
                 (A) (A) (A) (A) (A) (A) (A) (A) (A) (A) (A) (A)
                 (A) (A) (A) (A) (A) (A) (A) (A) (A) (A) (A) (A)
                 (A) (A) (A) (A) (A) (A) (A) (A) (A) (A) (A) (A)
                 (A) (A) (A) (A) (A) (A) (A) (A) (A) (A) (A) (A)
                 (A) (A) (A) (A) (A) (A) (A) (A) (A) (A) (A) (A)
                 (A) (A) (A) (A) (A) (A) (A) (A) (A) (A) (A) (A)
                 (A) (A) (A) (A) (A) (A) (A) (A) (A) (A) (A) (A)
                 (A) (A) (A) (A) (A) (A) (A) (A) (A) (A) (A) (A)
                 (A) (A) (A) (A) (A) (A) (A) (A) (A) (A) (A) (A)
                 (A) (A) (A) (A) (A) (A) (A) (A) (A) (A) (A) (A)
                 (A) (A) (A) (A) (A) (A) (A) (A) (A) (A) (A) (A)
                 (A) (A) (A) (A) (A) (A) (A) (A) (A) (A) (A) (A)
                 (A) (A) (A) (A) (A) (A) (A) (A) (A) (A) (A) (A)
                 (A) (A) (A) (A) (A) (A) (A) (A) (A) (A) (A) (A)
                 (A) (A) (A) (A) (A) (A) (A) (A) (A) (A) (A) (A)
                 (A) (A) (A) (A) (A) (A) (A) (A) (A) (A) (A) (A)
                 (A) (A) (A) (A) (A) (A) (A) (A) (A) (A) (A) (A)
                 (A) (A) (A) (A) (A) (A) (A) (A) (A) (A) (A) (A)
                 (A) (A) (A) (A) (A) (A) (A) (A) (A) (A) (A) (A)
                 (A) (A) (A) (A) (A) (A) (A) (A) (A) (A) (A) (A)
                 (A) (A) (A) (A) (A) (A) (A) (A) (A) (A) (A) (A)
                 (A) (A) (A) (A) (A) (A) (A) (A) (A) (A) (A) (A)
                 (A) (A) (A) (A) (A) (A) (A) (A) (A) (A) (A) (A)
                 (A) (A) (A) (A) (A) (A) (A) (A) (A) (A) (A) (A)
                 (A) (A) (A) (A) (A) (A) (A) (A) (A) (A) (A) (A)
                 (A) (A) (A) (A) (A) (A) (A) (A) (A) (A) (A) (A)
                 (A) (A) (A) (A) (A) (A) (A) (A) (A) (A) (A) (A)
                 (A) (A) (A) (A) (A) (A) (A) (A) (A) (A) (A) (A)
                 (A) (A) (A) (A) (A) (A) (A) (A) (A) (A) (A) (A)
                 (A) (A) (A) (A) (A) (A) (A) (A) (A) (A) (A) (A)
                 (A) (A) (A) (A) (A) (A) (A) (A) (A) (A) (A) (A)
                 (A) (A) (A) (A) (A) (A) (A) (A) (A) (A) (A) (A)
                 (A) (A) (A) (A) (A) (A) (A) (A) (A) (A) (A) (A)
                 (A) (A) (A) (A) (A) (A) (A) (A) (A) (A) (A) (A)
                 (A) (A) (A) (A) (A) (A) (A) (A) (A) (A) (A) (A)
                 (A) (A) (A) (A) (A) (A) (A) (A) (A) (A) (A) (A)
                 (A) (A) (A) (A) (A) (A) (A) (A) (A) (A) (A) (A)
                 (A) (A) (A) (A) (A) (A) (A) (A) (A) (A) (A) (A)
                 (A) (A) (A) (A) (A) (A) (A) (A) (A) (A) (A) (A)
                 (A) (A) (A) (A) (A) (A) (A) (A) (A) (A) (A) (A)
                 (A) (A) (A) (A) (A) (A) (A) (A) (A) (A) (A) (A)
                 (A) (A) (A) (A) (A) (A) (A) (A) (A) (A) (A) (A)
                 (A) (A) (A) (A) (A) (A) (A) (A) (A) (A) (A) (A)
                 (A) (A) (A) (A) (A) (A) (A) (A) (A) (A) (A) (A)
                 (A) (A) (A) (A) (A) (A) (A) (A) (A) (A) (A) (A)
                 (A) (A) (A) (A) (A) (A) (A) (A) (A) (A) (A) (A)
                 (A) (A) (A) (A) (A) (A) (A) (A) (A) (A) (A) (A)
                 (A) (A) (A) (A) (A) (A) (A) (A) (A) (A) (A) (A)
                 (A) (A) (A) (A) (A) (A) (A) (A) (A) (A) (A) (A)
                 (A) (A) (A) (A) (A) (A) (A) (A) (A) (A) (A) (A)
                 (A) (A) (A) (A) (A) (A) (A) (A) (A) (A) (A) (A)
                 (A) (A) (A) (A) (A) (A) (A) (A) (A) (A) (A) (A)
                 (A) (A) (A) (A) (A) (A) (A) (A) (A) (A) (A) (A)
                 (A) (A) (A) (A) (A) (A) (A) (A) (A) (A) (A) (A)
                 (A) (A) (A) (A) (A) (A) (A) (A) (A) (A) (A) (A)
                 (A) (A) (A) (A) (A) (A) (A) (A) (A) (A) (A) (A)
                 (A) (A) (A) (A) (A) (A) (A) (A) (A) (A) (A) (A)
                 (A) (A) (A) (A) (A) (A) (A) (A) (A) (A) (A) (A)
                 (A) (A) (A) (A) (A) (A) (A) (A) (A) (A) (A) (A)
                 (A) (A) (A) (A) (A) (A) (A) (A) (A) (A) (A) (A)
                 (A) (A) (A) (A) (A) (A) (A) (A) (A) (A) (A) (A)
                 (A) (A) (A) (A) (A) (A) (A) (A) (A) (A) (A) (A)
                 (A) (A) (A) (A) (A) (A) (A) (A) (A) (A) (A) (A)
                 (A) (A) (A) (A) (A) (A) (A) (A) (A) (A) (A) (A)
                 (A) (A) (A) (A) (A) (A) (A) (A) (A) (A) (A) (A)
                 (A) (A) (A) (A) (A) (A) (A) (A) (A) (A) (A) (A)
                 (A) (A) (A) (A) (A) (A) (A) (A) (A) (A) (A) (A)
                 (A) (A) (A) (A) (A) (A) (A) (A) (A) (A) (A) (A)
                 (A) (A) (A) (A) (A) (A) (A) (A) (A) (A) (A) (A)
                 (A) (A) (A) (A) (A) (A) (A) (A) (A) (A) (A) (A)
                 (A) (A) (A) (A) (A) (A) (A) (A) (A) (A) (A) (A)
                 (A) (A) (A) (A) (A) (A) (A) (A) (A) (A) (A) (A)
                 (A) (A) (A)
 The electronic state is 1-A.
 Alpha  occ. eigenvalues -- -145.48800 -19.22778 -19.15555 -19.13223 -19.11153
 Alpha  occ. eigenvalues --  -19.10171 -19.09997 -19.09606 -19.08816 -19.07768
 Alpha  occ. eigenvalues --  -19.07576 -19.07286 -19.07038 -19.06371 -19.06024
 Alpha  occ. eigenvalues --  -19.05708 -19.05631 -19.05139 -19.05124 -19.05075
 Alpha  occ. eigenvalues --  -19.02620 -19.02411 -19.00830 -18.98384 -15.54728
 Alpha  occ. eigenvalues --  -14.55900 -14.39259 -14.38381 -14.36784 -14.35234
 Alpha  occ. eigenvalues --  -14.35048 -14.33910 -14.33727 -14.33289 -14.33113
 Alpha  occ. eigenvalues --  -14.32856 -14.31692 -14.31110 -14.30662 -14.30652
 Alpha  occ. eigenvalues --  -12.68315 -12.68278 -12.68266 -10.33306 -10.31282
 Alpha  occ. eigenvalues --  -10.30530 -10.28401 -10.28350 -10.28151 -10.26336
 Alpha  occ. eigenvalues --  -10.26307 -10.26263 -10.26241 -10.26099 -10.26038
 Alpha  occ. eigenvalues --  -10.25380 -10.25247 -10.25067 -10.24669 -10.24599
 Alpha  occ. eigenvalues --  -10.24597 -10.24429 -10.23843 -10.23746 -10.23091
 Alpha  occ. eigenvalues --  -10.22764 -10.22666 -10.22578 -10.22510 -10.22245
 Alpha  occ. eigenvalues --  -10.21961 -10.21859 -10.21717 -10.20886 -10.20555
 Alpha  occ. eigenvalues --  -10.19565 -10.19408 -10.19326 -10.19316 -10.19042
 Alpha  occ. eigenvalues --  -10.18619 -10.18617 -10.18608 -10.18560 -10.18336
 Alpha  occ. eigenvalues --  -10.18300 -10.18206 -10.18069 -10.18003 -10.16294
 Alpha  occ. eigenvalues --  -10.16245 -10.15713 -10.14921 -10.13837 -10.13654
 Alpha  occ. eigenvalues --  -10.12812 -10.11022  -1.91392  -1.18829  -1.18457
 Alpha  occ. eigenvalues --   -1.18195  -1.11661  -1.08503  -1.06261  -1.04422
 Alpha  occ. eigenvalues --   -1.04359  -1.03071  -1.02668  -1.02394  -1.01359
 Alpha  occ. eigenvalues --   -1.00487  -1.00044  -0.99877  -0.99799  -0.99633
 Alpha  occ. eigenvalues --   -0.99011  -0.98854  -0.98406  -0.98120  -0.98048
 Alpha  occ. eigenvalues --   -0.97572  -0.96205  -0.94862  -0.94627  -0.93275
 Alpha  occ. eigenvalues --   -0.92060  -0.91844  -0.90641  -0.90169  -0.89901
 Alpha  occ. eigenvalues --   -0.89608  -0.89098  -0.88869  -0.88375  -0.88239
 Alpha  occ. eigenvalues --   -0.88219  -0.87662  -0.86780  -0.86419  -0.84069
 Alpha  occ. eigenvalues --   -0.83960  -0.82216  -0.80164  -0.79493  -0.78826
 Alpha  occ. eigenvalues --   -0.77448  -0.76947  -0.76529  -0.76492  -0.75906
 Alpha  occ. eigenvalues --   -0.74756  -0.73878  -0.73490  -0.73095  -0.71808
 Alpha  occ. eigenvalues --   -0.71368  -0.71295  -0.70388  -0.69891  -0.69762
 Alpha  occ. eigenvalues --   -0.69074  -0.68988  -0.68466  -0.67707  -0.67240
 Alpha  occ. eigenvalues --   -0.66830  -0.66472  -0.65645  -0.64260  -0.63445
 Alpha  occ. eigenvalues --   -0.63152  -0.62562  -0.62143  -0.61441  -0.61239
 Alpha  occ. eigenvalues --   -0.60509  -0.60295  -0.60267  -0.59944  -0.59799
 Alpha  occ. eigenvalues --   -0.59405  -0.58384  -0.58109  -0.57980  -0.57812
 Alpha  occ. eigenvalues --   -0.57663  -0.57051  -0.56712  -0.56398  -0.55982
 Alpha  occ. eigenvalues --   -0.55684  -0.55136  -0.54594  -0.54322  -0.54194
 Alpha  occ. eigenvalues --   -0.53822  -0.53412  -0.53327  -0.52850  -0.52393
 Alpha  occ. eigenvalues --   -0.51848  -0.51772  -0.51590  -0.51135  -0.50732
 Alpha  occ. eigenvalues --   -0.50267  -0.50062  -0.49898  -0.49564  -0.49162
 Alpha  occ. eigenvalues --   -0.49060  -0.48913  -0.48445  -0.48291  -0.48065
 Alpha  occ. eigenvalues --   -0.47968  -0.47544  -0.47334  -0.47165  -0.46935
 Alpha  occ. eigenvalues --   -0.46775  -0.46573  -0.46478  -0.46178  -0.45740
 Alpha  occ. eigenvalues --   -0.45622  -0.45535  -0.45463  -0.45093  -0.45024
 Alpha  occ. eigenvalues --   -0.44790  -0.44534  -0.44058  -0.43975  -0.43868
 Alpha  occ. eigenvalues --   -0.43771  -0.43679  -0.43666  -0.43215  -0.42986
 Alpha  occ. eigenvalues --   -0.42948  -0.42748  -0.42488  -0.42285  -0.42119
 Alpha  occ. eigenvalues --   -0.41696  -0.41551  -0.41518  -0.41471  -0.41358
 Alpha  occ. eigenvalues --   -0.41313  -0.41183  -0.41095  -0.40747  -0.40652
 Alpha  occ. eigenvalues --   -0.40508  -0.40451  -0.40320  -0.40260  -0.40101
 Alpha  occ. eigenvalues --   -0.40048  -0.40004  -0.39847  -0.39585  -0.39394
 Alpha  occ. eigenvalues --   -0.39163  -0.39062  -0.38978  -0.38854  -0.38601
 Alpha  occ. eigenvalues --   -0.38475  -0.38407  -0.38211  -0.38095  -0.38005
 Alpha  occ. eigenvalues --   -0.37857  -0.37552  -0.37451  -0.37276  -0.37155
 Alpha  occ. eigenvalues --   -0.36893  -0.36863  -0.36694  -0.36527  -0.36454
 Alpha  occ. eigenvalues --   -0.36398  -0.36328  -0.36128  -0.35780  -0.35537
 Alpha  occ. eigenvalues --   -0.35468  -0.35147  -0.34807  -0.34657  -0.34483
 Alpha  occ. eigenvalues --   -0.34366  -0.34339  -0.34126  -0.34070  -0.33932
 Alpha  occ. eigenvalues --   -0.33741  -0.33507  -0.33323  -0.33069  -0.33013
 Alpha  occ. eigenvalues --   -0.32631  -0.32412  -0.32199  -0.32085  -0.31954
 Alpha  occ. eigenvalues --   -0.31629  -0.30900  -0.30796  -0.30732  -0.30425
 Alpha  occ. eigenvalues --   -0.30102  -0.29344  -0.28854  -0.28267  -0.27759
 Alpha  occ. eigenvalues --   -0.27680  -0.27623  -0.27016  -0.26713  -0.26476
 Alpha  occ. eigenvalues --   -0.25578  -0.25475  -0.25360  -0.25248  -0.25014
 Alpha  occ. eigenvalues --   -0.24902  -0.24801  -0.24542  -0.24154  -0.23941
 Alpha  occ. eigenvalues --   -0.23729  -0.23418  -0.23295  -0.23073  -0.22771
 Alpha  occ. eigenvalues --   -0.22445  -0.22203  -0.22105  -0.21985  -0.21955
 Alpha  occ. eigenvalues --   -0.21812  -0.21483  -0.21418  -0.21260  -0.21146
 Alpha  occ. eigenvalues --   -0.20826  -0.20188  -0.19770  -0.18305  -0.17954
 Alpha  occ. eigenvalues --   -0.17620  -0.17082  -0.14216
 Alpha virt. eigenvalues --   -0.13406  -0.08100  -0.04149  -0.02744  -0.01992
 Alpha virt. eigenvalues --   -0.01198  -0.00908  -0.00699  -0.00401   0.00486
 Alpha virt. eigenvalues --    0.00565   0.00617   0.00906   0.01592   0.01863
 Alpha virt. eigenvalues --    0.02033   0.02357   0.02495   0.02682   0.03174
 Alpha virt. eigenvalues --    0.03201   0.03680   0.04164   0.04234   0.04453
 Alpha virt. eigenvalues --    0.05052   0.05237   0.05330   0.05520   0.05641
 Alpha virt. eigenvalues --    0.05765   0.05902   0.05996   0.06116   0.06316
 Alpha virt. eigenvalues --    0.06610   0.06879   0.06914   0.07203   0.07318
 Alpha virt. eigenvalues --    0.07476   0.08048   0.08122   0.08269   0.08465
 Alpha virt. eigenvalues --    0.08516   0.08815   0.09004   0.09270   0.09946
 Alpha virt. eigenvalues --    0.10092   0.10157   0.10317   0.10499   0.10679
 Alpha virt. eigenvalues --    0.10875   0.11172   0.11249   0.11521   0.11619
 Alpha virt. eigenvalues --    0.11851   0.11922   0.12259   0.12404   0.12498
 Alpha virt. eigenvalues --    0.12763   0.12981   0.13210   0.13296   0.13352
 Alpha virt. eigenvalues --    0.13459   0.13544   0.13693   0.13921   0.14042
 Alpha virt. eigenvalues --    0.14150   0.14366   0.14597   0.14898   0.15030
 Alpha virt. eigenvalues --    0.15109   0.15217   0.15599   0.15707   0.15774
 Alpha virt. eigenvalues --    0.15860   0.16102   0.16332   0.16387   0.16789
 Alpha virt. eigenvalues --    0.16908   0.17157   0.17290   0.17332   0.17737
 Alpha virt. eigenvalues --    0.17976   0.18061   0.18426   0.18495   0.18720
 Alpha virt. eigenvalues --    0.18788   0.18943   0.19109   0.19482   0.19661
 Alpha virt. eigenvalues --    0.19850   0.20002   0.20392   0.20706   0.20784
 Alpha virt. eigenvalues --    0.20833   0.21047   0.21278   0.21509   0.21740
 Alpha virt. eigenvalues --    0.21858   0.22100   0.22372   0.22647   0.22727
 Alpha virt. eigenvalues --    0.22973   0.23035   0.23564   0.23785   0.24018
 Alpha virt. eigenvalues --    0.24197   0.24241   0.24696   0.24889   0.25033
 Alpha virt. eigenvalues --    0.25214   0.25427   0.25498   0.25758   0.25830
 Alpha virt. eigenvalues --    0.25934   0.26213   0.26464   0.26680   0.27097
 Alpha virt. eigenvalues --    0.27141   0.27383   0.27525   0.28089   0.28240
 Alpha virt. eigenvalues --    0.28457   0.28792   0.29034   0.29280   0.29596
 Alpha virt. eigenvalues --    0.29848   0.30091   0.30114   0.30322   0.30691
 Alpha virt. eigenvalues --    0.30873   0.30984   0.31245   0.31357   0.31654
 Alpha virt. eigenvalues --    0.32175   0.32184   0.32462   0.32647   0.32935
 Alpha virt. eigenvalues --    0.33075   0.33128   0.33642   0.33933   0.34099
 Alpha virt. eigenvalues --    0.34285   0.34476   0.34934   0.35495   0.35790
 Alpha virt. eigenvalues --    0.35975   0.36030   0.36522   0.36727   0.36977
 Alpha virt. eigenvalues --    0.37376   0.37632   0.37831   0.38525   0.38713
 Alpha virt. eigenvalues --    0.38850   0.39149   0.39329   0.39874   0.40161
 Alpha virt. eigenvalues --    0.40364   0.40690   0.40921   0.41220   0.41403
 Alpha virt. eigenvalues --    0.41549   0.41963   0.42255   0.42309   0.42479
 Alpha virt. eigenvalues --    0.42681   0.42789   0.43054   0.43246   0.43555
 Alpha virt. eigenvalues --    0.43654   0.43855   0.43918   0.44060   0.44340
 Alpha virt. eigenvalues --    0.44698   0.44921   0.45208   0.45402   0.45661
 Alpha virt. eigenvalues --    0.45858   0.46047   0.46268   0.46333   0.46490
 Alpha virt. eigenvalues --    0.46632   0.46748   0.46958   0.47223   0.47301
 Alpha virt. eigenvalues --    0.47427   0.47587   0.47763   0.48068   0.48447
 Alpha virt. eigenvalues --    0.48598   0.48764   0.49013   0.49134   0.49226
 Alpha virt. eigenvalues --    0.49431   0.49651   0.49829   0.50023   0.50091
 Alpha virt. eigenvalues --    0.50654   0.50842   0.50966   0.51412   0.51560
 Alpha virt. eigenvalues --    0.51781   0.51865   0.52121   0.52224   0.52319
 Alpha virt. eigenvalues --    0.52625   0.53007   0.53112   0.53199   0.53383
 Alpha virt. eigenvalues --    0.53549   0.53622   0.53649   0.54009   0.54190
 Alpha virt. eigenvalues --    0.54406   0.54706   0.54870   0.54919   0.55251
 Alpha virt. eigenvalues --    0.55545   0.55766   0.55898   0.56094   0.56216
 Alpha virt. eigenvalues --    0.56380   0.56637   0.56731   0.56942   0.57080
 Alpha virt. eigenvalues --    0.57332   0.57625   0.57746   0.57941   0.58227
 Alpha virt. eigenvalues --    0.58255   0.58568   0.58851   0.58986   0.59086
 Alpha virt. eigenvalues --    0.59397   0.59457   0.59754   0.59883   0.60252
 Alpha virt. eigenvalues --    0.60395   0.60494   0.60524   0.60700   0.60934
 Alpha virt. eigenvalues --    0.60953   0.61241   0.61459   0.61490   0.61552
 Alpha virt. eigenvalues --    0.61609   0.61780   0.61893   0.62195   0.62261
 Alpha virt. eigenvalues --    0.62341   0.62462   0.62531   0.62636   0.62934
 Alpha virt. eigenvalues --    0.63006   0.63118   0.63189   0.63422   0.63476
 Alpha virt. eigenvalues --    0.63547   0.63703   0.63820   0.64027   0.64098
 Alpha virt. eigenvalues --    0.64292   0.64406   0.64448   0.64661   0.64673
 Alpha virt. eigenvalues --    0.64875   0.65008   0.65110   0.65279   0.65493
 Alpha virt. eigenvalues --    0.65543   0.65606   0.65784   0.65854   0.65928
 Alpha virt. eigenvalues --    0.66032   0.66067   0.66156   0.66254   0.66338
 Alpha virt. eigenvalues --    0.66438   0.66564   0.66625   0.66691   0.66853
 Alpha virt. eigenvalues --    0.66884   0.66955   0.67209   0.67280   0.67385
 Alpha virt. eigenvalues --    0.67537   0.67633   0.67871   0.67974   0.68050
 Alpha virt. eigenvalues --    0.68105   0.68215   0.68357   0.68480   0.68568
 Alpha virt. eigenvalues --    0.68666   0.68723   0.68806   0.68995   0.69106
 Alpha virt. eigenvalues --    0.69223   0.69423   0.69566   0.69652   0.69814
 Alpha virt. eigenvalues --    0.69880   0.69933   0.70119   0.70231   0.70353
 Alpha virt. eigenvalues --    0.70472   0.70526   0.70663   0.70814   0.71111
 Alpha virt. eigenvalues --    0.71235   0.71384   0.71580   0.71688   0.71770
 Alpha virt. eigenvalues --    0.71913   0.71984   0.72207   0.72441   0.72468
 Alpha virt. eigenvalues --    0.72618   0.72796   0.72918   0.73044   0.73297
 Alpha virt. eigenvalues --    0.73437   0.73524   0.73659   0.73943   0.73972
 Alpha virt. eigenvalues --    0.74178   0.74377   0.74586   0.74834   0.75064
 Alpha virt. eigenvalues --    0.75297   0.75544   0.75691   0.75793   0.75978
 Alpha virt. eigenvalues --    0.76030   0.76296   0.76442   0.76646   0.76781
 Alpha virt. eigenvalues --    0.77087   0.77289   0.77445   0.77809   0.77961
 Alpha virt. eigenvalues --    0.78215   0.78430   0.78589   0.78757   0.78946
 Alpha virt. eigenvalues --    0.79365   0.79867   0.79985   0.80119   0.80258
 Alpha virt. eigenvalues --    0.80582   0.80703   0.81035   0.81594   0.81634
 Alpha virt. eigenvalues --    0.81714   0.81796   0.82398   0.82527   0.82578
 Alpha virt. eigenvalues --    0.82816   0.82902   0.83126   0.83430   0.83853
 Alpha virt. eigenvalues --    0.84012   0.84468   0.84600   0.85121   0.85345
 Alpha virt. eigenvalues --    0.85502   0.85733   0.85772   0.86249   0.86431
 Alpha virt. eigenvalues --    0.86538   0.86721   0.87474   0.87559   0.87671
 Alpha virt. eigenvalues --    0.88233   0.88534   0.88682   0.89003   0.89160
 Alpha virt. eigenvalues --    0.89458   0.89915   0.90173   0.90388   0.90664
 Alpha virt. eigenvalues --    0.91142   0.91393   0.91794   0.92236   0.92520
 Alpha virt. eigenvalues --    0.92549   0.93244   0.93481   0.93942   0.94169
 Alpha virt. eigenvalues --    0.94541   0.94691   0.95023   0.95444   0.95790
 Alpha virt. eigenvalues --    0.95927   0.96175   0.96263   0.96394   0.96813
 Alpha virt. eigenvalues --    0.96963   0.97107   0.97555   0.97906   0.98270
 Alpha virt. eigenvalues --    0.98411   0.98624   0.98677   0.98877   0.98980
 Alpha virt. eigenvalues --    0.99475   0.99733   0.99898   1.00487   1.00680
 Alpha virt. eigenvalues --    1.01199   1.01505   1.01668   1.01772   1.02093
 Alpha virt. eigenvalues --    1.02979   1.03141   1.03211   1.03733   1.03861
 Alpha virt. eigenvalues --    1.04063   1.04276   1.04592   1.04930   1.05100
 Alpha virt. eigenvalues --    1.05271   1.05618   1.05815   1.06115   1.06591
 Alpha virt. eigenvalues --    1.06654   1.06872   1.07162   1.07616   1.07834
 Alpha virt. eigenvalues --    1.07870   1.08463   1.08567   1.09027   1.09302
 Alpha virt. eigenvalues --    1.09597   1.09671   1.09987   1.10260   1.10688
 Alpha virt. eigenvalues --    1.10761   1.11116   1.11479   1.11670   1.11830
 Alpha virt. eigenvalues --    1.12069   1.12186   1.12310   1.12790   1.12931
 Alpha virt. eigenvalues --    1.13015   1.13355   1.13713   1.14068   1.14092
 Alpha virt. eigenvalues --    1.14575   1.14939   1.15164   1.15374   1.15783
 Alpha virt. eigenvalues --    1.16196   1.16439   1.16587   1.16826   1.17009
 Alpha virt. eigenvalues --    1.17335   1.17748   1.17883   1.18195   1.18426
 Alpha virt. eigenvalues --    1.18946   1.19164   1.19226   1.19533   1.20015
 Alpha virt. eigenvalues --    1.20301   1.20520   1.20873   1.20941   1.21288
 Alpha virt. eigenvalues --    1.21604   1.21750   1.21936   1.22292   1.22440
 Alpha virt. eigenvalues --    1.22822   1.23082   1.23292   1.23421   1.23744
 Alpha virt. eigenvalues --    1.23905   1.24000   1.24288   1.24890   1.25065
 Alpha virt. eigenvalues --    1.25222   1.25499   1.25757   1.25982   1.26172
 Alpha virt. eigenvalues --    1.26451   1.26574   1.26860   1.27215   1.27316
 Alpha virt. eigenvalues --    1.27523   1.27589   1.27843   1.28007   1.28431
 Alpha virt. eigenvalues --    1.28760   1.29097   1.29219   1.29447   1.29719
 Alpha virt. eigenvalues --    1.29932   1.30468   1.30623   1.31052   1.31408
 Alpha virt. eigenvalues --    1.31544   1.31840   1.32475   1.33075   1.33221
 Alpha virt. eigenvalues --    1.33479   1.33640   1.33889   1.34262   1.34511
 Alpha virt. eigenvalues --    1.34922   1.35062   1.35302   1.35616   1.35708
 Alpha virt. eigenvalues --    1.36250   1.36335   1.36574   1.36947   1.37386
 Alpha virt. eigenvalues --    1.37704   1.38267   1.38400   1.38786   1.38943
 Alpha virt. eigenvalues --    1.39124   1.39357   1.39776   1.40074   1.40216
 Alpha virt. eigenvalues --    1.40603   1.40863   1.41381   1.41453   1.41811
 Alpha virt. eigenvalues --    1.42120   1.42238   1.42540   1.42566   1.42973
 Alpha virt. eigenvalues --    1.43229   1.43661   1.44123   1.44354   1.44683
 Alpha virt. eigenvalues --    1.44826   1.45139   1.45395   1.45935   1.46046
 Alpha virt. eigenvalues --    1.46594   1.46977   1.47361   1.47478   1.47528
 Alpha virt. eigenvalues --    1.47845   1.47937   1.48098   1.48517   1.49003
 Alpha virt. eigenvalues --    1.49443   1.49853   1.50163   1.50540   1.50721
 Alpha virt. eigenvalues --    1.50897   1.51301   1.51565   1.51945   1.52042
 Alpha virt. eigenvalues --    1.52204   1.52452   1.52647   1.52740   1.53450
 Alpha virt. eigenvalues --    1.53573   1.53883   1.54131   1.54494   1.54911
 Alpha virt. eigenvalues --    1.55066   1.55285   1.55752   1.56097   1.56520
 Alpha virt. eigenvalues --    1.56763   1.56838   1.57297   1.57793   1.58052
 Alpha virt. eigenvalues --    1.58578   1.58955   1.59351   1.60075   1.60664
 Alpha virt. eigenvalues --    1.61016   1.61342   1.61644   1.62375   1.62744
 Alpha virt. eigenvalues --    1.62973   1.63189   1.63761   1.64291   1.64468
 Alpha virt. eigenvalues --    1.64934   1.65055   1.65284   1.65369   1.65584
 Alpha virt. eigenvalues --    1.66150   1.66540   1.66701   1.66841   1.66993
 Alpha virt. eigenvalues --    1.67369   1.67524   1.67848   1.67961   1.68100
 Alpha virt. eigenvalues --    1.68388   1.68446   1.69075   1.69300   1.69777
 Alpha virt. eigenvalues --    1.70149   1.70454   1.70499   1.70543   1.70856
 Alpha virt. eigenvalues --    1.71342   1.71572   1.71703   1.71919   1.72117
 Alpha virt. eigenvalues --    1.72422   1.72495   1.72661   1.72943   1.73168
 Alpha virt. eigenvalues --    1.73368   1.73888   1.74095   1.74221   1.74441
 Alpha virt. eigenvalues --    1.74547   1.74705   1.74846   1.75086   1.75371
 Alpha virt. eigenvalues --    1.75789   1.75984   1.76114   1.76471   1.76681
 Alpha virt. eigenvalues --    1.76890   1.77014   1.77117   1.77289   1.77621
 Alpha virt. eigenvalues --    1.77812   1.77995   1.78374   1.78472   1.78514
 Alpha virt. eigenvalues --    1.78564   1.78743   1.78928   1.79006   1.79197
 Alpha virt. eigenvalues --    1.79258   1.79386   1.79708   1.79857   1.80106
 Alpha virt. eigenvalues --    1.80153   1.80253   1.80488   1.80494   1.80679
 Alpha virt. eigenvalues --    1.80956   1.80988   1.81286   1.81586   1.81726
 Alpha virt. eigenvalues --    1.82176   1.82423   1.82454   1.82707   1.82916
 Alpha virt. eigenvalues --    1.83025   1.83179   1.83441   1.83537   1.83606
 Alpha virt. eigenvalues --    1.83822   1.84083   1.84347   1.84590   1.84843
 Alpha virt. eigenvalues --    1.84992   1.85186   1.85418   1.85546   1.85693
 Alpha virt. eigenvalues --    1.86083   1.86138   1.86396   1.86615   1.86667
 Alpha virt. eigenvalues --    1.86965   1.87012   1.87115   1.87258   1.87580
 Alpha virt. eigenvalues --    1.87838   1.88078   1.88378   1.88596   1.88808
 Alpha virt. eigenvalues --    1.88837   1.89023   1.89194   1.89465   1.89575
 Alpha virt. eigenvalues --    1.89905   1.90109   1.90214   1.90558   1.90770
 Alpha virt. eigenvalues --    1.91023   1.91084   1.91232   1.91282   1.91577
 Alpha virt. eigenvalues --    1.91705   1.91865   1.91925   1.92071   1.92536
 Alpha virt. eigenvalues --    1.92833   1.93018   1.93252   1.93513   1.93680
 Alpha virt. eigenvalues --    1.93705   1.94005   1.94062   1.94258   1.94503
 Alpha virt. eigenvalues --    1.94684   1.94891   1.95173   1.95307   1.95449
 Alpha virt. eigenvalues --    1.95572   1.95732   1.96030   1.96274   1.96649
 Alpha virt. eigenvalues --    1.96697   1.96770   1.97080   1.97304   1.97733
 Alpha virt. eigenvalues --    1.98003   1.98220   1.98374   1.98565   1.98795
 Alpha virt. eigenvalues --    1.98814   1.99171   1.99312   1.99757   1.99958
 Alpha virt. eigenvalues --    2.00078   2.00330   2.00562   2.01092   2.01376
 Alpha virt. eigenvalues --    2.01511   2.01740   2.02018   2.02201   2.02498
 Alpha virt. eigenvalues --    2.03023   2.03373   2.03536   2.03636   2.03924
 Alpha virt. eigenvalues --    2.03969   2.04077   2.04207   2.04554   2.04836
 Alpha virt. eigenvalues --    2.04954   2.05395   2.05633   2.05851   2.06120
 Alpha virt. eigenvalues --    2.06196   2.06357   2.06591   2.06741   2.07299
 Alpha virt. eigenvalues --    2.07406   2.08092   2.08176   2.08322   2.08608
 Alpha virt. eigenvalues --    2.09093   2.09193   2.09295   2.09496   2.09608
 Alpha virt. eigenvalues --    2.09995   2.10546   2.10721   2.10876   2.11148
 Alpha virt. eigenvalues --    2.11287   2.11638   2.11776   2.11804   2.11930
 Alpha virt. eigenvalues --    2.12303   2.12494   2.12884   2.13062   2.13219
 Alpha virt. eigenvalues --    2.13648   2.14192   2.14217   2.14733   2.14929
 Alpha virt. eigenvalues --    2.15091   2.15169   2.15430   2.15721   2.15824
 Alpha virt. eigenvalues --    2.15967   2.16015   2.16164   2.16610   2.17097
 Alpha virt. eigenvalues --    2.17400   2.17921   2.18407   2.18745   2.19235
 Alpha virt. eigenvalues --    2.19519   2.19820   2.19978   2.20279   2.20538
 Alpha virt. eigenvalues --    2.20663   2.20943   2.21709   2.21883   2.22160
 Alpha virt. eigenvalues --    2.22421   2.22742   2.22950   2.23244   2.23533
 Alpha virt. eigenvalues --    2.23823   2.24308   2.24668   2.24888   2.25085
 Alpha virt. eigenvalues --    2.25320   2.25393   2.26206   2.26286   2.26830
 Alpha virt. eigenvalues --    2.26837   2.27098   2.27628   2.28047   2.28164
 Alpha virt. eigenvalues --    2.28354   2.29496   2.29681   2.29925   2.30276
 Alpha virt. eigenvalues --    2.30380   2.30558   2.30667   2.31473   2.31754
 Alpha virt. eigenvalues --    2.31846   2.32051   2.32790   2.33367   2.33481
 Alpha virt. eigenvalues --    2.33570   2.33824   2.34290   2.34740   2.35318
 Alpha virt. eigenvalues --    2.35744   2.35934   2.36477   2.37078   2.37440
 Alpha virt. eigenvalues --    2.37715   2.37760   2.38038   2.38383   2.38413
 Alpha virt. eigenvalues --    2.39231   2.39618   2.39779   2.40215   2.40335
 Alpha virt. eigenvalues --    2.40941   2.41187   2.41621   2.41976   2.42052
 Alpha virt. eigenvalues --    2.42262   2.42421   2.42465   2.43028   2.43325
 Alpha virt. eigenvalues --    2.43564   2.43904   2.44534   2.44783   2.44906
 Alpha virt. eigenvalues --    2.45408   2.45620   2.45718   2.46025   2.46767
 Alpha virt. eigenvalues --    2.46980   2.47385   2.47727   2.48277   2.48722
 Alpha virt. eigenvalues --    2.49041   2.49278   2.49605   2.50144   2.50352
 Alpha virt. eigenvalues --    2.50891   2.51428   2.51822   2.52114   2.52995
 Alpha virt. eigenvalues --    2.53458   2.53761   2.53925   2.54450   2.55022
 Alpha virt. eigenvalues --    2.55263   2.55630   2.55921   2.56061   2.56150
 Alpha virt. eigenvalues --    2.56733   2.57050   2.57490   2.58219   2.58330
 Alpha virt. eigenvalues --    2.58720   2.58851   2.59183   2.59559   2.59642
 Alpha virt. eigenvalues --    2.59781   2.60312   2.60576   2.60606   2.60765
 Alpha virt. eigenvalues --    2.60948   2.61043   2.61452   2.61607   2.62160
 Alpha virt. eigenvalues --    2.62366   2.62401   2.63314   2.63939   2.64311
 Alpha virt. eigenvalues --    2.64498   2.64655   2.64760   2.65802   2.66099
 Alpha virt. eigenvalues --    2.66412   2.66655   2.66987   2.67465   2.67712
 Alpha virt. eigenvalues --    2.68037   2.68302   2.68423   2.68978   2.69036
 Alpha virt. eigenvalues --    2.69583   2.70415   2.70596   2.70709   2.71053
 Alpha virt. eigenvalues --    2.71093   2.71412   2.71622   2.71990   2.72173
 Alpha virt. eigenvalues --    2.72300   2.72495   2.72748   2.72884   2.73337
 Alpha virt. eigenvalues --    2.73755   2.73957   2.74157   2.74209   2.74517
 Alpha virt. eigenvalues --    2.74814   2.75017   2.75129   2.75307   2.75530
 Alpha virt. eigenvalues --    2.75604   2.76229   2.76353   2.76656   2.76910
 Alpha virt. eigenvalues --    2.77020   2.77237   2.77652   2.78267   2.78405
 Alpha virt. eigenvalues --    2.78778   2.79036   2.79141   2.79431   2.79556
 Alpha virt. eigenvalues --    2.80005   2.80118   2.80267   2.80446   2.80565
 Alpha virt. eigenvalues --    2.80821   2.81397   2.81409   2.81739   2.81987
 Alpha virt. eigenvalues --    2.82136   2.82653   2.82836   2.83388   2.83749
 Alpha virt. eigenvalues --    2.84034   2.84163   2.84439   2.84725   2.84934
 Alpha virt. eigenvalues --    2.84963   2.85099   2.86063   2.86425   2.87151
 Alpha virt. eigenvalues --    2.87254   2.87403   2.87969   2.88032   2.88513
 Alpha virt. eigenvalues --    2.88595   2.88610   2.89052   2.89393   2.89851
 Alpha virt. eigenvalues --    2.90149   2.90486   2.90523   2.90639   2.90749
 Alpha virt. eigenvalues --    2.91280   2.91498   2.91664   2.91961   2.92195
 Alpha virt. eigenvalues --    2.92713   2.92906   2.93306   2.94031   2.94249
 Alpha virt. eigenvalues --    2.94411   2.94561   2.94916   2.95154   2.95451
 Alpha virt. eigenvalues --    2.95583   2.95802   2.96187   2.96596   2.96826
 Alpha virt. eigenvalues --    2.97200   2.97607   2.98021   2.98559   2.99013
 Alpha virt. eigenvalues --    2.99098   2.99276   2.99502   2.99667   2.99987
 Alpha virt. eigenvalues --    3.00561   3.00948   3.01083   3.01631   3.02070
 Alpha virt. eigenvalues --    3.02530   3.02693   3.03267   3.03784   3.03841
 Alpha virt. eigenvalues --    3.04511   3.04739   3.05058   3.05409   3.05530
 Alpha virt. eigenvalues --    3.06206   3.06800   3.07202   3.08017   3.08685
 Alpha virt. eigenvalues --    3.09219   3.09532   3.10059   3.10393   3.10856
 Alpha virt. eigenvalues --    3.10973   3.11240   3.11509   3.12052   3.12152
 Alpha virt. eigenvalues --    3.12395   3.12593   3.12742   3.12971   3.13028
 Alpha virt. eigenvalues --    3.14009   3.14705   3.15081   3.15106   3.15761
 Alpha virt. eigenvalues --    3.16093   3.16566   3.16648   3.17067   3.17324
 Alpha virt. eigenvalues --    3.17813   3.18401   3.18766   3.19208   3.19792
 Alpha virt. eigenvalues --    3.20322   3.20561   3.20849   3.20929   3.21293
 Alpha virt. eigenvalues --    3.21994   3.22142   3.22798   3.23228   3.23467
 Alpha virt. eigenvalues --    3.24558   3.24897   3.25534   3.25884   3.26102
 Alpha virt. eigenvalues --    3.26832   3.27330   3.27446   3.28054   3.28280
 Alpha virt. eigenvalues --    3.28662   3.29194   3.29907   3.30113   3.30400
 Alpha virt. eigenvalues --    3.31599   3.32064   3.32805   3.33058   3.33289
 Alpha virt. eigenvalues --    3.34216   3.34697   3.35607   3.36757   3.40826
 Alpha virt. eigenvalues --    3.42426   3.44976   3.45426   3.46022   3.48489
 Alpha virt. eigenvalues --    3.51463   3.51695   3.54221   3.54706   3.54938
 Alpha virt. eigenvalues --    3.55372   3.56688   3.57011   3.58100   3.58523
 Alpha virt. eigenvalues --    3.60233   3.60598   3.61057   3.61822   3.63297
 Alpha virt. eigenvalues --    3.64686   3.66439   3.67206   3.67680   3.67767
 Alpha virt. eigenvalues --    3.68320   3.68383   3.68729   3.70451   3.70748
 Alpha virt. eigenvalues --    3.71199   3.71478   3.71908   3.72226   3.72400
 Alpha virt. eigenvalues --    3.73577   3.73609   3.74116   3.74449   3.75017
 Alpha virt. eigenvalues --    3.76097   3.78299   3.80618   3.81162
          Condensed to atoms (all electrons):
 Mulliken charges:
               1
     1  C    0.058831
     2  C   -0.000549
     3  O   -0.261501
     4  H   -0.037385
     5  H    0.037439
     6  H    0.024278
     7  N   -0.106025
     8  C    0.111180
     9  C    0.091423
    10  O   -0.298383
    11  C    0.018923
    12  C    0.077254
    13  O   -0.418906
    14  O   -0.347783
    15  H    0.103275
    16  H    0.009441
    17  H    0.008494
    18  H    0.016641
    19  N   -0.106411
    20  C    0.110499
    21  C    0.084430
    22  O   -0.254125
    23  C    0.009834
    24  C   -0.059354
    25  C    0.012492
    26  C    0.024125
    27  N    0.072552
    28  H    0.122564
    29  H   -0.019608
    30  H    0.042443
    31  H    0.015619
    32  H    0.019501
    33  H    0.001437
    34  H    0.045670
    35  H    0.046399
    36  H    0.074674
    37  H    0.053402
    38  H    0.203716
    39  H    0.183185
    40  H    0.211001
    41  N   -0.151261
    42  C    0.143814
    43  C    0.063513
    44  O   -0.303478
    45  C    0.016651
    46  C    0.089831
    47  O   -0.319005
    48  O   -0.461953
    49  H    0.134120
    50  H    0.037317
    51  H    0.002614
    52  H   -0.013264
    53  N   -0.142992
    54  C    0.184664
    55  C   -0.015527
    56  O   -0.230457
    57  H    0.137269
    58  H    0.052671
    59  H    0.035390
    60  N   -0.119039
    61  C    0.029040
    62  C    0.077484
    63  O   -0.259690
    64  C    0.136312
    65  C   -0.055800
    66  N   -0.017289
    67  O   -0.277086
    68  H    0.117331
    69  H    0.045461
    70  H    0.048493
    71  H   -0.022144
    72  H    0.115442
    73  H    0.123972
    74  N   -0.142396
    75  C    0.221252
    76  C   -0.008660
    77  O   -0.279454
    78  H    0.133011
    79  H    0.049849
    80  H    0.035085
    81  N   -0.114919
    82  C    0.126343
    83  C    0.095193
    84  O   -0.281421
    85  C    0.111525
    86  C   -0.006350
    87  C    0.011279
    88  C   -0.036203
    89  C   -0.006759
    90  C   -0.059036
    91  C    0.173377
    92  O   -0.200671
    93  H    0.115942
    94  H   -0.012627
    95  H    0.002769
    96  H    0.024813
    97  H   -0.027954
    98  H   -0.015061
    99  H   -0.026551
   100  H   -0.032946
   101  H    0.172627
   102  N   -0.121626
   103  C    0.133494
   104  C    0.108559
   105  O   -0.307575
   106  C   -0.085118
   107  C    0.014672
   108  C    0.051701
   109  C    0.044141
   110  H    0.125077
   111  H    0.014019
   112  H   -0.022561
   113  H    0.004375
   114  H   -0.005943
   115  H    0.029376
   116  H    0.006159
   117  H   -0.024110
   118  H   -0.016261
   119  H   -0.022156
   120  H    0.054212
   121  N   -0.095642
   122  C    0.045915
   123  C    0.111915
   124  O   -0.261804
   125  C    0.298387
   126  O   -0.356056
   127  H    0.130751
   128  H   -0.067442
   129  H   -0.020814
   130  H    0.010632
   131  H    0.173355
   132  N   -0.105522
   133  C    0.045493
   134  C    0.110021
   135  O   -0.292011
   136  C    0.052373
   137  H    0.099842
   138  H    0.006029
   139  H    0.035899
   140  H    0.015007
   141  H    0.023416
   142  N   -0.156789
   143  C    0.047701
   144  C    0.087234
   145  O   -0.251353
   146  C    0.091427
   147  H    0.127273
   148  H    0.010443
   149  H    0.034796
   150  H   -0.012580
   151  H    0.013323
   152  N   -0.138539
   153  C    0.078838
   154  C    0.076098
   155  O   -0.245024
   156  C    0.030460
   157  C    0.081805
   158  C    0.108159
   159  O   -0.473824
   160  O   -0.345107
   161  H    0.101681
   162  H    0.052802
   163  H   -0.012981
   164  H   -0.019871
   165  H    0.002341
   166  H    0.015300
   167  N   -0.165694
   168  C    0.128173
   169  H    0.018290
   170  H    0.040552
   171  H    0.008444
   172  H    0.104267
   173  Ca   1.334614
   174  O   -0.318975
   175  H    0.205345
   176  H    0.196037
 Sum of Mulliken charges =  -0.00000
 Mulliken charges with hydrogens summed into heavy atoms:
               1
     1  C    0.083164
     2  C   -0.000549
     3  O   -0.261501
     7  N   -0.002750
     8  C    0.120620
     9  C    0.091423
    10  O   -0.298383
    11  C    0.044058
    12  C    0.077254
    13  O   -0.418906
    14  O   -0.347783
    19  N    0.016153
    20  C    0.090892
    21  C    0.084430
    22  O   -0.254125
    23  C    0.067895
    24  C   -0.038416
    25  C    0.104561
    26  C    0.152201
    27  N    0.670454
    41  N   -0.017141
    42  C    0.181131
    43  C    0.063513
    44  O   -0.303478
    45  C    0.006002
    46  C    0.089831
    47  O   -0.319005
    48  O   -0.461953
    53  N   -0.005722
    54  C    0.272725
    55  C   -0.015527
    56  O   -0.230457
    60  N   -0.001708
    61  C    0.074501
    62  C    0.077484
    63  O   -0.259690
    64  C    0.162661
    65  C   -0.055800
    66  N    0.222125
    67  O   -0.277086
    74  N   -0.009386
    75  C    0.306187
    76  C   -0.008660
    77  O   -0.279454
    81  N    0.001023
    82  C    0.113715
    83  C    0.095193
    84  O   -0.281421
    85  C    0.139107
    86  C   -0.006350
    87  C   -0.016674
    88  C   -0.051264
    89  C   -0.033311
    90  C   -0.091982
    91  C    0.173377
    92  O   -0.028044
   102  N    0.003451
   103  C    0.147513
   104  C    0.108559
   105  O   -0.307575
   106  C   -0.107679
   107  C    0.013104
   108  C    0.063126
   109  C    0.059937
   121  N    0.035108
   122  C   -0.021527
   123  C    0.111915
   124  O   -0.261804
   125  C    0.288205
   126  O   -0.182701
   132  N   -0.005680
   133  C    0.051522
   134  C    0.110021
   135  O   -0.292011
   136  C    0.126694
   142  N   -0.029516
   143  C    0.058144
   144  C    0.087234
   145  O   -0.251353
   146  C    0.126967
   152  N   -0.036858
   153  C    0.131640
   154  C    0.076098
   155  O   -0.245024
   156  C   -0.002392
   157  C    0.099447
   158  C    0.108159
   159  O   -0.473824
   160  O   -0.345107
   167  N   -0.061427
   168  C    0.195458
   173  Ca   1.334614
   174  O    0.082407
 DipInt: DoE/N= T F RetVal/Mat= T F Init=T NMatP=  1 IDeriv=0 Min/MaxMlt=  0  4
 Entering OneElI...
 OneElI was handed  1333951383 working-precision words.
 Multipole integrals L=0 to 4 MinM= 0 MaxM= 0.
 Requested accuracy = 0.1000D-12
 ShPair: Thresh= 1.00D-13 NBox=     0 BxSize= 0.00D+00 RnKept= 3.47D+01
         NSMCal=               327645 NSMKep=              144990
 PrmmSu-InSpLW:  IPartL=    0 NPrtUS=    1 NPrtUL=    1 DoSpLW=F IThBeg=    0 IThEnd=    0 NThAct=    1.
 PrsmSu:  NPrtUS=   1 ThrOK=F IAlg=1 NPAlg=1 LenDen=           0 ISkipM=0 DoSpLW=F IThBeg=    0 IThEnd=    0.
 Prism:   IPart=     0 DynPar=F LinDyn=F Incr=         512.
 PRISM was handed  1324500793 working-precision words and144990 shell-pairs
 IPart=  0 NShTot=      144990 NBatch=         334 AvBLen=       434.1
 PrsmSu-ThDecC:  IPartSL=    0    0 NPrtUSL=    1    1 IThBeg=    0 IThEnd=    0 CPU=   -1 GPU=   -1 NThAct=    1.
 PrSmSu:  NxtVal=            513.
 Electronic moments (au):
       -716.00000000          8.50809021          1.73432146          0.37667557
     -55753.55206200     -40893.17724284     -16043.23470931         15.95431758
        -56.38390231         71.91319175    -121475.88662625     -94267.48538782
      -6081.43026554     111798.80980237     173932.31551270     -23833.26431548
       1096.11142796     -11495.66505752     -48880.02736130      -6647.01401069
   -8752241.46256617   -5885506.75795053    -827606.12461834    -154320.37413757
    -221025.36638005    -374136.88227897    -127624.65895549    -153556.40080675
      22805.16059823   -2633475.09231302   -1155704.75590451    -846604.11907328
     204270.46299616     696695.35161507    -179447.65808611
 Electronic spatial extent (au):  <R**2>=         112689.9640
 DipInt: DoE/N= F T RetVal/Mat= T F Init=T NMatP=  1 IDeriv=0 Min/MaxMlt=  0  4
 Nuclear    moments (au):
        716.00000000         -0.00000000          0.00000000         -0.00000000
      55378.02410063      40634.46363694      15654.05147623         -0.00000000
         -0.00000000          0.00000000     122707.39014801      98199.51746033
       6025.41020260    -111162.26811526    -175566.10605020      23132.94848002
       -674.51722234      11463.16699110      50161.56987624       6285.65757821
    8573981.09159745    5812755.96925456     774328.75208723     160335.22791142
     215269.05894646     374385.12297795     152416.53052301     152117.04116335
     -17302.81967432    2577204.68785675    1121712.08061719     818660.03876852
    -208789.76772528    -696390.62590627     178987.75826243
 Total      moments (au):
         -0.00000000          8.50809021          1.73432146          0.37667557
       -375.52796137       -258.71360590       -389.18323309         15.95431758
        -56.38390231         71.91319175       1231.50352176       3932.03207251
        -56.02006294        636.54168710      -1633.79053750       -700.31583546
        421.59420562        -32.49806641       1281.54251495       -361.35643248
    -178260.37096872     -72750.78869597     -53277.37253110       6014.85377385
      -5756.30743359        248.24069898      24791.87156753      -1439.35964340
       5502.34092392     -56270.40445627     -33992.67528732     -27944.08030476
      -4519.30472912        304.72570880       -459.89982368
 Traceless Quadrup. (au):
        -34.38636125         82.42799422        -48.04163296         15.95431758
        -56.38390231         71.91319175
 Charge=             -0.0000 electrons
 Dipole moment (field-independent basis, Debye):
    X=             21.6254    Y=              4.4082    Z=              0.9574  Tot=             22.0909
 Quadrupole moment (field-independent basis, Debye-Ang):
   XX=           -505.0980   YY=           -347.9787   ZZ=           -523.4648
   XY=             21.4591   XZ=            -75.8383   YZ=             96.7257
 Traceless Quadrupole moment (field-independent basis, Debye-Ang):
   XX=            -46.2508   YY=            110.8685   ZZ=            -64.6176
   XY=             21.4591   XZ=            -75.8383   YZ=             96.7257
 Octapole moment (field-independent basis, Debye-Ang**2):
  XXX=            876.5368  YYY=           2798.6689  ZZZ=            -39.8729  XYY=            453.0658
  XXY=          -1162.8692  XXZ=           -498.4578  XZZ=            300.0745  YZZ=            -23.1309
  YYZ=            912.1526  XYZ=           -257.1996
 Hexadecapole moment (field-independent basis, Debye-Ang**3):
 XXXX=         -67141.4036 YYYY=         -27401.4355 ZZZZ=         -20066.8132 XXXY=           2265.4824
 XXXZ=          -2168.1014 YYYX=             93.4994 YYYZ=           9337.8076 ZZZX=           -542.1319
 ZZZY=           2072.4454 XXYY=         -21194.1326 XXZZ=         -12803.2715 YYZZ=         -10525.0806
 XXYZ=          -1702.1869 YYXZ=            114.7743 ZZXY=           -173.2203
 N-N= 2.021827921350D+04 E-N=-5.292186850771D+04  KE= 5.290631951751D+03
 Leave Link  601 at Wed Sep 18 14:34:58 2019, MaxMem=  1342177280 cpu:              40.3 elap:               1.1
 FitSet:  NAtFit=   176 NAtPot=   176 NAtFrz=     0 MDM=   180 TotChg=   0.00000
 Merz-Kollman atomic radii used.
 Read replacement radii for each type of atom:
 Rad(20) =   1.700000000000D+00
 Atom Element Radius
    1     6    1.50
    2     6    1.50
    3     8    1.40
    4     1    1.20
    5     1    1.20
    6     1    1.20
    7     7    1.50
    8     6    1.50
    9     6    1.50
   10     8    1.40
   11     6    1.50
   12     6    1.50
   13     8    1.40
   14     8    1.40
   15     1    1.20
   16     1    1.20
   17     1    1.20
   18     1    1.20
   19     7    1.50
   20     6    1.50
   21     6    1.50
   22     8    1.40
   23     6    1.50
   24     6    1.50
   25     6    1.50
   26     6    1.50
   27     7    1.50
   28     1    1.20
   29     1    1.20
   30     1    1.20
   31     1    1.20
   32     1    1.20
   33     1    1.20
   34     1    1.20
   35     1    1.20
   36     1    1.20
   37     1    1.20
   38     1    1.20
   39     1    1.20
   40     1    1.20
   41     7    1.50
   42     6    1.50
   43     6    1.50
   44     8    1.40
   45     6    1.50
   46     6    1.50
   47     8    1.40
   48     8    1.40
   49     1    1.20
   50     1    1.20
   51     1    1.20
   52     1    1.20
   53     7    1.50
   54     6    1.50
   55     6    1.50
   56     8    1.40
   57     1    1.20
   58     1    1.20
   59     1    1.20
   60     7    1.50
   61     6    1.50
   62     6    1.50
   63     8    1.40
   64     6    1.50
   65     6    1.50
   66     7    1.50
   67     8    1.40
   68     1    1.20
   69     1    1.20
   70     1    1.20
   71     1    1.20
   72     1    1.20
   73     1    1.20
   74     7    1.50
   75     6    1.50
   76     6    1.50
   77     8    1.40
   78     1    1.20
   79     1    1.20
   80     1    1.20
   81     7    1.50
   82     6    1.50
   83     6    1.50
   84     8    1.40
   85     6    1.50
   86     6    1.50
   87     6    1.50
   88     6    1.50
   89     6    1.50
   90     6    1.50
   91     6    1.50
   92     8    1.40
   93     1    1.20
   94     1    1.20
   95     1    1.20
   96     1    1.20
   97     1    1.20
   98     1    1.20
   99     1    1.20
  100     1    1.20
  101     1    1.20
  102     7    1.50
  103     6    1.50
  104     6    1.50
  105     8    1.40
  106     6    1.50
  107     6    1.50
  108     6    1.50
  109     6    1.50
  110     1    1.20
  111     1    1.20
  112     1    1.20
  113     1    1.20
  114     1    1.20
  115     1    1.20
  116     1    1.20
  117     1    1.20
  118     1    1.20
  119     1    1.20
  120     1    1.20
  121     7    1.50
  122     6    1.50
  123     6    1.50
  124     8    1.40
  125     6    1.50
  126     8    1.40
  127     1    1.20
[...]
 **** Fit       0.007830
 **** Fit       0.008939
 **** Fit       0.009716
 **** Fit       0.010126
 **** Fit       0.010161
 **** Fit       0.009848
 **** Fit       0.002539
 **** Fit       0.004324
 **** Fit       0.006048
 **** Fit       0.007631
 **** Fit       0.009011
 **** Fit       0.010138
 **** Fit       0.010967
 **** Fit       0.011467
 **** Fit       0.011625
 **** Fit       0.011451
 **** Fit       0.010980
 **** Fit       0.001912
 **** Fit       0.003810
 **** Fit       0.005638
 **** Fit       0.007348
 **** Fit       0.008902
 **** Fit       0.010264
 **** Fit       0.011400
 **** Fit       0.012275
 **** Fit       0.012859
 **** Fit       0.013133
 **** Fit       0.013096
 **** Fit       0.012764
 **** Fit       0.012177
 **** Fit       0.003742
 **** Fit       0.005731
 **** Fit       0.007586
 **** Fit       0.009291
 **** Fit       0.010827
 **** Fit       0.012164
 **** Fit       0.013266
 **** Fit       0.014096
 **** Fit       0.014624
 **** Fit       0.014832
 **** Fit       0.014715
 **** Fit       0.014294
 **** Fit       0.003959
 **** Fit       0.006059
 **** Fit       0.008000
 **** Fit       0.009800
 **** Fit       0.011457
 **** Fit       0.012952
 **** Fit       0.014252
 **** Fit       0.015317
 **** Fit       0.016105
 **** Fit       0.016585
 **** Fit       0.016734
 **** Fit       0.016551
 **** Fit       0.016054
 **** Fit       0.005988
 **** Fit       0.008062
 **** Fit       0.009971
 **** Fit       0.011759
 **** Fit       0.013431
 **** Fit       0.014964
 **** Fit       0.016316
 **** Fit       0.017435
 **** Fit       0.018271
 **** Fit       0.018784
 **** Fit       0.018944
 **** Fit       0.018743
 **** Fit       0.018197
 **** Fit       0.007062
 **** Fit       0.009263
 **** Fit       0.011220
 **** Fit       0.013065
 **** Fit       0.014844
 **** Fit       0.016540
 **** Fit       0.018101
 **** Fit       0.019452
 **** Fit       0.020520
 **** Fit       0.021236
 **** Fit       0.021550
 **** Fit       0.021436
 **** Fit       0.020896
 **** Fit       0.014710
 **** Fit       0.016416
 **** Fit       0.018168
 **** Fit       0.019912
 **** Fit       0.021542
 **** Fit       0.022935
 **** Fit       0.023975
 **** Fit       0.024566
 **** Fit       0.024642
 **** Fit       0.020994
 **** Fit       0.022542
 **** Fit       0.024214
 **** Fit       0.025811
 **** Fit       0.027137
 **** Fit       0.028017
 **** Fit       0.028319
 **** Fit       0.030351
 **** Fit       0.031631
 **** Fit       0.032353
 **** Fit       0.009147
 **** Fit       0.002114
 **** Fit       0.006301
 **** Fit       0.010552
 **** Fit       0.014883
 **** Fit       0.019216
 **** Fit      -0.000844
 **** Fit       0.003089
 **** Fit       0.007213
 **** Fit       0.011599
 **** Fit       0.016184
 **** Fit       0.020803
 **** Fit       0.025210
 **** Fit       0.029113
 **** Fit      -0.001921
 **** Fit       0.001803
 **** Fit       0.006063
 **** Fit       0.010875
 **** Fit       0.016087
 **** Fit       0.021446
 **** Fit       0.026641
 **** Fit       0.031326
 **** Fit       0.035134
 **** Fit       0.037691
 **** Fit      -0.003169
 **** Fit       0.000914
 **** Fit       0.006136
 **** Fit       0.012274
 **** Fit       0.018955
 **** Fit       0.025738
 **** Fit       0.032155
 **** Fit       0.037709
 **** Fit       0.041860
 **** Fit       0.004523
 **** Fit       0.012694
 **** Fit       0.021625
 **** Fit       0.030596
 **** Fit      -0.009665
 **** Fit       0.005876
 **** Fit       0.007068
 **** Fit       0.006243
 **** Fit       0.003557
 **** Fit      -0.000803
 **** Fit       0.016792
 **** Fit       0.019569
 **** Fit       0.020871
 **** Fit       0.020702
 **** Fit       0.019142
 **** Fit       0.016284
 **** Fit       0.012219
 **** Fit       0.007021
 **** Fit       0.000752
 **** Fit      -0.006543
 **** Fit      -0.014829
 **** Fit      -0.024081
 **** Fit       0.029434
 **** Fit       0.031523
 **** Fit       0.032564
 **** Fit       0.032544
 **** Fit       0.031488
 **** Fit       0.029429
 **** Fit       0.026395
 **** Fit       0.022397
 **** Fit       0.017420
 **** Fit       0.011421
 **** Fit       0.004319
 **** Fit      -0.004002
 **** Fit      -0.013689
 **** Fit      -0.024881
 **** Fit       0.022580
 **** Fit       0.026389
 **** Fit       0.040353
 **** Fit       0.041835
 **** Fit       0.042498
 **** Fit       0.042322
 **** Fit       0.041305
 **** Fit       0.039448
 **** Fit       0.036740
 **** Fit       0.033155
 **** Fit       0.028637
 **** Fit       0.023093
 **** Fit       0.016383
 **** Fit       0.008311
 **** Fit      -0.001385
 **** Fit      -0.013018
 **** Fit       0.026992
 **** Fit       0.031484
 **** Fit       0.035137
 **** Fit       0.038099
 **** Fit       0.049566
 **** Fit       0.050524
 **** Fit       0.050827
 **** Fit       0.050457
 **** Fit       0.049397
 **** Fit       0.047627
 **** Fit       0.045115
 **** Fit       0.041811
 **** Fit       0.037637
 **** Fit       0.032479
 **** Fit       0.026169
 **** Fit       0.018477
 **** Fit       0.009087
 **** Fit      -0.002409
 **** Fit       0.039108
 **** Fit       0.042858
 **** Fit       0.045757
 **** Fit       0.047976
 **** Fit       0.057214
 **** Fit       0.057752
 **** Fit       0.057734
 **** Fit       0.057141
 **** Fit       0.055948
 **** Fit       0.054121
 **** Fit       0.051613
 **** Fit       0.048359
 **** Fit       0.044262
 **** Fit       0.039186
 **** Fit       0.032941
 **** Fit       0.025263
 **** Fit       0.015792
 **** Fit       0.004041
 **** Fit       0.045418
 **** Fit       0.049261
 **** Fit       0.052240
 **** Fit       0.054491
 **** Fit       0.056131
 **** Fit       0.063476
 **** Fit       0.063674
 **** Fit       0.063390
 **** Fit       0.062606
 **** Fit       0.061290
 **** Fit       0.059403
 **** Fit       0.056889
 **** Fit       0.053673
 **** Fit       0.049651
 **** Fit       0.044679
 **** Fit       0.038559
 **** Fit       0.031020
 **** Fit       0.021689
 **** Fit       0.010060
 **** Fit       0.051893
 **** Fit       0.055046
 **** Fit       0.057810
 **** Fit       0.060012
 **** Fit       0.061664
 **** Fit       0.062809
 **** Fit       0.068528
 **** Fit       0.068440
 **** Fit       0.067896
 **** Fit       0.066871
 **** Fit       0.065327
 **** Fit       0.063213
 **** Fit       0.060460
 **** Fit       0.056976
 **** Fit       0.052633
 **** Fit       0.047257
 **** Fit       0.040612
 **** Fit       0.032371
 **** Fit       0.022086
 **** Fit       0.009139
 **** Fit       0.058954
 **** Fit       0.060459
 **** Fit       0.062530
 **** Fit       0.064523
 **** Fit       0.066170
 **** Fit       0.067392
 **** Fit       0.068177
 **** Fit       0.072517
 **** Fit       0.072182
 **** Fit       0.071412
 **** Fit       0.070173
 **** Fit       0.068421
 **** Fit       0.066097
 **** Fit       0.063120
 **** Fit       0.059384
 **** Fit       0.054745
 **** Fit       0.049006
 **** Fit       0.041903
 **** Fit       0.033072
 **** Fit       0.022018
 **** Fit       0.008060
 **** Fit       0.066572
 **** Fit       0.067293
 **** Fit       0.068593
 **** Fit       0.069960
 **** Fit       0.071126
 **** Fit       0.071968
 **** Fit       0.072439
 **** Fit       0.075562
 **** Fit       0.075001
 **** Fit       0.074001
 **** Fit       0.072520
 **** Fit       0.070504
 **** Fit       0.067882
 **** Fit       0.064558
 **** Fit       0.060405
 **** Fit       0.055253
 **** Fit       0.048872
 **** Fit       0.040955
 **** Fit       0.031083
 **** Fit       0.018697
 **** Fit       0.003050
 **** Fit       0.071962
 **** Fit       0.072332
 **** Fit       0.073173
 **** Fit       0.074122
 **** Fit       0.074941
 **** Fit       0.075496
 **** Fit       0.075716
 **** Fit       0.077755
 **** Fit       0.076992
 **** Fit       0.075782
 **** Fit       0.074076
 **** Fit       0.071810
 **** Fit       0.068903
 **** Fit       0.065247
 **** Fit       0.060699
 **** Fit       0.055072
 **** Fit       0.048117
 **** Fit       0.039509
 **** Fit       0.028823
 **** Fit       0.015525
 **** Fit      -0.001022
 **** Fit       0.075496
 **** Fit       0.075888
 **** Fit       0.076529
 **** Fit       0.077217
 **** Fit       0.077780
 **** Fit       0.078104
 **** Fit       0.078112
 **** Fit       0.079165
 **** Fit       0.078169
 **** Fit       0.076668
 **** Fit       0.074598
 **** Fit       0.071876
 **** Fit       0.068396
 **** Fit       0.064017
 **** Fit       0.058559
 **** Fit       0.051787
 **** Fit       0.043401
 **** Fit       0.033038
 **** Fit       0.020282
 **** Fit       0.004757
 **** Fit       0.077415
 **** Fit       0.077990
 **** Fit       0.078623
 **** Fit       0.079222
 **** Fit       0.079668
 **** Fit       0.079858
 **** Fit       0.079710
 **** Fit       0.079840
 **** Fit       0.078609
 **** Fit       0.076799
 **** Fit       0.074328
 **** Fit       0.071094
 **** Fit       0.066966
 **** Fit       0.061775
 **** Fit       0.055312
 **** Fit       0.047330
 **** Fit       0.037557
 **** Fit       0.025765
 **** Fit       0.011929
 **** Fit       0.078028
 **** Fit       0.078906
 **** Fit       0.079685
 **** Fit       0.080316
 **** Fit       0.080726
 **** Fit       0.080833
 **** Fit       0.080560
 **** Fit       0.079812
 **** Fit       0.078343
 **** Fit       0.076203
 **** Fit       0.073296
 **** Fit       0.069502
 **** Fit       0.064672
 **** Fit       0.058634
 **** Fit       0.051207
 **** Fit       0.042239
 **** Fit       0.031718
 **** Fit       0.019976
 **** Fit       0.008057
 **** Fit       0.042940
 **** Fit       0.053005
 **** Fit       0.077614
 **** Fit       0.078768
 **** Fit       0.079767
 **** Fit       0.080524
 **** Fit       0.080976
 **** Fit       0.081056
 **** Fit       0.080692
 **** Fit       0.079097
 **** Fit       0.077320
 **** Fit       0.074708
 **** Fit       0.071142
 **** Fit       0.066486
 **** Fit       0.060597
 **** Fit       0.053369
 **** Fit       0.044813
 **** Fit       0.035232
 **** Fit       0.025490
 **** Fit       0.017236
 **** Fit       0.035253
 **** Fit       0.044548
 **** Fit       0.053493
 **** Fit       0.061360
 **** Fit       0.067406
 **** Fit       0.071393
 **** Fit       0.073891
 **** Fit       0.075726
 **** Fit       0.077318
 **** Fit       0.078688
 **** Fit       0.079738
 **** Fit       0.080381
 **** Fit       0.080541
 **** Fit       0.080140
 **** Fit       0.077698
 **** Fit       0.075575
 **** Fit       0.072400
 **** Fit       0.068054
 **** Fit       0.062444
 **** Fit       0.055579
 **** Fit       0.047708
 **** Fit       0.039547
 **** Fit       0.032469
 **** Fit       0.028285
 **** Fit       0.028300
 **** Fit       0.032329
 **** Fit       0.039000
 **** Fit       0.046854
 **** Fit       0.054767
 **** Fit       0.061826
 **** Fit       0.067387
 **** Fit       0.071363
 **** Fit       0.074184
 **** Fit       0.076297
 **** Fit       0.077869
 **** Fit       0.078878
 **** Fit       0.079246
 **** Fit       0.078886
 **** Fit       0.075605
 **** Fit       0.072926
 **** Fit       0.068774
 **** Fit       0.063142
 **** Fit       0.056297
 **** Fit       0.049069
 **** Fit       0.043063
 **** Fit       0.040255
 **** Fit       0.041712
 **** Fit       0.046730
 **** Fit       0.053580
 **** Fit       0.060569
 **** Fit       0.066497
 **** Fit       0.070915
 **** Fit       0.074002
 **** Fit       0.076018
 **** Fit       0.077019
 **** Fit       0.076924
 **** Fit       0.072796
 **** Fit       0.069299
 **** Fit       0.063776
 **** Fit       0.057202
 **** Fit       0.051815
 **** Fit       0.050362
 **** Fit       0.053654
 **** Fit       0.059731
 **** Fit       0.065894
 **** Fit       0.070539
 **** Fit       0.073285
 **** Fit       0.074085
 **** Fit       0.069237
 **** Fit       0.064356
 **** Fit       0.059015
 **** Fit       0.059705
 **** Fit       0.065388
 **** Fit       0.069604
 **** Fit       0.064888
 **** Fit       0.067348
 **** Fit       0.070229
 **** Fit       0.065191
 **** Fit       0.071041
 **** Fit       0.064976
 **** Fit       0.063896
 **** Fit       0.063060
 **** Fit       0.063284
 **** Fit       0.065509
 **** Fit       0.070644
 **** Fit       0.076947
 **** Fit       0.063331
 **** Fit       0.062850
 **** Fit       0.063093
 **** Fit       0.064937
 **** Fit       0.069313
 **** Fit       0.073948
 **** Fit       0.062616
 **** Fit       0.063899
 **** Fit       0.067430
 **** Fit       0.070839
 **** Fit       0.062983
 **** Fit       0.065532
 **** Fit       0.067863
 **** Fit       0.070857
 **** Fit       0.066741
 **** Fit       0.063869
 **** Fit       0.065167
 **** Fit       0.020612
 **** Fit       0.027024
 **** Fit       0.033789
 **** Fit       0.022904
 **** Fit       0.028759
 **** Fit       0.034927
 **** Fit       0.040874
 **** Fit       0.024448
 **** Fit       0.029588
 **** Fit       0.035286
 **** Fit       0.040961
 **** Fit       0.046426
 **** Fit       0.071215
 **** Fit       0.027596
 **** Fit       0.031906
 **** Fit       0.036909
 **** Fit       0.042040
 **** Fit       0.047047
 **** Fit       0.051869
 **** Fit       0.056496
 **** Fit       0.060851
 **** Fit       0.064689
 **** Fit       0.067649
 **** Fit       0.031737
 **** Fit       0.035506
 **** Fit       0.040048
 **** Fit       0.044791
 **** Fit       0.049437
 **** Fit       0.053842
 **** Fit       0.057871
 **** Fit       0.061314
 **** Fit       0.063939
 **** Fit       0.034573
 **** Fit       0.036221
 **** Fit       0.039426
 **** Fit       0.043451
 **** Fit       0.047714
 **** Fit       0.051851
 **** Fit       0.055621
 **** Fit       0.058815
 **** Fit       0.061304
 **** Fit       0.058477
 **** Fit       0.049202
 **** Fit       0.043033
 **** Fit       0.040127
 **** Fit       0.040018
 **** Fit       0.042080
 **** Fit       0.045459
 **** Fit       0.049336
 **** Fit       0.053126
 **** Fit       0.056461
 **** Fit       0.059199
 **** Fit       0.061559
 **** Fit       0.063455
 **** Fit       0.064969
 **** Fit       0.058918
 **** Fit       0.051251
 **** Fit       0.046141
 **** Fit       0.044855
 **** Fit       0.046681
 **** Fit       0.050153
 **** Fit       0.053933
 **** Fit       0.057301
 **** Fit       0.060320
 **** Fit       0.058947
 **** Fit       0.058465
 **** Fit       0.052894
 **** Fit       0.049630
 **** Fit       0.051723
 **** Fit       0.055741
 **** Fit       0.054331
 **** Fit       0.062653
 **** Fit       0.058080
 **** Fit       0.053787
 **** Fit       0.049608
 **** Fit       0.048634
 **** Fit       0.051377
 **** Fit       0.063310
 **** Fit       0.071703
 **** Fit       0.063948
 **** Fit       0.059601
 **** Fit       0.056289
 **** Fit       0.055279
 **** Fit       0.057433
 **** Fit       0.068202
 **** Fit       0.065748
 **** Fit       0.062928
 **** Fit       0.060509
 **** Fit       0.059645
 **** Fit       0.061366
 **** Fit       0.065784
 **** Fit       0.063686
 **** Fit       0.062680
 -----------------------------------------------------------------
 Leave Link  602 at Wed Sep 18 14:35:01 2019, MaxMem=  1342177280 cpu:             117.2 elap:               2.5

 Test job not archived.
 1\1\GINC-C481-062\SP\RB3LYP\SVP\C54H83Ca1N15O23\PENGZHI\18-Sep-2019\0\
 \#b3lyp/svp scf=(tight,noincore) Test #IOP(5/87=12) Density=Current Po
 p=(MK,readradii) iop(6/33=2) iop(6/42=6)\\Ng-31_loop3_19.0\\0,1\C,0,62
 .66,59.17,36.35\C,0,62.67,58.01,37.34\O,0,61.66,57.39,37.67\H,0,62.992
 ,60.079,36.852\H,0,63.333,58.947,35.522\H,0,61.649,59.315,35.969\N,0,6
 3.86,57.69,37.84\C,0,64.19,56.51,38.62\C,0,63.69,56.62,40.05\O,0,62.72
 ,55.98,40.46\C,0,65.69,56.32,38.44\C,0,66.56,57.54,38.69\O,0,66.08,58.
 65,39.\O,0,67.79,57.4,38.47\H,0,64.71,58.12,37.5\H,0,63.64,55.69,38.14
 \H,0,65.89,55.82,37.49\H,0,66.,55.55,39.15\N,0,64.22,57.55,40.86\C,0,6
 3.64,58.04,42.09\C,0,63.99,57.09,43.23\O,0,65.15,56.94,43.61\C,0,64.13
 ,59.45,42.41\C,0,63.52,60.47,41.44\C,0,63.92,61.89,41.83\C,0,63.38,63.
 02,40.96\N,0,63.27,62.6,39.55\H,0,64.83,58.2,40.4\H,0,62.56,58.05,41.9
 6\H,0,65.22,59.5,42.41\H,0,63.89,59.73,43.43\H,0,62.45,60.27,41.53\H,0
 ,63.83,60.26,40.42\H,0,65.,61.94,41.8\H,0,63.56,62.1,42.84\H,0,63.9,63
 .97,41.07\H,0,62.35,63.21,41.25\H,0,62.7,61.77,39.56\H,0,62.66,63.33,3
 9.2\H,0,64.11,62.54,39.\N,0,62.97,56.35,43.66\C,0,63.03,55.31,44.66\C,
 0,63.36,53.94,44.08\O,0,63.77,53.01,44.78\C,0,61.69,55.29,45.4\C,0,61.
 18,56.6,45.96\O,0,61.84,57.4,46.66\O,0,59.97,56.82,45.72\H,0,62.08,56.
 65,43.29\H,0,63.84,55.61,45.33\H,0,61.74,54.43,46.07\H,0,60.97,55.09,4
 4.61\N,0,63.23,53.76,42.77\C,0,64.05,52.77,42.09\C,0,65.55,53.07,42.12
 \O,0,66.03,53.99,42.77\H,0,63.06,54.6,42.23\H,0,63.81,52.63,41.04\H,0,
 63.96,51.87,42.69\N,0,66.36,52.11,41.68\C,0,66.17,50.72,41.29\C,0,67.0
 4,50.2,40.16\O,0,68.08,49.57,40.35\C,0,66.18,49.93,42.6\C,0,66.02,48.4
 4,42.37\N,0,67.08,47.64,42.5\O,0,64.99,48.04,41.83\H,0,67.31,52.35,41.
 91\H,0,65.13,50.55,41.02\H,0,65.33,50.13,43.25\H,0,67.09,50.06,43.19\H
 ,0,67.89,48.14,42.83\H,0,66.98,46.64,42.63\N,0,66.78,50.45,38.88\C,0,6
 5.97,51.57,38.45\C,0,64.51,51.2,38.22\O,0,63.67,51.99,37.79\H,0,67.3,4
 9.97,38.15\H,0,66.37,52.11,37.58\H,0,65.91,52.33,39.22\N,0,64.13,49.95
 ,38.49\C,0,62.79,49.42,38.55\C,0,62.1,50.13,39.71\O,0,62.78,50.4,40.7\
 C,0,62.85,47.9,38.66\C,0,63.41,47.23,37.43\C,0,62.51,46.97,36.38\C,0,6
 4.75,46.84,37.36\C,0,62.99,46.33,35.23\C,0,65.24,46.24,36.19\C,0,64.35
 ,45.97,35.13\O,0,64.72,45.12,34.13\H,0,64.83,49.33,38.86\H,0,62.29,49.
 74,37.64\H,0,61.84,47.57,38.92\H,0,63.52,47.6,39.46\H,0,61.49,47.32,36
 .46\H,0,65.48,47.03,38.14\H,0,62.37,46.17,34.37\H,0,66.23,45.83,36.31\
 H,0,65.68,45.1,34.11\N,0,60.84,50.57,39.6\C,0,60.17,51.45,40.53\C,0,59
 .11,50.62,41.24\O,0,58.51,49.73,40.64\C,0,59.59,52.62,39.76\C,0,60.73,
 53.47,39.18\C,0,58.64,52.21,38.64\C,0,60.29,54.75,38.49\H,0,60.28,50.1
 7,38.86\H,0,60.87,51.79,41.3\H,0,59.03,53.28,40.42\H,0,61.22,52.84,38.
 43\H,0,61.5,53.59,39.95\H,0,57.82,51.63,39.06\H,0,58.35,53.09,38.06\H,
 0,59.21,51.68,37.88\H,0,59.9,54.58,37.48\H,0,59.47,55.29,38.96\H,0,61.
 12,55.45,38.53\N,0,58.74,51.02,42.46\C,0,57.76,50.44,43.36\C,0,56.3,50
 .52,42.95\O,0,55.98,50.71,41.77\C,0,58.2,49.04,43.8\O,0,57.86,48.14,42
 .77\H,0,59.25,51.8,42.84\H,0,57.78,51.11,44.22\H,0,57.66,48.62,44.65\H
 ,0,59.26,48.92,44.01\H,0,58.1,48.38,41.87\N,0,55.4,50.41,43.92\C,0,53.
 96,50.52,43.82\C,0,53.45,51.95,43.95\O,0,54.06,52.7,44.7\C,0,53.26,49.
 65,44.86\H,0,55.7,50.22,44.86\H,0,53.74,50.12,42.83\H,0,53.47,48.6,44.
 66\H,0,53.75,49.89,45.81\H,0,52.18,49.73,44.81\N,0,52.46,52.29,43.12\C
 ,0,52.02,53.65,42.86\C,0,53.12,54.66,42.57\O,0,53.23,55.76,43.11\C,0,5
 1.03,53.99,43.97\H,0,52.09,51.54,42.55\H,0,51.42,53.56,41.96\H,0,50.63
 ,55.,43.88\H,0,50.29,53.18,43.96\H,0,51.52,53.88,44.93\N,0,53.99,54.21
 ,41.66\C,0,54.93,55.16,41.09\C,0,54.65,55.47,39.63\O,0,54.8,56.61,39.1
 9\C,0,56.33,54.59,41.29\C,0,57.41,55.64,41.48\C,0,57.3,56.43,42.77\O,0
 ,57.62,55.84,43.82\O,0,56.91,57.62,42.67\H,0,53.88,53.24,41.4\H,0,54.9
 1,56.11,41.62\H,0,56.52,53.91,40.46\H,0,56.41,53.97,42.19\H,0,57.29,56
 .32,40.64\H,0,58.4,55.18,41.35\N,0,54.11,54.51,38.88\C,0,53.11,54.72,3
 7.85\H,0,52.255,55.244,38.276\H,0,53.537,55.317,37.045\H,0,52.785,53.7
 57,37.456\H,0,54.21,53.54,39.11\Ca,0,57.54,56.1,46.33\O,0,57.6,53.64,4
 5.75\H,0,58.34,53.05,45.95\H,0,56.86,53.05,45.63\\Version=ES64L-G16Rev
 A.03\State=1-A\HF=-5333.2991381\RMSD=1.962e-10\Dipole=-7.4056258,3.620
 2065,2.7546627\Quadrupole=-76.7837282,101.2030643,-24.4193361,17.55558
 65,-63.7379444,-31.7775455\PG=C01 [X(C54H83Ca1N15O23)]\\@


 IT IS IMPOSSIBLE TO MEDITATE ON TIME AND THE MYSTERY 
 OF NATURE WITHOUT AN OVERWHELMING EMOTION AT THE
 LIMITATIONS OF HUMAN INTELLIGENCE.

                                         -- ALFRED NORTH WHITEHEAD
 Job cpu time:       0 days 14 hours 58 minutes  3.3 seconds.
 Elapsed time:       0 days  0 hours 18 minutes 56.4 seconds.
 File lengths (MBytes):  RWF=   1517 Int=      0 D2E=      0 Chk=    171 Scr=      1
 Normal termination of Gaussian 16 at Wed Sep 18 14:35:02 2019.
