 Entering Gaussian System, Link 0=g16
 Initial command:
 /home1/apps/gaussian/16rA.03/g16/l1.exe "/scratch/01990/pengzhi/4354933/Gau-28542.inp" -scrdir="/scratch/01990/pengzhi/4354933/"
 Entering Link 1 = /home1/apps/gaussian/16rA.03/g16/l1.exe PID=     28543.
  
 Copyright (c) 1988,1990,1992,1993,1995,1998,2003,2009,2016,
            Gaussian, Inc.  All Rights Reserved.
  
 This is part of the Gaussian(R) 16 program.  It is based on
 the Gaussian(R) 09 system (copyright 2009, Gaussian, Inc.),
 the Gaussian(R) 03 system (copyright 2003, Gaussian, Inc.),
 the Gaussian(R) 98 system (copyright 1998, Gaussian, Inc.),
 the Gaussian(R) 94 system (copyright 1995, Gaussian, Inc.),
 the Gaussian 92(TM) system (copyright 1992, Gaussian, Inc.),
 the Gaussian 90(TM) system (copyright 1990, Gaussian, Inc.),
 the Gaussian 88(TM) system (copyright 1988, Gaussian, Inc.),
 the Gaussian 86(TM) system (copyright 1986, Carnegie Mellon
 University), and the Gaussian 82(TM) system (copyright 1983,
 Carnegie Mellon University). Gaussian is a federally registered
 trademark of Gaussian, Inc.
  
 This software contains proprietary and confidential information,
 including trade secrets, belonging to Gaussian, Inc.
  
 This software is provided under written license and may be
 used, copied, transmitted, or stored only in accord with that
 written license.
  
 The following legend is applicable only to US Government
 contracts under FAR:
  
                    RESTRICTED RIGHTS LEGEND
  
 Use, reproduction and disclosure by the US Government is
 subject to restrictions as set forth in subparagraphs (a)
 and (c) of the Commercial Computer Software - Restricted
 Rights clause in FAR 52.227-19.
  
 Gaussian, Inc.
 340 Quinnipiac St., Bldg. 40, Wallingford CT 06492
  
  
 ---------------------------------------------------------------
 Warning -- This program may not be used in any manner that
 competes with the business of Gaussian, Inc. or will provide
 assistance to any competitor of Gaussian, Inc.  The licensee
 of this program is prohibited from giving any competitor of
 Gaussian, Inc. access to this program.  By using this program,
 the user acknowledges that Gaussian, Inc. is engaged in the
 business of creating and licensing software in the field of
 computational chemistry and represents and warrants to the
 licensee that it is not a competitor of Gaussian, Inc. and that
 it will not use this program in any manner prohibited above.
 ---------------------------------------------------------------
  

 Cite this work as:
 Gaussian 16, Revision A.03,
 M. J. Frisch, G. W. Trucks, H. B. Schlegel, G. E. Scuseria, 
 M. A. Robb, J. R. Cheeseman, G. Scalmani, V. Barone, 
 G. A. Petersson, H. Nakatsuji, X. Li, M. Caricato, A. V. Marenich, 
 J. Bloino, B. G. Janesko, R. Gomperts, B. Mennucci, H. P. Hratchian, 
 J. V. Ortiz, A. F. Izmaylov, J. L. Sonnenberg, D. Williams-Young, 
 F. Ding, F. Lipparini, F. Egidi, J. Goings, B. Peng, A. Petrone, 
 T. Henderson, D. Ranasinghe, V. G. Zakrzewski, J. Gao, N. Rega, 
 G. Zheng, W. Liang, M. Hada, M. Ehara, K. Toyota, R. Fukuda, 
 J. Hasegawa, M. Ishida, T. Nakajima, Y. Honda, O. Kitao, H. Nakai, 
 T. Vreven, K. Throssell, J. A. Montgomery, Jr., J. E. Peralta, 
 F. Ogliaro, M. J. Bearpark, J. J. Heyd, E. N. Brothers, K. N. Kudin, 
 V. N. Staroverov, T. A. Keith, R. Kobayashi, J. Normand, 
 K. Raghavachari, A. P. Rendell, J. C. Burant, S. S. Iyengar, 
 J. Tomasi, M. Cossi, J. M. Millam, M. Klene, C. Adamo, R. Cammi, 
 J. W. Ochterski, R. L. Martin, K. Morokuma, O. Farkas, 
 J. B. Foresman, and D. J. Fox, Gaussian, Inc., Wallingford CT, 2016.
 
 ******************************************
 Gaussian 16:  ES64L-G16RevA.03 25-Dec-2016
                18-Sep-2019 
 ******************************************
 %chk=Ng-31_loop3_29.0.chk
 %nprocshared=48
 Will use up to   48 processors via shared memory.
 %mem=10GB
 %nosave
 ----------------------------------------------------------------------
 #b3lyp/svp scf=(tight,noincore) Test #IOP(5/87=12) Density=Current Pop
 =(MK,readradii) iop(6/33=2) iop(6/42=6)
 ----------------------------------------------------------------------
 1/30=1,38=1,172=1/1;
 2/12=2,17=6,18=5,40=1/2;
 3/5=18,7=101,11=2,25=1,30=1,74=-5/1,2,3;
 4//1;
 5/5=4,32=2,38=5,87=12/2;
 6/7=2,8=2,9=2,10=2,15=8,20=101,22=-1,28=1,33=2,42=6/1,2;
 99/5=1,9=1/99;
 ----------------
 Ng-31_loop3_29.0
 ----------------
 Symbolic Z-matrix:
 Charge =  0 Multiplicity = 1
 C                     84.28     71.25     30.03 
 C                     83.74     70.47     31.22 
 O                     82.57     70.59     31.58 
 H                     85.296    70.921    29.812 
 H                     83.647    71.072    29.161 
 H                     84.285    72.314    30.265 
 N                     84.56     69.58     31.79 
 C                     84.07     68.56     32.69 
 C                     84.36     68.94     34.14 
 O                     83.7      68.35     35. 
 C                     84.65     67.17     32.4 
 C                     86.13     66.98     32.1 
 O                     86.72     67.71     31.27 
 O                     86.65     66.       32.66 
 H                     85.5      69.53     31.44 
 H                     83.       68.41     32.55 
 H                     84.11     66.82     31.52 
 H                     84.36     66.37     33.09 
 N                     85.35     69.79     34.4 
 C                     85.76     70.17     35.74 
 C                     86.52     69.12     36.53 
 O                     87.44     68.5      36.02 
 C                     86.56     71.46     35.61 
 C                     85.77     72.63     35.02 
 C                     86.38     74.01     35.22 
 C                     85.5      75.19     34.83 
 N                     84.17     75.16     35.45 
 H                     85.77     70.28     33.62 
 H                     84.87     70.46     36.31 
 H                     87.52     71.25     35.12 
 H                     86.76     71.89     36.59 
 H                     84.85     72.61     35.6 
 H                     85.69     72.64     33.93 
 H                     87.33     74.04     34.68 
 H                     86.6      74.24     36.26 
 H                     85.27     75.26     33.76 
 H                     86.       76.13     35.05 
 H                     83.68     74.3      35.25 
 H                     84.24     75.17     36.46 
 H                     83.69     76.03     35.28 
 N                     86.16     68.86     37.8 
 C                     86.62     67.76     38.62 
 C                     85.62     66.61     38.64 
 O                     85.69     65.68     39.44 
 C                     87.08     68.21     40. 
 C                     85.99     68.97     40.75 
 O                     84.9      69.31     40.23 
 O                     86.1      69.22     41.97 
 H                     85.45     69.46     38.2 
 H                     87.49     67.26     38.19 
 H                     87.87     68.95     39.88 
 H                     87.41     67.37     40.61 
 N                     84.67     66.65     37.7 
 C                     83.73     65.57     37.48 
 C                     84.34     64.26     36.99 
 O                     85.31     64.26     36.23 
 H                     84.45     67.47     37.16 
 H                     82.96     65.84     36.76 
 H                     83.14     65.48     38.39 
 N                     83.85     63.06     37.3 
 C                     82.54     62.85     37.9 
 C                     81.73     61.83     37.12 
 O                     81.55     60.74     37.66 
 C                     82.61     62.54     39.39 
 C                     83.14     63.65     40.29 
 N                     84.38     63.54     40.77 
 O                     82.4      64.49     40.8 
 H                     84.34     62.32     36.83 
 H                     81.94     63.76     37.82 
 H                     83.12     61.58     39.43 
 H                     81.62     62.32     39.78 
 H                     84.82     62.67     40.52 
 H                     84.8      64.11     41.49 
 N                     81.25     61.96     35.88 
 C                     81.51     63.07     34.99 
 C                     80.6      64.27     35.21 
 O                     81.14     65.37     35.2 
 H                     80.61     61.26     35.53 
 H                     81.41     62.66     33.99 
 H                     82.49     63.54     35.08 
 N                     79.31     64.08     35.5 
 C                     78.47     65.07     36.16 
 C                     78.6      65.       37.67 
 O                     79.08     63.99     38.17 
 C                     77.       64.99     35.77 
 C                     76.74     65.21     34.3 
 C                     76.95     66.49     33.76 
 C                     76.37     64.13     33.49 
 C                     76.67     66.71     32.41 
 C                     76.09     64.33     32.13 
 C                     76.33     65.61     31.59 
 O                     76.05     65.88     30.28 
 H                     78.91     63.15     35.52 
 H                     78.83     66.07     35.94 
 H                     76.52     65.84     36.25 
 H                     76.63     64.01     36.06 
 H                     77.35     67.31     34.34 
 H                     76.3      63.14     33.92 
 H                     76.91     67.69     32.01 
 H                     75.6      63.55     31.57 
 H                     75.76     65.19     29.68 
 N                     78.34     66.14     38.32 
 C                     78.72     66.42     39.69 
 C                     77.6      66.18     40.7 
 O                     77.94     65.76     41.8 
 C                     79.24     67.85     39.76 
 C                     80.74     68.02     39.48 
 C                     78.36     68.84     39.01 
 C                     81.07     67.65     38.04 
 H                     77.91     66.9      37.81 
 H                     79.57     65.83     40.04 
 H                     79.12     68.14     40.8 
 H                     81.33     67.38     40.14 
 H                     80.96     69.05     39.73 
 H                     78.29     68.57     37.96 
 H                     77.33     68.91     39.38 
 H                     78.9      69.78     39.09 
 H                     80.4      68.08     37.29 
 H                     82.08     68.03     37.89 
 H                     81.06     66.57     37.96 
 N                     76.31     66.38     40.43 
 C                     75.19     66.18     41.33 
 C                     75.02     67.49     42.1 
 O                     74.91     68.56     41.51 
 C                     73.82     65.9      40.71 
 O                     73.86     64.69     39.98 
 H                     76.08     66.86     39.57 
 H                     75.45     65.41     42.06 
 H                     73.61     66.76     40.07 
 H                     73.11     65.91     41.52 
 H                     73.85     65.03     39.08 
 N                     75.01     67.37     43.43 
 C                     74.43     68.23     44.43 
 C                     75.48     69.09     45.1 
 O                     76.65     68.72     45.26 
 C                     73.73     67.32     45.44 
 H                     75.33     66.47     43.75 
 H                     73.75     68.87     43.87 
 H                     73.67     67.93     46.35 
 H                     72.68     67.26     45.15 
 H                     74.17     66.33     45.56 
 N                     75.13     70.27     45.63 
 C                     75.98     71.23     46.3 
 C                     77.26     71.53     45.55 
 O                     78.37     71.48     46.09 
 C                     76.19     70.82     47.76 
 H                     74.19     70.59     45.45 
 H                     75.41     72.16     46.29 
 H                     76.89     69.99     47.78 
 H                     76.53     71.56     48.48 
 H                     75.28     70.36     48.15 
 N                     77.1      71.72     44.24 
 C                     78.15     71.78     43.24 
 C                     77.85     72.9      42.25 
 O                     78.67     73.8      42.1 
 C                     78.18     70.45     42.5 
 C                     79.09     69.45     43.21 
 C                     80.55     69.46     42.8 
 O                     81.01     70.34     42.03 
 O                     81.29     68.54     43.21 
 H                     76.13     71.72     43.94 
 H                     79.1      71.96     43.75 
 H                     78.61     70.5      41.5 
 H                     77.19     70.       42.48 
 H                     78.68     68.46     43.03 
 H                     79.       69.55     44.29 
 N                     76.64     72.97     41.7 
 C                     76.33     74.02     40.76 
 H                     75.476    74.591    41.123 
 H                     77.191    74.681    40.656 
 H                     76.088    73.582    39.792 
 H                     75.94     72.32     42.04 
 Ca                    83.61     69.48     42.69 
 O                     82.68     70.68     44.79 
 H                     82.35     70.4      45.64 
 H                     82.8      71.62     44.87 
 
 Stoichiometry    C54H83CaN15O23
 Framework group  C1[X(C54H83CaN15O23)]
 Deg. of freedom   522
 Full point group                 C1      NOp   1
 Largest Abelian subgroup         C1      NOp   1
 Largest concise Abelian subgroup C1      NOp   1
                         Standard orientation:                         
 ---------------------------------------------------------------------
 Center     Atomic      Atomic             Coordinates (Angstroms)
 Number     Number       Type             X           Y           Z
 ---------------------------------------------------------------------
      1          6           0        8.337739   -1.091240    5.024858
      2          6           0        7.171678   -0.683171    4.136105
      3          8           0        6.147528   -0.198495    4.614755
      4          1           0        9.179983   -1.392404    4.402005
      5          1           0        8.631806   -0.247764    5.649043
      6          1           0        8.037318   -1.925538    5.658136
      7          7           0        7.348089   -0.780895    2.813710
      8          6           0        6.464548   -0.123718    1.876707
      9          6           0        5.484449   -1.125422    1.270905
     10          8           0        4.475831   -0.649060    0.742634
     11          6           0        7.211250    0.604849    0.752329
     12          6           0        8.391340   -0.041886    0.041257
     13          8           0        9.316886   -0.584929    0.688071
     14          8           0        8.397921    0.108332   -1.192352
     15          1           0        8.212430   -1.179029    2.492766
     16          1           0        5.919604    0.682078    2.367347
     17          1           0        7.591824    1.515993    1.214367
     18          1           0        6.589592    1.069391   -0.020937
     19          7           0        5.806266   -2.416309    1.255344
     20          6           0        4.986139   -3.447965    0.646100
     21          6           0        4.973739   -3.483349   -0.871396
     22          8           0        6.014470   -3.410842   -1.505843
     23          6           0        5.439073   -4.778887    1.233038
     24          6           0        5.264674   -4.886347    2.749329
     25          6           0        5.333814   -6.292849    3.326800
     26          6           0        4.947687   -6.430339    4.793396
     27          7           0        3.640104   -5.845297    5.113010
     28          1           0        6.614387   -2.708943    1.790327
     29          1           0        3.955883   -3.332296    1.001476
     30          1           0        6.442287   -5.023553    0.859540
     31          1           0        4.759253   -5.578791    0.944427
     32          1           0        4.243566   -4.540749    2.894590
     33          1           0        6.053869   -4.422492    3.346497
     34          1           0        6.341718   -6.679051    3.153665
     35          1           0        4.643255   -6.988968    2.856219
     36          1           0        5.620616   -5.925248    5.496781
     37          1           0        4.983110   -7.471960    5.102865
     38          1           0        3.586323   -4.873129    4.845245
     39          1           0        2.904031   -6.286013    4.575362
     40          1           0        3.370514   -6.094326    6.051895
     41          7           0        3.798931   -3.576909   -1.520375
     42          6           0        3.581259   -3.407681   -2.940931
     43          6           0        3.071782   -2.010554   -3.274651
     44          8           0        2.605724   -1.715949   -4.372740
     45          6           0        2.753555   -4.533778   -3.545341
     46          6           0        1.405201   -4.693865   -2.849271
     47          8           0        1.084384   -4.069587   -1.809342
     48          8           0        0.504660   -5.407122   -3.342514
     49          1           0        2.976839   -3.719890   -0.947817
     50          1           0        4.515191   -3.419416   -3.506116
     51          1           0        3.255763   -5.479904   -3.348537
     52          1           0        2.586487   -4.385411   -4.611491
     53          7           0        3.196987   -1.099482   -2.304098
     54          6           0        2.902091    0.305667   -2.496430
     55          6           0        3.812594    1.037943   -3.477785
     56          8           0        5.006106    0.745774   -3.570873
     57          1           0        3.381275   -1.327597   -1.341601
     58          1           0        2.943951    0.862600   -1.562475
     59          1           0        1.841265    0.372473   -2.729848
     60          7           0        3.404674    2.048993   -4.244322
     61          6           0        2.145737    2.754911   -4.052076
     62          6           0        2.357151    4.256714   -3.982858
     63          8           0        1.953392    4.914601   -4.940074
     64          6           0        1.076356    2.350790   -5.059156
     65          6           0        0.586702    0.909228   -4.987472
     66          7           0        1.005858    0.049718   -5.917876
     67          8           0       -0.366593    0.574800   -4.285556
     68          1           0        4.159052    2.449564   -4.772579
     69          1           0        1.726996    2.515757   -3.071279
     70          1           0        1.475322    2.694665   -6.010931
     71          1           0        0.180906    2.951497   -4.925285
     72          1           0        1.574239    0.485710   -6.624880
     73          1           0        0.648198   -0.879886   -6.084052
     74          7           0        2.997684    4.937159   -3.028074
     75          6           0        3.719116    4.352611   -1.919183
     76          6           0        2.841557    3.982951   -0.731857
     77          8           0        3.060976    2.894963   -0.212398
     78          1           0        2.947217    5.946877   -3.032820
     79          1           0        4.474688    5.085868   -1.655469
     80          1           0        4.209448    3.398012   -2.113386
     81          7           0        1.831874    4.782997   -0.378636
     82          6           0        0.683041    4.346570    0.403038
     83          6           0       -0.391782    3.731445   -0.473476
     84          8           0       -0.360540    3.949979   -1.678368
     85          6           0        0.072290    5.442494    1.266365
     86          6           0        1.017603    6.016397    2.292971
     87          6           0        1.418302    5.208185    3.370160
     88          6           0        1.534620    7.305433    2.118393
     89          6           0        2.258562    5.747679    4.345972
     90          6           0        2.384890    7.862716    3.085076
     91          6           0        2.804378    7.036360    4.147509
     92          8           0        3.608046    7.525568    5.138565
     93          1           0        1.672877    5.664165   -0.851460
     94          1           0        0.963146    3.518407    1.046223
     95          1           0       -0.696185    4.955475    1.862651
     96          1           0       -0.270352    6.235664    0.606912
     97          1           0        1.127315    4.171015    3.461829
     98          1           0        1.273070    7.869849    1.233561
     99          1           0        2.604601    5.075770    5.124942
    100          1           0        2.599489    8.918745    3.055930
    101          1           0        3.968398    8.413518    5.095081
    102          7           0       -1.186899    2.843729    0.134348
    103          6           0       -2.037447    1.888161   -0.546208
    104          6           0       -3.490070    2.341134   -0.675839
    105          8           0       -4.076989    2.001371   -1.696666
    106          6           0       -1.930188    0.551693    0.176667
    107          6           0       -0.794391   -0.365333   -0.299074
    108          6           0       -2.016886    0.685898    1.690428
    109          6           0        0.565154    0.250531    0.003826
    110          1           0       -1.150367    2.772747    1.142429
    111          1           0       -1.707114    1.648848   -1.559474
    112          1           0       -2.840588    0.019482   -0.084143
    113          1           0       -0.860173   -0.532740   -1.376547
    114          1           0       -0.967813   -1.311834    0.196770
    115          1           0       -1.220072    1.322992    2.063923
    116          1           0       -2.955315    1.116803    2.059714
    117          1           0       -1.848463   -0.325661    2.050960
    118          1           0        0.674375    0.647297    1.017210
    119          1           0        1.269677   -0.566592   -0.147689
    120          1           0        0.744769    1.038915   -0.716653
    121          7           0       -4.112811    3.086891    0.236871
    122          6           0       -5.485217    3.554667    0.191181
    123          6           0       -6.336043    2.447745    0.814654
    124          8           0       -6.073058    1.998555    1.925585
    125          6           0       -5.832996    4.818377    0.979715
    126          8           0       -5.105931    5.918860    0.470880
    127          1           0       -3.648951    3.225369    1.124879
    128          1           0       -5.796702    3.650170   -0.851534
    129          1           0       -5.569940    4.595142    2.016184
    130          1           0       -6.903373    4.926952    0.926754
    131          1           0       -4.457344    6.037169    1.171621
    132          7           0       -7.354008    2.021840    0.062490
    133          6           0       -8.587212    1.386825    0.452317
    134          6           0       -8.545098   -0.106203    0.207181
    135          8           0       -7.893147   -0.618483   -0.711475
    136          6           0       -9.699741    2.051866   -0.358978
    137          1           0       -7.296834    2.330384   -0.894763
    138          1           0       -8.654902    1.569914    1.523530
    139          1           0      -10.509125    1.311128   -0.356706
    140          1           0      -10.126851    2.841086    0.261433
    141          1           0       -9.402851    2.427948   -1.338017
    142          7           0       -9.308656   -0.920804    0.948265
    143          6           0       -9.403301   -2.362431    0.872406
    144          6           0       -8.057845   -3.054682    0.834522
    145          8           0       -7.773271   -3.900555   -0.019713
    146          6           0      -10.350369   -2.770036   -0.259283
    147          1           0       -9.795386   -0.505105    1.728449
    148          1           0       -9.859527   -2.660771    1.817261
    149          1           0       -9.831935   -2.623769   -1.202220
    150          1           0      -10.777682   -3.769518   -0.265566
    151          1           0      -11.168116   -2.050755   -0.334941
    152          7           0       -7.169821   -2.582402    1.709831
    153          6           0       -5.748052   -2.871689    1.741202
    154          6           0       -5.301393   -3.085724    3.183140
    155          8           0       -4.775663   -4.149678    3.493802
    156          6           0       -5.005740   -1.677801    1.157247
    157          6           0       -4.868260   -1.807693   -0.358150
    158          6           0       -3.638880   -2.538836   -0.861989
    159          8           0       -2.858266   -3.130853   -0.075187
    160          8           0       -3.385755   -2.505294   -2.085468
    161          1           0       -7.546016   -1.879435    2.338492
    162          1           0       -5.567003   -3.769165    1.143910
    163          1           0       -3.971127   -1.585125    1.486468
    164          1           0       -5.558608   -0.758195    1.335182
    165          1           0       -4.872409   -0.801226   -0.767549
    166          1           0       -5.768865   -2.241372   -0.788653
    167          7           0       -5.643186   -2.189405    4.105793
    168          6           0       -5.233292   -2.368071    5.477750
    169          1           0       -6.113707   -2.389440    6.119263
    170          1           0       -4.689870   -3.308384    5.575532
    171          1           0       -4.588109   -1.541847    5.775283
    172          1           0       -6.269008   -1.445585    3.817384
    173         20           0       -1.639885   -4.360957   -2.297257
    174          8           0       -3.979551   -5.447104   -2.049978
    175          1           0       -4.809428   -5.382127   -2.515685
    176          1           0       -4.074175   -6.204626   -1.482874
 ---------------------------------------------------------------------
 Rotational constants (GHZ):           0.0186624           0.0116295           0.0099335
 Standard basis: SVP (5D, 7F)
 There are  1809 symmetry adapted cartesian basis functions of A   symmetry.
 There are  1717 symmetry adapted basis functions of A   symmetry.
  1717 basis functions,  2922 primitive gaussians,  1809 cartesian basis functions
   358 alpha electrons      358 beta electrons
       nuclear repulsion energy     19920.6464154228 Hartrees.
 NAtoms=  176 NActive=  176 NUniq=  176 SFac= 1.00D+00 NAtFMM=   60 NAOKFM=T Big=T
 Integral buffers will be    131072 words long.
 Raffenetti 2 integral format.
 Two-electron integral symmetry is turned on.
 One-electron integrals computed using PRISM.
 NBasis=  1717 RedAO= T EigKep=  3.50D-04  NBF=  1717
 NBsUse=  1717 1.00D-06 EigRej= -1.00D+00 NBFU=  1717
 ExpMin= 1.98D-02 ExpMax= 3.51D+04 ExpMxC= 5.28D+03 IAcc=3 IRadAn=         5 AccDes= 0.00D+00
 Harris functional with IExCor=  402 and IRadAn=       5 diagonalized for initial guess.
 HarFok:  IExCor=  402 AccDes= 0.00D+00 IRadAn=         5 IDoV= 1 UseB2=F ITyADJ=14
 ICtDFT=  3500011 ScaDFX=  1.000000  1.000000  1.000000  1.000000
 FoFCou: FMM=F IPFlag=           0 FMFlag=      100000 FMFlg1=        2001
         NFxFlg=           0 DoJE=T BraDBF=F KetDBF=T FulRan=T
         wScrn=  0.000000 ICntrl=       500 IOpCl=  0 I1Cent=   200000004 NGrid=           0
         NMat0=    1 NMatS0=      1 NMatT0=    0 NMatD0=    1 NMtDS0=    0 NMtDT0=    0
 Petite list used in FoFCou.
 Requested convergence on RMS density matrix=1.00D-08 within 128 cycles.
 Requested convergence on MAX density matrix=1.00D-06.
 Requested convergence on             energy=1.00D-06.
 No special actions if energy rises.
 EnCoef did     2 forward-backward iterations
 EnCoef did     3 forward-backward iterations
 EnCoef did     3 forward-backward iterations
 EnCoef did     2 forward-backward iterations
 EnCoef did     1 forward-backward iterations
 EnCoef did     9 forward-backward iterations
 Rare condition: small coef for last iteration:  0.444D-15
 EnCoef did   100 forward-backward iterations
 EnCoef did   100 forward-backward iterations
 Rare condition: small coef for last iteration:  0.000D+00
 EnCoef did   100 forward-backward iterations
 Rare condition: small coef for last iteration:  0.000D+00
 EnCoef did   100 forward-backward iterations
 Rare condition: small coef for last iteration:  0.000D+00
 Restarting incremental Fock formation.
 EnCoef did   100 forward-backward iterations
 EnCoef did   100 forward-backward iterations
 EnCoef did   100 forward-backward iterations
 Rare condition: small coef for last iteration: -0.102D-14
 EnCoef did   100 forward-backward iterations
 EnCoef did   100 forward-backward iterations
 Rare condition: small coef for last iteration: -0.116D-15
 EnCoef did   100 forward-backward iterations
 Rare condition: small coef for last iteration:  0.000D+00
 EnCoef did   100 forward-backward iterations
 Rare condition: small coef for last iteration:  0.000D+00
 EnCoef did   100 forward-backward iterations
 EnCoef did   100 forward-backward iterations
 Rare condition: small coef for last iteration:  0.000D+00
 EnCoef did   100 forward-backward iterations
 Rare condition: small coef for last iteration:  0.000D+00
 EnCoef did   100 forward-backward iterations
 Rare condition: small coef for last iteration:  0.000D+00
 EnCoef did   100 forward-backward iterations
 EnCoef did   100 forward-backward iterations
 Rare condition: small coef for last iteration:  0.180D-15
 EnCoef did   100 forward-backward iterations
 Rare condition: small coef for last iteration:  0.000D+00
 EnCoef did   100 forward-backward iterations
 EnCoef did   100 forward-backward iterations
 Rare condition: small coef for last iteration:  0.299D-15
 EnCoef did   100 forward-backward iterations
 Rare condition: small coef for last iteration:  0.000D+00
 EnCoef did   100 forward-backward iterations
 EnCoef did   100 forward-backward iterations
 Rare condition: small coef for last iteration: -0.115D-15
 EnCoef did   100 forward-backward iterations
 Rare condition: small coef for last iteration:  0.000D+00
 Restarting incremental Fock formation.
 EnCoef did   100 forward-backward iterations
 Rare condition: small coef for last iteration:  0.000D+00
 EnCoef did   100 forward-backward iterations
 EnCoef did   100 forward-backward iterations
 Rare condition: small coef for last iteration:  0.000D+00
 EnCoef did   100 forward-backward iterations
 Rare condition: small coef for last iteration:  0.000D+00
 EnCoef did   100 forward-backward iterations
 Rare condition: small coef for last iteration:  0.000D+00
 EnCoef did   100 forward-backward iterations
 EnCoef did   100 forward-backward iterations
 Rare condition: small coef for last iteration:  0.115D-15
 EnCoef did   100 forward-backward iterations
 Rare condition: small coef for last iteration:  0.000D+00
 EnCoef did   100 forward-backward iterations
 EnCoef did   100 forward-backward iterations
 Rare condition: small coef for last iteration: -0.462D-15
 EnCoef did   100 forward-backward iterations
 Rare condition: small coef for last iteration:  0.000D+00
 EnCoef did   100 forward-backward iterations
 Rare condition: small coef for last iteration:  0.000D+00
 EnCoef did   100 forward-backward iterations
 EnCoef did   100 forward-backward iterations
 Rare condition: small coef for last iteration:  0.173D-15
 EnCoef did   100 forward-backward iterations
 Rare condition: small coef for last iteration:  0.000D+00
 EnCoef did   100 forward-backward iterations
 Rare condition: small coef for last iteration:  0.000D+00
 EnCoef did   100 forward-backward iterations
 Rare condition: small coef for last iteration: -0.114D-17
 EnCoef did   100 forward-backward iterations
 Rare condition: small coef for last iteration:  0.000D+00
 EnCoef did   100 forward-backward iterations
 EnCoef did   100 forward-backward iterations
 Rare condition: small coef for last iteration: -0.118D-15
 Restarting incremental Fock formation.
 EnCoef did   100 forward-backward iterations
 Rare condition: small coef for last iteration:  0.000D+00
 EnCoef did   100 forward-backward iterations
 EnCoef did   100 forward-backward iterations
 Rare condition: small coef for last iteration:  0.587D-16
 EnCoef did   100 forward-backward iterations
 EnCoef did   100 forward-backward iterations
 Rare condition: small coef for last iteration:  0.579D-16
 EnCoef did   100 forward-backward iterations
 Rare condition: small coef for last iteration:  0.000D+00
 EnCoef did   100 forward-backward iterations
 Rare condition: small coef for last iteration:  0.000D+00
 EnCoef did   100 forward-backward iterations
 EnCoef did   100 forward-backward iterations
 Rare condition: small coef for last iteration:  0.176D-15
 EnCoef did   100 forward-backward iterations
 Rare condition: small coef for last iteration:  0.000D+00
 EnCoef did   100 forward-backward iterations
 EnCoef did   100 forward-backward iterations
 Rare condition: small coef for last iteration:  0.644D-15
 EnCoef did   100 forward-backward iterations
 Rare condition: small coef for last iteration: -0.120D-17
 EnCoef did   100 forward-backward iterations
 EnCoef did   100 forward-backward iterations
 Rare condition: small coef for last iteration: -0.117D-15
 EnCoef did   100 forward-backward iterations
 EnCoef did   100 forward-backward iterations
 Rare condition: small coef for last iteration:  0.000D+00
 EnCoef did   100 forward-backward iterations
 Rare condition: small coef for last iteration:  0.000D+00
 EnCoef did   100 forward-backward iterations
 EnCoef did   100 forward-backward iterations
 Rare condition: small coef for last iteration:  0.000D+00
 Restarting incremental Fock formation.
 EnCoef did   100 forward-backward iterations
 Rare condition: small coef for last iteration:  0.000D+00
 EnCoef did   100 forward-backward iterations
 Rare condition: small coef for last iteration:  0.000D+00
 EnCoef did   100 forward-backward iterations
 Rare condition: small coef for last iteration:  0.000D+00
 EnCoef did   100 forward-backward iterations
 Rare condition: small coef for last iteration:  0.000D+00
 EnCoef did   100 forward-backward iterations
 EnCoef did   100 forward-backward iterations
 Rare condition: small coef for last iteration: -0.116D-15
 EnCoef did   100 forward-backward iterations
 Rare condition: small coef for last iteration:  0.000D+00
 EnCoef did     6 forward-backward iterations
 Restarting incremental Fock formation.
 SCF Done:  E(RB3LYP) =  -5333.35438000     A.U. after  104 cycles
            NFock=104  Conv=0.46D-09     -V/T= 2.0081
 SCF density gives NOpUse=  1 NOpAll=  1.
 Hyperfine terms turned off by default for NAtoms > 100.

 **********************************************************************

            Population analysis using the SCF density.

 **********************************************************************

 Orbital symmetries:
 BldTbl:  Degeneracy threshold= 1.00D-02
       Occupied  (A) (A) (A) (A) (A) (A) (A) (A) (A) (A) (A) (A)
                 (A) (A) (A) (A) (A) (A) (A) (A) (A) (A) (A) (A)
                 (A) (A) (A) (A) (A) (A) (A) (A) (A) (A) (A) (A)
                 (A) (A) (A) (A) (A) (A) (A) (A) (A) (A) (A) (A)
                 (A) (A) (A) (A) (A) (A) (A) (A) (A) (A) (A) (A)
                 (A) (A) (A) (A) (A) (A) (A) (A) (A) (A) (A) (A)
                 (A) (A) (A) (A) (A) (A) (A) (A) (A) (A) (A) (A)
                 (A) (A) (A) (A) (A) (A) (A) (A) (A) (A) (A) (A)
                 (A) (A) (A) (A) (A) (A) (A) (A) (A) (A) (A) (A)
                 (A) (A) (A) (A) (A) (A) (A) (A) (A) (A) (A) (A)
                 (A) (A) (A) (A) (A) (A) (A) (A) (A) (A) (A) (A)
                 (A) (A) (A) (A) (A) (A) (A) (A) (A) (A) (A) (A)
                 (A) (A) (A) (A) (A) (A) (A) (A) (A) (A) (A) (A)
                 (A) (A) (A) (A) (A) (A) (A) (A) (A) (A) (A) (A)
                 (A) (A) (A) (A) (A) (A) (A) (A) (A) (A) (A) (A)
                 (A) (A) (A) (A) (A) (A) (A) (A) (A) (A) (A) (A)
                 (A) (A) (A) (A) (A) (A) (A) (A) (A) (A) (A) (A)
                 (A) (A) (A) (A) (A) (A) (A) (A) (A) (A) (A) (A)
                 (A) (A) (A) (A) (A) (A) (A) (A) (A) (A) (A) (A)
                 (A) (A) (A) (A) (A) (A) (A) (A) (A) (A) (A) (A)
                 (A) (A) (A) (A) (A) (A) (A) (A) (A) (A) (A) (A)
                 (A) (A) (A) (A) (A) (A) (A) (A) (A) (A) (A) (A)
                 (A) (A) (A) (A) (A) (A) (A) (A) (A) (A) (A) (A)
                 (A) (A) (A) (A) (A) (A) (A) (A) (A) (A) (A) (A)
                 (A) (A) (A) (A) (A) (A) (A) (A) (A) (A) (A) (A)
                 (A) (A) (A) (A) (A) (A) (A) (A) (A) (A) (A) (A)
                 (A) (A) (A) (A) (A) (A) (A) (A) (A) (A) (A) (A)
                 (A) (A) (A) (A) (A) (A) (A) (A) (A) (A) (A) (A)
                 (A) (A) (A) (A) (A) (A) (A) (A) (A) (A) (A) (A)
                 (A) (A) (A) (A) (A) (A) (A) (A) (A) (A)
       Virtual   (A) (A) (A) (A) (A) (A) (A) (A) (A) (A) (A) (A)
                 (A) (A) (A) (A) (A) (A) (A) (A) (A) (A) (A) (A)
                 (A) (A) (A) (A) (A) (A) (A) (A) (A) (A) (A) (A)
                 (A) (A) (A) (A) (A) (A) (A) (A) (A) (A) (A) (A)
                 (A) (A) (A) (A) (A) (A) (A) (A) (A) (A) (A) (A)
                 (A) (A) (A) (A) (A) (A) (A) (A) (A) (A) (A) (A)
                 (A) (A) (A) (A) (A) (A) (A) (A) (A) (A) (A) (A)
                 (A) (A) (A) (A) (A) (A) (A) (A) (A) (A) (A) (A)
                 (A) (A) (A) (A) (A) (A) (A) (A) (A) (A) (A) (A)
                 (A) (A) (A) (A) (A) (A) (A) (A) (A) (A) (A) (A)
                 (A) (A) (A) (A) (A) (A) (A) (A) (A) (A) (A) (A)
                 (A) (A) (A) (A) (A) (A) (A) (A) (A) (A) (A) (A)
                 (A) (A) (A) (A) (A) (A) (A) (A) (A) (A) (A) (A)
                 (A) (A) (A) (A) (A) (A) (A) (A) (A) (A) (A) (A)
                 (A) (A) (A) (A) (A) (A) (A) (A) (A) (A) (A) (A)
                 (A) (A) (A) (A) (A) (A) (A) (A) (A) (A) (A) (A)
                 (A) (A) (A) (A) (A) (A) (A) (A) (A) (A) (A) (A)
                 (A) (A) (A) (A) (A) (A) (A) (A) (A) (A) (A) (A)
                 (A) (A) (A) (A) (A) (A) (A) (A) (A) (A) (A) (A)
                 (A) (A) (A) (A) (A) (A) (A) (A) (A) (A) (A) (A)
                 (A) (A) (A) (A) (A) (A) (A) (A) (A) (A) (A) (A)
                 (A) (A) (A) (A) (A) (A) (A) (A) (A) (A) (A) (A)
                 (A) (A) (A) (A) (A) (A) (A) (A) (A) (A) (A) (A)
                 (A) (A) (A) (A) (A) (A) (A) (A) (A) (A) (A) (A)
                 (A) (A) (A) (A) (A) (A) (A) (A) (A) (A) (A) (A)
                 (A) (A) (A) (A) (A) (A) (A) (A) (A) (A) (A) (A)
                 (A) (A) (A) (A) (A) (A) (A) (A) (A) (A) (A) (A)
                 (A) (A) (A) (A) (A) (A) (A) (A) (A) (A) (A) (A)
                 (A) (A) (A) (A) (A) (A) (A) (A) (A) (A) (A) (A)
                 (A) (A) (A) (A) (A) (A) (A) (A) (A) (A) (A) (A)
                 (A) (A) (A) (A) (A) (A) (A) (A) (A) (A) (A) (A)
                 (A) (A) (A) (A) (A) (A) (A) (A) (A) (A) (A) (A)
                 (A) (A) (A) (A) (A) (A) (A) (A) (A) (A) (A) (A)
                 (A) (A) (A) (A) (A) (A) (A) (A) (A) (A) (A) (A)
                 (A) (A) (A) (A) (A) (A) (A) (A) (A) (A) (A) (A)
                 (A) (A) (A) (A) (A) (A) (A) (A) (A) (A) (A) (A)
                 (A) (A) (A) (A) (A) (A) (A) (A) (A) (A) (A) (A)
                 (A) (A) (A) (A) (A) (A) (A) (A) (A) (A) (A) (A)
                 (A) (A) (A) (A) (A) (A) (A) (A) (A) (A) (A) (A)
                 (A) (A) (A) (A) (A) (A) (A) (A) (A) (A) (A) (A)
                 (A) (A) (A) (A) (A) (A) (A) (A) (A) (A) (A) (A)
                 (A) (A) (A) (A) (A) (A) (A) (A) (A) (A) (A) (A)
                 (A) (A) (A) (A) (A) (A) (A) (A) (A) (A) (A) (A)
                 (A) (A) (A) (A) (A) (A) (A) (A) (A) (A) (A) (A)
                 (A) (A) (A) (A) (A) (A) (A) (A) (A) (A) (A) (A)
                 (A) (A) (A) (A) (A) (A) (A) (A) (A) (A) (A) (A)
                 (A) (A) (A) (A) (A) (A) (A) (A) (A) (A) (A) (A)
                 (A) (A) (A) (A) (A) (A) (A) (A) (A) (A) (A) (A)
                 (A) (A) (A) (A) (A) (A) (A) (A) (A) (A) (A) (A)
                 (A) (A) (A) (A) (A) (A) (A) (A) (A) (A) (A) (A)
                 (A) (A) (A) (A) (A) (A) (A) (A) (A) (A) (A) (A)
                 (A) (A) (A) (A) (A) (A) (A) (A) (A) (A) (A) (A)
                 (A) (A) (A) (A) (A) (A) (A) (A) (A) (A) (A) (A)
                 (A) (A) (A) (A) (A) (A) (A) (A) (A) (A) (A) (A)
                 (A) (A) (A) (A) (A) (A) (A) (A) (A) (A) (A) (A)
                 (A) (A) (A) (A) (A) (A) (A) (A) (A) (A) (A) (A)
                 (A) (A) (A) (A) (A) (A) (A) (A) (A) (A) (A) (A)
                 (A) (A) (A) (A) (A) (A) (A) (A) (A) (A) (A) (A)
                 (A) (A) (A) (A) (A) (A) (A) (A) (A) (A) (A) (A)
                 (A) (A) (A) (A) (A) (A) (A) (A) (A) (A) (A) (A)
                 (A) (A) (A) (A) (A) (A) (A) (A) (A) (A) (A) (A)
                 (A) (A) (A) (A) (A) (A) (A) (A) (A) (A) (A) (A)
                 (A) (A) (A) (A) (A) (A) (A) (A) (A) (A) (A) (A)
                 (A) (A) (A) (A) (A) (A) (A) (A) (A) (A) (A) (A)
                 (A) (A) (A) (A) (A) (A) (A) (A) (A) (A) (A) (A)
                 (A) (A) (A) (A) (A) (A) (A) (A) (A) (A) (A) (A)
                 (A) (A) (A) (A) (A) (A) (A) (A) (A) (A) (A) (A)
                 (A) (A) (A) (A) (A) (A) (A) (A) (A) (A) (A) (A)
                 (A) (A) (A) (A) (A) (A) (A) (A) (A) (A) (A) (A)
                 (A) (A) (A) (A) (A) (A) (A) (A) (A) (A) (A) (A)
                 (A) (A) (A) (A) (A) (A) (A) (A) (A) (A) (A) (A)
                 (A) (A) (A) (A) (A) (A) (A) (A) (A) (A) (A) (A)
                 (A) (A) (A) (A) (A) (A) (A) (A) (A) (A) (A) (A)
                 (A) (A) (A) (A) (A) (A) (A) (A) (A) (A) (A) (A)
                 (A) (A) (A) (A) (A) (A) (A) (A) (A) (A) (A) (A)
                 (A) (A) (A) (A) (A) (A) (A) (A) (A) (A) (A) (A)
                 (A) (A) (A) (A) (A) (A) (A) (A) (A) (A) (A) (A)
                 (A) (A) (A) (A) (A) (A) (A) (A) (A) (A) (A) (A)
                 (A) (A) (A) (A) (A) (A) (A) (A) (A) (A) (A) (A)
                 (A) (A) (A) (A) (A) (A) (A) (A) (A) (A) (A) (A)
                 (A) (A) (A) (A) (A) (A) (A) (A) (A) (A) (A) (A)
                 (A) (A) (A) (A) (A) (A) (A) (A) (A) (A) (A) (A)
                 (A) (A) (A) (A) (A) (A) (A) (A) (A) (A) (A) (A)
                 (A) (A) (A) (A) (A) (A) (A) (A) (A) (A) (A) (A)
                 (A) (A) (A) (A) (A) (A) (A) (A) (A) (A) (A) (A)
                 (A) (A) (A) (A) (A) (A) (A) (A) (A) (A) (A) (A)
                 (A) (A) (A) (A) (A) (A) (A) (A) (A) (A) (A) (A)
                 (A) (A) (A) (A) (A) (A) (A) (A) (A) (A) (A) (A)
                 (A) (A) (A) (A) (A) (A) (A) (A) (A) (A) (A) (A)
                 (A) (A) (A) (A) (A) (A) (A) (A) (A) (A) (A) (A)
                 (A) (A) (A) (A) (A) (A) (A) (A) (A) (A) (A) (A)
                 (A) (A) (A) (A) (A) (A) (A) (A) (A) (A) (A) (A)
                 (A) (A) (A) (A) (A) (A) (A) (A) (A) (A) (A) (A)
                 (A) (A) (A) (A) (A) (A) (A) (A) (A) (A) (A) (A)
                 (A) (A) (A) (A) (A) (A) (A) (A) (A) (A) (A) (A)
                 (A) (A) (A) (A) (A) (A) (A) (A) (A) (A) (A) (A)
                 (A) (A) (A) (A) (A) (A) (A) (A) (A) (A) (A) (A)
                 (A) (A) (A) (A) (A) (A) (A) (A) (A) (A) (A) (A)
                 (A) (A) (A) (A) (A) (A) (A) (A) (A) (A) (A) (A)
                 (A) (A) (A) (A) (A) (A) (A) (A) (A) (A) (A) (A)
                 (A) (A) (A) (A) (A) (A) (A) (A) (A) (A) (A) (A)
                 (A) (A) (A) (A) (A) (A) (A) (A) (A) (A) (A) (A)
                 (A) (A) (A) (A) (A) (A) (A) (A) (A) (A) (A) (A)
                 (A) (A) (A) (A) (A) (A) (A) (A) (A) (A) (A) (A)
                 (A) (A) (A) (A) (A) (A) (A) (A) (A) (A) (A) (A)
                 (A) (A) (A) (A) (A) (A) (A) (A) (A) (A) (A) (A)
                 (A) (A) (A) (A) (A) (A) (A) (A) (A) (A) (A) (A)
                 (A) (A) (A) (A) (A) (A) (A) (A) (A) (A) (A) (A)
                 (A) (A) (A) (A) (A) (A) (A) (A) (A) (A) (A) (A)
                 (A) (A) (A) (A) (A) (A) (A) (A) (A) (A) (A) (A)
                 (A) (A) (A) (A) (A) (A) (A) (A) (A) (A) (A) (A)
                 (A) (A) (A) (A) (A) (A) (A) (A) (A) (A) (A) (A)
                 (A) (A) (A) (A) (A) (A) (A) (A) (A) (A) (A) (A)
                 (A) (A) (A)
 The electronic state is 1-A.
 Alpha  occ. eigenvalues -- -145.44280 -19.20866 -19.15361 -19.14945 -19.11642
 Alpha  occ. eigenvalues --  -19.11202 -19.09774 -19.08927 -19.08809 -19.08261
 Alpha  occ. eigenvalues --  -19.07937 -19.07848 -19.07830 -19.06792 -19.06430
 Alpha  occ. eigenvalues --  -19.06307 -19.06284 -19.06051 -19.05559 -19.05334
 Alpha  occ. eigenvalues --  -19.05130 -19.03894 -18.95985 -18.95369 -15.50227
 Alpha  occ. eigenvalues --  -14.56565 -14.38381 -14.37018 -14.36220 -14.36172
 Alpha  occ. eigenvalues --  -14.35653 -14.35055 -14.34778 -14.34259 -14.33856
 Alpha  occ. eigenvalues --  -14.32601 -14.31747 -14.30790 -14.30663 -14.30629
 Alpha  occ. eigenvalues --  -12.63860 -12.63820 -12.63695 -10.34410 -10.30167
 Alpha  occ. eigenvalues --  -10.29447 -10.28862 -10.27662 -10.27309 -10.27226
 Alpha  occ. eigenvalues --  -10.26955 -10.26896 -10.26834 -10.26528 -10.26288
 Alpha  occ. eigenvalues --  -10.25702 -10.25627 -10.25621 -10.25354 -10.25102
 Alpha  occ. eigenvalues --  -10.24961 -10.24594 -10.24580 -10.24572 -10.24174
 Alpha  occ. eigenvalues --  -10.24010 -10.23664 -10.23590 -10.22800 -10.22605
 Alpha  occ. eigenvalues --  -10.22363 -10.22279 -10.22152 -10.21364 -10.21342
 Alpha  occ. eigenvalues --  -10.21291 -10.20519 -10.20132 -10.19306 -10.19161
 Alpha  occ. eigenvalues --  -10.19011 -10.19000 -10.18839 -10.18673 -10.17982
 Alpha  occ. eigenvalues --  -10.17901 -10.17741 -10.17637 -10.17323 -10.16978
 Alpha  occ. eigenvalues --  -10.16697 -10.15889 -10.15167 -10.15145 -10.14984
 Alpha  occ. eigenvalues --  -10.14304 -10.10182  -1.86904  -1.14696  -1.14392
 Alpha  occ. eigenvalues --   -1.13612  -1.12407  -1.07004  -1.05024  -1.04286
 Alpha  occ. eigenvalues --   -1.03734  -1.03316  -1.03252  -1.02762  -1.02348
 Alpha  occ. eigenvalues --   -1.01977  -1.01502  -1.01077  -1.00850  -1.00574
 Alpha  occ. eigenvalues --   -1.00378  -0.99104  -0.98573  -0.98197  -0.98004
 Alpha  occ. eigenvalues --   -0.97590  -0.94826  -0.94396  -0.93037  -0.92465
 Alpha  occ. eigenvalues --   -0.91790  -0.91683  -0.91499  -0.91453  -0.90891
 Alpha  occ. eigenvalues --   -0.90269  -0.90150  -0.90052  -0.89457  -0.88566
 Alpha  occ. eigenvalues --   -0.88141  -0.87486  -0.86581  -0.85515  -0.84923
 Alpha  occ. eigenvalues --   -0.82198  -0.81742  -0.80568  -0.80443  -0.79249
 Alpha  occ. eigenvalues --   -0.78677  -0.77494  -0.77219  -0.76598  -0.75417
 Alpha  occ. eigenvalues --   -0.74510  -0.74495  -0.73629  -0.73167  -0.72924
 Alpha  occ. eigenvalues --   -0.72271  -0.71733  -0.70758  -0.70585  -0.69753
 Alpha  occ. eigenvalues --   -0.69653  -0.69547  -0.69054  -0.68612  -0.67763
 Alpha  occ. eigenvalues --   -0.66782  -0.65931  -0.65494  -0.64835  -0.64769
 Alpha  occ. eigenvalues --   -0.63254  -0.62821  -0.62037  -0.61781  -0.61029
 Alpha  occ. eigenvalues --   -0.60562  -0.60320  -0.60191  -0.59973  -0.59633
 Alpha  occ. eigenvalues --   -0.59291  -0.59170  -0.59023  -0.58740  -0.58381
 Alpha  occ. eigenvalues --   -0.58064  -0.57788  -0.57400  -0.57193  -0.56515
 Alpha  occ. eigenvalues --   -0.55549  -0.55406  -0.55173  -0.54996  -0.54927
 Alpha  occ. eigenvalues --   -0.54471  -0.54319  -0.53317  -0.53203  -0.52634
 Alpha  occ. eigenvalues --   -0.52043  -0.51875  -0.51811  -0.51066  -0.50644
 Alpha  occ. eigenvalues --   -0.50296  -0.50118  -0.49857  -0.49787  -0.49700
 Alpha  occ. eigenvalues --   -0.49484  -0.49331  -0.49069  -0.48913  -0.48712
 Alpha  occ. eigenvalues --   -0.48623  -0.48205  -0.47824  -0.47636  -0.47565
 Alpha  occ. eigenvalues --   -0.47391  -0.47109  -0.46856  -0.46765  -0.46673
 Alpha  occ. eigenvalues --   -0.46245  -0.45617  -0.45352  -0.45205  -0.44900
 Alpha  occ. eigenvalues --   -0.44700  -0.44641  -0.44449  -0.44013  -0.43989
 Alpha  occ. eigenvalues --   -0.43941  -0.43850  -0.43715  -0.43650  -0.43418
 Alpha  occ. eigenvalues --   -0.43282  -0.43009  -0.42856  -0.42819  -0.42791
 Alpha  occ. eigenvalues --   -0.42405  -0.42300  -0.42145  -0.41889  -0.41867
 Alpha  occ. eigenvalues --   -0.41822  -0.41803  -0.41720  -0.41405  -0.41289
 Alpha  occ. eigenvalues --   -0.41093  -0.40579  -0.40444  -0.40280  -0.40172
 Alpha  occ. eigenvalues --   -0.40096  -0.39872  -0.39792  -0.39602  -0.39536
 Alpha  occ. eigenvalues --   -0.39346  -0.39320  -0.39206  -0.39109  -0.39034
 Alpha  occ. eigenvalues --   -0.38789  -0.38735  -0.38509  -0.38480  -0.38322
 Alpha  occ. eigenvalues --   -0.38120  -0.38072  -0.38043  -0.37921  -0.37347
 Alpha  occ. eigenvalues --   -0.37258  -0.37189  -0.37157  -0.36761  -0.36730
 Alpha  occ. eigenvalues --   -0.36615  -0.36425  -0.36409  -0.36228  -0.36195
 Alpha  occ. eigenvalues --   -0.36097  -0.35782  -0.35734  -0.35596  -0.35304
 Alpha  occ. eigenvalues --   -0.35184  -0.35019  -0.34917  -0.34740  -0.34647
 Alpha  occ. eigenvalues --   -0.34236  -0.33764  -0.33392  -0.33290  -0.33152
 Alpha  occ. eigenvalues --   -0.32656  -0.32590  -0.32408  -0.32309  -0.32224
 Alpha  occ. eigenvalues --   -0.31558  -0.31542  -0.30923  -0.30719  -0.30643
 Alpha  occ. eigenvalues --   -0.29874  -0.29151  -0.28961  -0.28293  -0.27693
 Alpha  occ. eigenvalues --   -0.27350  -0.27110  -0.27041  -0.27032  -0.26556
 Alpha  occ. eigenvalues --   -0.26154  -0.25934  -0.25848  -0.25794  -0.25503
 Alpha  occ. eigenvalues --   -0.25498  -0.25465  -0.25091  -0.24888  -0.24792
 Alpha  occ. eigenvalues --   -0.24323  -0.24192  -0.24107  -0.23763  -0.23427
 Alpha  occ. eigenvalues --   -0.23330  -0.23016  -0.22713  -0.22552  -0.22204
 Alpha  occ. eigenvalues --   -0.22029  -0.21851  -0.21782  -0.21615  -0.21443
 Alpha  occ. eigenvalues --   -0.21162  -0.21047  -0.20440  -0.20120  -0.19582
 Alpha  occ. eigenvalues --   -0.13134  -0.12825  -0.10602
 Alpha virt. eigenvalues --   -0.09505  -0.05517  -0.03720  -0.02836  -0.01867
 Alpha virt. eigenvalues --   -0.01542  -0.00537  -0.00534  -0.00160   0.00167
 Alpha virt. eigenvalues --    0.00643   0.01062   0.01555   0.01776   0.01959
 Alpha virt. eigenvalues --    0.02377   0.02541   0.02850   0.02874   0.03053
 Alpha virt. eigenvalues --    0.03235   0.03299   0.03443   0.03905   0.04227
 Alpha virt. eigenvalues --    0.04538   0.04937   0.05014   0.05112   0.05280
 Alpha virt. eigenvalues --    0.05357   0.05390   0.05580   0.05701   0.05721
 Alpha virt. eigenvalues --    0.06153   0.06633   0.06769   0.06987   0.07108
 Alpha virt. eigenvalues --    0.07160   0.07369   0.07556   0.07587   0.07737
 Alpha virt. eigenvalues --    0.07897   0.08338   0.08571   0.09304   0.09470
 Alpha virt. eigenvalues --    0.09514   0.09736   0.09889   0.09957   0.10208
 Alpha virt. eigenvalues --    0.10667   0.10735   0.10996   0.11177   0.11327
 Alpha virt. eigenvalues --    0.11607   0.11819   0.11853   0.11984   0.12121
 Alpha virt. eigenvalues --    0.12295   0.12412   0.12761   0.12968   0.13100
 Alpha virt. eigenvalues --    0.13158   0.13334   0.13492   0.13720   0.13970
 Alpha virt. eigenvalues --    0.14110   0.14247   0.14478   0.14626   0.14878
 Alpha virt. eigenvalues --    0.15047   0.15199   0.15478   0.15566   0.15649
 Alpha virt. eigenvalues --    0.15698   0.15956   0.16088   0.16266   0.16470
 Alpha virt. eigenvalues --    0.16607   0.16820   0.16870   0.17193   0.17337
 Alpha virt. eigenvalues --    0.17432   0.17582   0.17843   0.17973   0.18116
 Alpha virt. eigenvalues --    0.18226   0.18729   0.18804   0.18895   0.19081
 Alpha virt. eigenvalues --    0.19432   0.19475   0.19930   0.20131   0.20367
 Alpha virt. eigenvalues --    0.20557   0.20772   0.20912   0.21023   0.21334
 Alpha virt. eigenvalues --    0.21521   0.22017   0.22108   0.22196   0.22669
 Alpha virt. eigenvalues --    0.22721   0.22943   0.23066   0.23212   0.23499
 Alpha virt. eigenvalues --    0.23801   0.23954   0.24097   0.24296   0.24498
 Alpha virt. eigenvalues --    0.24654   0.24727   0.25018   0.25205   0.25382
 Alpha virt. eigenvalues --    0.25655   0.25857   0.26007   0.26196   0.26451
 Alpha virt. eigenvalues --    0.26743   0.26994   0.27173   0.27341   0.27439
 Alpha virt. eigenvalues --    0.27782   0.27911   0.28317   0.28506   0.28987
 Alpha virt. eigenvalues --    0.29262   0.29382   0.29569   0.29941   0.29984
 Alpha virt. eigenvalues --    0.30471   0.30525   0.30669   0.30753   0.30917
 Alpha virt. eigenvalues --    0.31121   0.31380   0.31759   0.31982   0.32184
 Alpha virt. eigenvalues --    0.32332   0.32823   0.33148   0.33243   0.33350
 Alpha virt. eigenvalues --    0.33824   0.34293   0.34392   0.35137   0.35347
 Alpha virt. eigenvalues --    0.35728   0.35891   0.36017   0.36383   0.36670
 Alpha virt. eigenvalues --    0.36991   0.37087   0.37376   0.37714   0.38063
 Alpha virt. eigenvalues --    0.38179   0.38347   0.38662   0.38743   0.39044
 Alpha virt. eigenvalues --    0.39232   0.39698   0.39862   0.39977   0.40130
 Alpha virt. eigenvalues --    0.40295   0.40714   0.40920   0.41049   0.41602
 Alpha virt. eigenvalues --    0.41753   0.41953   0.42074   0.42485   0.42765
 Alpha virt. eigenvalues --    0.42865   0.43145   0.43170   0.43848   0.43914
 Alpha virt. eigenvalues --    0.44009   0.44057   0.44390   0.44676   0.44915
 Alpha virt. eigenvalues --    0.45086   0.45439   0.45620   0.45900   0.46072
 Alpha virt. eigenvalues --    0.46244   0.46480   0.46551   0.46754   0.47063
 Alpha virt. eigenvalues --    0.47307   0.47524   0.47546   0.47679   0.47729
 Alpha virt. eigenvalues --    0.48174   0.48421   0.48689   0.48997   0.49156
 Alpha virt. eigenvalues --    0.49411   0.49531   0.49867   0.50227   0.50307
 Alpha virt. eigenvalues --    0.50513   0.50658   0.51019   0.51216   0.51289
 Alpha virt. eigenvalues --    0.51446   0.51612   0.51635   0.51701   0.51967
 Alpha virt. eigenvalues --    0.52265   0.52698   0.52757   0.53033   0.53343
 Alpha virt. eigenvalues --    0.53689   0.53765   0.53931   0.54049   0.54201
 Alpha virt. eigenvalues --    0.54349   0.54587   0.54712   0.54875   0.54956
 Alpha virt. eigenvalues --    0.55288   0.55338   0.55615   0.56076   0.56133
 Alpha virt. eigenvalues --    0.56187   0.56256   0.56511   0.56800   0.56887
 Alpha virt. eigenvalues --    0.57018   0.57287   0.57358   0.57512   0.58045
 Alpha virt. eigenvalues --    0.58205   0.58424   0.58477   0.58662   0.58751
 Alpha virt. eigenvalues --    0.59002   0.59171   0.59278   0.59462   0.59597
 Alpha virt. eigenvalues --    0.59894   0.59960   0.60196   0.60259   0.60356
 Alpha virt. eigenvalues --    0.60409   0.60556   0.60608   0.60784   0.61108
 Alpha virt. eigenvalues --    0.61209   0.61386   0.61471   0.61577   0.61779
 Alpha virt. eigenvalues --    0.62001   0.62084   0.62153   0.62339   0.62602
 Alpha virt. eigenvalues --    0.62632   0.62711   0.62785   0.62845   0.63120
 Alpha virt. eigenvalues --    0.63331   0.63409   0.63555   0.63675   0.63892
 Alpha virt. eigenvalues --    0.63918   0.64039   0.64261   0.64352   0.64500
 Alpha virt. eigenvalues --    0.64652   0.64778   0.64858   0.64940   0.65035
 Alpha virt. eigenvalues --    0.65138   0.65202   0.65491   0.65515   0.65670
 Alpha virt. eigenvalues --    0.65693   0.65744   0.65904   0.66001   0.66105
 Alpha virt. eigenvalues --    0.66215   0.66383   0.66507   0.66617   0.66705
 Alpha virt. eigenvalues --    0.66747   0.66883   0.66930   0.67043   0.67149
 Alpha virt. eigenvalues --    0.67210   0.67379   0.67470   0.67598   0.67661
 Alpha virt. eigenvalues --    0.67790   0.67884   0.68047   0.68116   0.68207
 Alpha virt. eigenvalues --    0.68454   0.68552   0.68643   0.68693   0.68813
 Alpha virt. eigenvalues --    0.68986   0.69079   0.69253   0.69420   0.69509
 Alpha virt. eigenvalues --    0.69589   0.69687   0.69892   0.70032   0.70082
 Alpha virt. eigenvalues --    0.70178   0.70255   0.70392   0.70620   0.70861
 Alpha virt. eigenvalues --    0.70875   0.71112   0.71255   0.71351   0.71390
 Alpha virt. eigenvalues --    0.71623   0.71654   0.71839   0.71933   0.72094
 Alpha virt. eigenvalues --    0.72212   0.72556   0.72695   0.73160   0.73231
 Alpha virt. eigenvalues --    0.73444   0.73580   0.73681   0.73815   0.73838
 Alpha virt. eigenvalues --    0.73964   0.74276   0.74315   0.74433   0.74990
 Alpha virt. eigenvalues --    0.75061   0.75277   0.75350   0.75553   0.75777
 Alpha virt. eigenvalues --    0.75881   0.76013   0.76161   0.76519   0.76682
 Alpha virt. eigenvalues --    0.76822   0.77160   0.77501   0.77781   0.77889
 Alpha virt. eigenvalues --    0.78017   0.78376   0.78507   0.78728   0.78773
 Alpha virt. eigenvalues --    0.78934   0.79118   0.79307   0.79650   0.79804
 Alpha virt. eigenvalues --    0.80021   0.80435   0.80733   0.80866   0.81035
 Alpha virt. eigenvalues --    0.81327   0.81791   0.81931   0.82114   0.82237
 Alpha virt. eigenvalues --    0.82633   0.82820   0.83060   0.83335   0.83642
 Alpha virt. eigenvalues --    0.83805   0.83903   0.84099   0.84371   0.84751
 Alpha virt. eigenvalues --    0.85171   0.85477   0.85589   0.85969   0.86103
 Alpha virt. eigenvalues --    0.86293   0.86866   0.87122   0.87225   0.87394
 Alpha virt. eigenvalues --    0.87883   0.88087   0.88196   0.88602   0.88947
 Alpha virt. eigenvalues --    0.89304   0.89500   0.90120   0.90447   0.90747
 Alpha virt. eigenvalues --    0.90829   0.91243   0.91284   0.91749   0.92001
 Alpha virt. eigenvalues --    0.92058   0.92402   0.92763   0.92947   0.93126
 Alpha virt. eigenvalues --    0.93259   0.93711   0.93993   0.94405   0.94602
 Alpha virt. eigenvalues --    0.95016   0.95145   0.95404   0.95672   0.95776
 Alpha virt. eigenvalues --    0.96255   0.96411   0.96508   0.96677   0.97297
 Alpha virt. eigenvalues --    0.97564   0.98012   0.98199   0.98395   0.98612
 Alpha virt. eigenvalues --    0.98687   0.98894   0.99084   0.99184   0.99910
 Alpha virt. eigenvalues --    1.00153   1.00410   1.00656   1.00820   1.01157
 Alpha virt. eigenvalues --    1.01511   1.01647   1.01832   1.02360   1.02527
 Alpha virt. eigenvalues --    1.02877   1.03608   1.03896   1.04273   1.04311
 Alpha virt. eigenvalues --    1.04641   1.04879   1.05319   1.05471   1.05719
 Alpha virt. eigenvalues --    1.05970   1.06290   1.06602   1.06940   1.07085
 Alpha virt. eigenvalues --    1.07470   1.07517   1.07838   1.08153   1.08372
 Alpha virt. eigenvalues --    1.08663   1.08784   1.09064   1.09565   1.09769
 Alpha virt. eigenvalues --    1.10005   1.10181   1.10315   1.10591   1.10908
 Alpha virt. eigenvalues --    1.11126   1.11259   1.11600   1.11847   1.12429
 Alpha virt. eigenvalues --    1.12695   1.13132   1.13370   1.13841   1.13979
 Alpha virt. eigenvalues --    1.14265   1.14521   1.14711   1.14949   1.15181
 Alpha virt. eigenvalues --    1.15324   1.15495   1.15731   1.15947   1.16312
 Alpha virt. eigenvalues --    1.16387   1.16822   1.17008   1.17568   1.17658
 Alpha virt. eigenvalues --    1.17875   1.18048   1.18091   1.18678   1.18840
 Alpha virt. eigenvalues --    1.19157   1.19288   1.19821   1.20204   1.20428
 Alpha virt. eigenvalues --    1.20725   1.21057   1.21255   1.21586   1.21871
 Alpha virt. eigenvalues --    1.22255   1.22697   1.22995   1.23267   1.23584
 Alpha virt. eigenvalues --    1.23870   1.23957   1.24523   1.24548   1.24636
 Alpha virt. eigenvalues --    1.25061   1.25245   1.25685   1.25772   1.25886
 Alpha virt. eigenvalues --    1.26221   1.26763   1.26865   1.27226   1.27631
 Alpha virt. eigenvalues --    1.27723   1.27922   1.28292   1.28418   1.28619
 Alpha virt. eigenvalues --    1.28827   1.28948   1.29363   1.29401   1.29829
 Alpha virt. eigenvalues --    1.30559   1.30649   1.30801   1.30947   1.31389
 Alpha virt. eigenvalues --    1.31587   1.32003   1.32280   1.32430   1.32516
 Alpha virt. eigenvalues --    1.32629   1.32791   1.33243   1.33531   1.33714
 Alpha virt. eigenvalues --    1.33959   1.34157   1.34431   1.34706   1.34927
 Alpha virt. eigenvalues --    1.35027   1.35405   1.35541   1.35864   1.36225
 Alpha virt. eigenvalues --    1.36871   1.37018   1.37628   1.37786   1.38520
 Alpha virt. eigenvalues --    1.39015   1.39064   1.39388   1.39458   1.39720
 Alpha virt. eigenvalues --    1.40080   1.40115   1.40724   1.40954   1.41086
 Alpha virt. eigenvalues --    1.41360   1.41577   1.42111   1.42161   1.42464
 Alpha virt. eigenvalues --    1.43114   1.43337   1.43420   1.43692   1.44007
 Alpha virt. eigenvalues --    1.44142   1.44339   1.44655   1.44913   1.45099
 Alpha virt. eigenvalues --    1.45842   1.46298   1.46584   1.46814   1.46969
 Alpha virt. eigenvalues --    1.47026   1.47507   1.48096   1.48507   1.48747
 Alpha virt. eigenvalues --    1.48935   1.49429   1.49635   1.49778   1.49975
 Alpha virt. eigenvalues --    1.50075   1.50640   1.50892   1.50928   1.51276
 Alpha virt. eigenvalues --    1.51557   1.51912   1.52012   1.52485   1.52819
 Alpha virt. eigenvalues --    1.53270   1.53605   1.53683   1.53829   1.54149
 Alpha virt. eigenvalues --    1.54454   1.54685   1.55059   1.55228   1.56464
 Alpha virt. eigenvalues --    1.57086   1.57164   1.57240   1.57903   1.58379
 Alpha virt. eigenvalues --    1.58708   1.59067   1.59152   1.59447   1.59717
 Alpha virt. eigenvalues --    1.60270   1.60384   1.60411   1.60979   1.61378
 Alpha virt. eigenvalues --    1.61839   1.61918   1.62620   1.62828   1.62910
 Alpha virt. eigenvalues --    1.63264   1.63619   1.63792   1.63962   1.64131
 Alpha virt. eigenvalues --    1.64520   1.64934   1.65047   1.65421   1.65649
 Alpha virt. eigenvalues --    1.66008   1.66359   1.66859   1.67035   1.67164
 Alpha virt. eigenvalues --    1.67308   1.67654   1.67949   1.68101   1.68567
 Alpha virt. eigenvalues --    1.68645   1.69018   1.69079   1.69478   1.69554
 Alpha virt. eigenvalues --    1.70219   1.70603   1.70737   1.70917   1.71075
 Alpha virt. eigenvalues --    1.71599   1.71666   1.72194   1.72360   1.72746
 Alpha virt. eigenvalues --    1.72963   1.73094   1.73404   1.73712   1.73872
 Alpha virt. eigenvalues --    1.74066   1.74148   1.74392   1.74543   1.74993
 Alpha virt. eigenvalues --    1.75044   1.75322   1.75461   1.75720   1.75969
 Alpha virt. eigenvalues --    1.76306   1.76538   1.76616   1.76737   1.76941
 Alpha virt. eigenvalues --    1.77050   1.77227   1.77630   1.77748   1.77877
 Alpha virt. eigenvalues --    1.78230   1.78326   1.78374   1.78586   1.78693
 Alpha virt. eigenvalues --    1.78960   1.79003   1.79266   1.79330   1.79490
 Alpha virt. eigenvalues --    1.79545   1.79881   1.80083   1.80266   1.80451
 Alpha virt. eigenvalues --    1.80499   1.80549   1.80852   1.81148   1.81240
 Alpha virt. eigenvalues --    1.81328   1.81494   1.81678   1.81779   1.81836
 Alpha virt. eigenvalues --    1.82133   1.82299   1.82523   1.82838   1.83046
 Alpha virt. eigenvalues --    1.83126   1.83303   1.83719   1.83860   1.83974
 Alpha virt. eigenvalues --    1.84300   1.84383   1.84643   1.84784   1.84971
 Alpha virt. eigenvalues --    1.85209   1.85430   1.85754   1.85828   1.86000
 Alpha virt. eigenvalues --    1.86478   1.86563   1.86668   1.86776   1.87188
 Alpha virt. eigenvalues --    1.87264   1.87581   1.87807   1.87905   1.88106
 Alpha virt. eigenvalues --    1.88363   1.88790   1.88945   1.89203   1.89490
 Alpha virt. eigenvalues --    1.89640   1.89648   1.89757   1.89930   1.90133
 Alpha virt. eigenvalues --    1.90267   1.90342   1.90653   1.90777   1.90981
 Alpha virt. eigenvalues --    1.91119   1.91294   1.91492   1.91534   1.91854
 Alpha virt. eigenvalues --    1.92029   1.92050   1.92493   1.92758   1.92874
 Alpha virt. eigenvalues --    1.93109   1.93397   1.93415   1.93823   1.93946
 Alpha virt. eigenvalues --    1.94202   1.94302   1.94605   1.94744   1.94946
 Alpha virt. eigenvalues --    1.95250   1.95433   1.95796   1.96046   1.96189
 Alpha virt. eigenvalues --    1.96377   1.96532   1.96664   1.96872   1.96942
 Alpha virt. eigenvalues --    1.97279   1.97666   1.97938   1.98332   1.98605
 Alpha virt. eigenvalues --    1.98823   1.98943   1.99147   1.99282   1.99644
 Alpha virt. eigenvalues --    1.99848   2.00001   2.00179   2.00600   2.00666
 Alpha virt. eigenvalues --    2.00939   2.01206   2.01448   2.01875   2.02097
 Alpha virt. eigenvalues --    2.02264   2.02696   2.02978   2.03076   2.03261
 Alpha virt. eigenvalues --    2.03421   2.03510   2.04384   2.04477   2.04769
 Alpha virt. eigenvalues --    2.04899   2.05143   2.05494   2.05578   2.05854
 Alpha virt. eigenvalues --    2.06025   2.06115   2.06816   2.06863   2.07136
 Alpha virt. eigenvalues --    2.07281   2.07375   2.07911   2.08409   2.08560
 Alpha virt. eigenvalues --    2.08597   2.08778   2.08842   2.09170   2.09465
 Alpha virt. eigenvalues --    2.09817   2.10074   2.10421   2.10784   2.10870
 Alpha virt. eigenvalues --    2.11135   2.11378   2.11672   2.11837   2.11935
 Alpha virt. eigenvalues --    2.12027   2.12185   2.12677   2.12933   2.13281
 Alpha virt. eigenvalues --    2.13373   2.13767   2.13850   2.14060   2.14213
 Alpha virt. eigenvalues --    2.14786   2.14866   2.14956   2.15350   2.15784
 Alpha virt. eigenvalues --    2.15882   2.16035   2.16499   2.16793   2.16879
 Alpha virt. eigenvalues --    2.17564   2.17697   2.17912   2.18337   2.18480
 Alpha virt. eigenvalues --    2.18924   2.19430   2.19660   2.20191   2.20282
 Alpha virt. eigenvalues --    2.20545   2.20839   2.21027   2.21242   2.21672
 Alpha virt. eigenvalues --    2.21806   2.21888   2.22251   2.22907   2.23193
 Alpha virt. eigenvalues --    2.23374   2.23732   2.23966   2.24347   2.25297
 Alpha virt. eigenvalues --    2.25689   2.25987   2.26215   2.26296   2.26419
 Alpha virt. eigenvalues --    2.26980   2.27114   2.28107   2.28278   2.28725
 Alpha virt. eigenvalues --    2.29004   2.29242   2.29553   2.29613   2.30641
 Alpha virt. eigenvalues --    2.30957   2.31100   2.31132   2.31377   2.31579
 Alpha virt. eigenvalues --    2.31935   2.32543   2.32857   2.32926   2.33233
 Alpha virt. eigenvalues --    2.33926   2.34148   2.34405   2.34575   2.34930
 Alpha virt. eigenvalues --    2.35504   2.35581   2.35847   2.36369   2.36667
 Alpha virt. eigenvalues --    2.36854   2.37838   2.37884   2.38157   2.38390
 Alpha virt. eigenvalues --    2.38577   2.38959   2.39254   2.39678   2.39995
 Alpha virt. eigenvalues --    2.40129   2.40480   2.40691   2.40960   2.41143
 Alpha virt. eigenvalues --    2.41415   2.41761   2.42225   2.42557   2.42784
 Alpha virt. eigenvalues --    2.42977   2.43279   2.44090   2.44760   2.44852
 Alpha virt. eigenvalues --    2.45150   2.45399   2.45759   2.45904   2.46123
 Alpha virt. eigenvalues --    2.46216   2.46839   2.47364   2.47707   2.47973
 Alpha virt. eigenvalues --    2.48424   2.48762   2.49180   2.49337   2.49750
 Alpha virt. eigenvalues --    2.49971   2.50774   2.51170   2.51372   2.51656
 Alpha virt. eigenvalues --    2.52454   2.52588   2.52780   2.53481   2.54370
 Alpha virt. eigenvalues --    2.54856   2.55024   2.55566   2.56065   2.56127
 Alpha virt. eigenvalues --    2.56316   2.56584   2.57755   2.57776   2.58109
 Alpha virt. eigenvalues --    2.58809   2.58943   2.59146   2.59300   2.59391
 Alpha virt. eigenvalues --    2.59615   2.60134   2.60321   2.60414   2.60730
 Alpha virt. eigenvalues --    2.61121   2.61517   2.61885   2.62047   2.62098
 Alpha virt. eigenvalues --    2.62224   2.62522   2.62830   2.62906   2.63097
 Alpha virt. eigenvalues --    2.63323   2.63704   2.64065   2.64418   2.64853
 Alpha virt. eigenvalues --    2.65064   2.65321   2.65516   2.65986   2.66113
 Alpha virt. eigenvalues --    2.66280   2.66943   2.67229   2.67506   2.67762
 Alpha virt. eigenvalues --    2.67997   2.68271   2.68724   2.68962   2.69078
 Alpha virt. eigenvalues --    2.69228   2.69378   2.69803   2.70567   2.70761
 Alpha virt. eigenvalues --    2.70825   2.71457   2.71640   2.71775   2.71948
 Alpha virt. eigenvalues --    2.72200   2.72657   2.72843   2.73212   2.73435
 Alpha virt. eigenvalues --    2.73777   2.74178   2.74263   2.74328   2.74780
 Alpha virt. eigenvalues --    2.75091   2.75656   2.75809   2.76114   2.76270
 Alpha virt. eigenvalues --    2.76632   2.76990   2.77818   2.77926   2.78140
 Alpha virt. eigenvalues --    2.78340   2.78648   2.78882   2.78968   2.79173
 Alpha virt. eigenvalues --    2.79444   2.79747   2.79844   2.80207   2.80507
 Alpha virt. eigenvalues --    2.80768   2.81037   2.81290   2.81354   2.81469
 Alpha virt. eigenvalues --    2.81791   2.81947   2.82230   2.82779   2.82891
 Alpha virt. eigenvalues --    2.83130   2.83325   2.83498   2.84114   2.84214
 Alpha virt. eigenvalues --    2.84769   2.85166   2.85353   2.85460   2.86089
 Alpha virt. eigenvalues --    2.86269   2.86988   2.87104   2.87386   2.87516
 Alpha virt. eigenvalues --    2.87768   2.88050   2.88794   2.89118   2.89753
 Alpha virt. eigenvalues --    2.89900   2.90146   2.90620   2.90932   2.91162
 Alpha virt. eigenvalues --    2.91355   2.91484   2.91815   2.91960   2.92207
 Alpha virt. eigenvalues --    2.92437   2.92590   2.92692   2.92977   2.93044
 Alpha virt. eigenvalues --    2.93070   2.93098   2.93412   2.94225   2.94805
 Alpha virt. eigenvalues --    2.95256   2.95340   2.96390   2.96453   2.97004
 Alpha virt. eigenvalues --    2.97066   2.97245   2.97730   2.98013   2.98199
 Alpha virt. eigenvalues --    2.98378   2.98726   2.99130   2.99343   2.99830
 Alpha virt. eigenvalues --    3.00001   3.00255   3.00651   3.01180   3.01555
 Alpha virt. eigenvalues --    3.01795   3.02103   3.02775   3.03006   3.03480
 Alpha virt. eigenvalues --    3.03557   3.03767   3.04111   3.04456   3.05308
 Alpha virt. eigenvalues --    3.05506   3.05649   3.06988   3.07124   3.07329
 Alpha virt. eigenvalues --    3.07700   3.08250   3.08804   3.08953   3.09249
 Alpha virt. eigenvalues --    3.10144   3.11422   3.11520   3.11686   3.11779
 Alpha virt. eigenvalues --    3.11970   3.12429   3.12785   3.13598   3.13898
 Alpha virt. eigenvalues --    3.14059   3.14669   3.15256   3.15657   3.15886
 Alpha virt. eigenvalues --    3.16215   3.16623   3.17291   3.18154   3.18234
 Alpha virt. eigenvalues --    3.18483   3.18583   3.18694   3.19094   3.19457
 Alpha virt. eigenvalues --    3.19688   3.19840   3.19945   3.20577   3.20806
 Alpha virt. eigenvalues --    3.21528   3.21658   3.21753   3.21847   3.22059
 Alpha virt. eigenvalues --    3.22468   3.22659   3.23157   3.23675   3.23998
 Alpha virt. eigenvalues --    3.24554   3.24951   3.25376   3.25425   3.25580
 Alpha virt. eigenvalues --    3.26385   3.27118   3.27811   3.29626   3.30205
 Alpha virt. eigenvalues --    3.30434   3.31536   3.32478   3.33621   3.34561
 Alpha virt. eigenvalues --    3.35299   3.36241   3.37812   3.38916   3.39218
 Alpha virt. eigenvalues --    3.41833   3.43347   3.44416   3.46503   3.50144
 Alpha virt. eigenvalues --    3.53943   3.54064   3.54986   3.55342   3.55764
 Alpha virt. eigenvalues --    3.55799   3.56399   3.56850   3.57499   3.57670
 Alpha virt. eigenvalues --    3.59440   3.60957   3.61412   3.61740   3.62663
 Alpha virt. eigenvalues --    3.64797   3.65338   3.65845   3.66307   3.67024
 Alpha virt. eigenvalues --    3.67769   3.68362   3.68468   3.69554   3.70207
 Alpha virt. eigenvalues --    3.70357   3.70439   3.71120   3.71415   3.71945
 Alpha virt. eigenvalues --    3.73109   3.74603   3.74814   3.74852   3.75219
 Alpha virt. eigenvalues --    3.75968   3.76135   3.80092   3.82546
          Condensed to atoms (all electrons):
 Mulliken charges:
               1
     1  C    0.071721
     2  C   -0.020497
     3  O   -0.309761
     4  H    0.013235
     5  H    0.041777
     6  H   -0.007154
     7  N   -0.141556
     8  C    0.138158
     9  C    0.088925
    10  O   -0.290130
    11  C    0.052679
    12  C    0.048898
    13  O   -0.396609
    14  O   -0.318735
    15  H    0.110002
    16  H    0.009888
    17  H   -0.017566
    18  H    0.007382
    19  N   -0.095728
    20  C    0.146573
    21  C    0.081499
    22  O   -0.233808
    23  C    0.008616
    24  C    0.006494
    25  C   -0.015942
    26  C    0.044420
    27  N    0.112316
    28  H    0.113504
    29  H   -0.032202
    30  H    0.047093
    31  H   -0.013988
    32  H   -0.032259
    33  H    0.029549
    34  H    0.057176
    35  H    0.008016
    36  H    0.057238
    37  H    0.059703
    38  H    0.175620
    39  H    0.129698
    40  H    0.135971
    41  N   -0.179777
    42  C    0.151457
    43  C    0.062555
    44  O   -0.290328
    45  C    0.115010
    46  C    0.086986
    47  O   -0.432274
    48  O   -0.458761
    49  H    0.116029
    50  H    0.049632
    51  H    0.013053
    52  H    0.037155
    53  N   -0.120569
    54  C    0.115020
    55  C    0.024166
    56  O   -0.252380
    57  H    0.140927
    58  H    0.062527
    59  H    0.031560
    60  N   -0.113701
    61  C    0.008529
    62  C    0.063146
    63  O   -0.275445
    64  C    0.140752
    65  C    0.013379
    66  N    0.005695
    67  O   -0.283633
    68  H    0.120264
    69  H    0.044841
    70  H   -0.009623
    71  H    0.026624
    72  H    0.100365
    73  H    0.116767
    74  N   -0.111441
    75  C    0.172605
    76  C    0.029661
    77  O   -0.254023
    78  H    0.122240
    79  H    0.030509
    80  H    0.065696
    81  N   -0.089898
    82  C    0.056337
    83  C    0.086446
    84  O   -0.254869
    85  C    0.154065
    86  C    0.011346
    87  C   -0.017272
    88  C   -0.017771
    89  C   -0.008173
    90  C   -0.036359
    91  C    0.185565
    92  O   -0.222692
    93  H    0.102039
    94  H    0.014533
    95  H   -0.024660
    96  H   -0.012759
    97  H   -0.026301
    98  H   -0.037512
    99  H   -0.008965
   100  H   -0.035623
   101  H    0.176711
   102  N   -0.138673
   103  C    0.162258
   104  C    0.066322
   105  O   -0.267929
   106  C   -0.133817
   107  C    0.016056
   108  C    0.021312
   109  C    0.016319
   110  H    0.109677
   111  H    0.038757
   112  H    0.014650
   113  H    0.025440
   114  H   -0.000617
   115  H   -0.017703
   116  H    0.010308
   117  H    0.024184
   118  H   -0.003635
   119  H    0.010976
   120  H    0.033099
   121  N   -0.103512
   122  C    0.090928
   123  C    0.046433
   124  O   -0.300382
   125  C    0.251217
   126  O   -0.283290
   127  H    0.094037
   128  H    0.005911
   129  H   -0.002145
   130  H   -0.003971
   131  H    0.163840
   132  N   -0.099357
   133  C    0.070589
   134  C    0.081329
   135  O   -0.257263
   136  C    0.071358
   137  H    0.133984
   138  H   -0.002663
   139  H    0.010070
   140  H    0.021286
   141  H    0.048210
   142  N   -0.143395
   143  C    0.051939
   144  C    0.083185
   145  O   -0.276987
   146  C    0.090757
   147  H    0.106879
   148  H    0.006273
   149  H    0.034674
   150  H    0.021819
   151  H   -0.015653
   152  N   -0.126418
   153  C    0.138966
   154  C    0.057514
   155  O   -0.273285
   156  C    0.071604
   157  C    0.013215
   158  C    0.134863
   159  O   -0.427577
   160  O   -0.457773
   161  H    0.085092
   162  H    0.006079
   163  H    0.011892
   164  H   -0.020870
   165  H    0.031231
   166  H    0.026042
   167  N   -0.167361
   168  C    0.128450
   169  H    0.011339
   170  H    0.047151
   171  H    0.020623
   172  H    0.109089
   173  Ca   1.355738
   174  O   -0.297831
   175  H    0.204622
   176  H    0.184923
 Sum of Mulliken charges =  -0.00000
 Mulliken charges with hydrogens summed into heavy atoms:
               1
     1  C    0.119579
     2  C   -0.020497
     3  O   -0.309761
     7  N   -0.031554
     8  C    0.148046
     9  C    0.088925
    10  O   -0.290130
    11  C    0.042496
    12  C    0.048898
    13  O   -0.396609
    14  O   -0.318735
    19  N    0.017776
    20  C    0.114370
    21  C    0.081499
    22  O   -0.233808
    23  C    0.041722
    24  C    0.003784
    25  C    0.049250
    26  C    0.161361
    27  N    0.553605
    41  N   -0.063748
    42  C    0.201089
    43  C    0.062555
    44  O   -0.290328
    45  C    0.165218
    46  C    0.086986
    47  O   -0.432274
    48  O   -0.458761
    53  N    0.020358
    54  C    0.209107
    55  C    0.024166
    56  O   -0.252380
    60  N    0.006562
    61  C    0.053371
    62  C    0.063146
    63  O   -0.275445
    64  C    0.157754
    65  C    0.013379
    66  N    0.222828
    67  O   -0.283633
    74  N    0.010799
    75  C    0.268810
    76  C    0.029661
    77  O   -0.254023
    81  N    0.012141
    82  C    0.070870
    83  C    0.086446
    84  O   -0.254869
    85  C    0.116646
    86  C    0.011346
    87  C   -0.043573
    88  C   -0.055283
    89  C   -0.017138
    90  C   -0.071982
    91  C    0.185565
    92  O   -0.045980
   102  N   -0.028995
   103  C    0.201014
   104  C    0.066322
   105  O   -0.267929
   106  C   -0.119167
   107  C    0.040878
   108  C    0.038101
   109  C    0.056758
   121  N   -0.009474
   122  C    0.096840
   123  C    0.046433
   124  O   -0.300382
   125  C    0.245100
   126  O   -0.119450
   132  N    0.034627
   133  C    0.067926
   134  C    0.081329
   135  O   -0.257263
   136  C    0.150925
   142  N   -0.036516
   143  C    0.058212
   144  C    0.083185
   145  O   -0.276987
   146  C    0.131596
   152  N   -0.041326
   153  C    0.145045
   154  C    0.057514
   155  O   -0.273285
   156  C    0.062626
   157  C    0.070488
   158  C    0.134863
   159  O   -0.427577
   160  O   -0.457773
   167  N   -0.058272
   168  C    0.207563
   173  Ca   1.355738
   174  O    0.091714
 DipInt: DoE/N= T F RetVal/Mat= T F Init=T NMatP=  1 IDeriv=0 Min/MaxMlt=  0  4
 Entering OneElI...
 OneElI was handed  1333951383 working-precision words.
 Multipole integrals L=0 to 4 MinM= 0 MaxM= 0.
 Requested accuracy = 0.1000D-12
 ShPair: Thresh= 1.00D-13 NBox=     0 BxSize= 0.00D+00 RnKept= 2.98D+01
         NSMCal=               327645 NSMKep=              138541
 PrmmSu-InSpLW:  IPartL=    0 NPrtUS=    1 NPrtUL=    1 DoSpLW=F IThBeg=    0 IThEnd=    0 NThAct=    1.
 PrsmSu:  NPrtUS=   1 ThrOK=F IAlg=1 NPAlg=1 LenDen=           0 ISkipM=0 DoSpLW=F IThBeg=    0 IThEnd=    0.
 Prism:   IPart=     0 DynPar=F LinDyn=F Incr=         512.
 PRISM was handed  1324754959 working-precision words and138541 shell-pairs
 IPart=  0 NShTot=      138541 NBatch=         320 AvBLen=       432.9
 PrsmSu-ThDecC:  IPartSL=    0    0 NPrtUSL=    1    1 IThBeg=    0 IThEnd=    0 CPU=   -1 GPU=   -1 NThAct=    1.
 PrSmSu:  NxtVal=            513.
 Electronic moments (au):
       -716.00000000         -9.92504065         -6.91356508         10.00011698
     -64818.72467133     -33263.28382421     -19317.39218720        -46.22082351
         49.73634692        -48.87284734     163952.46879894     -57961.66712241
      -4876.86375939     -41555.50008147      88522.80944558     -99062.96786838
     -63807.55454749       1168.40440590     -52197.81858667       8046.96304839
  -12374423.50704628   -3476950.74178651   -1312489.13131503      12720.28780520
    -331536.39581035     -72295.29615569    -397593.05921385     -91066.20911943
     151371.56791682   -1903679.15244590   -1227593.97648526   -1116175.97898148
     341422.84185795    -347674.25571447     -74240.12149639
 Electronic spatial extent (au):  <R**2>=         117399.4007
 DipInt: DoE/N= F T RetVal/Mat= T F Init=T NMatP=  1 IDeriv=0 Min/MaxMlt=  0  4
 Nuclear    moments (au):
        716.00000000          0.00000000         -0.00000000         -0.00000000
[...]
 **** Fit       0.011044
 **** Fit      -0.000395
 **** Fit       0.003081
 **** Fit       0.006148
 **** Fit       0.008533
 **** Fit       0.010133
 **** Fit       0.005974
 **** Fit       0.001590
 **** Fit       0.004186
 **** Fit       0.018921
 **** Fit       0.018927
 **** Fit       0.018637
 **** Fit       0.018547
 **** Fit       0.018746
 **** Fit       0.018804
 **** Fit       0.018464
 **** Fit       0.018230
 **** Fit       0.018173
 **** Fit       0.018329
 **** Fit       0.018707
 **** Fit       0.019297
 **** Fit       0.018639
 **** Fit       0.018252
 **** Fit       0.017940
 **** Fit       0.017772
 **** Fit       0.017776
 **** Fit       0.017963
 **** Fit       0.018346
 **** Fit       0.018939
 **** Fit       0.019009
 **** Fit       0.018349
 **** Fit       0.017917
 **** Fit       0.017552
 **** Fit       0.017325
 **** Fit       0.017258
 **** Fit       0.017351
 **** Fit       0.017612
 **** Fit       0.018068
 **** Fit       0.018752
 **** Fit       0.019677
 **** Fit       0.018745
 **** Fit       0.017838
 **** Fit       0.017394
 **** Fit       0.017008
 **** Fit       0.016753
 **** Fit       0.016650
 **** Fit       0.016689
 **** Fit       0.016860
 **** Fit       0.017179
 **** Fit       0.017695
 **** Fit       0.018469
 **** Fit       0.019539
 **** Fit       0.018232
 **** Fit       0.017004
 **** Fit       0.016570
 **** Fit       0.016193
 **** Fit       0.015955
 **** Fit       0.015876
 **** Fit       0.015930
 **** Fit       0.016093
 **** Fit       0.016375
 **** Fit       0.016836
 **** Fit       0.017578
 **** Fit       0.018703
 **** Fit       0.020260
 **** Fit       0.017360
 **** Fit       0.015749
 **** Fit       0.015398
 **** Fit       0.015086
 **** Fit       0.014907
 **** Fit       0.014879
 **** Fit       0.014970
 **** Fit       0.015136
 **** Fit       0.015372
 **** Fit       0.015737
 **** Fit       0.016364
 **** Fit       0.017425
 **** Fit       0.019068
 **** Fit       0.015985
 **** Fit       0.014008
 **** Fit       0.013815
 **** Fit       0.013623
 **** Fit       0.013544
 **** Fit       0.013602
 **** Fit       0.013758
 **** Fit       0.013950
 **** Fit       0.014155
 **** Fit       0.014438
 **** Fit       0.014976
 **** Fit       0.016031
 **** Fit       0.017870
 **** Fit       0.014025
 **** Fit       0.011775
 **** Fit       0.011815
 **** Fit       0.011789
 **** Fit       0.011843
 **** Fit       0.012017
 **** Fit       0.012256
 **** Fit       0.012471
 **** Fit       0.012636
 **** Fit       0.012879
 **** Fit       0.013525
 **** Fit       0.015040
 **** Fit       0.017882
 **** Fit       0.011446
 **** Fit       0.009131
 **** Fit       0.009469
 **** Fit       0.009624
 **** Fit       0.009803
 **** Fit       0.010079
 **** Fit       0.010373
 **** Fit       0.010558
 **** Fit       0.010646
 **** Fit       0.010963
 **** Fit       0.012180
 **** Fit       0.006885
 **** Fit       0.007179
 **** Fit       0.007418
 **** Fit       0.007734
 **** Fit       0.008027
 **** Fit       0.008148
 **** Fit       0.008247
 **** Fit       0.004234
 **** Fit       0.004574
 **** Fit       0.005136
 **** Fit       0.028740
 **** Fit       0.032155
 **** Fit       0.035408
 **** Fit       0.037967
 **** Fit       0.022070
 **** Fit       0.025749
 **** Fit       0.030096
 **** Fit       0.034495
 **** Fit       0.038356
 **** Fit       0.041218
 **** Fit       0.042753
 **** Fit       0.014944
 **** Fit       0.018931
 **** Fit       0.024399
 **** Fit       0.030525
 **** Fit       0.036432
 **** Fit       0.041454
 **** Fit       0.045142
 **** Fit       0.047178
 **** Fit       0.047339
 **** Fit       0.023110
 **** Fit       0.031524
 **** Fit       0.039211
 **** Fit       0.045568
 **** Fit       0.050259
 **** Fit       0.037036
 **** Fit       0.046195
 **** Fit       0.042004
 **** Fit       0.003840
 **** Fit       0.021514
 **** Fit       0.021919
 **** Fit       0.018545
 **** Fit       0.012178
 **** Fit       0.026242
 **** Fit       0.030425
 **** Fit       0.031538
 **** Fit       0.030009
 **** Fit       0.026070
 **** Fit       0.020015
 **** Fit       0.012492
 **** Fit       0.028046
 **** Fit       0.034735
 **** Fit       0.038177
 **** Fit       0.039285
 **** Fit       0.038464
 **** Fit       0.035828
 **** Fit       0.031361
 **** Fit       0.025049
 **** Fit       0.046488
 **** Fit       0.046489
 **** Fit       0.045313
 **** Fit       0.042973
 **** Fit       0.039371
 **** Fit       0.034356
 **** Fit       0.027730
 **** Fit       0.052318
 **** Fit       0.049549
 **** Fit       0.046112
 **** Fit       0.041765
 **** Fit       0.036310
 **** Fit       0.029500
 **** Fit       0.056127
 **** Fit       0.052048
 **** Fit       0.047642
 **** Fit       0.042571
 **** Fit       0.036644
 **** Fit       0.029691
 **** Fit       0.057916
 **** Fit       0.052895
 **** Fit       0.047689
 **** Fit       0.041927
 **** Fit       0.035457
 **** Fit       0.028246
 **** Fit       0.020235
 **** Fit       0.060947
 **** Fit       0.055000
 **** Fit       0.049118
 **** Fit       0.042729
 **** Fit       0.035606
 **** Fit       0.027763
 **** Fit       0.056245
 **** Fit       0.049957
 **** Fit       0.043113
 **** Fit       0.035374
 **** Fit       0.058023
 **** Fit       0.051755
 **** Fit       0.044877
 **** Fit       0.036902
 **** Fit       0.052655
 **** Fit       0.046311
 **** Fit       0.038660
 **** Fit       0.029345
 **** Fit       0.050059
 **** Fit       0.043911
 **** Fit       0.035937
 **** Fit       0.047346
 **** Fit       0.041559
 **** Fit       0.033526
 **** Fit       0.046025
 **** Fit       0.041166
 **** Fit       0.033838
 **** Fit       0.044871
 **** Fit       0.040925
 **** Fit       0.034553
 **** Fit       0.025313
 **** Fit       0.043052
 **** Fit       0.038817
 **** Fit       0.032019
 **** Fit      -0.023362
 **** Fit       0.019927
 **** Fit       0.044134
 **** Fit       0.041634
 **** Fit       0.037179
 **** Fit       0.030120
 **** Fit      -0.006432
 **** Fit      -0.006595
 **** Fit      -0.008886
 **** Fit      -0.009976
 **** Fit      -0.009950
 **** Fit      -0.008868
 **** Fit       0.005146
 **** Fit       0.013558
 **** Fit       0.022553
 **** Fit       0.030906
 **** Fit       0.037484
 **** Fit       0.041646
 **** Fit       0.043553
 **** Fit       0.043826
 **** Fit       0.042820
 **** Fit       0.040340
 **** Fit       0.035871
 **** Fit       0.028823
 **** Fit      -0.000519
 **** Fit       0.002943
 **** Fit       0.004095
 **** Fit       0.003143
 **** Fit       0.001771
 **** Fit       0.001278
 **** Fit       0.002068
 **** Fit       0.004361
 **** Fit       0.008419
 **** Fit       0.014215
 **** Fit       0.021180
 **** Fit       0.028301
 **** Fit       0.034452
 **** Fit       0.038795
 **** Fit       0.041057
 **** Fit       0.041382
 **** Fit       0.039863
 **** Fit       0.036267
 **** Fit       0.030143
 **** Fit       0.021040
 **** Fit       0.007383
 **** Fit       0.009691
 **** Fit       0.010120
 **** Fit       0.009954
 **** Fit       0.010494
 **** Fit       0.012383
 **** Fit       0.015857
 **** Fit       0.020778
 **** Fit       0.026495
 **** Fit       0.031965
 **** Fit       0.036150
 **** Fit       0.038394
 **** Fit       0.038454
 **** Fit       0.036187
 **** Fit       0.031334
 **** Fit       0.023639
 **** Fit       0.010922
 **** Fit       0.013937
 **** Fit       0.015415
 **** Fit       0.016618
 **** Fit       0.018808
 **** Fit       0.022440
 **** Fit       0.027108
 **** Fit       0.031677
 **** Fit       0.034800
 **** Fit       0.035497
 **** Fit       0.033252
 **** Fit       0.027835
 **** Fit       0.019513
 **** Fit       0.010862
 **** Fit       0.014122
 **** Fit       0.017505
 **** Fit       0.020016
 **** Fit       0.022795
 **** Fit       0.026594
 **** Fit       0.030396
 **** Fit       0.032130
 **** Fit       0.030192
 **** Fit       0.024354
 **** Fit       0.016545
 **** Fit       0.018330
 **** Fit       0.020775
 **** Fit       0.024467
 **** Fit       0.027889
 **** Fit       0.027075
 **** Fit       0.021286
 **** Fit       0.023939
 **** Fit       0.050429
 **** Fit       0.044320
 **** Fit       0.044281
 **** Fit       0.044240
 **** Fit       0.044276
 **** Fit       0.044547
 **** Fit       0.045316
 **** Fit       0.046969
 **** Fit       0.042737
 **** Fit       0.042229
 **** Fit       0.041889
 **** Fit       0.041829
 **** Fit       0.042244
 **** Fit       0.043445
 **** Fit       0.045901
 **** Fit       0.040749
 **** Fit       0.040164
 **** Fit       0.040040
 **** Fit       0.040615
 **** Fit       0.042272
 **** Fit       0.045612
 **** Fit       0.039744
 **** Fit       0.039037
 **** Fit       0.038957
 **** Fit       0.039820
 **** Fit       0.042108
 **** Fit       0.038554
 **** Fit       0.038416
 **** Fit       0.039424
 **** Fit       0.042182
 **** Fit       0.027658
 **** Fit       0.038219
 **** Fit       0.039062
 **** Fit       0.041927
 **** Fit       0.038794
 **** Fit       0.041585
 **** Fit       0.036548
 **** Fit       0.038222
 **** Fit       0.040809
 **** Fit       0.039245
 **** Fit       0.018794
 **** Fit       0.009917
 **** Fit       0.019799
 **** Fit       0.028456
 **** Fit       0.013634
 **** Fit       0.021494
 **** Fit       0.028482
 **** Fit       0.034832
 **** Fit       0.040856
 **** Fit       0.007510
 **** Fit       0.014352
 **** Fit       0.020815
 **** Fit       0.026695
 **** Fit       0.032009
 **** Fit       0.036882
 **** Fit       0.041473
 **** Fit      -0.013242
 **** Fit      -0.008164
 **** Fit      -0.003923
 **** Fit       0.000393
 **** Fit       0.005220
 **** Fit       0.010553
 **** Fit       0.016094
 **** Fit       0.021493
 **** Fit       0.026519
 **** Fit       0.031087
 **** Fit       0.035222
 **** Fit       0.038991
 **** Fit       0.042464
 **** Fit      -0.009107
 **** Fit      -0.003250
 **** Fit       0.001616
 **** Fit       0.006151
 **** Fit       0.010719
 **** Fit       0.015410
 **** Fit       0.020108
 **** Fit       0.024626
 **** Fit       0.028814
 **** Fit       0.032600
 **** Fit       0.035978
 **** Fit       0.038971
 **** Fit       0.041594
 **** Fit      -0.003890
 **** Fit       0.001493
 **** Fit       0.006250
 **** Fit       0.010645
 **** Fit       0.014885
 **** Fit       0.019046
 **** Fit       0.023086
 **** Fit       0.026904
 **** Fit       0.030403
 **** Fit       0.033524
 **** Fit       0.036245
 **** Fit       0.038563
 **** Fit       0.040475
 **** Fit       0.001213
 **** Fit       0.005201
 **** Fit       0.009482
 **** Fit       0.013679
 **** Fit       0.017740
 **** Fit       0.021658
 **** Fit       0.025382
 **** Fit       0.028825
 **** Fit       0.031902
 **** Fit       0.034555
 **** Fit       0.036757
 **** Fit       0.038504
 **** Fit       0.039827
 **** Fit       0.013955
 **** Fit       0.010035
 **** Fit       0.010478
 **** Fit       0.013059
 **** Fit       0.016460
 **** Fit       0.020087
 **** Fit       0.023682
 **** Fit       0.027091
 **** Fit       0.030188
 **** Fit       0.032876
 **** Fit       0.035093
 **** Fit       0.036830
 **** Fit       0.038149
 **** Fit       0.021269
 **** Fit       0.017943
 **** Fit       0.018288
 **** Fit       0.020592
 **** Fit       0.023686
 **** Fit       0.026935
 **** Fit       0.029986
 **** Fit       0.032621
 **** Fit       0.034736
 **** Fit       0.036360
 **** Fit       0.037722
 **** Fit       0.030574
 **** Fit       0.025070
 **** Fit       0.023737
 **** Fit       0.025435
 **** Fit       0.028353
 **** Fit       0.031330
 **** Fit       0.033802
 **** Fit       0.035714
 **** Fit       0.037507
 **** Fit       0.035443
 **** Fit       0.031399
 **** Fit       0.028355
 **** Fit       0.029963
 **** Fit       0.032936
 **** Fit       0.035160
 **** Fit       0.032144
 **** Fit       0.011769
 **** Fit       0.015212
 **** Fit       0.005173
 **** Fit       0.003746
 **** Fit       0.010332
 **** Fit       0.017750
 **** Fit       0.020501
 **** Fit       0.020846
 **** Fit       0.009293
 **** Fit       0.010245
 **** Fit       0.017165
 **** Fit       0.023061
 **** Fit       0.027036
 **** Fit       0.028648
 **** Fit       0.027092
 **** Fit       0.028804
 **** Fit       0.010422
 **** Fit       0.016821
 **** Fit       0.022738
 **** Fit       0.027582
 **** Fit       0.031294
 **** Fit       0.033954
 **** Fit       0.035564
 **** Fit       0.035868
 **** Fit       0.034117
 **** Fit       0.013435
 **** Fit       0.019929
 **** Fit       0.025495
 **** Fit       0.030013
 **** Fit       0.033625
 **** Fit       0.036523
 **** Fit       0.038867
 **** Fit       0.040764
 **** Fit       0.042223
 **** Fit       0.043057
 **** Fit       0.042638
 **** Fit       0.005416
 **** Fit       0.013215
 **** Fit       0.020265
 **** Fit       0.026045
 **** Fit       0.030648
 **** Fit       0.034323
 **** Fit       0.037314
 **** Fit       0.039827
 **** Fit       0.042034
 **** Fit       0.044089
 **** Fit       0.046134
 **** Fit       0.048294
 **** Fit       0.050600
 **** Fit       0.013628
 **** Fit       0.020928
 **** Fit       0.026697
 **** Fit       0.031201
 **** Fit       0.034760
 **** Fit       0.037644
 **** Fit       0.040062
 **** Fit       0.042180
 **** Fit       0.044149
 **** Fit       0.046121
 **** Fit       0.048277
 **** Fit       0.050860
 **** Fit       0.054197
 **** Fit       0.015977
 **** Fit       0.023110
 **** Fit       0.028587
 **** Fit       0.032782
 **** Fit       0.036056
 **** Fit       0.038690
 **** Fit       0.040892
 **** Fit       0.042823
 **** Fit       0.044623
 **** Fit       0.046437
 **** Fit       0.048446
 **** Fit       0.050909
 **** Fit       0.054227
 **** Fit       0.059055
 **** Fit       0.020620
 **** Fit       0.026550
 **** Fit       0.031117
 **** Fit       0.034629
 **** Fit       0.037384
 **** Fit       0.039613
 **** Fit       0.041487
 **** Fit       0.043136
 **** Fit       0.044676
 **** Fit       0.046225
 **** Fit       0.047931
 **** Fit       0.050011
 **** Fit       0.052807
 **** Fit       0.056902
 **** Fit       0.033203
 **** Fit       0.035985
 **** Fit       0.038211
 **** Fit       0.040035
 **** Fit       0.041581
 **** Fit       0.042945
 **** Fit       0.044211
 **** Fit       0.045467
 **** Fit       0.046821
 **** Fit       0.048430
 **** Fit       0.050542
 **** Fit       0.053575
 **** Fit       0.058284
 **** Fit       0.040282
 **** Fit       0.041377
 **** Fit       0.042388
 **** Fit       0.043345
 **** Fit       0.044288
 **** Fit       0.045276
 **** Fit       0.046401
 **** Fit       0.047812
 **** Fit       0.049767
 **** Fit       0.052721
 **** Fit       0.057531
 **** Fit       0.043306
 **** Fit       0.043417
 **** Fit       0.043742
 **** Fit       0.044215
 **** Fit       0.044827
 **** Fit       0.045622
 **** Fit       0.046720
 **** Fit       0.048352
 **** Fit       0.050961
 **** Fit       0.045011
 **** Fit       0.044680
 **** Fit       0.044707
 **** Fit       0.045042
 **** Fit       0.045734
 **** Fit       0.046965
 -----------------------------------------------------------------
 Leave Link  602 at Wed Sep 18 15:26:21 2019, MaxMem=  1342177280 cpu:             122.3 elap:               2.6

 Test job not archived.
 1\1\GINC-C485-011\SP\RB3LYP\SVP\C54H83Ca1N15O23\PENGZHI\18-Sep-2019\0\
 \#b3lyp/svp scf=(tight,noincore) Test #IOP(5/87=12) Density=Current Po
 p=(MK,readradii) iop(6/33=2) iop(6/42=6)\\Ng-31_loop3_29.0\\0,1\C,0,84
 .28,71.25,30.03\C,0,83.74,70.47,31.22\O,0,82.57,70.59,31.58\H,0,85.296
 ,70.921,29.812\H,0,83.647,71.072,29.161\H,0,84.285,72.314,30.265\N,0,8
 4.56,69.58,31.79\C,0,84.07,68.56,32.69\C,0,84.36,68.94,34.14\O,0,83.7,
 68.35,35.\C,0,84.65,67.17,32.4\C,0,86.13,66.98,32.1\O,0,86.72,67.71,31
 .27\O,0,86.65,66.,32.66\H,0,85.5,69.53,31.44\H,0,83.,68.41,32.55\H,0,8
 4.11,66.82,31.52\H,0,84.36,66.37,33.09\N,0,85.35,69.79,34.4\C,0,85.76,
 70.17,35.74\C,0,86.52,69.12,36.53\O,0,87.44,68.5,36.02\C,0,86.56,71.46
 ,35.61\C,0,85.77,72.63,35.02\C,0,86.38,74.01,35.22\C,0,85.5,75.19,34.8
 3\N,0,84.17,75.16,35.45\H,0,85.77,70.28,33.62\H,0,84.87,70.46,36.31\H,
 0,87.52,71.25,35.12\H,0,86.76,71.89,36.59\H,0,84.85,72.61,35.6\H,0,85.
 69,72.64,33.93\H,0,87.33,74.04,34.68\H,0,86.6,74.24,36.26\H,0,85.27,75
 .26,33.76\H,0,86.,76.13,35.05\H,0,83.68,74.3,35.25\H,0,84.24,75.17,36.
 46\H,0,83.69,76.03,35.28\N,0,86.16,68.86,37.8\C,0,86.62,67.76,38.62\C,
 0,85.62,66.61,38.64\O,0,85.69,65.68,39.44\C,0,87.08,68.21,40.\C,0,85.9
 9,68.97,40.75\O,0,84.9,69.31,40.23\O,0,86.1,69.22,41.97\H,0,85.45,69.4
 6,38.2\H,0,87.49,67.26,38.19\H,0,87.87,68.95,39.88\H,0,87.41,67.37,40.
 61\N,0,84.67,66.65,37.7\C,0,83.73,65.57,37.48\C,0,84.34,64.26,36.99\O,
 0,85.31,64.26,36.23\H,0,84.45,67.47,37.16\H,0,82.96,65.84,36.76\H,0,83
 .14,65.48,38.39\N,0,83.85,63.06,37.3\C,0,82.54,62.85,37.9\C,0,81.73,61
 .83,37.12\O,0,81.55,60.74,37.66\C,0,82.61,62.54,39.39\C,0,83.14,63.65,
 40.29\N,0,84.38,63.54,40.77\O,0,82.4,64.49,40.8\H,0,84.34,62.32,36.83\
 H,0,81.94,63.76,37.82\H,0,83.12,61.58,39.43\H,0,81.62,62.32,39.78\H,0,
 84.82,62.67,40.52\H,0,84.8,64.11,41.49\N,0,81.25,61.96,35.88\C,0,81.51
 ,63.07,34.99\C,0,80.6,64.27,35.21\O,0,81.14,65.37,35.2\H,0,80.61,61.26
 ,35.53\H,0,81.41,62.66,33.99\H,0,82.49,63.54,35.08\N,0,79.31,64.08,35.
 5\C,0,78.47,65.07,36.16\C,0,78.6,65.,37.67\O,0,79.08,63.99,38.17\C,0,7
 7.,64.99,35.77\C,0,76.74,65.21,34.3\C,0,76.95,66.49,33.76\C,0,76.37,64
 .13,33.49\C,0,76.67,66.71,32.41\C,0,76.09,64.33,32.13\C,0,76.33,65.61,
 31.59\O,0,76.05,65.88,30.28\H,0,78.91,63.15,35.52\H,0,78.83,66.07,35.9
 4\H,0,76.52,65.84,36.25\H,0,76.63,64.01,36.06\H,0,77.35,67.31,34.34\H,
 0,76.3,63.14,33.92\H,0,76.91,67.69,32.01\H,0,75.6,63.55,31.57\H,0,75.7
 6,65.19,29.68\N,0,78.34,66.14,38.32\C,0,78.72,66.42,39.69\C,0,77.6,66.
 18,40.7\O,0,77.94,65.76,41.8\C,0,79.24,67.85,39.76\C,0,80.74,68.02,39.
 48\C,0,78.36,68.84,39.01\C,0,81.07,67.65,38.04\H,0,77.91,66.9,37.81\H,
 0,79.57,65.83,40.04\H,0,79.12,68.14,40.8\H,0,81.33,67.38,40.14\H,0,80.
 96,69.05,39.73\H,0,78.29,68.57,37.96\H,0,77.33,68.91,39.38\H,0,78.9,69
 .78,39.09\H,0,80.4,68.08,37.29\H,0,82.08,68.03,37.89\H,0,81.06,66.57,3
 7.96\N,0,76.31,66.38,40.43\C,0,75.19,66.18,41.33\C,0,75.02,67.49,42.1\
 O,0,74.91,68.56,41.51\C,0,73.82,65.9,40.71\O,0,73.86,64.69,39.98\H,0,7
 6.08,66.86,39.57\H,0,75.45,65.41,42.06\H,0,73.61,66.76,40.07\H,0,73.11
 ,65.91,41.52\H,0,73.85,65.03,39.08\N,0,75.01,67.37,43.43\C,0,74.43,68.
 23,44.43\C,0,75.48,69.09,45.1\O,0,76.65,68.72,45.26\C,0,73.73,67.32,45
 .44\H,0,75.33,66.47,43.75\H,0,73.75,68.87,43.87\H,0,73.67,67.93,46.35\
 H,0,72.68,67.26,45.15\H,0,74.17,66.33,45.56\N,0,75.13,70.27,45.63\C,0,
 75.98,71.23,46.3\C,0,77.26,71.53,45.55\O,0,78.37,71.48,46.09\C,0,76.19
 ,70.82,47.76\H,0,74.19,70.59,45.45\H,0,75.41,72.16,46.29\H,0,76.89,69.
 99,47.78\H,0,76.53,71.56,48.48\H,0,75.28,70.36,48.15\N,0,77.1,71.72,44
 .24\C,0,78.15,71.78,43.24\C,0,77.85,72.9,42.25\O,0,78.67,73.8,42.1\C,0
 ,78.18,70.45,42.5\C,0,79.09,69.45,43.21\C,0,80.55,69.46,42.8\O,0,81.01
 ,70.34,42.03\O,0,81.29,68.54,43.21\H,0,76.13,71.72,43.94\H,0,79.1,71.9
 6,43.75\H,0,78.61,70.5,41.5\H,0,77.19,70.,42.48\H,0,78.68,68.46,43.03\
 H,0,79.,69.55,44.29\N,0,76.64,72.97,41.7\C,0,76.33,74.02,40.76\H,0,75.
 476,74.591,41.123\H,0,77.191,74.681,40.656\H,0,76.088,73.582,39.792\H,
 0,75.94,72.32,42.04\Ca,0,83.61,69.48,42.69\O,0,82.68,70.68,44.79\H,0,8
 2.35,70.4,45.64\H,0,82.8,71.62,44.87\\Version=ES64L-G16RevA.03\State=1
 -A\HF=-5333.35438\RMSD=4.649e-10\Dipole=-6.9528424,13.0419249,5.279425
 2\Quadrupole=-28.569151,89.815018,-61.245867,101.5761669,55.4696985,-3
 6.3891675\PG=C01 [X(C54H83Ca1N15O23)]\\@


 IN THE FIGHT BETWEEN YOU AND THE WORLD, BACK THE WORLD

                                        -- FRANZ KAFKA
 Job cpu time:       1 days 10 hours 52 minutes 38.5 seconds.
 Elapsed time:       0 days  0 hours 44 minutes  8.8 seconds.
 File lengths (MBytes):  RWF=   1517 Int=      0 D2E=      0 Chk=    171 Scr=      1
 Normal termination of Gaussian 16 at Wed Sep 18 15:26:22 2019.
