 Entering Gaussian System, Link 0=g16
 Initial command:
 /home1/apps/gaussian/16rA.03/g16/l1.exe "/scratch/01990/pengzhi/4354931/Gau-115021.inp" -scrdir="/scratch/01990/pengzhi/4354931/"
 Entering Link 1 = /home1/apps/gaussian/16rA.03/g16/l1.exe PID=    115022.
  
 Copyright (c) 1988,1990,1992,1993,1995,1998,2003,2009,2016,
            Gaussian, Inc.  All Rights Reserved.
  
 This is part of the Gaussian(R) 16 program.  It is based on
 the Gaussian(R) 09 system (copyright 2009, Gaussian, Inc.),
 the Gaussian(R) 03 system (copyright 2003, Gaussian, Inc.),
 the Gaussian(R) 98 system (copyright 1998, Gaussian, Inc.),
 the Gaussian(R) 94 system (copyright 1995, Gaussian, Inc.),
 the Gaussian 92(TM) system (copyright 1992, Gaussian, Inc.),
 the Gaussian 90(TM) system (copyright 1990, Gaussian, Inc.),
 the Gaussian 88(TM) system (copyright 1988, Gaussian, Inc.),
 the Gaussian 86(TM) system (copyright 1986, Carnegie Mellon
 University), and the Gaussian 82(TM) system (copyright 1983,
 Carnegie Mellon University). Gaussian is a federally registered
 trademark of Gaussian, Inc.
  
 This software contains proprietary and confidential information,
 including trade secrets, belonging to Gaussian, Inc.
  
 This software is provided under written license and may be
 used, copied, transmitted, or stored only in accord with that
 written license.
  
 The following legend is applicable only to US Government
 contracts under FAR:
  
                    RESTRICTED RIGHTS LEGEND
  
 Use, reproduction and disclosure by the US Government is
 subject to restrictions as set forth in subparagraphs (a)
 and (c) of the Commercial Computer Software - Restricted
 Rights clause in FAR 52.227-19.
  
 Gaussian, Inc.
 340 Quinnipiac St., Bldg. 40, Wallingford CT 06492
  
  
 ---------------------------------------------------------------
 Warning -- This program may not be used in any manner that
 competes with the business of Gaussian, Inc. or will provide
 assistance to any competitor of Gaussian, Inc.  The licensee
 of this program is prohibited from giving any competitor of
 Gaussian, Inc. access to this program.  By using this program,
 the user acknowledges that Gaussian, Inc. is engaged in the
 business of creating and licensing software in the field of
 computational chemistry and represents and warrants to the
 licensee that it is not a competitor of Gaussian, Inc. and that
 it will not use this program in any manner prohibited above.
 ---------------------------------------------------------------
  

 Cite this work as:
 Gaussian 16, Revision A.03,
 M. J. Frisch, G. W. Trucks, H. B. Schlegel, G. E. Scuseria, 
 M. A. Robb, J. R. Cheeseman, G. Scalmani, V. Barone, 
 G. A. Petersson, H. Nakatsuji, X. Li, M. Caricato, A. V. Marenich, 
 J. Bloino, B. G. Janesko, R. Gomperts, B. Mennucci, H. P. Hratchian, 
 J. V. Ortiz, A. F. Izmaylov, J. L. Sonnenberg, D. Williams-Young, 
 F. Ding, F. Lipparini, F. Egidi, J. Goings, B. Peng, A. Petrone, 
 T. Henderson, D. Ranasinghe, V. G. Zakrzewski, J. Gao, N. Rega, 
 G. Zheng, W. Liang, M. Hada, M. Ehara, K. Toyota, R. Fukuda, 
 J. Hasegawa, M. Ishida, T. Nakajima, Y. Honda, O. Kitao, H. Nakai, 
 T. Vreven, K. Throssell, J. A. Montgomery, Jr., J. E. Peralta, 
 F. Ogliaro, M. J. Bearpark, J. J. Heyd, E. N. Brothers, K. N. Kudin, 
 V. N. Staroverov, T. A. Keith, R. Kobayashi, J. Normand, 
 K. Raghavachari, A. P. Rendell, J. C. Burant, S. S. Iyengar, 
 J. Tomasi, M. Cossi, J. M. Millam, M. Klene, C. Adamo, R. Cammi, 
 J. W. Ochterski, R. L. Martin, K. Morokuma, O. Farkas, 
 J. B. Foresman, and D. J. Fox, Gaussian, Inc., Wallingford CT, 2016.
 
 ******************************************
 Gaussian 16:  ES64L-G16RevA.03 25-Dec-2016
                18-Sep-2019 
 ******************************************
 %chk=Ng-31_loop3_27.0.chk
 %nprocshared=48
 Will use up to   48 processors via shared memory.
 %mem=10GB
 %nosave
 ----------------------------------------------------------------------
 #b3lyp/svp scf=(tight,noincore) Test #IOP(5/87=12) Density=Current Pop
 =(MK,readradii) iop(6/33=2) iop(6/42=6)
 ----------------------------------------------------------------------
 1/30=1,38=1,172=1/1;
 2/12=2,17=6,18=5,40=1/2;
 3/5=18,7=101,11=2,25=1,30=1,74=-5/1,2,3;
 4//1;
 5/5=4,32=2,38=5,87=12/2;
 6/7=2,8=2,9=2,10=2,15=8,20=101,22=-1,28=1,33=2,42=6/1,2;
 99/5=1,9=1/99;
 ----------------
 Ng-31_loop3_27.0
 ----------------
 Symbolic Z-matrix:
 Charge =  0 Multiplicity = 1
 C                     95.11     74.41     17.61 
 C                     96.08     73.91     18.67 
 O                     95.68     73.38     19.7 
 H                     94.233    74.839    18.094 
 H                     95.597    75.171    17.001 
 H                     94.803    73.578    16.976 
 N                     97.39     74.01     18.41 
 C                     98.43     73.5      19.27 
 C                     98.72     74.45     20.43 
 O                     98.38     74.15     21.57 
 C                     99.68     72.96     18.58 
 C                     100.48    73.96     17.76 
 O                     99.94     75.02     17.39 
 O                     101.65    73.69     17.41 
 H                     97.63     74.52     17.57 
 H                     98.01     72.57     19.65 
 H                     99.37     72.14     17.93 
 H                     100.31    72.53     19.36 
 N                     99.17     75.67     20.15 
 C                     99.5      76.64     21.18 
 C                     100.66    76.15     22.04 
 O                     101.8     76.02     21.59 
 C                     99.87     77.99     20.59 
 C                     98.83     78.64     19.67 
 C                     99.47     79.81     18.92 
 C                     98.42     80.67     18.23 
 N                     98.71     82.05     17.82 
 H                     99.35     75.77     19.16 
 H                     98.6      76.85     21.76 
 H                     100.74    77.84     19.95 
 H                     100.09    78.65     21.43 
 H                     98.09     79.08     20.34 
 H                     98.36     77.97     18.95 
 H                     100.22    79.51     18.19 
 H                     99.95     80.43     19.67 
 H                     97.66     80.81     19. 
 H                     97.94     80.09     17.45 
 H                     99.03     82.75     18.48 
 H                     99.48     82.11     17.16 
 H                     97.92     82.47     17.35 
 N                     100.37    75.91     23.32 
 C                     101.25    75.23     24.25 
 C                     101.29    73.72     24.12 
 O                     102.06    73.09     24.84 
 C                     100.97    75.67     25.68 
 C                     99.5      75.62     26.07 
 O                     99.02     74.61     26.64 
 O                     98.77     76.6      25.83 
 H                     99.41     76.04     23.61 
 H                     102.25    75.57     23.99 
 H                     101.35    76.69     25.71 
 H                     101.52    75.08     26.42 
 N                     100.5     73.02     23.3 
 C                     100.49    71.59     23.05 
 C                     101.11    71.29     21.7 
 O                     102.05    71.98     21.31 
 H                     100.03    73.6      22.62 
 H                     99.48     71.17     23.02 
 H                     101.09    71.09     23.81 
 N                     100.82    70.17     21.02 
 C                     99.82     69.16     21.3 
 C                     98.91     69.04     20.09 
 O                     99.37     68.63     19.03 
 C                     100.51    67.84     21.62 
 C                     101.22    67.71     22.96 
 N                     101.96    66.63     23.19 
 O                     101.09    68.53     23.87 
 H                     101.57    69.99     20.37 
 H                     99.21     69.46     22.15 
 H                     101.28    67.81     20.85 
 H                     99.73     67.08     21.6 
 H                     102.06    65.91     22.49 
 H                     102.46    66.65     24.07 
 N                     97.6      69.29     20.1 
 C                     96.77     69.77     21.18 
 C                     95.93     68.82     22.02 
 O                     95.22     69.34     22.88 
 H                     97.11     69.06     19.25 
 H                     96.09     70.49     20.72 
 H                     97.37     70.25     21.96 
 N                     95.86     67.52     21.75 
 C                     95.11     66.55     22.52 
 C                     95.92     66.06     23.71 
 O                     96.9      65.31     23.62 
 C                     94.79     65.34     21.65 
 C                     94.03     65.45     20.35 
 C                     93.1      66.47     20.09 
 C                     94.29     64.5      19.36 
 C                     92.4      66.5      18.88 
 C                     93.63     64.57     18.12 
 C                     92.66     65.56     17.86 
 O                     91.94     65.68     16.71 
 H                     96.25     67.21     20.87 
 H                     94.18     67.02     22.85 
 H                     94.33     64.58     22.28 
 H                     95.71     64.8      21.41 
 H                     92.83     67.13     20.9 
 H                     94.95     63.68     19.57 
 H                     91.69     67.28     18.67 
 H                     93.82     63.81     17.38 
 H                     92.15     65.02     16.04 
 N                     95.54     66.54     24.9 
 C                     96.33     66.56     26.11 
 C                     95.5      65.95     27.23 
 O                     96.13     65.75     28.27 
 C                     96.84     67.97     26.43 
 C                     97.85     68.41     25.38 
 C                     95.73     68.99     26.67 
 C                     98.75     69.57     25.83 
 H                     94.8      67.23     24.84 
 H                     97.22     65.94     26. 
 H                     97.36     67.94     27.38 
 H                     97.39     68.58     24.41 
 H                     98.53     67.56     25.31 
 H                     95.07     68.65     27.46 
 H                     96.25     69.9      26.99 
 H                     95.22     69.22     25.74 
 H                     99.79     69.26     25.72 
 H                     98.62     70.48     25.26 
 H                     98.45     69.72     26.87 
 N                     94.23     65.58     27.07 
 C                     93.27     65.32     28.12 
 C                     92.07     66.22     28.36 
 O                     91.33     66.65     27.47 
 C                     92.76     63.9      27.91 
 O                     93.76     62.91     28.01 
 H                     93.87     65.88     26.17 
 H                     93.88     65.36     29.03 
 H                     92.17     63.9      26.99 
 H                     92.14     63.57     28.75 
 H                     94.03     62.68     27.11 
 N                     91.76     66.38     29.65 
 C                     90.66     67.13     30.22 
 C                     90.66     68.62     29.93 
 O                     91.76     69.16     29.84 
 C                     90.34     66.7      31.65 
 H                     92.45     66.06     30.31 
 H                     89.83     66.75     29.62 
 H                     89.45     67.21     32.01 
 H                     90.18     65.62     31.58 
 H                     91.09     66.91     32.41 
 N                     89.48     69.24     29.96 
 C                     89.3      70.67     30.14 
 C                     89.93     71.62     29.13 
 O                     90.08     72.8      29.44 
 C                     89.68     71.01     31.58 
 H                     88.67     68.64     29.88 
 H                     88.22     70.83     30.12 
 H                     90.71     70.9      31.9 
 H                     89.4      72.02     31.88 
 H                     88.98     70.47     32.22 
 N                     90.41     71.27     27.94 
 C                     91.01     72.04     26.87 
 C                     90.14     72.11     25.62 
 O                     90.11     73.1      24.89 
 C                     92.31     71.3      26.55 
 C                     93.5      71.75     27.4 
 C                     94.26     72.91     26.77 
 O                     95.08     72.74     25.83 
 O                     94.42     73.91     27.49 
 H                     90.32     70.27     27.8 
 H                     91.2      73.06     27.21 
 H                     92.53     71.43     25.49 
 H                     92.05     70.26     26.72 
 H                     94.14     70.87     27.45 
 H                     93.23     71.92     28.44 
 N                     89.25     71.17     25.28 
 C                     88.26     71.16     24.23 
 H                     87.404    71.762    24.533 
 H                     88.691    71.575    23.319 
 H                     87.936    70.136    24.045 
 H                     89.19     70.33     25.83 
 Ca                    96.54     74.9      26.26 
 O                     97.54     73.99     24.02 
 H                     97.19     73.11     23.9 
 H                     97.87     74.24     23.15 
 
 Stoichiometry    C54H83CaN15O23
 Framework group  C1[X(C54H83CaN15O23)]
 Deg. of freedom   522
 Full point group                 C1      NOp   1
 Largest Abelian subgroup         C1      NOp   1
 Largest concise Abelian subgroup C1      NOp   1
                         Standard orientation:                         
 ---------------------------------------------------------------------
 Center     Atomic      Atomic             Coordinates (Angstroms)
 Number     Number       Type             X           Y           Z
 ---------------------------------------------------------------------
      1          6           0        4.779961    0.580357    5.203659
      2          6           0        4.475288    0.592136    3.713178
      3          8           0        3.360396    0.311465    3.288866
      4          1           0        4.250701   -0.246947    5.675759
      5          1           0        5.852098    0.458749    5.354997
      6          1           0        4.453786    1.520255    5.649339
      7          7           0        5.450577    0.983305    2.882817
      8          6           0        5.291003    1.135620    1.457112
      9          6           0        5.388523   -0.204636    0.731575
     10          8           0        4.384911   -0.713418    0.242593
     11          6           0        6.087757    2.259243    0.799194
     12          6           0        7.601938    2.149785    0.886804
     13          8           0        8.113646    1.407364    1.746493
     14          8           0        8.324849    2.847026    0.141449
     15          1           0        6.354950    1.130696    3.311402
     16          1           0        4.283956    1.537593    1.357248
     17          1           0        5.775691    3.198328    1.259341
     18          1           0        5.777345    2.295863   -0.246035
     19          7           0        6.530148   -0.882939    0.808388
     20          6           0        6.734426   -2.153815    0.134707
     21          6           0        6.657548   -1.987888   -1.379181
     22          8           0        7.500484   -1.349067   -2.011926
     23          6           0        8.075806   -2.773398    0.487291
     24          6           0        8.351180   -2.999983    1.978374
     25          6           0        9.833154   -3.321197    2.182267
     26          6           0       10.100821   -3.846782    3.585946
     27          7           0       11.314007   -4.613329    3.897688
     28          1           0        7.238602   -0.344165    1.288299
     29          1           0        6.009265   -2.871772    0.520945
     30          1           0        8.851686   -2.074727    0.172856
     31          1           0        8.135790   -3.719753   -0.051611
     32          1           0        7.807312   -3.910160    2.235056
     33          1           0        8.071849   -2.176076    2.635148
     34          1           0       10.498727   -2.482858    1.983266
     35          1           0       10.072331   -4.121107    1.489274
     36          1           0        9.312670   -4.586140    3.735172
     37          1           0        9.901781   -3.060652    4.305379
     38          1           0       11.555441   -5.462350    3.398816
     39          1           0       12.166152   -4.090886    3.716021
     40          1           0       11.354008   -4.860451    4.876836
     41          7           0        5.642201   -2.612228   -1.978655
     42          6           0        5.249109   -2.406985   -3.358892
     43          6           0        4.449959   -1.146520   -3.625700
     44          8           0        4.136697   -0.885439   -4.784106
     45          6           0        4.560025   -3.645060   -3.914980
     46          6           0        3.448571   -4.189286   -3.029548
     47          8           0        2.254524   -3.849566   -3.214592
     48          8           0        3.729429   -4.990856   -2.118777
     49          1           0        4.993296   -3.114694   -1.387850
     50          1           0        6.183463   -2.278040   -3.900699
     51          1           0        5.371879   -4.364066   -4.013082
     52          1           0        4.129580   -3.480192   -4.907822
     53          7           0        4.018768   -0.319215   -2.668549
     54          6           0        3.303277    0.936249   -2.807779
     55          6           0        4.232130    2.101728   -2.532477
     56          8           0        5.409590    2.018834   -2.876740
     57          1           0        4.457620   -0.491562   -1.775573
     58          1           0        2.474701    1.034955   -2.099882
     59          1           0        2.944674    1.031640   -3.832428
     60          7           0        3.770698    3.296581   -2.132096
     61          6           0        2.428669    3.677650   -1.741908
     62          6           0        2.483937    4.249919   -0.336186
     63          8           0        3.094137    5.294317   -0.135720
     64          6           0        1.879005    4.687887   -2.741003
     65          6           0        1.486326    4.186380   -4.123354
     66          7           0        1.157647    5.074017   -5.056612
     67          8           0        1.395999    2.989848   -4.401837
     68          1           0        4.463446    3.995211   -2.354395
     69          1           0        1.779946    2.803920   -1.723084
     70          1           0        2.738190    5.344043   -2.875014
     71          1           0        0.979433    5.101425   -2.286957
     72          1           0        1.174296    6.063891   -4.860979
     73          1           0        0.982076    4.670840   -5.968436
     74          7           0        1.852994    3.730938    0.717982
     75          6           0        1.054806    2.530494    0.804763
     76          6           0       -0.464357    2.579727    0.746277
     77          8           0       -1.047348    1.504626    0.881843
     78          1           0        1.893675    4.282669    1.560263
     79          1           0        1.331900    2.070790    1.755705
     80          1           0        1.265489    1.851396   -0.027846
     81          7           0       -1.127332    3.730968    0.692370
     82          6           0       -2.566806    3.858162    0.602712
     83          6           0       -3.031327    3.748025   -0.841029
     84          8           0       -2.847404    4.622288   -1.697087
     85          6           0       -2.995034    5.225725    1.122127
     86          6           0       -2.665658    5.707497    2.514645
     87          6           0       -2.468236    4.837723    3.599735
     88          6           0       -2.531670    7.083137    2.714300
     89          6           0       -2.200161    5.344288    4.875089
     90          6           0       -2.199840    7.585649    3.985312
     91          6           0       -2.043798    6.729502    5.094935
     92          8           0       -1.767150    7.126422    6.368207
     93          1           0       -0.597974    4.576341    0.858877
     94          1           0       -3.018622    3.075161    1.217099
     95          1           0       -4.062156    5.340969    0.937543
     96          1           0       -2.639930    6.008711    0.446528
     97          1           0       -2.681116    3.789567    3.456031
     98          1           0       -2.742670    7.760485    1.908832
     99          1           0       -2.042367    4.685920    5.710704
    100          1           0       -2.131796    8.651694    4.127498
    101          1           0       -1.666480    8.078978    6.473575
    102          7           0       -3.624144    2.593364   -1.166955
    103          6           0       -3.809474    2.069762   -2.501156
    104          6           0       -5.274985    1.694723   -2.665543
    105          8           0       -5.591812    1.401846   -3.819815
    106          6           0       -2.848995    0.910956   -2.793130
    107          6           0       -1.416251    1.421607   -2.844928
    108          6           0       -3.032077   -0.291909   -1.871340
    109          6           0       -0.444821    0.477043   -3.567577
    110          1           0       -3.619619    1.910969   -0.417544
    111          1           0       -3.590749    2.832508   -3.248804
    112          1           0       -3.080753    0.511063   -3.773015
    113          1           0       -1.055204    1.738675   -1.869986
    114          1           0       -1.479640    2.289191   -3.503016
    115          1           0       -4.056358   -0.644847   -1.911117
    116          1           0       -2.361742   -1.059039   -2.275149
    117          1           0       -2.686964   -0.056854   -0.869569
    118          1           0        0.046021    1.034936   -4.366094
    119          1           0        0.329845    0.066828   -2.933924
    120          1           0       -1.103527   -0.314467   -3.933253
    121          7           0       -6.156174    1.766499   -1.668671
    122          6           0       -7.452818    1.127881   -1.617862
    123          6           0       -7.760092   -0.003452   -0.651804
    124          8           0       -7.454300   -0.003173    0.544479
    125          6           0       -8.479548    2.230821   -1.394371
    126          8           0       -8.530124    3.186845   -2.430499
    127          1           0       -5.697501    1.966179   -0.785864
    128          1           0       -7.568051    0.718526   -2.628282
    129          1           0       -8.323337    2.619686   -0.384974
    130          1           0       -9.501713    1.850893   -1.493030
    131          1           0       -8.013282    3.952329   -2.142908
    132          7           0       -8.555894   -0.949838   -1.158612
    133          6           0       -9.073926   -2.131029   -0.499954
    134          6           0       -8.032652   -3.123170   -0.014564
    135          8           0       -7.014070   -3.223972   -0.694292
    136          6           0      -10.301752   -2.701548   -1.206461
    137          1           0       -8.699934   -0.914823   -2.154667
    138          1           0       -9.459923   -1.689866    0.421828
    139          1           0      -10.722720   -3.523320   -0.632634
    140          1           0      -10.997297   -1.859187   -1.266015
    141          1           0      -10.151400   -3.122404   -2.198667
    142          7           0       -8.378730   -3.910149    1.004550
    143          6           0       -7.737032   -5.171313    1.332253
    144          6           0       -6.248626   -5.173247    1.654968
    145          8           0       -5.631404   -6.234761    1.598171
    146          6           0       -8.101117   -6.176824    0.241386
    147          1           0       -9.168372   -3.593746    1.551225
    148          1           0       -8.269008   -5.546939    2.208785
    149          1           0       -7.733593   -6.025873   -0.767346
    150          1           0       -7.832958   -7.204778    0.486133
    151          1           0       -9.185168   -6.296997    0.281283
    152          7           0       -5.519792   -4.095471    1.931012
    153          6           0       -4.122770   -3.929855    2.275542
    154          6           0       -3.909449   -3.472626    3.714200
    155          8           0       -2.940619   -3.828219    4.384141
    156          6           0       -3.617840   -2.852470    1.314143
    157          6           0       -3.114949   -3.405239   -0.021015
    158          6           0       -1.633856   -3.758923    0.016010
    159          8           0       -0.734806   -2.883251   -0.083020
    160          8           0       -1.342171   -4.915118   -0.333466
    161          1           0       -6.088246   -3.257862    1.876506
    162          1           0       -3.593120   -4.874442    2.136529
    163          1           0       -2.829614   -2.286819    1.811775
    164          1           0       -4.480373   -2.204440    1.195003
    165          1           0       -3.285532   -2.593464   -0.727005
    166          1           0       -3.744100   -4.205023   -0.405612
    167          7           0       -4.805043   -2.760547    4.408574
    168          6           0       -4.819633   -2.385948    5.802189
    169          1           0       -5.134791   -3.238090    6.403419
    170          1           0       -3.819794   -2.077070    6.106858
    171          1           0       -5.515781   -1.560522    5.949927
    172          1           0       -5.639478   -2.439459    3.947791
    173         20           0        1.170340   -4.458545   -1.016277
    174          8           0        2.450502   -2.210793   -0.623219
    175          1           0        1.788615   -1.541403   -0.464717
    176          1           0        3.270524   -1.821751   -0.299938
 ---------------------------------------------------------------------
 Rotational constants (GHZ):           0.0195302           0.0106644           0.0092376
 Standard basis: SVP (5D, 7F)
 There are  1809 symmetry adapted cartesian basis functions of A   symmetry.
 There are  1717 symmetry adapted basis functions of A   symmetry.
  1717 basis functions,  2922 primitive gaussians,  1809 cartesian basis functions
   358 alpha electrons      358 beta electrons
       nuclear repulsion energy     19686.4668166862 Hartrees.
 NAtoms=  176 NActive=  176 NUniq=  176 SFac= 1.00D+00 NAtFMM=   60 NAOKFM=T Big=T
 Integral buffers will be    131072 words long.
 Raffenetti 2 integral format.
 Two-electron integral symmetry is turned on.
 One-electron integrals computed using PRISM.
 NBasis=  1717 RedAO= T EigKep=  2.77D-04  NBF=  1717
 NBsUse=  1717 1.00D-06 EigRej= -1.00D+00 NBFU=  1717
 ExpMin= 1.98D-02 ExpMax= 3.51D+04 ExpMxC= 5.28D+03 IAcc=3 IRadAn=         5 AccDes= 0.00D+00
 Harris functional with IExCor=  402 and IRadAn=       5 diagonalized for initial guess.
 HarFok:  IExCor=  402 AccDes= 0.00D+00 IRadAn=         5 IDoV= 1 UseB2=F ITyADJ=14
 ICtDFT=  3500011 ScaDFX=  1.000000  1.000000  1.000000  1.000000
 FoFCou: FMM=F IPFlag=           0 FMFlag=      100000 FMFlg1=        2001
         NFxFlg=           0 DoJE=T BraDBF=F KetDBF=T FulRan=T
         wScrn=  0.000000 ICntrl=       500 IOpCl=  0 I1Cent=   200000004 NGrid=           0
         NMat0=    1 NMatS0=      1 NMatT0=    0 NMatD0=    1 NMtDS0=    0 NMtDT0=    0
 Petite list used in FoFCou.
 Requested convergence on RMS density matrix=1.00D-08 within 128 cycles.
 Requested convergence on MAX density matrix=1.00D-06.
 Requested convergence on             energy=1.00D-06.
 No special actions if energy rises.
 EnCoef did     2 forward-backward iterations
 EnCoef did     3 forward-backward iterations
 EnCoef did     3 forward-backward iterations
 Restarting incremental Fock formation.
 SCF Done:  E(RB3LYP) =  -5333.39754102     A.U. after   28 cycles
            NFock= 28  Conv=0.65D-09     -V/T= 2.0081
 SCF density gives NOpUse=  1 NOpAll=  1.
 Hyperfine terms turned off by default for NAtoms > 100.

 **********************************************************************

            Population analysis using the SCF density.

 **********************************************************************

 Orbital symmetries:
 BldTbl:  Degeneracy threshold= 1.00D-02
       Occupied  (A) (A) (A) (A) (A) (A) (A) (A) (A) (A) (A) (A)
                 (A) (A) (A) (A) (A) (A) (A) (A) (A) (A) (A) (A)
                 (A) (A) (A) (A) (A) (A) (A) (A) (A) (A) (A) (A)
                 (A) (A) (A) (A) (A) (A) (A) (A) (A) (A) (A) (A)
                 (A) (A) (A) (A) (A) (A) (A) (A) (A) (A) (A) (A)
                 (A) (A) (A) (A) (A) (A) (A) (A) (A) (A) (A) (A)
                 (A) (A) (A) (A) (A) (A) (A) (A) (A) (A) (A) (A)
                 (A) (A) (A) (A) (A) (A) (A) (A) (A) (A) (A) (A)
                 (A) (A) (A) (A) (A) (A) (A) (A) (A) (A) (A) (A)
                 (A) (A) (A) (A) (A) (A) (A) (A) (A) (A) (A) (A)
                 (A) (A) (A) (A) (A) (A) (A) (A) (A) (A) (A) (A)
                 (A) (A) (A) (A) (A) (A) (A) (A) (A) (A) (A) (A)
                 (A) (A) (A) (A) (A) (A) (A) (A) (A) (A) (A) (A)
                 (A) (A) (A) (A) (A) (A) (A) (A) (A) (A) (A) (A)
                 (A) (A) (A) (A) (A) (A) (A) (A) (A) (A) (A) (A)
                 (A) (A) (A) (A) (A) (A) (A) (A) (A) (A) (A) (A)
                 (A) (A) (A) (A) (A) (A) (A) (A) (A) (A) (A) (A)
                 (A) (A) (A) (A) (A) (A) (A) (A) (A) (A) (A) (A)
                 (A) (A) (A) (A) (A) (A) (A) (A) (A) (A) (A) (A)
                 (A) (A) (A) (A) (A) (A) (A) (A) (A) (A) (A) (A)
                 (A) (A) (A) (A) (A) (A) (A) (A) (A) (A) (A) (A)
                 (A) (A) (A) (A) (A) (A) (A) (A) (A) (A) (A) (A)
                 (A) (A) (A) (A) (A) (A) (A) (A) (A) (A) (A) (A)
                 (A) (A) (A) (A) (A) (A) (A) (A) (A) (A) (A) (A)
                 (A) (A) (A) (A) (A) (A) (A) (A) (A) (A) (A) (A)
                 (A) (A) (A) (A) (A) (A) (A) (A) (A) (A) (A) (A)
                 (A) (A) (A) (A) (A) (A) (A) (A) (A) (A) (A) (A)
                 (A) (A) (A) (A) (A) (A) (A) (A) (A) (A) (A) (A)
                 (A) (A) (A) (A) (A) (A) (A) (A) (A) (A) (A) (A)
                 (A) (A) (A) (A) (A) (A) (A) (A) (A) (A)
       Virtual   (A) (A) (A) (A) (A) (A) (A) (A) (A) (A) (A) (A)
                 (A) (A) (A) (A) (A) (A) (A) (A) (A) (A) (A) (A)
                 (A) (A) (A) (A) (A) (A) (A) (A) (A) (A) (A) (A)
                 (A) (A) (A) (A) (A) (A) (A) (A) (A) (A) (A) (A)
                 (A) (A) (A) (A) (A) (A) (A) (A) (A) (A) (A) (A)
                 (A) (A) (A) (A) (A) (A) (A) (A) (A) (A) (A) (A)
                 (A) (A) (A) (A) (A) (A) (A) (A) (A) (A) (A) (A)
                 (A) (A) (A) (A) (A) (A) (A) (A) (A) (A) (A) (A)
                 (A) (A) (A) (A) (A) (A) (A) (A) (A) (A) (A) (A)
                 (A) (A) (A) (A) (A) (A) (A) (A) (A) (A) (A) (A)
                 (A) (A) (A) (A) (A) (A) (A) (A) (A) (A) (A) (A)
                 (A) (A) (A) (A) (A) (A) (A) (A) (A) (A) (A) (A)
                 (A) (A) (A) (A) (A) (A) (A) (A) (A) (A) (A) (A)
                 (A) (A) (A) (A) (A) (A) (A) (A) (A) (A) (A) (A)
                 (A) (A) (A) (A) (A) (A) (A) (A) (A) (A) (A) (A)
                 (A) (A) (A) (A) (A) (A) (A) (A) (A) (A) (A) (A)
                 (A) (A) (A) (A) (A) (A) (A) (A) (A) (A) (A) (A)
                 (A) (A) (A) (A) (A) (A) (A) (A) (A) (A) (A) (A)
                 (A) (A) (A) (A) (A) (A) (A) (A) (A) (A) (A) (A)
                 (A) (A) (A) (A) (A) (A) (A) (A) (A) (A) (A) (A)
                 (A) (A) (A) (A) (A) (A) (A) (A) (A) (A) (A) (A)
                 (A) (A) (A) (A) (A) (A) (A) (A) (A) (A) (A) (A)
                 (A) (A) (A) (A) (A) (A) (A) (A) (A) (A) (A) (A)
                 (A) (A) (A) (A) (A) (A) (A) (A) (A) (A) (A) (A)
                 (A) (A) (A) (A) (A) (A) (A) (A) (A) (A) (A) (A)
                 (A) (A) (A) (A) (A) (A) (A) (A) (A) (A) (A) (A)
                 (A) (A) (A) (A) (A) (A) (A) (A) (A) (A) (A) (A)
                 (A) (A) (A) (A) (A) (A) (A) (A) (A) (A) (A) (A)
                 (A) (A) (A) (A) (A) (A) (A) (A) (A) (A) (A) (A)
                 (A) (A) (A) (A) (A) (A) (A) (A) (A) (A) (A) (A)
                 (A) (A) (A) (A) (A) (A) (A) (A) (A) (A) (A) (A)
                 (A) (A) (A) (A) (A) (A) (A) (A) (A) (A) (A) (A)
                 (A) (A) (A) (A) (A) (A) (A) (A) (A) (A) (A) (A)
                 (A) (A) (A) (A) (A) (A) (A) (A) (A) (A) (A) (A)
                 (A) (A) (A) (A) (A) (A) (A) (A) (A) (A) (A) (A)
                 (A) (A) (A) (A) (A) (A) (A) (A) (A) (A) (A) (A)
                 (A) (A) (A) (A) (A) (A) (A) (A) (A) (A) (A) (A)
                 (A) (A) (A) (A) (A) (A) (A) (A) (A) (A) (A) (A)
                 (A) (A) (A) (A) (A) (A) (A) (A) (A) (A) (A) (A)
                 (A) (A) (A) (A) (A) (A) (A) (A) (A) (A) (A) (A)
                 (A) (A) (A) (A) (A) (A) (A) (A) (A) (A) (A) (A)
                 (A) (A) (A) (A) (A) (A) (A) (A) (A) (A) (A) (A)
                 (A) (A) (A) (A) (A) (A) (A) (A) (A) (A) (A) (A)
                 (A) (A) (A) (A) (A) (A) (A) (A) (A) (A) (A) (A)
                 (A) (A) (A) (A) (A) (A) (A) (A) (A) (A) (A) (A)
                 (A) (A) (A) (A) (A) (A) (A) (A) (A) (A) (A) (A)
                 (A) (A) (A) (A) (A) (A) (A) (A) (A) (A) (A) (A)
                 (A) (A) (A) (A) (A) (A) (A) (A) (A) (A) (A) (A)
                 (A) (A) (A) (A) (A) (A) (A) (A) (A) (A) (A) (A)
                 (A) (A) (A) (A) (A) (A) (A) (A) (A) (A) (A) (A)
                 (A) (A) (A) (A) (A) (A) (A) (A) (A) (A) (A) (A)
                 (A) (A) (A) (A) (A) (A) (A) (A) (A) (A) (A) (A)
                 (A) (A) (A) (A) (A) (A) (A) (A) (A) (A) (A) (A)
                 (A) (A) (A) (A) (A) (A) (A) (A) (A) (A) (A) (A)
                 (A) (A) (A) (A) (A) (A) (A) (A) (A) (A) (A) (A)
                 (A) (A) (A) (A) (A) (A) (A) (A) (A) (A) (A) (A)
                 (A) (A) (A) (A) (A) (A) (A) (A) (A) (A) (A) (A)
                 (A) (A) (A) (A) (A) (A) (A) (A) (A) (A) (A) (A)
                 (A) (A) (A) (A) (A) (A) (A) (A) (A) (A) (A) (A)
                 (A) (A) (A) (A) (A) (A) (A) (A) (A) (A) (A) (A)
                 (A) (A) (A) (A) (A) (A) (A) (A) (A) (A) (A) (A)
                 (A) (A) (A) (A) (A) (A) (A) (A) (A) (A) (A) (A)
                 (A) (A) (A) (A) (A) (A) (A) (A) (A) (A) (A) (A)
                 (A) (A) (A) (A) (A) (A) (A) (A) (A) (A) (A) (A)
                 (A) (A) (A) (A) (A) (A) (A) (A) (A) (A) (A) (A)
                 (A) (A) (A) (A) (A) (A) (A) (A) (A) (A) (A) (A)
                 (A) (A) (A) (A) (A) (A) (A) (A) (A) (A) (A) (A)
                 (A) (A) (A) (A) (A) (A) (A) (A) (A) (A) (A) (A)
                 (A) (A) (A) (A) (A) (A) (A) (A) (A) (A) (A) (A)
                 (A) (A) (A) (A) (A) (A) (A) (A) (A) (A) (A) (A)
                 (A) (A) (A) (A) (A) (A) (A) (A) (A) (A) (A) (A)
                 (A) (A) (A) (A) (A) (A) (A) (A) (A) (A) (A) (A)
                 (A) (A) (A) (A) (A) (A) (A) (A) (A) (A) (A) (A)
                 (A) (A) (A) (A) (A) (A) (A) (A) (A) (A) (A) (A)
                 (A) (A) (A) (A) (A) (A) (A) (A) (A) (A) (A) (A)
                 (A) (A) (A) (A) (A) (A) (A) (A) (A) (A) (A) (A)
                 (A) (A) (A) (A) (A) (A) (A) (A) (A) (A) (A) (A)
                 (A) (A) (A) (A) (A) (A) (A) (A) (A) (A) (A) (A)
                 (A) (A) (A) (A) (A) (A) (A) (A) (A) (A) (A) (A)
                 (A) (A) (A) (A) (A) (A) (A) (A) (A) (A) (A) (A)
                 (A) (A) (A) (A) (A) (A) (A) (A) (A) (A) (A) (A)
                 (A) (A) (A) (A) (A) (A) (A) (A) (A) (A) (A) (A)
                 (A) (A) (A) (A) (A) (A) (A) (A) (A) (A) (A) (A)
                 (A) (A) (A) (A) (A) (A) (A) (A) (A) (A) (A) (A)
                 (A) (A) (A) (A) (A) (A) (A) (A) (A) (A) (A) (A)
                 (A) (A) (A) (A) (A) (A) (A) (A) (A) (A) (A) (A)
                 (A) (A) (A) (A) (A) (A) (A) (A) (A) (A) (A) (A)
                 (A) (A) (A) (A) (A) (A) (A) (A) (A) (A) (A) (A)
                 (A) (A) (A) (A) (A) (A) (A) (A) (A) (A) (A) (A)
                 (A) (A) (A) (A) (A) (A) (A) (A) (A) (A) (A) (A)
                 (A) (A) (A) (A) (A) (A) (A) (A) (A) (A) (A) (A)
                 (A) (A) (A) (A) (A) (A) (A) (A) (A) (A) (A) (A)
                 (A) (A) (A) (A) (A) (A) (A) (A) (A) (A) (A) (A)
                 (A) (A) (A) (A) (A) (A) (A) (A) (A) (A) (A) (A)
                 (A) (A) (A) (A) (A) (A) (A) (A) (A) (A) (A) (A)
                 (A) (A) (A) (A) (A) (A) (A) (A) (A) (A) (A) (A)
                 (A) (A) (A) (A) (A) (A) (A) (A) (A) (A) (A) (A)
                 (A) (A) (A) (A) (A) (A) (A) (A) (A) (A) (A) (A)
                 (A) (A) (A) (A) (A) (A) (A) (A) (A) (A) (A) (A)
                 (A) (A) (A) (A) (A) (A) (A) (A) (A) (A) (A) (A)
                 (A) (A) (A) (A) (A) (A) (A) (A) (A) (A) (A) (A)
                 (A) (A) (A) (A) (A) (A) (A) (A) (A) (A) (A) (A)
                 (A) (A) (A) (A) (A) (A) (A) (A) (A) (A) (A) (A)
                 (A) (A) (A) (A) (A) (A) (A) (A) (A) (A) (A) (A)
                 (A) (A) (A) (A) (A) (A) (A) (A) (A) (A) (A) (A)
                 (A) (A) (A) (A) (A) (A) (A) (A) (A) (A) (A) (A)
                 (A) (A) (A) (A) (A) (A) (A) (A) (A) (A) (A) (A)
                 (A) (A) (A) (A) (A) (A) (A) (A) (A) (A) (A) (A)
                 (A) (A) (A) (A) (A) (A) (A) (A) (A) (A) (A) (A)
                 (A) (A) (A) (A) (A) (A) (A) (A) (A) (A) (A) (A)
                 (A) (A) (A) (A) (A) (A) (A) (A) (A) (A) (A) (A)
                 (A) (A) (A) (A) (A) (A) (A) (A) (A) (A) (A) (A)
                 (A) (A) (A) (A) (A) (A) (A) (A) (A) (A) (A) (A)
                 (A) (A) (A)
 The electronic state is 1-A.
 Alpha  occ. eigenvalues -- -145.41503 -19.16729 -19.13033 -19.11663 -19.10768
 Alpha  occ. eigenvalues --  -19.10485 -19.09514 -19.09367 -19.09201 -19.08360
 Alpha  occ. eigenvalues --  -19.07984 -19.07725 -19.07282 -19.07099 -19.06504
 Alpha  occ. eigenvalues --  -19.06219 -19.06010 -19.05572 -19.05309 -19.05134
 Alpha  occ. eigenvalues --  -19.05103 -19.03374 -18.99141 -18.96860 -15.47483
 Alpha  occ. eigenvalues --  -14.59199 -14.37564 -14.36676 -14.36208 -14.35543
 Alpha  occ. eigenvalues --  -14.35421 -14.35238 -14.34489 -14.34146 -14.33715
 Alpha  occ. eigenvalues --  -14.33520 -14.33150 -14.32548 -14.32077 -14.29934
 Alpha  occ. eigenvalues --  -12.61102 -12.61064 -12.60958 -10.34954 -10.29429
 Alpha  occ. eigenvalues --  -10.29204 -10.28152 -10.28094 -10.27740 -10.27384
 Alpha  occ. eigenvalues --  -10.27157 -10.27115 -10.27037 -10.26819 -10.26164
 Alpha  occ. eigenvalues --  -10.26029 -10.25480 -10.25440 -10.25118 -10.24874
 Alpha  occ. eigenvalues --  -10.24512 -10.24386 -10.24269 -10.24214 -10.23887
 Alpha  occ. eigenvalues --  -10.23768 -10.23391 -10.23388 -10.23156 -10.22904
 Alpha  occ. eigenvalues --  -10.22873 -10.21646 -10.21491 -10.21352 -10.21247
 Alpha  occ. eigenvalues --  -10.21056 -10.20312 -10.19573 -10.19547 -10.19510
 Alpha  occ. eigenvalues --  -10.19425 -10.19372 -10.19340 -10.19249 -10.18960
 Alpha  occ. eigenvalues --  -10.18742 -10.18089 -10.17931 -10.17654 -10.16685
 Alpha  occ. eigenvalues --  -10.16553 -10.15541 -10.15171 -10.14939 -10.14747
 Alpha  occ. eigenvalues --  -10.13299 -10.12889  -1.84226  -1.14214  -1.11925
 Alpha  occ. eigenvalues --   -1.11652  -1.11023  -1.05049  -1.04081  -1.03051
 Alpha  occ. eigenvalues --   -1.02968  -1.02913  -1.02235  -1.01875  -1.01413
 Alpha  occ. eigenvalues --   -1.01349  -1.01255  -1.00767  -1.00616  -1.00584
 Alpha  occ. eigenvalues --   -1.00255  -1.00099  -0.99459  -0.98886  -0.97867
 Alpha  occ. eigenvalues --   -0.96949  -0.94195  -0.93287  -0.93167  -0.92830
 Alpha  occ. eigenvalues --   -0.92572  -0.91376  -0.91215  -0.91200  -0.90797
 Alpha  occ. eigenvalues --   -0.90121  -0.89672  -0.89540  -0.89320  -0.89241
 Alpha  occ. eigenvalues --   -0.89049  -0.89037  -0.88657  -0.85919  -0.85050
 Alpha  occ. eigenvalues --   -0.82398  -0.82099  -0.80721  -0.79911  -0.78587
 Alpha  occ. eigenvalues --   -0.78080  -0.77473  -0.77202  -0.76940  -0.75837
 Alpha  occ. eigenvalues --   -0.74924  -0.74670  -0.74658  -0.74107  -0.72703
 Alpha  occ. eigenvalues --   -0.72270  -0.71475  -0.71408  -0.71010  -0.70272
 Alpha  occ. eigenvalues --   -0.69833  -0.68537  -0.68422  -0.68355  -0.68323
 Alpha  occ. eigenvalues --   -0.67889  -0.65982  -0.65857  -0.64061  -0.64030
 Alpha  occ. eigenvalues --   -0.63533  -0.62394  -0.62102  -0.61961  -0.61089
 Alpha  occ. eigenvalues --   -0.60626  -0.60503  -0.60037  -0.59586  -0.59512
 Alpha  occ. eigenvalues --   -0.59335  -0.58438  -0.58422  -0.57569  -0.57391
 Alpha  occ. eigenvalues --   -0.57045  -0.56718  -0.56581  -0.56447  -0.56165
 Alpha  occ. eigenvalues --   -0.56043  -0.55304  -0.55291  -0.55175  -0.54550
 Alpha  occ. eigenvalues --   -0.54508  -0.53713  -0.53481  -0.53328  -0.52893
 Alpha  occ. eigenvalues --   -0.52375  -0.52108  -0.52087  -0.51997  -0.51578
 Alpha  occ. eigenvalues --   -0.51328  -0.50265  -0.50087  -0.49694  -0.49526
 Alpha  occ. eigenvalues --   -0.48996  -0.48778  -0.48520  -0.48496  -0.48368
 Alpha  occ. eigenvalues --   -0.47896  -0.47777  -0.47355  -0.47206  -0.46931
 Alpha  occ. eigenvalues --   -0.46606  -0.46229  -0.46060  -0.45488  -0.45405
 Alpha  occ. eigenvalues --   -0.45112  -0.45009  -0.44885  -0.44792  -0.44661
 Alpha  occ. eigenvalues --   -0.44457  -0.44310  -0.44203  -0.44046  -0.44037
 Alpha  occ. eigenvalues --   -0.43866  -0.43785  -0.43409  -0.43245  -0.42957
 Alpha  occ. eigenvalues --   -0.42862  -0.42754  -0.42668  -0.42503  -0.42306
 Alpha  occ. eigenvalues --   -0.42271  -0.42232  -0.42038  -0.41447  -0.41248
 Alpha  occ. eigenvalues --   -0.41210  -0.41036  -0.40848  -0.40763  -0.40633
 Alpha  occ. eigenvalues --   -0.40556  -0.40487  -0.40413  -0.40331  -0.40148
 Alpha  occ. eigenvalues --   -0.40077  -0.40019  -0.39756  -0.39691  -0.39344
 Alpha  occ. eigenvalues --   -0.39305  -0.39219  -0.39120  -0.39025  -0.38869
 Alpha  occ. eigenvalues --   -0.38826  -0.38601  -0.38348  -0.38072  -0.37936
 Alpha  occ. eigenvalues --   -0.37841  -0.37737  -0.37681  -0.37485  -0.37356
 Alpha  occ. eigenvalues --   -0.37209  -0.37130  -0.36928  -0.36663  -0.36427
 Alpha  occ. eigenvalues --   -0.36279  -0.36231  -0.36084  -0.36016  -0.35859
 Alpha  occ. eigenvalues --   -0.35781  -0.35726  -0.35504  -0.35483  -0.35336
 Alpha  occ. eigenvalues --   -0.35124  -0.34857  -0.34710  -0.34415  -0.34349
 Alpha  occ. eigenvalues --   -0.34086  -0.33886  -0.33733  -0.33422  -0.33396
 Alpha  occ. eigenvalues --   -0.32930  -0.32925  -0.32815  -0.32732  -0.32424
 Alpha  occ. eigenvalues --   -0.31446  -0.31221  -0.31010  -0.30195  -0.29838
 Alpha  occ. eigenvalues --   -0.29254  -0.28818  -0.28442  -0.28347  -0.28214
 Alpha  occ. eigenvalues --   -0.27804  -0.27659  -0.27347  -0.27255  -0.26736
 Alpha  occ. eigenvalues --   -0.26467  -0.26190  -0.26168  -0.25878  -0.25611
 Alpha  occ. eigenvalues --   -0.25187  -0.24873  -0.24814  -0.24740  -0.24616
 Alpha  occ. eigenvalues --   -0.24524  -0.24286  -0.24000  -0.23729  -0.23411
 Alpha  occ. eigenvalues --   -0.23283  -0.23176  -0.22885  -0.22705  -0.22597
 Alpha  occ. eigenvalues --   -0.22439  -0.22419  -0.22219  -0.21872  -0.21565
 Alpha  occ. eigenvalues --   -0.21294  -0.20976  -0.20510  -0.20132  -0.19237
 Alpha  occ. eigenvalues --   -0.16255  -0.15571  -0.12713
 Alpha virt. eigenvalues --   -0.11487  -0.05420  -0.04698  -0.03505  -0.01721
 Alpha virt. eigenvalues --   -0.01237  -0.00139   0.00017   0.00225   0.00720
 Alpha virt. eigenvalues --    0.01299   0.01700   0.01777   0.02296   0.02437
 Alpha virt. eigenvalues --    0.02625   0.02830   0.03036   0.03110   0.03621
 Alpha virt. eigenvalues --    0.03764   0.04105   0.04287   0.04497   0.04634
 Alpha virt. eigenvalues --    0.04709   0.04763   0.04909   0.05186   0.05227
 Alpha virt. eigenvalues --    0.05359   0.05859   0.06116   0.06247   0.06366
 Alpha virt. eigenvalues --    0.06707   0.06792   0.07153   0.07357   0.07583
 Alpha virt. eigenvalues --    0.07734   0.07871   0.08172   0.08476   0.08603
 Alpha virt. eigenvalues --    0.09012   0.09334   0.09499   0.09544   0.09827
 Alpha virt. eigenvalues --    0.09950   0.10355   0.10492   0.10693   0.11259
 Alpha virt. eigenvalues --    0.11299   0.11392   0.11595   0.11919   0.12058
 Alpha virt. eigenvalues --    0.12090   0.12414   0.12525   0.12661   0.12725
 Alpha virt. eigenvalues --    0.12780   0.12934   0.13064   0.13373   0.13488
 Alpha virt. eigenvalues --    0.13786   0.13847   0.14205   0.14220   0.14386
 Alpha virt. eigenvalues --    0.14516   0.14729   0.14779   0.14982   0.15065
 Alpha virt. eigenvalues --    0.15180   0.15197   0.15591   0.15719   0.15839
 Alpha virt. eigenvalues --    0.15987   0.16092   0.16315   0.16768   0.16913
 Alpha virt. eigenvalues --    0.16945   0.17108   0.17162   0.17404   0.17574
 Alpha virt. eigenvalues --    0.17714   0.17882   0.18041   0.18336   0.18530
 Alpha virt. eigenvalues --    0.18630   0.18855   0.18991   0.19158   0.19224
 Alpha virt. eigenvalues --    0.19430   0.19583   0.19869   0.20004   0.20112
 Alpha virt. eigenvalues --    0.20576   0.20617   0.20780   0.20973   0.21415
 Alpha virt. eigenvalues --    0.21438   0.21717   0.21843   0.22214   0.22495
 Alpha virt. eigenvalues --    0.22623   0.22850   0.23079   0.23122   0.23284
 Alpha virt. eigenvalues --    0.23703   0.23753   0.24196   0.24288   0.24460
 Alpha virt. eigenvalues --    0.24706   0.24951   0.25024   0.25241   0.25431
 Alpha virt. eigenvalues --    0.25438   0.25865   0.26022   0.26244   0.26517
 Alpha virt. eigenvalues --    0.26780   0.27242   0.27298   0.27456   0.27861
 Alpha virt. eigenvalues --    0.28057   0.28126   0.28727   0.29115   0.29146
 Alpha virt. eigenvalues --    0.29392   0.29456   0.29988   0.30103   0.30252
 Alpha virt. eigenvalues --    0.30345   0.30677   0.30830   0.31008   0.31049
 Alpha virt. eigenvalues --    0.31609   0.31730   0.31795   0.31989   0.32439
 Alpha virt. eigenvalues --    0.32807   0.32934   0.33201   0.33552   0.34154
 Alpha virt. eigenvalues --    0.34399   0.34675   0.34961   0.35072   0.35246
 Alpha virt. eigenvalues --    0.35408   0.35477   0.36029   0.36245   0.36649
 Alpha virt. eigenvalues --    0.36911   0.37024   0.37288   0.37716   0.38087
 Alpha virt. eigenvalues --    0.38202   0.38316   0.38741   0.39138   0.39386
 Alpha virt. eigenvalues --    0.39686   0.39857   0.39951   0.40175   0.40523
 Alpha virt. eigenvalues --    0.40674   0.40865   0.41395   0.41562   0.41753
 Alpha virt. eigenvalues --    0.42087   0.42136   0.42393   0.42631   0.43021
 Alpha virt. eigenvalues --    0.43354   0.43545   0.43823   0.43916   0.44035
 Alpha virt. eigenvalues --    0.44315   0.44584   0.45108   0.45144   0.45388
 Alpha virt. eigenvalues --    0.45588   0.45690   0.45860   0.45983   0.46287
 Alpha virt. eigenvalues --    0.46466   0.46511   0.46535   0.46705   0.47333
 Alpha virt. eigenvalues --    0.47441   0.47600   0.47770   0.47980   0.48014
 Alpha virt. eigenvalues --    0.48353   0.48455   0.48696   0.48835   0.48947
 Alpha virt. eigenvalues --    0.49292   0.49577   0.49739   0.49842   0.49930
 Alpha virt. eigenvalues --    0.50333   0.50518   0.50737   0.50910   0.51135
 Alpha virt. eigenvalues --    0.51364   0.51499   0.51645   0.51956   0.52147
 Alpha virt. eigenvalues --    0.52316   0.52403   0.52602   0.52669   0.52951
 Alpha virt. eigenvalues --    0.53235   0.53501   0.53668   0.53750   0.54021
 Alpha virt. eigenvalues --    0.54325   0.54548   0.54663   0.54950   0.55282
 Alpha virt. eigenvalues --    0.55450   0.55497   0.55887   0.56017   0.56329
 Alpha virt. eigenvalues --    0.56451   0.56820   0.56906   0.57115   0.57267
 Alpha virt. eigenvalues --    0.57386   0.57703   0.57741   0.58050   0.58196
 Alpha virt. eigenvalues --    0.58286   0.58526   0.58742   0.58932   0.59016
 Alpha virt. eigenvalues --    0.59124   0.59417   0.59590   0.59776   0.60032
 Alpha virt. eigenvalues --    0.60098   0.60211   0.60377   0.60500   0.60633
 Alpha virt. eigenvalues --    0.60712   0.60925   0.61212   0.61295   0.61368
 Alpha virt. eigenvalues --    0.61445   0.61490   0.61603   0.61718   0.61866
 Alpha virt. eigenvalues --    0.62014   0.62134   0.62266   0.62321   0.62492
 Alpha virt. eigenvalues --    0.62876   0.62942   0.62989   0.63060   0.63166
 Alpha virt. eigenvalues --    0.63297   0.63541   0.63698   0.64040   0.64107
 Alpha virt. eigenvalues --    0.64315   0.64359   0.64440   0.64738   0.64896
 Alpha virt. eigenvalues --    0.65008   0.65090   0.65198   0.65320   0.65430
 Alpha virt. eigenvalues --    0.65549   0.65611   0.65669   0.65787   0.65811
 Alpha virt. eigenvalues --    0.65890   0.66011   0.66121   0.66147   0.66335
 Alpha virt. eigenvalues --    0.66524   0.66599   0.66691   0.66798   0.67025
 Alpha virt. eigenvalues --    0.67029   0.67108   0.67205   0.67425   0.67525
 Alpha virt. eigenvalues --    0.67569   0.67687   0.67754   0.67917   0.67949
 Alpha virt. eigenvalues --    0.68086   0.68192   0.68295   0.68320   0.68452
 Alpha virt. eigenvalues --    0.68586   0.68644   0.68673   0.68794   0.68972
 Alpha virt. eigenvalues --    0.69063   0.69136   0.69172   0.69319   0.69419
 Alpha virt. eigenvalues --    0.69572   0.69674   0.69759   0.69835   0.70054
 Alpha virt. eigenvalues --    0.70090   0.70316   0.70367   0.70561   0.70652
 Alpha virt. eigenvalues --    0.70821   0.70984   0.71011   0.71088   0.71249
 Alpha virt. eigenvalues --    0.71292   0.71583   0.71759   0.72004   0.72240
 Alpha virt. eigenvalues --    0.72418   0.72569   0.72685   0.72822   0.73122
 Alpha virt. eigenvalues --    0.73188   0.73306   0.73422   0.73643   0.73757
 Alpha virt. eigenvalues --    0.73878   0.74031   0.74133   0.74611   0.74791
 Alpha virt. eigenvalues --    0.74842   0.75105   0.75330   0.75399   0.75605
 Alpha virt. eigenvalues --    0.75756   0.75865   0.75978   0.76123   0.76506
 Alpha virt. eigenvalues --    0.76621   0.76742   0.77057   0.77168   0.77462
 Alpha virt. eigenvalues --    0.77734   0.77785   0.78001   0.78100   0.78192
 Alpha virt. eigenvalues --    0.78478   0.78742   0.78997   0.79295   0.79608
 Alpha virt. eigenvalues --    0.79867   0.80236   0.80534   0.80686   0.80774
 Alpha virt. eigenvalues --    0.81070   0.81480   0.81525   0.81841   0.82300
 Alpha virt. eigenvalues --    0.82362   0.82510   0.82751   0.83053   0.83098
 Alpha virt. eigenvalues --    0.83399   0.83639   0.83981   0.84363   0.84654
 Alpha virt. eigenvalues --    0.84865   0.85378   0.85625   0.85751   0.86002
 Alpha virt. eigenvalues --    0.86201   0.86775   0.86885   0.87132   0.87345
 Alpha virt. eigenvalues --    0.87787   0.88198   0.88706   0.88872   0.89158
 Alpha virt. eigenvalues --    0.89260   0.89430   0.89793   0.90720   0.90852
 Alpha virt. eigenvalues --    0.90914   0.91355   0.91437   0.91605   0.91689
 Alpha virt. eigenvalues --    0.92108   0.92650   0.92844   0.93156   0.93562
 Alpha virt. eigenvalues --    0.93921   0.94219   0.94486   0.95129   0.95275
 Alpha virt. eigenvalues --    0.95536   0.95736   0.95969   0.96093   0.96147
 Alpha virt. eigenvalues --    0.96538   0.96765   0.96987   0.97339   0.97621
 Alpha virt. eigenvalues --    0.97670   0.97950   0.98261   0.98321   0.98408
 Alpha virt. eigenvalues --    0.98754   0.99484   0.99623   0.99878   1.00154
 Alpha virt. eigenvalues --    1.00433   1.00683   1.00699   1.01030   1.01317
 Alpha virt. eigenvalues --    1.01679   1.01749   1.02006   1.02515   1.02662
 Alpha virt. eigenvalues --    1.02833   1.03311   1.03621   1.04078   1.04646
 Alpha virt. eigenvalues --    1.04819   1.05100   1.05507   1.05596   1.06102
 Alpha virt. eigenvalues --    1.06448   1.06641   1.06714   1.06904   1.07333
 Alpha virt. eigenvalues --    1.07360   1.07650   1.08015   1.08499   1.08950
 Alpha virt. eigenvalues --    1.09093   1.09587   1.09662   1.09723   1.09904
 Alpha virt. eigenvalues --    1.09982   1.10285   1.10341   1.10659   1.11099
 Alpha virt. eigenvalues --    1.11485   1.11616   1.11883   1.11996   1.12264
 Alpha virt. eigenvalues --    1.12353   1.12503   1.13041   1.13142   1.13649
 Alpha virt. eigenvalues --    1.14017   1.14240   1.14664   1.14725   1.15363
 Alpha virt. eigenvalues --    1.15445   1.15648   1.16124   1.16167   1.16531
 Alpha virt. eigenvalues --    1.16871   1.17381   1.17622   1.17784   1.18112
 Alpha virt. eigenvalues --    1.18148   1.18278   1.18814   1.19067   1.19652
 Alpha virt. eigenvalues --    1.19934   1.20234   1.20362   1.20462   1.20675
 Alpha virt. eigenvalues --    1.21002   1.21328   1.21686   1.22009   1.22254
 Alpha virt. eigenvalues --    1.22338   1.22559   1.22786   1.23060   1.23218
 Alpha virt. eigenvalues --    1.23498   1.23629   1.23900   1.24065   1.24084
 Alpha virt. eigenvalues --    1.24337   1.24406   1.25098   1.25232   1.25423
 Alpha virt. eigenvalues --    1.25682   1.25910   1.25980   1.26170   1.26580
 Alpha virt. eigenvalues --    1.26788   1.27162   1.27205   1.27485   1.27932
 Alpha virt. eigenvalues --    1.28292   1.28341   1.28566   1.28636   1.28879
 Alpha virt. eigenvalues --    1.28980   1.29100   1.29562   1.29918   1.30460
 Alpha virt. eigenvalues --    1.30721   1.31072   1.31627   1.31695   1.32188
 Alpha virt. eigenvalues --    1.32405   1.32618   1.32857   1.33137   1.33481
 Alpha virt. eigenvalues --    1.33496   1.33962   1.34304   1.34403   1.34962
 Alpha virt. eigenvalues --    1.35151   1.35436   1.35472   1.36057   1.36278
 Alpha virt. eigenvalues --    1.36606   1.36817   1.37419   1.37500   1.38023
 Alpha virt. eigenvalues --    1.38183   1.38771   1.39180   1.39362   1.40009
 Alpha virt. eigenvalues --    1.40304   1.40755   1.40872   1.41169   1.41615
 Alpha virt. eigenvalues --    1.41713   1.41795   1.42049   1.42462   1.42852
 Alpha virt. eigenvalues --    1.43298   1.43525   1.44070   1.44268   1.44374
 Alpha virt. eigenvalues --    1.44733   1.44907   1.45308   1.45401   1.45709
 Alpha virt. eigenvalues --    1.46330   1.46420   1.46663   1.46815   1.47216
 Alpha virt. eigenvalues --    1.47351   1.47492   1.47848   1.48206   1.48304
 Alpha virt. eigenvalues --    1.48781   1.49109   1.49661   1.49842   1.49942
 Alpha virt. eigenvalues --    1.50160   1.50429   1.50769   1.50987   1.51180
 Alpha virt. eigenvalues --    1.51398   1.51756   1.52342   1.52624   1.52826
 Alpha virt. eigenvalues --    1.52954   1.53233   1.53909   1.54041   1.54292
 Alpha virt. eigenvalues --    1.54605   1.54834   1.55836   1.56091   1.56440
 Alpha virt. eigenvalues --    1.56718   1.56865   1.57432   1.57801   1.58217
 Alpha virt. eigenvalues --    1.58543   1.58658   1.58878   1.59311   1.59604
 Alpha virt. eigenvalues --    1.59768   1.59853   1.60307   1.60766   1.61244
 Alpha virt. eigenvalues --    1.61362   1.61660   1.61794   1.62772   1.63213
 Alpha virt. eigenvalues --    1.63652   1.63776   1.63896   1.64669   1.64697
 Alpha virt. eigenvalues --    1.64743   1.64860   1.65128   1.65317   1.65448
 Alpha virt. eigenvalues --    1.65467   1.65728   1.65944   1.66404   1.66975
 Alpha virt. eigenvalues --    1.66987   1.67135   1.67689   1.67917   1.68422
 Alpha virt. eigenvalues --    1.69097   1.69549   1.69607   1.69866   1.69932
 Alpha virt. eigenvalues --    1.70241   1.70316   1.70721   1.70931   1.71062
 Alpha virt. eigenvalues --    1.71621   1.71712   1.72179   1.72551   1.72851
 Alpha virt. eigenvalues --    1.73250   1.73591   1.73691   1.73892   1.74266
 Alpha virt. eigenvalues --    1.74422   1.74575   1.74984   1.75032   1.75096
 Alpha virt. eigenvalues --    1.75275   1.75654   1.75911   1.76224   1.76316
 Alpha virt. eigenvalues --    1.76515   1.76644   1.76935   1.76966   1.77142
 Alpha virt. eigenvalues --    1.77268   1.77307   1.77401   1.77448   1.77735
 Alpha virt. eigenvalues --    1.77928   1.78149   1.78329   1.78560   1.78677
 Alpha virt. eigenvalues --    1.78859   1.78918   1.79122   1.79166   1.79310
 Alpha virt. eigenvalues --    1.79415   1.79684   1.80176   1.80204   1.80410
 Alpha virt. eigenvalues --    1.80543   1.80622   1.80906   1.80999   1.81150
 Alpha virt. eigenvalues --    1.81383   1.81631   1.81805   1.82013   1.82036
 Alpha virt. eigenvalues --    1.82257   1.82465   1.82569   1.82766   1.82990
 Alpha virt. eigenvalues --    1.83143   1.83223   1.83392   1.83683   1.83806
 Alpha virt. eigenvalues --    1.83860   1.84200   1.84653   1.84932   1.84993
 Alpha virt. eigenvalues --    1.85193   1.85608   1.85807   1.85936   1.86145
 Alpha virt. eigenvalues --    1.86325   1.86549   1.86788   1.87078   1.87104
 Alpha virt. eigenvalues --    1.87313   1.87461   1.87541   1.87664   1.87908
 Alpha virt. eigenvalues --    1.88170   1.88236   1.88600   1.88768   1.88797
 Alpha virt. eigenvalues --    1.88921   1.89459   1.89591   1.89890   1.90246
 Alpha virt. eigenvalues --    1.90310   1.90494   1.90634   1.90834   1.91006
 Alpha virt. eigenvalues --    1.91013   1.91196   1.91518   1.91545   1.91749
 Alpha virt. eigenvalues --    1.92046   1.92270   1.92453   1.92690   1.92899
 Alpha virt. eigenvalues --    1.92952   1.93395   1.93591   1.93899   1.93977
 Alpha virt. eigenvalues --    1.94309   1.94623   1.94693   1.94938   1.94948
 Alpha virt. eigenvalues --    1.95209   1.95576   1.95794   1.95924   1.96314
 Alpha virt. eigenvalues --    1.96396   1.96492   1.96568   1.96743   1.97135
 Alpha virt. eigenvalues --    1.97376   1.97759   1.98131   1.98174   1.98528
 Alpha virt. eigenvalues --    1.98637   1.98741   1.98950   1.99194   1.99290
 Alpha virt. eigenvalues --    1.99487   1.99915   2.00241   2.00458   2.00545
 Alpha virt. eigenvalues --    2.00691   2.00968   2.01198   2.01333   2.01567
 Alpha virt. eigenvalues --    2.01868   2.01897   2.02176   2.02644   2.02734
 Alpha virt. eigenvalues --    2.03024   2.03137   2.03304   2.03639   2.03925
 Alpha virt. eigenvalues --    2.03998   2.04465   2.04802   2.05117   2.05142
 Alpha virt. eigenvalues --    2.05204   2.05586   2.05983   2.06516   2.06787
 Alpha virt. eigenvalues --    2.07112   2.07324   2.07553   2.07693   2.08044
 Alpha virt. eigenvalues --    2.08179   2.08256   2.08561   2.08975   2.09045
 Alpha virt. eigenvalues --    2.09229   2.09469   2.09731   2.10010   2.10458
 Alpha virt. eigenvalues --    2.11083   2.11338   2.11441   2.11811   2.11997
 Alpha virt. eigenvalues --    2.12118   2.12393   2.12784   2.13017   2.13139
 Alpha virt. eigenvalues --    2.13247   2.13597   2.13838   2.14475   2.14578
 Alpha virt. eigenvalues --    2.14873   2.15181   2.15387   2.15641   2.15948
 Alpha virt. eigenvalues --    2.16184   2.16374   2.16703   2.17101   2.17496
 Alpha virt. eigenvalues --    2.17632   2.18018   2.18457   2.18539   2.18881
 Alpha virt. eigenvalues --    2.19447   2.19485   2.19960   2.20210   2.20663
 Alpha virt. eigenvalues --    2.21330   2.21485   2.21732   2.22503   2.22737
 Alpha virt. eigenvalues --    2.22807   2.23078   2.23684   2.23993   2.24513
 Alpha virt. eigenvalues --    2.24670   2.24804   2.25125   2.25320   2.25689
 Alpha virt. eigenvalues --    2.26428   2.26576   2.26619   2.27438   2.27736
 Alpha virt. eigenvalues --    2.28423   2.28665   2.28798   2.28871   2.29107
 Alpha virt. eigenvalues --    2.29374   2.29459   2.29911   2.30352   2.30603
 Alpha virt. eigenvalues --    2.30796   2.31283   2.31535   2.31632   2.31987
 Alpha virt. eigenvalues --    2.32221   2.33054   2.33433   2.33854   2.34077
 Alpha virt. eigenvalues --    2.34684   2.34929   2.35168   2.35295   2.35670
 Alpha virt. eigenvalues --    2.35904   2.36052   2.36255   2.36475   2.36874
 Alpha virt. eigenvalues --    2.37546   2.37652   2.37951   2.38024   2.38355
 Alpha virt. eigenvalues --    2.38997   2.39046   2.39419   2.39857   2.39981
 Alpha virt. eigenvalues --    2.40210   2.40610   2.40988   2.41136   2.41332
 Alpha virt. eigenvalues --    2.41606   2.41833   2.42059   2.42492   2.42645
 Alpha virt. eigenvalues --    2.43754   2.43909   2.44037   2.44177   2.44521
 Alpha virt. eigenvalues --    2.44935   2.45001   2.45351   2.46303   2.46597
 Alpha virt. eigenvalues --    2.47250   2.47478   2.47678   2.47924   2.48175
 Alpha virt. eigenvalues --    2.48416   2.49247   2.49323   2.49899   2.49974
 Alpha virt. eigenvalues --    2.50720   2.51093   2.51283   2.51796   2.51958
 Alpha virt. eigenvalues --    2.52182   2.52553   2.53449   2.53787   2.53955
 Alpha virt. eigenvalues --    2.54264   2.54505   2.54973   2.55033   2.55541
 Alpha virt. eigenvalues --    2.56087   2.56800   2.56871   2.57405   2.57621
 Alpha virt. eigenvalues --    2.57930   2.58015   2.58610   2.58708   2.59089
 Alpha virt. eigenvalues --    2.59134   2.59731   2.59899   2.59924   2.60325
 Alpha virt. eigenvalues --    2.60441   2.60847   2.60954   2.61639   2.62065
 Alpha virt. eigenvalues --    2.62217   2.62610   2.62785   2.63413   2.63550
 Alpha virt. eigenvalues --    2.63917   2.63927   2.64574   2.64980   2.65212
 Alpha virt. eigenvalues --    2.65530   2.65587   2.65907   2.66251   2.66923
 Alpha virt. eigenvalues --    2.67133   2.67607   2.67824   2.68014   2.68373
 Alpha virt. eigenvalues --    2.68573   2.68704   2.69108   2.69185   2.69196
 Alpha virt. eigenvalues --    2.69447   2.69746   2.69980   2.70068   2.70851
 Alpha virt. eigenvalues --    2.71155   2.71326   2.71733   2.72022   2.72097
 Alpha virt. eigenvalues --    2.72133   2.72212   2.72766   2.72800   2.73521
 Alpha virt. eigenvalues --    2.73926   2.74078   2.74255   2.74601   2.74951
 Alpha virt. eigenvalues --    2.75227   2.75480   2.75743   2.76287   2.76454
 Alpha virt. eigenvalues --    2.76770   2.77203   2.77608   2.77801   2.77904
 Alpha virt. eigenvalues --    2.78174   2.78321   2.78566   2.78804   2.79321
 Alpha virt. eigenvalues --    2.79379   2.79434   2.79589   2.79730   2.79957
 Alpha virt. eigenvalues --    2.80251   2.80440   2.80637   2.81006   2.81206
 Alpha virt. eigenvalues --    2.81277   2.81629   2.81788   2.82188   2.82454
 Alpha virt. eigenvalues --    2.82527   2.82739   2.82841   2.83341   2.84022
 Alpha virt. eigenvalues --    2.84369   2.85654   2.85705   2.85965   2.86089
 Alpha virt. eigenvalues --    2.86501   2.87023   2.87081   2.87543   2.88230
 Alpha virt. eigenvalues --    2.88266   2.88881   2.89262   2.89601   2.89678
 Alpha virt. eigenvalues --    2.89912   2.90431   2.90466   2.90894   2.91095
 Alpha virt. eigenvalues --    2.91248   2.91359   2.91512   2.91918   2.92432
 Alpha virt. eigenvalues --    2.92540   2.92859   2.93219   2.93251   2.93820
 Alpha virt. eigenvalues --    2.93959   2.94217   2.94583   2.94670   2.94941
 Alpha virt. eigenvalues --    2.95239   2.95488   2.95537   2.95908   2.96297
 Alpha virt. eigenvalues --    2.96508   2.96755   2.96821   2.97195   2.97530
 Alpha virt. eigenvalues --    2.97644   2.98087   2.98657   2.99348   2.99483
 Alpha virt. eigenvalues --    2.99962   3.00284   3.00536   3.00839   3.01648
 Alpha virt. eigenvalues --    3.01788   3.01924   3.01994   3.02191   3.02885
 Alpha virt. eigenvalues --    3.03217   3.03673   3.04233   3.04463   3.04487
 Alpha virt. eigenvalues --    3.05097   3.05564   3.05861   3.06109   3.06220
 Alpha virt. eigenvalues --    3.07277   3.07524   3.07813   3.08180   3.08514
 Alpha virt. eigenvalues --    3.09481   3.10009   3.10914   3.11215   3.13026
 Alpha virt. eigenvalues --    3.13248   3.13496   3.14662   3.15099   3.15331
 Alpha virt. eigenvalues --    3.15437   3.15599   3.16320   3.16418   3.17499
 Alpha virt. eigenvalues --    3.17568   3.17588   3.17805   3.17822   3.18285
 Alpha virt. eigenvalues --    3.18484   3.18729   3.18941   3.19051   3.19430
 Alpha virt. eigenvalues --    3.19821   3.20022   3.20282   3.20545   3.21006
 Alpha virt. eigenvalues --    3.21151   3.21364   3.21440   3.22143   3.22445
 Alpha virt. eigenvalues --    3.22834   3.23440   3.23705   3.23731   3.24286
 Alpha virt. eigenvalues --    3.25186   3.25801   3.26521   3.26806   3.27024
 Alpha virt. eigenvalues --    3.27383   3.28439   3.29019   3.29181   3.29735
 Alpha virt. eigenvalues --    3.30090   3.30645   3.31252   3.32409   3.33822
 Alpha virt. eigenvalues --    3.35018   3.35172   3.35556   3.37617   3.38316
 Alpha virt. eigenvalues --    3.41276   3.43990   3.46487   3.48511   3.51854
 Alpha virt. eigenvalues --    3.53301   3.53622   3.54582   3.54751   3.55968
 Alpha virt. eigenvalues --    3.56369   3.57254   3.57793   3.58592   3.58767
 Alpha virt. eigenvalues --    3.59229   3.59928   3.60057   3.61081   3.63537
 Alpha virt. eigenvalues --    3.65669   3.66189   3.66789   3.67051   3.67396
 Alpha virt. eigenvalues --    3.68732   3.69239   3.69455   3.69566   3.69979
 Alpha virt. eigenvalues --    3.70132   3.70332   3.70743   3.70770   3.71147
 Alpha virt. eigenvalues --    3.71771   3.71859   3.73554   3.74057   3.74430
 Alpha virt. eigenvalues --    3.77067   3.79840   3.80114   3.96716
          Condensed to atoms (all electrons):
 Mulliken charges:
               1
     1  C    0.068573
     2  C   -0.007330
     3  O   -0.292064
     4  H    0.023794
     5  H   -0.011556
     6  H    0.041851
     7  N   -0.129428
     8  C    0.142403
     9  C    0.104478
    10  O   -0.343334
    11  C    0.050632
    12  C    0.053107
    13  O   -0.415689
    14  O   -0.334573
    15  H    0.098348
    16  H   -0.026098
    17  H    0.008886
    18  H    0.023243
    19  N   -0.117101
    20  C    0.158823
    21  C    0.060942
    22  O   -0.250966
    23  C   -0.003025
    24  C    0.015822
    25  C   -0.001395
    26  C    0.022592
    27  N    0.103410
    28  H    0.118057
    29  H   -0.024677
    30  H    0.043761
    31  H    0.010838
    32  H   -0.004449
    33  H    0.037930
    34  H    0.058234
    35  H    0.003315
    36  H    0.042279
    37  H    0.083232
    38  H    0.166097
    39  H    0.169508
    40  H    0.172999
    41  N   -0.146234
    42  C    0.107165
    43  C    0.062685
    44  O   -0.292735
    45  C    0.167520
    46  C    0.076353
    47  O   -0.437143
    48  O   -0.426453
    49  H    0.113978
    50  H    0.031959
    51  H   -0.015315
    52  H    0.031532
    53  N   -0.134474
    54  C    0.247648
    55  C   -0.026248
    56  O   -0.254773
    57  H    0.118541
    58  H   -0.019201
    59  H    0.072076
    60  N   -0.117433
    61  C    0.071317
    62  C    0.078716
    63  O   -0.275111
    64  C    0.065728
    65  C    0.017042
    66  N   -0.029333
    67  O   -0.263560
    68  H    0.133621
    69  H    0.009270
    70  H    0.029199
    71  H    0.036405
    72  H    0.117908
    73  H    0.139167
    74  N   -0.125572
    75  C    0.173172
    76  C    0.030889
    77  O   -0.292063
    78  H    0.128323
    79  H    0.072279
    80  H    0.043424
    81  N   -0.100494
    82  C    0.121696
    83  C    0.068692
    84  O   -0.279923
    85  C    0.086562
    86  C   -0.030817
    87  C    0.002216
    88  C   -0.010188
    89  C   -0.016480
    90  C   -0.048135
    91  C    0.176161
    92  O   -0.197624
    93  H    0.120676
    94  H    0.005560
    95  H    0.007649
    96  H    0.010145
    97  H   -0.019917
    98  H   -0.030496
    99  H   -0.023830
   100  H   -0.045298
   101  H    0.178795
   102  N   -0.152799
   103  C    0.164364
   104  C    0.033129
   105  O   -0.277893
   106  C   -0.098529
   107  C    0.007071
   108  C   -0.011139
   109  C    0.042307
   110  H    0.134751
   111  H    0.031746
   112  H    0.002144
   113  H    0.005300
   114  H   -0.012174
   115  H    0.026904
   116  H    0.028153
   117  H    0.030687
   118  H    0.042148
   119  H    0.006872
   120  H   -0.002668
   121  N   -0.107885
   122  C    0.114641
   123  C    0.090330
   124  O   -0.299076
   125  C    0.226046
   126  O   -0.299977
   127  H    0.096967
   128  H    0.005382
   129  H   -0.001001
   130  H   -0.010380
   131  H    0.167364
   132  N   -0.119361
   133  C    0.071344
   134  C    0.087113
   135  O   -0.262961
   136  C    0.055071
   137  H    0.123600
   138  H   -0.013960
   139  H    0.009524
   140  H    0.033906
   141  H    0.029732
   142  N   -0.146261
   143  C    0.078910
   144  C    0.056037
   145  O   -0.283101
   146  C    0.062420
   147  H    0.124190
   148  H    0.018538
   149  H    0.042074
   150  H    0.022610
   151  H   -0.021500
   152  N   -0.104899
   153  C    0.125592
   154  C    0.065844
   155  O   -0.284474
   156  C   -0.000152
   157  C    0.140166
   158  C    0.120463
   159  O   -0.445044
   160  O   -0.439490
   161  H    0.112798
   162  H    0.039998
   163  H    0.034175
   164  H   -0.025829
   165  H   -0.000998
   166  H    0.009787
   167  N   -0.150506
   168  C    0.132889
   169  H    0.020267
   170  H    0.037676
   171  H    0.009222
   172  H    0.082010
   173  Ca   1.339956
   174  O   -0.344562
   175  H    0.192991
   176  H    0.164724
 Sum of Mulliken charges =  -0.00000
 Mulliken charges with hydrogens summed into heavy atoms:
               1
     1  C    0.122662
     2  C   -0.007330
     3  O   -0.292064
     7  N   -0.031080
     8  C    0.116304
     9  C    0.104478
    10  O   -0.343334
    11  C    0.082761
    12  C    0.053107
    13  O   -0.415689
    14  O   -0.334573
    19  N    0.000956
    20  C    0.134146
    21  C    0.060942
    22  O   -0.250966
    23  C    0.051575
    24  C    0.049303
    25  C    0.060154
    26  C    0.148103
    27  N    0.612013
    41  N   -0.032257
    42  C    0.139123
    43  C    0.062685
    44  O   -0.292735
    45  C    0.183738
    46  C    0.076353
    47  O   -0.437143
    48  O   -0.426453
    53  N   -0.015934
    54  C    0.300523
    55  C   -0.026248
    56  O   -0.254773
    60  N    0.016188
    61  C    0.080587
    62  C    0.078716
    63  O   -0.275111
    64  C    0.131332
    65  C    0.017042
    66  N    0.227742
    67  O   -0.263560
    74  N    0.002752
    75  C    0.288875
    76  C    0.030889
    77  O   -0.292063
    81  N    0.020182
    82  C    0.127256
    83  C    0.068692
    84  O   -0.279923
    85  C    0.104356
    86  C   -0.030817
    87  C   -0.017701
    88  C   -0.040684
    89  C   -0.040310
    90  C   -0.093433
    91  C    0.176161
    92  O   -0.018829
   102  N   -0.018048
   103  C    0.196109
   104  C    0.033129
   105  O   -0.277893
   106  C   -0.096385
   107  C    0.000197
   108  C    0.074606
   109  C    0.088659
   121  N   -0.010918
   122  C    0.120022
   123  C    0.090330
   124  O   -0.299076
   125  C    0.214666
   126  O   -0.132613
   132  N    0.004238
   133  C    0.057384
   134  C    0.087113
   135  O   -0.262961
   136  C    0.128233
   142  N   -0.022071
   143  C    0.097448
   144  C    0.056037
   145  O   -0.283101
   146  C    0.105604
   152  N    0.007898
   153  C    0.165590
   154  C    0.065844
   155  O   -0.284474
   156  C    0.008194
   157  C    0.148955
   158  C    0.120463
   159  O   -0.445044
   160  O   -0.439490
   167  N   -0.068496
   168  C    0.200054
   173  Ca   1.339956
   174  O    0.013153
 DipInt: DoE/N= T F RetVal/Mat= T F Init=T NMatP=  1 IDeriv=0 Min/MaxMlt=  0  4
 Entering OneElI...
 OneElI was handed  1333951383 working-precision words.
 Multipole integrals L=0 to 4 MinM= 0 MaxM= 0.
 Requested accuracy = 0.1000D-12
 ShPair: Thresh= 1.00D-13 NBox=     0 BxSize= 0.00D+00 RnKept= 2.81D+01
         NSMCal=               327645 NSMKep=              135196
 PrmmSu-InSpLW:  IPartL=    0 NPrtUS=    1 NPrtUL=    1 DoSpLW=F IThBeg=    0 IThEnd=    0 NThAct=    1.
 PrsmSu:  NPrtUS=   1 ThrOK=F IAlg=1 NPAlg=1 LenDen=           0 ISkipM=0 DoSpLW=F IThBeg=    0 IThEnd=    0.
 Prism:   IPart=     0 DynPar=F LinDyn=F Incr=         512.
 PRISM was handed  1324883355 working-precision words and135196 shell-pairs
 IPart=  0 NShTot=      135196 NBatch=         313 AvBLen=       431.9
 PrsmSu-ThDecC:  IPartSL=    0    0 NPrtUSL=    1    1 IThBeg=    0 IThEnd=    0 CPU=   -1 GPU=   -1 NThAct=    1.
 PrSmSu:  NxtVal=            513.
 Electronic moments (au):
       -716.00000000          3.93528284         -6.05039383          9.63705533
     -73635.55806506     -31904.78210619     -18313.88533279       -191.85493754
        132.51100853        -48.25675863     -18818.92117810     -41889.30163694
     -29408.53058581      57389.80779149     178842.52411976     -47813.80453035
     -16487.80736426     -31905.28315531     -52568.85661066        104.25076294
  -15693656.82093738   -2959547.03054130   -1204506.59274506     261185.97525656
   -1680653.89110341     -17498.04284832    -473213.29225555     190490.47243399
    -140305.83207420   -2726561.85292836   -1451398.88469255   -1042630.66441898
     671387.28206754     323453.97321395     248892.91415831
 Electronic spatial extent (au):  <R**2>=         123854.2255
 DipInt: DoE/N= F T RetVal/Mat= T F Init=T NMatP=  1 IDeriv=0 Min/MaxMlt=  0  4
 Nuclear    moments (au):
        716.00000000         -0.00000000         -0.00000000          0.00000000
      73489.02767667      31564.38439304      17915.46344779         -0.00000000
          0.00000000          0.00000000      22745.39998533      42104.68869969
      30034.36799374     -56174.69577118    -183511.25346674      51245.69334897
      17391.17047673      31857.96653850      53054.35887684      -1463.54106277
   15602299.47989592    2861326.22398836    1144394.15429327    -334546.52315845
    1739492.30982979       -467.87294813     472823.86235698    -182240.13654249
     136604.01808057    2693673.25687743    1417570.52202136    1021497.96010345
    -696951.15297692    -314210.89894837    -255897.90236391
 Total      moments (au):
         -0.00000000          3.93528284         -6.05039383          9.63705533
       -146.53038839       -340.39771315       -398.42188500       -191.85493754
        132.51100853        -48.25675863       3926.47880723        215.38706275
        625.83740793       1215.11202031      -4668.72934698       3431.88881862
        903.36311247        -47.31661681        485.50226618      -1359.29029983
     -91357.34104146     -98220.80655294     -60112.43845179     -73360.54790190
      58838.41872637     -17965.91579646       -389.42989857       8250.33589150
      -3701.81399363     -32888.59605092     -33828.36267119     -21132.70431553
     -25563.87090937       9243.07426559      -7004.98820560
 Traceless Quadrup. (au):
        148.58627379        -45.28105097       -103.30522282       -191.85493754
        132.51100853        -48.25675863
 Charge=             -0.0000 electrons
 Dipole moment (field-independent basis, Debye):
    X=             10.0025    Y=            -15.3786    Z=             24.4950  Tot=             30.6031
 Quadrupole moment (field-independent basis, Debye-Ang):
   XX=           -197.0884   YY=           -457.8466   ZZ=           -535.8911
   XY=           -258.0515   XZ=            178.2318   YZ=            -64.9070
 Traceless Quadrupole moment (field-independent basis, Debye-Ang):
   XX=            199.8536   YY=            -60.9046   ZZ=           -138.9491
   XY=           -258.0515   XZ=            178.2318   YZ=            -64.9070
 Octapole moment (field-independent basis, Debye-Ang**2):
  XXX=           2794.7163  YYY=            153.3042  ZZZ=            445.4470  XYY=            864.8699
  XXY=          -3323.0217  XXZ=           2442.6862  XZZ=            642.9791  YZZ=            -33.6781
  YYZ=            345.5618  XYZ=           -967.4905
 Hexadecapole moment (field-independent basis, Debye-Ang**3):
 XXXX=         -34409.5554 YYYY=         -36994.6656 ZZZZ=         -22641.2268 XXXY=         -27631.1001
 XXXZ=          22161.3699 YYYX=          -6766.8254 YYYZ=           -146.6780 ZZZX=           3107.4721
 ZZZY=          -1394.2807 XXYY=         -12387.4223 XXZZ=         -12741.3835 YYZZ=          -7959.5898
 XXYZ=          -9628.5796 YYXZ=           3481.3850 ZZXY=          -2638.4145
 N-N= 1.968646681669D+04 E-N=-5.185808044124D+04  KE= 5.290617632794D+03
 Leave Link  601 at Wed Sep 18 14:55:00 2019, MaxMem=  1342177280 cpu:              47.0 elap:               1.2
 FitSet:  NAtFit=   176 NAtPot=   176 NAtFrz=     0 MDM=   180 TotChg=   0.00000
 Merz-Kollman atomic radii used.
 Read replacement radii for each type of atom:
 Rad(20) =   1.700000000000D+00
 Atom Element Radius
    1     6    1.50
    2     6    1.50
    3     8    1.40
    4     1    1.20
    5     1    1.20
    6     1    1.20
    7     7    1.50
    8     6    1.50
    9     6    1.50
   10     8    1.40
   11     6    1.50
   12     6    1.50
   13     8    1.40
   14     8    1.40
   15     1    1.20
   16     1    1.20
   17     1    1.20
   18     1    1.20
   19     7    1.50
   20     6    1.50
   21     6    1.50
   22     8    1.40
   23     6    1.50
   24     6    1.50
   25     6    1.50
   26     6    1.50
   27     7    1.50
   28     1    1.20
   29     1    1.20
   30     1    1.20
   31     1    1.20
   32     1    1.20
   33     1    1.20
   34     1    1.20
   35     1    1.20
   36     1    1.20
   37     1    1.20
   38     1    1.20
   39     1    1.20
   40     1    1.20
   41     7    1.50
   42     6    1.50
   43     6    1.50
   44     8    1.40
   45     6    1.50
   46     6    1.50
   47     8    1.40
   48     8    1.40
   49     1    1.20
   50     1    1.20
   51     1    1.20
   52     1    1.20
   53     7    1.50
   54     6    1.50
   55     6    1.50
   56     8    1.40
   57     1    1.20
   58     1    1.20
   59     1    1.20
   60     7    1.50
   61     6    1.50
   62     6    1.50
   63     8    1.40
   64     6    1.50
   65     6    1.50
   66     7    1.50
   67     8    1.40
   68     1    1.20
   69     1    1.20
   70     1    1.20
   71     1    1.20
   72     1    1.20
   73     1    1.20
   74     7    1.50
   75     6    1.50
   76     6    1.50
   77     8    1.40
   78     1    1.20
   79     1    1.20
   80     1    1.20
   81     7    1.50
   82     6    1.50
   83     6    1.50
   84     8    1.40
   85     6    1.50
   86     6    1.50
   87     6    1.50
   88     6    1.50
   89     6    1.50
   90     6    1.50
   91     6    1.50
   92     8    1.40
   93     1    1.20
   94     1    1.20
   95     1    1.20
   96     1    1.20
   97     1    1.20
   98     1    1.20
   99     1    1.20
  100     1    1.20
  101     1    1.20
  102     7    1.50
  103     6    1.50
  104     6    1.50
  105     8    1.40
  106     6    1.50
  107     6    1.50
  108     6    1.50
  109     6    1.50
  110     1    1.20
  111     1    1.20
  112     1    1.20
  113     1    1.20
  114     1    1.20
  115     1    1.20
  116     1    1.20
  117     1    1.20
  118     1    1.20
  119     1    1.20
  120     1    1.20
  121     7    1.50
  122     6    1.50
  123     6    1.50
  124     8    1.40
  125     6    1.50
  126     8    1.40
  127     1    1.20
  128     1    1.20
  129     1    1.20
  130     1    1.20
  131     1    1.20
  132     7    1.50
  133     6    1.50
  134     6    1.50
  135     8    1.40
  136     6    1.50
  137     1    1.20
  138     1    1.20
  139     1    1.20
  140     1    1.20
  141     1    1.20
  142     7    1.50
  143     6    1.50
  144     6    1.50
  145     8    1.40
  146     6    1.50
  147     1    1.20
  148     1    1.20
  149     1    1.20
  150     1    1.20
  151     1    1.20
  152     7    1.50
  153     6    1.50
  154     6    1.50
  155     8    1.40
  156     6    1.50
  157     6    1.50
  158     6    1.50
  159     8    1.40
  160     8    1.40
  161     1    1.20
  162     1    1.20
  163     1    1.20
  164     1    1.20
  165     1    1.20
  166     1    1.20
  167     7    1.50
[...]
 **** Fit      -0.005263
 **** Fit      -0.006370
 **** Fit      -0.006630
 **** Fit       0.005152
 **** Fit       0.004756
 **** Fit       0.004120
 **** Fit       0.003196
 **** Fit       0.001958
 **** Fit       0.000417
 **** Fit      -0.001379
 **** Fit      -0.003352
 **** Fit      -0.005385
 **** Fit      -0.007304
 **** Fit      -0.008864
 **** Fit      -0.009756
 **** Fit       0.005870
 **** Fit       0.005179
 **** Fit       0.004234
 **** Fit       0.002996
 **** Fit       0.001459
 **** Fit      -0.000357
 **** Fit      -0.002411
 **** Fit      -0.004647
 **** Fit      -0.006993
 **** Fit      -0.009332
 **** Fit      -0.011476
 **** Fit      -0.013135
 **** Fit      -0.013953
 **** Fit       0.007064
 **** Fit       0.006306
 **** Fit       0.005319
 **** Fit       0.004057
 **** Fit       0.002505
 **** Fit       0.000672
 **** Fit      -0.001414
 **** Fit      -0.003723
 **** Fit      -0.006224
 **** Fit      -0.008884
 **** Fit      -0.011644
 **** Fit      -0.014378
 **** Fit      -0.016851
 **** Fit      -0.018696
 **** Fit       0.007539
 **** Fit       0.006402
 **** Fit       0.004968
 **** Fit       0.003219
 **** Fit       0.001164
 **** Fit      -0.001170
 **** Fit      -0.003754
 **** Fit      -0.006570
 **** Fit      -0.009618
 **** Fit      -0.012905
 **** Fit      -0.016404
 **** Fit      -0.019986
 **** Fit      -0.023338
 **** Fit       0.008975
 **** Fit       0.007650
 **** Fit       0.006010
 **** Fit       0.004035
 **** Fit       0.001733
 **** Fit      -0.000865
 **** Fit      -0.003726
 **** Fit      -0.006833
 **** Fit      -0.010207
 **** Fit      -0.013908
 **** Fit      -0.018019
 **** Fit      -0.022576
 **** Fit      -0.027460
 **** Fit       0.009894
 **** Fit       0.008105
 **** Fit       0.005957
 **** Fit       0.003445
 **** Fit       0.000596
 **** Fit      -0.002548
 **** Fit      -0.005950
 **** Fit      -0.009614
 **** Fit      -0.013617
 **** Fit      -0.018122
 **** Fit      -0.023353
 **** Fit       0.007916
 **** Fit       0.004948
 **** Fit       0.001582
 **** Fit      -0.002127
 **** Fit      -0.006117
 **** Fit      -0.010372
 **** Fit      -0.014997
 **** Fit      -0.020274
 **** Fit       0.004500
 **** Fit       0.000207
 **** Fit      -0.004415
 **** Fit      -0.009281
 **** Fit      -0.014427
 **** Fit      -0.004776
 **** Fit      -0.003083
 **** Fit      -0.006622
 **** Fit      -0.005049
 **** Fit      -0.003296
 **** Fit      -0.007579
 **** Fit      -0.008672
 **** Fit      -0.007036
 **** Fit      -0.005333
 **** Fit      -0.003664
 **** Fit      -0.002042
 **** Fit      -0.010718
 **** Fit      -0.010018
 **** Fit      -0.011062
 **** Fit      -0.009204
 **** Fit      -0.007364
 **** Fit      -0.005605
 **** Fit      -0.003934
 **** Fit      -0.002321
 **** Fit      -0.014681
 **** Fit      -0.014120
 **** Fit      -0.012790
 **** Fit      -0.013930
 **** Fit      -0.011730
 **** Fit      -0.009629
 **** Fit      -0.007659
 **** Fit      -0.005820
 **** Fit      -0.004090
 **** Fit      -0.002422
 **** Fit      -0.019814
 **** Fit      -0.019476
 **** Fit      -0.018100
 **** Fit      -0.016129
 **** Fit      -0.017412
 **** Fit      -0.014814
 **** Fit      -0.012405
 **** Fit      -0.010177
 **** Fit      -0.008113
 **** Fit      -0.006196
 **** Fit      -0.004401
 **** Fit      -0.002672
 **** Fit      -0.026604
 **** Fit      -0.025164
 **** Fit      -0.022845
 **** Fit      -0.020146
 **** Fit      -0.021626
 **** Fit      -0.018377
 **** Fit      -0.015457
 **** Fit      -0.012804
 **** Fit      -0.010368
 **** Fit      -0.008120
 **** Fit      -0.006043
 **** Fit      -0.004099
 **** Fit      -0.002196
 **** Fit      -0.029008
 **** Fit      -0.025214
 **** Fit      -0.026651
 **** Fit      -0.022614
 **** Fit      -0.019100
 **** Fit      -0.015970
 **** Fit      -0.013121
 **** Fit      -0.010502
 **** Fit      -0.008094
 **** Fit      -0.005877
 **** Fit      -0.003786
 **** Fit      -0.031324
 **** Fit      -0.032481
 **** Fit      -0.027364
 **** Fit      -0.023079
 **** Fit      -0.019357
 **** Fit      -0.016018
 **** Fit      -0.012967
 **** Fit      -0.010169
 **** Fit      -0.007608
 **** Fit      -0.005237
 **** Fit      -0.032228
 **** Fit      -0.026872
 **** Fit      -0.022380
 **** Fit      -0.018431
 **** Fit      -0.014861
 **** Fit      -0.011607
 **** Fit      -0.008641
 **** Fit      -0.030190
 **** Fit      -0.024866
 **** Fit      -0.020298
 **** Fit      -0.016218
 **** Fit      -0.012520
 **** Fit      -0.032796
 **** Fit      -0.026799
 **** Fit      -0.021777
 **** Fit      -0.017340
 **** Fit      -0.026614
 **** Fit      -0.021285
 **** Fit       0.005371
 **** Fit       0.005969
 **** Fit       0.003957
 **** Fit       0.005004
 **** Fit       0.005924
 **** Fit       0.006615
 **** Fit       0.006999
 **** Fit       0.007030
 **** Fit       0.003670
 **** Fit       0.004786
 **** Fit       0.005824
 **** Fit       0.006719
 **** Fit       0.007421
 **** Fit       0.007883
 **** Fit       0.008066
 **** Fit       0.007946
 **** Fit       0.002396
 **** Fit       0.003603
 **** Fit       0.004789
 **** Fit       0.005901
 **** Fit       0.006901
 **** Fit       0.007758
 **** Fit       0.008440
 **** Fit       0.008912
 **** Fit       0.009136
 **** Fit       0.009077
 **** Fit       0.002264
 **** Fit       0.003526
 **** Fit       0.004745
 **** Fit       0.005896
 **** Fit       0.006959
 **** Fit       0.007920
 **** Fit       0.008762
 **** Fit       0.009462
 **** Fit       0.009989
 **** Fit       0.010299
 **** Fit       0.010347
 **** Fit       0.010099
 **** Fit       0.001319
 **** Fit       0.002707
 **** Fit       0.004038
 **** Fit       0.005299
 **** Fit       0.006487
 **** Fit       0.007598
 **** Fit       0.008628
 **** Fit       0.009570
 **** Fit       0.010402
 **** Fit       0.011089
 **** Fit       0.011576
 **** Fit       0.011796
 **** Fit       0.011682
 **** Fit       0.001803
 **** Fit       0.003232
 **** Fit       0.004570
 **** Fit       0.005833
 **** Fit       0.007035
 **** Fit       0.008187
 **** Fit       0.009298
 **** Fit       0.010366
 **** Fit       0.011372
 **** Fit       0.012274
 **** Fit       0.013004
 **** Fit       0.013474
 **** Fit       0.013585
 **** Fit       0.001139
 **** Fit       0.002684
 **** Fit       0.004097
 **** Fit       0.005416
 **** Fit       0.006678
 **** Fit       0.007914
 **** Fit       0.009152
 **** Fit       0.010407
 **** Fit       0.011677
 **** Fit       0.012928
 **** Fit       0.014093
 **** Fit       0.015067
 **** Fit       0.015720
 **** Fit       0.001121
 **** Fit       0.002788
 **** Fit       0.004277
 **** Fit       0.005660
 **** Fit       0.007007
 **** Fit       0.008382
 **** Fit       0.009837
 **** Fit       0.011403
 **** Fit       0.013070
 **** Fit       0.014780
 **** Fit       0.016415
 **** Fit       0.017805
 **** Fit       0.001559
 **** Fit       0.003304
 **** Fit       0.004850
 **** Fit       0.006324
 **** Fit       0.007849
 **** Fit       0.009537
 **** Fit       0.011466
 **** Fit       0.013656
 **** Fit       0.016046
 **** Fit       0.018481
 **** Fit       0.020713
 **** Fit       0.002137
 **** Fit       0.003926
 **** Fit       0.005554
 **** Fit       0.007225
 **** Fit       0.009140
 **** Fit       0.011456
 **** Fit       0.014253
 **** Fit       0.017493
 **** Fit       0.001834
 **** Fit       0.003987
 **** Fit       0.005970
 **** Fit       0.008152
 **** Fit       0.010894
 **** Fit       0.014462
 **** Fit       0.020917
 **** Fit       0.022409
 **** Fit       0.023482
 **** Fit       0.023794
 **** Fit       0.023023
 **** Fit       0.015626
 **** Fit       0.018012
 **** Fit       0.020575
 **** Fit       0.023046
 **** Fit       0.025063
 **** Fit       0.026222
 **** Fit       0.026150
 **** Fit       0.024581
 **** Fit       0.007357
 **** Fit       0.009153
 **** Fit       0.011470
 **** Fit       0.014439
 **** Fit       0.017943
 **** Fit       0.021659
 **** Fit       0.025139
 **** Fit       0.027881
 **** Fit       0.029388
 **** Fit       0.029279
 **** Fit       0.027360
 **** Fit       0.002250
 **** Fit       0.003377
 **** Fit       0.005259
 **** Fit       0.008333
 **** Fit       0.012625
 **** Fit       0.017744
 **** Fit       0.023037
 **** Fit       0.027762
 **** Fit      -0.002240
 **** Fit      -0.002222
 **** Fit       0.014009
 **** Fit       0.021365
 **** Fit      -0.005655
 **** Fit       0.003889
 **** Fit       0.009966
 **** Fit       0.001787
 **** Fit      -0.004806
 **** Fit      -0.003321
 **** Fit       0.004945
 **** Fit       0.011640
 **** Fit       0.014827
 **** Fit       0.007354
 **** Fit      -0.001449
 **** Fit      -0.009296
 **** Fit      -0.014428
 **** Fit      -0.015141
 **** Fit      -0.011378
 **** Fit      -0.004178
 **** Fit       0.005033
 **** Fit       0.013401
 **** Fit       0.018359
 **** Fit       0.018825
 **** Fit       0.018490
 **** Fit       0.011392
 **** Fit       0.002775
 **** Fit      -0.005881
 **** Fit      -0.013618
 **** Fit      -0.020304
 **** Fit      -0.005402
 **** Fit       0.004207
 **** Fit       0.013179
 **** Fit       0.019980
 **** Fit       0.023945
 **** Fit       0.024965
 **** Fit       0.023117
 **** Fit       0.021004
 **** Fit       0.014222
 **** Fit       0.005791
 **** Fit      -0.003217
 **** Fit      -0.011486
 **** Fit      -0.018555
 **** Fit      -0.025186
 **** Fit       0.002514
 **** Fit       0.012010
 **** Fit       0.019692
 **** Fit       0.025132
 **** Fit       0.028310
 **** Fit       0.029382
 **** Fit       0.028514
 **** Fit       0.025752
 **** Fit       0.022395
 **** Fit       0.015820
 **** Fit       0.007340
 **** Fit       0.007183
 **** Fit       0.016355
 **** Fit       0.023373
 **** Fit       0.028224
 **** Fit       0.031084
 **** Fit       0.032205
 **** Fit       0.031835
 **** Fit       0.030129
 **** Fit       0.027063
 **** Fit       0.022634
 **** Fit       0.016677
 **** Fit       0.001045
 **** Fit       0.011673
 **** Fit       0.020043
 **** Fit       0.026197
 **** Fit       0.030325
 **** Fit       0.032678
 **** Fit       0.033538
 **** Fit       0.033194
 **** Fit       0.031902
 **** Fit       0.029806
 **** Fit       0.026834
 **** Fit       0.021597
 **** Fit       0.016657
 **** Fit       0.002472
 **** Fit       0.013140
 **** Fit       0.021261
 **** Fit       0.027085
 **** Fit       0.030884
 **** Fit       0.032933
 **** Fit       0.033521
 **** Fit       0.032955
 **** Fit       0.031571
 **** Fit       0.029685
 **** Fit       0.027496
 **** Fit       0.024948
 **** Fit       0.019009
 **** Fit       0.015951
 **** Fit       0.004327
 **** Fit       0.014544
 **** Fit       0.022126
 **** Fit       0.027424
 **** Fit       0.030734
 **** Fit       0.032316
 **** Fit       0.032426
 **** Fit       0.031346
 **** Fit       0.029420
 **** Fit       0.027054
 **** Fit       0.024675
 **** Fit       0.022608
 **** Fit       0.020880
 **** Fit       0.006481
 **** Fit       0.015837
 **** Fit       0.022646
 **** Fit       0.027265
 **** Fit       0.029966
 **** Fit       0.030965
 **** Fit       0.030460
 **** Fit       0.028673
 **** Fit       0.025893
 **** Fit       0.022523
 **** Fit       0.019092
 **** Fit       0.002222
 **** Fit       0.012459
 **** Fit       0.019899
 **** Fit       0.024964
 **** Fit       0.027946
 **** Fit       0.029048
 **** Fit       0.028424
 **** Fit       0.026218
 **** Fit       0.022619
 **** Fit       0.017933
 **** Fit       0.009184
 **** Fit       0.017035
 **** Fit       0.022427
 **** Fit       0.025654
 **** Fit       0.026897
 **** Fit       0.026262
 **** Fit       0.023809
 **** Fit       0.019596
 **** Fit       0.013745
 **** Fit       0.003293
 **** Fit       0.012212
 **** Fit       0.018521
 **** Fit       0.022534
 **** Fit       0.024438
 **** Fit       0.024322
 **** Fit       0.022191
 **** Fit       0.017990
 **** Fit       0.011637
 **** Fit      -0.002164
 **** Fit       0.007406
 **** Fit       0.014395
 **** Fit       0.019089
 **** Fit       0.021662
 **** Fit       0.022188
 **** Fit       0.020647
 **** Fit       0.016923
 **** Fit       0.010809
 **** Fit      -0.002988
 **** Fit       0.006080
 **** Fit       0.012730
 **** Fit       0.017142
 **** Fit       0.019418
 **** Fit       0.019573
 **** Fit       0.017519
 **** Fit       0.013043
 **** Fit      -0.003148
 **** Fit       0.005019
 **** Fit       0.011077
 **** Fit       0.015063
 **** Fit       0.016990
 **** Fit       0.016807
 **** Fit       0.014361
 **** Fit       0.009364
 **** Fit      -0.005698
 **** Fit       0.001977
 **** Fit       0.007919
 **** Fit       0.011993
 **** Fit       0.014113
 **** Fit       0.014170
 **** Fit       0.011986
 **** Fit       0.007252
 **** Fit      -0.007253
 **** Fit      -0.000615
 **** Fit       0.004829
 **** Fit       0.008756
 **** Fit       0.010955
 **** Fit       0.011247
 **** Fit       0.009430
 **** Fit       0.005215
 **** Fit      -0.001846
 **** Fit      -0.023746
 **** Fit      -0.012343
 **** Fit      -0.006772
 **** Fit      -0.001401
 **** Fit       0.003115
 **** Fit       0.006307
 **** Fit       0.007838
 **** Fit       0.007440
 **** Fit       0.004842
 **** Fit      -0.000287
 **** Fit      -0.031566
 **** Fit      -0.026999
 **** Fit      -0.023690
 **** Fit      -0.021417
 **** Fit      -0.019906
 **** Fit      -0.018700
 **** Fit      -0.017154
 **** Fit      -0.014722
 **** Fit      -0.011274
 **** Fit      -0.007153
 **** Fit      -0.002972
 **** Fit       0.000617
 **** Fit       0.003058
 **** Fit       0.003917
 **** Fit       0.002845
 **** Fit      -0.000461
 **** Fit      -0.006303
 **** Fit      -0.031797
 **** Fit      -0.026570
 **** Fit      -0.022696
 **** Fit      -0.019779
 **** Fit      -0.017351
 **** Fit      -0.014916
 **** Fit      -0.012121
 **** Fit      -0.008945
 **** Fit      -0.005712
 **** Fit      -0.002951
 **** Fit      -0.001223
 **** Fit      -0.001021
 **** Fit      -0.002746
 **** Fit      -0.006697
 **** Fit      -0.030175
 **** Fit      -0.024811
 **** Fit      -0.020687
 **** Fit      -0.017265
 **** Fit      -0.014141
 **** Fit      -0.011203
 **** Fit      -0.008686
 **** Fit      -0.007074
 **** Fit      -0.006929
 **** Fit      -0.008753
 **** Fit      -0.023518
 **** Fit      -0.019534
 **** Fit      -0.016518
 **** Fit      -0.014616
 **** Fit      -0.014289
 **** Fit      -0.035127
 **** Fit      -0.034300
 **** Fit      -0.035247
 **** Fit      -0.025870
 **** Fit      -0.024774
 **** Fit      -0.043422
 **** Fit      -0.035757
 **** Fit      -0.025955
 **** Fit      -0.016501
 **** Fit      -0.012259
 **** Fit      -0.014219
 **** Fit      -0.020994
 **** Fit      -0.043319
 **** Fit      -0.038035
 **** Fit      -0.028779
 **** Fit      -0.000111
 **** Fit      -0.003976
 **** Fit      -0.009749
 **** Fit       0.005566
 **** Fit      -0.000066
 **** Fit       0.008689
 **** Fit      -0.046116
 **** Fit      -0.049792
 **** Fit      -0.048111
 **** Fit      -0.049832
 **** Fit      -0.050948
 **** Fit      -0.052882
 -----------------------------------------------------------------
 Leave Link  602 at Wed Sep 18 14:55:03 2019, MaxMem=  1342177280 cpu:             127.7 elap:               2.7

 Test job not archived.
 1\1\GINC-C478-112\SP\RB3LYP\SVP\C54H83Ca1N15O23\PENGZHI\18-Sep-2019\0\
 \#b3lyp/svp scf=(tight,noincore) Test #IOP(5/87=12) Density=Current Po
 p=(MK,readradii) iop(6/33=2) iop(6/42=6)\\Ng-31_loop3_27.0\\0,1\C,0,95
 .11,74.41,17.61\C,0,96.08,73.91,18.67\O,0,95.68,73.38,19.7\H,0,94.233,
 74.839,18.094\H,0,95.597,75.171,17.001\H,0,94.803,73.578,16.976\N,0,97
 .39,74.01,18.41\C,0,98.43,73.5,19.27\C,0,98.72,74.45,20.43\O,0,98.38,7
 4.15,21.57\C,0,99.68,72.96,18.58\C,0,100.48,73.96,17.76\O,0,99.94,75.0
 2,17.39\O,0,101.65,73.69,17.41\H,0,97.63,74.52,17.57\H,0,98.01,72.57,1
 9.65\H,0,99.37,72.14,17.93\H,0,100.31,72.53,19.36\N,0,99.17,75.67,20.1
 5\C,0,99.5,76.64,21.18\C,0,100.66,76.15,22.04\O,0,101.8,76.02,21.59\C,
 0,99.87,77.99,20.59\C,0,98.83,78.64,19.67\C,0,99.47,79.81,18.92\C,0,98
 .42,80.67,18.23\N,0,98.71,82.05,17.82\H,0,99.35,75.77,19.16\H,0,98.6,7
 6.85,21.76\H,0,100.74,77.84,19.95\H,0,100.09,78.65,21.43\H,0,98.09,79.
 08,20.34\H,0,98.36,77.97,18.95\H,0,100.22,79.51,18.19\H,0,99.95,80.43,
 19.67\H,0,97.66,80.81,19.\H,0,97.94,80.09,17.45\H,0,99.03,82.75,18.48\
 H,0,99.48,82.11,17.16\H,0,97.92,82.47,17.35\N,0,100.37,75.91,23.32\C,0
 ,101.25,75.23,24.25\C,0,101.29,73.72,24.12\O,0,102.06,73.09,24.84\C,0,
 100.97,75.67,25.68\C,0,99.5,75.62,26.07\O,0,99.02,74.61,26.64\O,0,98.7
 7,76.6,25.83\H,0,99.41,76.04,23.61\H,0,102.25,75.57,23.99\H,0,101.35,7
 6.69,25.71\H,0,101.52,75.08,26.42\N,0,100.5,73.02,23.3\C,0,100.49,71.5
 9,23.05\C,0,101.11,71.29,21.7\O,0,102.05,71.98,21.31\H,0,100.03,73.6,2
 2.62\H,0,99.48,71.17,23.02\H,0,101.09,71.09,23.81\N,0,100.82,70.17,21.
 02\C,0,99.82,69.16,21.3\C,0,98.91,69.04,20.09\O,0,99.37,68.63,19.03\C,
 0,100.51,67.84,21.62\C,0,101.22,67.71,22.96\N,0,101.96,66.63,23.19\O,0
 ,101.09,68.53,23.87\H,0,101.57,69.99,20.37\H,0,99.21,69.46,22.15\H,0,1
 01.28,67.81,20.85\H,0,99.73,67.08,21.6\H,0,102.06,65.91,22.49\H,0,102.
 46,66.65,24.07\N,0,97.6,69.29,20.1\C,0,96.77,69.77,21.18\C,0,95.93,68.
 82,22.02\O,0,95.22,69.34,22.88\H,0,97.11,69.06,19.25\H,0,96.09,70.49,2
 0.72\H,0,97.37,70.25,21.96\N,0,95.86,67.52,21.75\C,0,95.11,66.55,22.52
 \C,0,95.92,66.06,23.71\O,0,96.9,65.31,23.62\C,0,94.79,65.34,21.65\C,0,
 94.03,65.45,20.35\C,0,93.1,66.47,20.09\C,0,94.29,64.5,19.36\C,0,92.4,6
 6.5,18.88\C,0,93.63,64.57,18.12\C,0,92.66,65.56,17.86\O,0,91.94,65.68,
 16.71\H,0,96.25,67.21,20.87\H,0,94.18,67.02,22.85\H,0,94.33,64.58,22.2
 8\H,0,95.71,64.8,21.41\H,0,92.83,67.13,20.9\H,0,94.95,63.68,19.57\H,0,
 91.69,67.28,18.67\H,0,93.82,63.81,17.38\H,0,92.15,65.02,16.04\N,0,95.5
 4,66.54,24.9\C,0,96.33,66.56,26.11\C,0,95.5,65.95,27.23\O,0,96.13,65.7
 5,28.27\C,0,96.84,67.97,26.43\C,0,97.85,68.41,25.38\C,0,95.73,68.99,26
 .67\C,0,98.75,69.57,25.83\H,0,94.8,67.23,24.84\H,0,97.22,65.94,26.\H,0
 ,97.36,67.94,27.38\H,0,97.39,68.58,24.41\H,0,98.53,67.56,25.31\H,0,95.
 07,68.65,27.46\H,0,96.25,69.9,26.99\H,0,95.22,69.22,25.74\H,0,99.79,69
 .26,25.72\H,0,98.62,70.48,25.26\H,0,98.45,69.72,26.87\N,0,94.23,65.58,
 27.07\C,0,93.27,65.32,28.12\C,0,92.07,66.22,28.36\O,0,91.33,66.65,27.4
 7\C,0,92.76,63.9,27.91\O,0,93.76,62.91,28.01\H,0,93.87,65.88,26.17\H,0
 ,93.88,65.36,29.03\H,0,92.17,63.9,26.99\H,0,92.14,63.57,28.75\H,0,94.0
 3,62.68,27.11\N,0,91.76,66.38,29.65\C,0,90.66,67.13,30.22\C,0,90.66,68
 .62,29.93\O,0,91.76,69.16,29.84\C,0,90.34,66.7,31.65\H,0,92.45,66.06,3
 0.31\H,0,89.83,66.75,29.62\H,0,89.45,67.21,32.01\H,0,90.18,65.62,31.58
 \H,0,91.09,66.91,32.41\N,0,89.48,69.24,29.96\C,0,89.3,70.67,30.14\C,0,
 89.93,71.62,29.13\O,0,90.08,72.8,29.44\C,0,89.68,71.01,31.58\H,0,88.67
 ,68.64,29.88\H,0,88.22,70.83,30.12\H,0,90.71,70.9,31.9\H,0,89.4,72.02,
 31.88\H,0,88.98,70.47,32.22\N,0,90.41,71.27,27.94\C,0,91.01,72.04,26.8
 7\C,0,90.14,72.11,25.62\O,0,90.11,73.1,24.89\C,0,92.31,71.3,26.55\C,0,
 93.5,71.75,27.4\C,0,94.26,72.91,26.77\O,0,95.08,72.74,25.83\O,0,94.42,
 73.91,27.49\H,0,90.32,70.27,27.8\H,0,91.2,73.06,27.21\H,0,92.53,71.43,
 25.49\H,0,92.05,70.26,26.72\H,0,94.14,70.87,27.45\H,0,93.23,71.92,28.4
 4\N,0,89.25,71.17,25.28\C,0,88.26,71.16,24.23\H,0,87.404,71.762,24.533
 \H,0,88.691,71.575,23.319\H,0,87.936,70.136,24.045\H,0,89.19,70.33,25.
 83\Ca,0,96.54,74.9,26.26\O,0,97.54,73.99,24.02\H,0,97.19,73.11,23.9\H,
 0,97.87,74.24,23.15\\Version=ES64L-G16RevA.03\State=1-A\HF=-5333.39754
 1\RMSD=6.524e-10\Dipole=-6.5641762,9.0474032,-4.4746663\Quadrupole=-16
 9.514465,245.3662076,-75.8517426,62.1992468,-4.303565,-151.2032924\PG=
 C01 [X(C54H83Ca1N15O23)]\\@


 TO ERR IS HUMAN - AND TO BLAME IT ON A COMPUTER IS EVEN MORE SO.
 Job cpu time:       0 days 10 hours  9 minutes  4.8 seconds.
 Elapsed time:       0 days  0 hours 12 minutes 50.9 seconds.
 File lengths (MBytes):  RWF=   1517 Int=      0 D2E=      0 Chk=    171 Scr=      1
 Normal termination of Gaussian 16 at Wed Sep 18 14:55:05 2019.
