 Entering Gaussian System, Link 0=g16
 Initial command:
 /home1/apps/gaussian/16rA.03/g16/l1.exe "/scratch/01990/pengzhi/4354927/Gau-289624.inp" -scrdir="/scratch/01990/pengzhi/4354927/"
 Entering Link 1 = /home1/apps/gaussian/16rA.03/g16/l1.exe PID=    289625.
  
 Copyright (c) 1988,1990,1992,1993,1995,1998,2003,2009,2016,
            Gaussian, Inc.  All Rights Reserved.
  
 This is part of the Gaussian(R) 16 program.  It is based on
 the Gaussian(R) 09 system (copyright 2009, Gaussian, Inc.),
 the Gaussian(R) 03 system (copyright 2003, Gaussian, Inc.),
 the Gaussian(R) 98 system (copyright 1998, Gaussian, Inc.),
 the Gaussian(R) 94 system (copyright 1995, Gaussian, Inc.),
 the Gaussian 92(TM) system (copyright 1992, Gaussian, Inc.),
 the Gaussian 90(TM) system (copyright 1990, Gaussian, Inc.),
 the Gaussian 88(TM) system (copyright 1988, Gaussian, Inc.),
 the Gaussian 86(TM) system (copyright 1986, Carnegie Mellon
 University), and the Gaussian 82(TM) system (copyright 1983,
 Carnegie Mellon University). Gaussian is a federally registered
 trademark of Gaussian, Inc.
  
 This software contains proprietary and confidential information,
 including trade secrets, belonging to Gaussian, Inc.
  
 This software is provided under written license and may be
 used, copied, transmitted, or stored only in accord with that
 written license.
  
 The following legend is applicable only to US Government
 contracts under FAR:
  
                    RESTRICTED RIGHTS LEGEND
  
 Use, reproduction and disclosure by the US Government is
 subject to restrictions as set forth in subparagraphs (a)
 and (c) of the Commercial Computer Software - Restricted
 Rights clause in FAR 52.227-19.
  
 Gaussian, Inc.
 340 Quinnipiac St., Bldg. 40, Wallingford CT 06492
  
  
 ---------------------------------------------------------------
 Warning -- This program may not be used in any manner that
 competes with the business of Gaussian, Inc. or will provide
 assistance to any competitor of Gaussian, Inc.  The licensee
 of this program is prohibited from giving any competitor of
 Gaussian, Inc. access to this program.  By using this program,
 the user acknowledges that Gaussian, Inc. is engaged in the
 business of creating and licensing software in the field of
 computational chemistry and represents and warrants to the
 licensee that it is not a competitor of Gaussian, Inc. and that
 it will not use this program in any manner prohibited above.
 ---------------------------------------------------------------
  

 Cite this work as:
 Gaussian 16, Revision A.03,
 M. J. Frisch, G. W. Trucks, H. B. Schlegel, G. E. Scuseria, 
 M. A. Robb, J. R. Cheeseman, G. Scalmani, V. Barone, 
 G. A. Petersson, H. Nakatsuji, X. Li, M. Caricato, A. V. Marenich, 
 J. Bloino, B. G. Janesko, R. Gomperts, B. Mennucci, H. P. Hratchian, 
 J. V. Ortiz, A. F. Izmaylov, J. L. Sonnenberg, D. Williams-Young, 
 F. Ding, F. Lipparini, F. Egidi, J. Goings, B. Peng, A. Petrone, 
 T. Henderson, D. Ranasinghe, V. G. Zakrzewski, J. Gao, N. Rega, 
 G. Zheng, W. Liang, M. Hada, M. Ehara, K. Toyota, R. Fukuda, 
 J. Hasegawa, M. Ishida, T. Nakajima, Y. Honda, O. Kitao, H. Nakai, 
 T. Vreven, K. Throssell, J. A. Montgomery, Jr., J. E. Peralta, 
 F. Ogliaro, M. J. Bearpark, J. J. Heyd, E. N. Brothers, K. N. Kudin, 
 V. N. Staroverov, T. A. Keith, R. Kobayashi, J. Normand, 
 K. Raghavachari, A. P. Rendell, J. C. Burant, S. S. Iyengar, 
 J. Tomasi, M. Cossi, J. M. Millam, M. Klene, C. Adamo, R. Cammi, 
 J. W. Ochterski, R. L. Martin, K. Morokuma, O. Farkas, 
 J. B. Foresman, and D. J. Fox, Gaussian, Inc., Wallingford CT, 2016.
 
 ******************************************
 Gaussian 16:  ES64L-G16RevA.03 25-Dec-2016
                18-Sep-2019 
 ******************************************
 %chk=Ng-31_loop3_23.0.chk
 %nprocshared=48
 Will use up to   48 processors via shared memory.
 %mem=10GB
 %nosave
 ----------------------------------------------------------------------
 #b3lyp/svp scf=(tight,noincore) Test #IOP(5/87=12) Density=Current Pop
 =(MK,readradii) iop(6/33=2) iop(6/42=6)
 ----------------------------------------------------------------------
 1/30=1,38=1,172=1/1;
 2/12=2,17=6,18=5,40=1/2;
 3/5=18,7=101,11=2,25=1,30=1,74=-5/1,2,3;
 4//1;
 5/5=4,32=2,38=5,87=12/2;
 6/7=2,8=2,9=2,10=2,15=8,20=101,22=-1,28=1,33=2,42=6/1,2;
 99/5=1,9=1/99;
 ----------------
 Ng-31_loop3_23.0
 ----------------
 Symbolic Z-matrix:
 Charge =  0 Multiplicity = 1
 C                     0.092     90.69     14.73 
 C                     0.252     89.45     15.59 
 O                    -0.428     89.27     16.6 
 H                    -0.659     91.344    15.173 
 H                     1.044     91.218    14.672 
 H                    -0.225     90.4      13.728 
 N                     1.112     88.49     15.23 
 C                     1.482     87.23     15.85 
 C                     2.332     87.35     17.1 
 O                     2.252     86.38     17.85 
 C                     2.152     86.28     14.86 
 C                     3.172     86.93     13.95 
 O                     3.532     88.11     14.17 
 O                     3.572     86.31     12.94 
 H                     1.702     88.77     14.46 
 H                     0.532     86.77     16.1 
 H                     1.452     85.9      14.12 
 H                     2.622     85.43     15.37 
 N                     2.902     88.53     17.39 
 C                     3.442     88.95     18.66 
 C                     4.642     88.11     19.08 
 O                     5.662     87.87     18.44 
 C                     3.872     90.42     18.6 
 C                     2.672     91.36     18.47 
 C                     2.872     92.79     18.98 
 C                     1.652     93.71     18.9 
 N                     0.382     93.2      19.45 
 H                     3.122     89.12     16.6 
 H                     2.652     88.78     19.39 
 H                     4.532     90.64     17.76 
 H                     4.462     90.69     19.47 
 H                     1.832     90.95     19.02 
 H                     2.452     91.44     17.41 
 H                     3.692     93.38     18.58 
 H                     3.142     92.78     20.04 
 H                     1.512     94.02     17.87 
 H                     1.912     94.7      19.29 
 H                     0.462     93.04     20.44 
 H                    -0.388     93.86     19.41 
 H                     0.152     92.34     18.98 
 N                     4.442     87.58     20.28 
 C                     5.382     86.68     20.93 
 C                     5.062     85.22     20.67 
 O                     5.762     84.28     21.04 
 C                     5.612     87.04     22.39 
 C                     4.402     87.15     23.31 
 O                     4.382     86.52     24.39 
 O                     3.362     87.73     22.94 
 H                     3.652     87.86     20.84 
 H                     6.312     86.81     20.37 
 H                     6.192     87.96     22.34 
 H                     6.322     86.36     22.87 
 N                     4.032     84.93     19.86 
 C                     3.542     83.61     19.55 
 C                     4.432     82.88     18.56 
 O                     5.372     83.51     18.08 
 H                     3.502     85.66     19.4 
 H                     2.572     83.6      19.05 
 H                     3.462     83.05     20.48 
 N                     4.152     81.62     18.2 
 C                     3.132     80.63     18.49 
 C                     2.782     79.8      17.27 
 O                     3.422     78.77     17.04 
 C                     3.512     79.75     19.68 
 C                     3.482     80.46     21.03 
 N                     2.372     81.11     21.39 
 O                     4.382     80.24     21.84 
 H                     4.812     81.28     17.51 
 H                     2.192     81.1      18.76 
 H                     4.542     79.44     19.48 
 H                     2.832     78.9      19.75 
 H                     1.672     81.13     20.66 
 H                     2.282     81.59     22.28 
 N                     1.842     80.19     16.4 
 C                     1.192     81.48     16.4 
 C                    -0.048     81.79     17.22 
 O                    -0.158     82.9      17.74 
 H                     1.672     79.6      15.6 
 H                     0.892     81.68     15.37 
 H                     1.872     82.3      16.66 
 N                    -0.968     80.83     17.39 
 C                    -1.878     81.       18.5 
 C                    -1.228     81.04     19.87 
 O                    -0.048     80.74     20.06 
 C                    -2.838     79.81     18.51 
 C                    -3.688     79.76     17.27 
 C                    -4.238     80.88     16.62 
 C                    -3.758     78.52     16.63 
 C                    -4.928     80.66     15.42 
 C                    -4.518     78.26     15.48 
 C                    -5.068     79.38     14.83 
 O                    -5.778     79.24     13.67 
 H                    -0.848     79.96     16.9 
 H                    -2.348     81.97     18.33 
 H                    -3.478     79.89     19.39 
 H                    -2.308     78.87     18.6 
 H                    -4.188     81.89     17. 
 H                    -3.188     77.67     16.98 
 H                    -5.418     81.41     14.83 
 H                    -4.568     77.25     15.1 
 H                    -5.648     78.31     13.47 
 N                    -2.008     81.44     20.88 
 C                    -1.498     82.11     22.06 
 C                    -1.668     81.3      23.34 
 O                    -1.028     81.69     24.31 
 C                    -2.068     83.51     22.21 
 C                    -1.798     84.35     20.96 
 C                    -3.568     83.49     22.52 
 C                    -0.338     84.6      20.6 
 H                    -2.998     81.51     20.69 
 H                    -0.428     82.28     22.02 
 H                    -1.588     84.01     23.05 
 H                    -2.318     85.31     21.04 
 H                    -2.318     83.84     20.15 
 H                    -3.918     84.5      22.71 
 H                    -4.098     83.17     21.62 
 H                    -3.798     82.87     23.39 
 H                    -0.248     85.08     19.63 
 H                     0.052     85.19     21.44 
 H                     0.152     83.63     20.57 
 N                    -2.458     80.22     23.29 
 C                    -2.888     79.34     24.36 
 C                    -3.948     79.89     25.3 
 O                    -4.748     80.76     24.94 
 C                    -3.508     78.13     23.67 
 O                    -2.498     77.57     22.87 
 H                    -2.878     79.98     22.41 
 H                    -2.088     78.96     24.99 
 H                    -4.308     78.42     22.99 
 H                    -3.938     77.39     24.35 
 H                    -2.888     76.88     22.33 
 N                    -3.948     79.36     26.52 
 C                    -4.728     79.79     27.67 
 C                    -4.278     81.14     28.2 
 O                    -3.138     81.54     27.98 
 C                    -4.628     78.76     28.79 
 H                    -3.338     78.58     26.73 
 H                    -5.788     79.79     27.4 
 H                    -3.678     78.78     29.32 
 H                    -5.288     79.13     29.57 
 H                    -4.938     77.76     28.47 
 N                    -5.178     81.85     28.89 
 C                    -4.958     83.19     29.4 
 C                    -4.358     84.21     28.44 
 O                    -3.428     84.93     28.82 
 C                    -4.098     83.05     30.65 
 H                    -6.138     81.53     28.86 
 H                    -5.958     83.53     29.66 
 H                    -4.358     82.24     31.33 
 H                    -3.048     82.93     30.39 
 H                    -4.188     83.94     31.28 
 N                    -4.848     84.43     27.22 
 C                    -4.668     85.69     26.53 
 C                    -5.968     86.1      25.86 
 O                    -6.238     87.3      25.75 
 C                    -3.458     85.58     25.61 
 C                    -3.218     86.8      24.73 
 C                    -1.748     87.08     24.44 
 O                    -1.338     86.65     23.34 
 O                    -0.958     87.81     25.07 
 H                    -5.598     83.8      26.95 
 H                    -4.538     86.46     27.3 
 H                    -3.378     84.63     25.09 
 H                    -2.618     85.37     26.27 
 H                    -3.718     87.67     25.16 
 H                    -3.728     86.58     23.8 
 N                    -6.758     85.17     25.34 
 C                    -7.988     85.49     24.63 
 H                    -8.74      85.831    25.342 
 H                    -7.794     86.278    23.902 
 H                    -8.353     84.601    24.115 
 H                    -6.538     84.21     25.56 
 Ca                    0.83      87.93     23.14 
 O                     1.37      85.36     23.41 
 H                     2.2       84.88     23.4 
 H                     0.77      84.8      23.89 
 
 Stoichiometry    C54H83CaN15O23
 Framework group  C1[X(C54H83CaN15O23)]
 Deg. of freedom   522
 Full point group                 C1      NOp   1
 Largest Abelian subgroup         C1      NOp   1
 Largest concise Abelian subgroup C1      NOp   1
                         Standard orientation:                         
 ---------------------------------------------------------------------
 Center     Atomic      Atomic             Coordinates (Angstroms)
 Number     Number       Type             X           Y           Z
 ---------------------------------------------------------------------
      1          6           0        7.399995   -1.661390    4.983399
      2          6           0        6.360203   -1.171412    3.992665
      3          8           0        5.191406   -1.554540    4.037664
      4          1           0        6.943845   -2.383838    5.660127
      5          1           0        8.220291   -2.136446    4.444986
      6          1           0        7.782172   -0.817233    5.557796
      7          7           0        6.689178   -0.258895    3.070771
      8          6           0        5.927859    0.368779    2.005257
      9          6           0        5.609047   -0.527551    0.824431
     10          8           0        4.623626   -0.171604    0.182523
     11          6           0        6.586082    1.655607    1.512999
     12          6           0        8.086803    1.571166    1.334936
     13          8           0        8.655966    0.457567    1.414623
     14          8           0        8.745987    2.625667    1.200761
     15          1           0        7.683696   -0.088474    3.034848
     16          1           0        5.005744    0.677048    2.486167
     17          1           0        6.526703    2.453107    2.249523
     18          1           0        6.136695    2.006855    0.575888
     19          7           0        6.251406   -1.699805    0.703613
     20          6           0        5.869767   -2.824007   -0.115790
     21          6           0        5.909238   -2.491020   -1.602249
     22          8           0        6.836894   -2.012136   -2.248565
     23          6           0        6.798702   -4.015553    0.142473
     24          6           0        6.602515   -4.598008    1.543457
     25          6           0        6.987560   -6.068772    1.726747
     26          6           0        6.736600   -6.662390    3.114492
     27          7           0        5.400535   -6.460625    3.705863
     28          1           0        7.180334   -1.736966    1.098976
     29          1           0        4.834929   -3.043084    0.143083
     30          1           0        7.855969   -3.761884    0.056228
     31          1           0        6.656908   -4.790173   -0.604359
     32          1           0        5.558707   -4.513971    1.825593
     33          1           0        7.241616   -4.027871    2.210461
     34          1           0        7.994473   -6.383942    1.467336
     35          1           0        6.407806   -6.699837    1.046863
     36          1           0        7.501218   -6.302665    3.794608
     37          1           0        7.048009   -7.712471    3.126890
     38          1           0        4.693983   -6.913358    3.150959
     39          1           0        5.269375   -6.905594    4.608582
     40          1           0        5.218187   -5.471821    3.755015
     41          7           0        4.734961   -2.742410   -2.166852
     42          6           0        4.439170   -2.472287   -3.565295
     43          6           0        3.799100   -1.112271   -3.770881
     44          8           0        3.540322   -0.626507   -4.869775
     45          6           0        3.720946   -3.631828   -4.238882
     46          6           0        2.433605   -4.151978   -3.610555
     47          8           0        1.402856   -4.268104   -4.308962
     48          8           0        2.339232   -4.317308   -2.378216
     49          1           0        4.012986   -3.226854   -1.656788
     50          1           0        5.420297   -2.331622   -4.026817
     51          1           0        4.490797   -4.396928   -4.324039
     52          1           0        3.505000   -3.421258   -5.290513
     53          7           0        3.636197   -0.318680   -2.700939
     54          6           0        2.993103    0.971648   -2.691737
     55          6           0        3.874211    2.061609   -3.275458
     56          8           0        5.023157    1.750293   -3.581901
     57          1           0        3.964215   -0.596741   -1.784159
     58          1           0        2.772607    1.353344   -1.693394
     59          1           0        2.061585    0.891184   -3.249143
     60          7           0        3.413209    3.314468   -3.391311
     61          6           0        2.192696    4.034389   -3.080405
     62          6           0        2.471617    5.445070   -2.598759
     63          8           0        2.553151    6.357510   -3.425926
     64          6           0        1.208847    4.022416   -4.249506
     65          6           0        0.568181    2.665815   -4.526418
     66          7           0       -0.040143    2.025565   -3.524309
     67          8           0        0.434269    2.296073   -5.692548
     68          1           0        4.123623    3.934147   -3.763615
     69          1           0        1.666648    3.577564   -2.248550
     70          1           0        1.808176    4.301374   -5.121278
     71          1           0        0.397745    4.727802   -4.064187
     72          1           0        0.067375    2.493548   -2.633955
     73          1           0       -0.497958    1.127572   -3.645194
     74          7           0        2.697663    5.715531   -1.307111
     75          6           0        2.882064    4.727210   -0.269894
     76          6           0        1.733286    4.105893    0.504944
     77          8           0        1.793016    2.914812    0.808850
     78          1           0        2.895122    6.672488   -1.057626
     79          1           0        3.506308    5.189647    0.496508
     80          1           0        3.452358    3.854312   -0.609327
     81          7           0        0.666498    4.862720    0.798330
     82          6           0       -0.552330    4.157915    1.125147
     83          6           0       -1.104453    3.273701    0.023183
     84          8           0       -0.683173    3.305069   -1.134417
     85          6           0       -1.631762    5.197285    1.429017
     86          6           0       -1.289438    6.031155    2.633207
     87          6           0       -0.672394    5.549617    3.802301
     88          6           0       -1.426978    7.412586    2.475632
     89          6           0       -0.338964    6.484122    4.792263
     90          6           0       -1.185942    8.356393    3.485003
     91          6           0       -0.568899    7.874856    4.654096
     92          8           0       -0.239890    8.723084    5.674666
     93          1           0        0.696127    5.841287    0.568266
     94          1           0       -0.285479    3.511955    1.963136
     95          1           0       -2.574716    4.675878    1.600403
     96          1           0       -1.795643    5.860327    0.588709
     97          1           0       -0.466904    4.507135    3.997246
     98          1           0       -1.708067    7.848265    1.526383
     99          1           0        0.110618    6.262006    5.740546
    100          1           0       -1.391433    9.398876    3.290058
    101          1           0       -0.430709    9.580808    5.287759
    102          7           0       -2.079103    2.429758    0.378596
    103          6           0       -2.307355    1.158114   -0.278839
    104          6           0       -3.641151    1.084256   -1.012959
    105          8           0       -3.770896    0.150127   -1.796011
    106          6           0       -2.132403   -0.013249    0.672319
    107          6           0       -0.748417    0.010337    1.324258
    108          6           0       -3.222993   -0.048857    1.747421
    109          6           0        0.453475   -0.107703    0.394084
    110          1           0       -2.490380    2.568260    1.291158
    111          1           0       -1.586757    0.952214   -1.062257
    112          1           0       -2.217203   -0.947151    0.118570
    113          1           0       -0.687398   -0.768547    2.091080
    114          1           0       -0.711813    0.938319    1.893564
    115          1           0       -3.117808   -0.946683    2.348707
    116          1           0       -3.047501    0.778527    2.438752
    117          1           0       -4.225960   -0.033056    1.313822
    118          1           0        1.383627    0.059892    0.928994
    119          1           0        0.355704   -1.106736   -0.051084
    120          1           0        0.336241    0.652782   -0.373912
    121          7           0       -4.533010    2.054928   -0.777622
    122          6           0       -5.902715    2.182018   -1.238008
    123          6           0       -6.925888    1.281331   -0.566011
    124          8           0       -6.762290    0.854963    0.582007
    125          6           0       -6.310950    3.615300   -0.916068
    126          8           0       -5.417685    4.446993   -1.611814
    127          1           0       -4.272914    2.796534   -0.152505
    128          1           0       -6.039769    2.054929   -2.308692
    129          1           0       -6.178490    3.844281    0.140588
    130          1           0       -7.350639    3.855753   -1.152987
    131          1           0       -5.570431    5.352598   -1.335503
    132          7           0       -7.998246    1.001201   -1.301454
    133          6           0       -9.056492    0.051616   -0.994530
    134          6           0       -8.575357   -1.387426   -1.054264
    135          8           0       -7.590080   -1.680835   -1.725934
    136          6           0      -10.219215    0.225677   -1.965652
    137          1           0       -8.129144    1.458174   -2.195122
    138          1           0       -9.483469    0.299251   -0.018381
    139          1           0      -10.026654   -0.179836   -2.956753
    140          1           0      -10.978714   -0.470586   -1.620285
    141          1           0      -10.612215    1.247448   -1.971624
    142          7           0       -9.263875   -2.285993   -0.341017
    143          6           0       -8.906363   -3.685634   -0.209531
    144          6           0       -7.453386   -4.004499    0.120901
    145          8           0       -6.864715   -4.887607   -0.512570
    146          6           0       -9.332358   -4.372412   -1.501260
    147          1           0       -9.937684   -1.927435    0.324053
    148          1           0       -9.516712   -4.026308    0.623905
    149          1           0      -10.304096   -4.089860   -1.903739
    150          1           0       -8.597489   -4.214055   -2.288273
    151          1           0       -9.432570   -5.451097   -1.347972
    152          7           0       -6.799248   -3.431563    1.131221
    153          6           0       -5.671373   -4.065625    1.780807
    154          6           0       -5.782985   -3.896776    3.286142
    155          8           0       -5.341889   -4.780854    4.026979
    156          6           0       -4.384031   -3.545475    1.152480
    157          6           0       -3.107676   -4.041877    1.819490
    158          6           0       -1.935279   -4.225734    0.862891
    159          8           0       -1.125634   -3.273542    0.834518
    160          8           0       -1.595825   -5.250248    0.239159
    161          1           0       -7.320588   -2.700622    1.606858
    162          1           0       -5.793059   -5.147391    1.647862
    163          1           0       -4.391600   -2.481308    0.936164
    164          1           0       -4.444782   -3.830997    0.103630
    165          1           0       -3.315768   -4.953052    2.383634
    166          1           0       -2.856455   -3.279695    2.547066
    167          7           0       -6.285264   -2.774338    3.783385
    168          6           0       -6.367868   -2.515399    5.213604
    169          1           0       -7.146266   -3.140800    5.651440
    170          1           0       -5.410748   -2.746603    5.681610
    171          1           0       -6.609870   -1.465420    5.380187
    172          1           0       -6.726936   -2.144134    3.130570
    173         20           0        0.823020   -4.378704   -0.331668
    174          8           0       -0.167549   -2.502031   -1.902106
    175          1           0        0.111048   -2.178806   -2.760773
    176          1           0       -1.089349   -2.276461   -1.843761
 ---------------------------------------------------------------------
 Rotational constants (GHZ):           0.0180538           0.0117237           0.0095435
 Standard basis: SVP (5D, 7F)
 There are  1809 symmetry adapted cartesian basis functions of A   symmetry.
 There are  1717 symmetry adapted basis functions of A   symmetry.
  1717 basis functions,  2922 primitive gaussians,  1809 cartesian basis functions
   358 alpha electrons      358 beta electrons
       nuclear repulsion energy     19819.4454728702 Hartrees.
 NAtoms=  176 NActive=  176 NUniq=  176 SFac= 1.00D+00 NAtFMM=   60 NAOKFM=T Big=T
 Integral buffers will be    131072 words long.
 Raffenetti 2 integral format.
 Two-electron integral symmetry is turned on.
 One-electron integrals computed using PRISM.
 NBasis=  1717 RedAO= T EigKep=  3.13D-04  NBF=  1717
 NBsUse=  1717 1.00D-06 EigRej= -1.00D+00 NBFU=  1717
 ExpMin= 1.98D-02 ExpMax= 3.51D+04 ExpMxC= 5.28D+03 IAcc=3 IRadAn=         5 AccDes= 0.00D+00
 Harris functional with IExCor=  402 and IRadAn=       5 diagonalized for initial guess.
 HarFok:  IExCor=  402 AccDes= 0.00D+00 IRadAn=         5 IDoV= 1 UseB2=F ITyADJ=14
 ICtDFT=  3500011 ScaDFX=  1.000000  1.000000  1.000000  1.000000
 FoFCou: FMM=F IPFlag=           0 FMFlag=      100000 FMFlg1=        2001
         NFxFlg=           0 DoJE=T BraDBF=F KetDBF=T FulRan=T
         wScrn=  0.000000 ICntrl=       500 IOpCl=  0 I1Cent=   200000004 NGrid=           0
         NMat0=    1 NMatS0=      1 NMatT0=    0 NMatD0=    1 NMtDS0=    0 NMtDT0=    0
 Petite list used in FoFCou.
 Requested convergence on RMS density matrix=1.00D-08 within 128 cycles.
 Requested convergence on MAX density matrix=1.00D-06.
 Requested convergence on             energy=1.00D-06.
 No special actions if energy rises.
 EnCoef did     3 forward-backward iterations
 EnCoef did     1 forward-backward iterations
 Rare condition: small coef for last iteration:  0.000D+00
 EnCoef did   100 forward-backward iterations
 EnCoef did   100 forward-backward iterations
 Rare condition: small coef for last iteration: -0.130D-14
 EnCoef did   100 forward-backward iterations
 EnCoef did   100 forward-backward iterations
 EnCoef did   100 forward-backward iterations
 EnCoef did     4 forward-backward iterations
 Restarting incremental Fock formation.
 SCF Done:  E(RB3LYP) =  -5333.34656425     A.U. after   32 cycles
            NFock= 32  Conv=0.76D-09     -V/T= 2.0081
 SCF density gives NOpUse=  1 NOpAll=  1.
 Hyperfine terms turned off by default for NAtoms > 100.

 **********************************************************************

            Population analysis using the SCF density.

 **********************************************************************

 Orbital symmetries:
 BldTbl:  Degeneracy threshold= 1.00D-02
       Occupied  (A) (A) (A) (A) (A) (A) (A) (A) (A) (A) (A) (A)
                 (A) (A) (A) (A) (A) (A) (A) (A) (A) (A) (A) (A)
                 (A) (A) (A) (A) (A) (A) (A) (A) (A) (A) (A) (A)
                 (A) (A) (A) (A) (A) (A) (A) (A) (A) (A) (A) (A)
                 (A) (A) (A) (A) (A) (A) (A) (A) (A) (A) (A) (A)
                 (A) (A) (A) (A) (A) (A) (A) (A) (A) (A) (A) (A)
                 (A) (A) (A) (A) (A) (A) (A) (A) (A) (A) (A) (A)
                 (A) (A) (A) (A) (A) (A) (A) (A) (A) (A) (A) (A)
                 (A) (A) (A) (A) (A) (A) (A) (A) (A) (A) (A) (A)
                 (A) (A) (A) (A) (A) (A) (A) (A) (A) (A) (A) (A)
                 (A) (A) (A) (A) (A) (A) (A) (A) (A) (A) (A) (A)
                 (A) (A) (A) (A) (A) (A) (A) (A) (A) (A) (A) (A)
                 (A) (A) (A) (A) (A) (A) (A) (A) (A) (A) (A) (A)
                 (A) (A) (A) (A) (A) (A) (A) (A) (A) (A) (A) (A)
                 (A) (A) (A) (A) (A) (A) (A) (A) (A) (A) (A) (A)
                 (A) (A) (A) (A) (A) (A) (A) (A) (A) (A) (A) (A)
                 (A) (A) (A) (A) (A) (A) (A) (A) (A) (A) (A) (A)
                 (A) (A) (A) (A) (A) (A) (A) (A) (A) (A) (A) (A)
                 (A) (A) (A) (A) (A) (A) (A) (A) (A) (A) (A) (A)
                 (A) (A) (A) (A) (A) (A) (A) (A) (A) (A) (A) (A)
                 (A) (A) (A) (A) (A) (A) (A) (A) (A) (A) (A) (A)
                 (A) (A) (A) (A) (A) (A) (A) (A) (A) (A) (A) (A)
                 (A) (A) (A) (A) (A) (A) (A) (A) (A) (A) (A) (A)
                 (A) (A) (A) (A) (A) (A) (A) (A) (A) (A) (A) (A)
                 (A) (A) (A) (A) (A) (A) (A) (A) (A) (A) (A) (A)
                 (A) (A) (A) (A) (A) (A) (A) (A) (A) (A) (A) (A)
                 (A) (A) (A) (A) (A) (A) (A) (A) (A) (A) (A) (A)
                 (A) (A) (A) (A) (A) (A) (A) (A) (A) (A) (A) (A)
                 (A) (A) (A) (A) (A) (A) (A) (A) (A) (A) (A) (A)
                 (A) (A) (A) (A) (A) (A) (A) (A) (A) (A)
       Virtual   (A) (A) (A) (A) (A) (A) (A) (A) (A) (A) (A) (A)
                 (A) (A) (A) (A) (A) (A) (A) (A) (A) (A) (A) (A)
                 (A) (A) (A) (A) (A) (A) (A) (A) (A) (A) (A) (A)
                 (A) (A) (A) (A) (A) (A) (A) (A) (A) (A) (A) (A)
                 (A) (A) (A) (A) (A) (A) (A) (A) (A) (A) (A) (A)
                 (A) (A) (A) (A) (A) (A) (A) (A) (A) (A) (A) (A)
                 (A) (A) (A) (A) (A) (A) (A) (A) (A) (A) (A) (A)
                 (A) (A) (A) (A) (A) (A) (A) (A) (A) (A) (A) (A)
                 (A) (A) (A) (A) (A) (A) (A) (A) (A) (A) (A) (A)
                 (A) (A) (A) (A) (A) (A) (A) (A) (A) (A) (A) (A)
                 (A) (A) (A) (A) (A) (A) (A) (A) (A) (A) (A) (A)
                 (A) (A) (A) (A) (A) (A) (A) (A) (A) (A) (A) (A)
                 (A) (A) (A) (A) (A) (A) (A) (A) (A) (A) (A) (A)
                 (A) (A) (A) (A) (A) (A) (A) (A) (A) (A) (A) (A)
                 (A) (A) (A) (A) (A) (A) (A) (A) (A) (A) (A) (A)
                 (A) (A) (A) (A) (A) (A) (A) (A) (A) (A) (A) (A)
                 (A) (A) (A) (A) (A) (A) (A) (A) (A) (A) (A) (A)
                 (A) (A) (A) (A) (A) (A) (A) (A) (A) (A) (A) (A)
                 (A) (A) (A) (A) (A) (A) (A) (A) (A) (A) (A) (A)
                 (A) (A) (A) (A) (A) (A) (A) (A) (A) (A) (A) (A)
                 (A) (A) (A) (A) (A) (A) (A) (A) (A) (A) (A) (A)
                 (A) (A) (A) (A) (A) (A) (A) (A) (A) (A) (A) (A)
                 (A) (A) (A) (A) (A) (A) (A) (A) (A) (A) (A) (A)
                 (A) (A) (A) (A) (A) (A) (A) (A) (A) (A) (A) (A)
                 (A) (A) (A) (A) (A) (A) (A) (A) (A) (A) (A) (A)
                 (A) (A) (A) (A) (A) (A) (A) (A) (A) (A) (A) (A)
                 (A) (A) (A) (A) (A) (A) (A) (A) (A) (A) (A) (A)
                 (A) (A) (A) (A) (A) (A) (A) (A) (A) (A) (A) (A)
                 (A) (A) (A) (A) (A) (A) (A) (A) (A) (A) (A) (A)
                 (A) (A) (A) (A) (A) (A) (A) (A) (A) (A) (A) (A)
                 (A) (A) (A) (A) (A) (A) (A) (A) (A) (A) (A) (A)
                 (A) (A) (A) (A) (A) (A) (A) (A) (A) (A) (A) (A)
                 (A) (A) (A) (A) (A) (A) (A) (A) (A) (A) (A) (A)
                 (A) (A) (A) (A) (A) (A) (A) (A) (A) (A) (A) (A)
                 (A) (A) (A) (A) (A) (A) (A) (A) (A) (A) (A) (A)
                 (A) (A) (A) (A) (A) (A) (A) (A) (A) (A) (A) (A)
                 (A) (A) (A) (A) (A) (A) (A) (A) (A) (A) (A) (A)
                 (A) (A) (A) (A) (A) (A) (A) (A) (A) (A) (A) (A)
                 (A) (A) (A) (A) (A) (A) (A) (A) (A) (A) (A) (A)
                 (A) (A) (A) (A) (A) (A) (A) (A) (A) (A) (A) (A)
                 (A) (A) (A) (A) (A) (A) (A) (A) (A) (A) (A) (A)
                 (A) (A) (A) (A) (A) (A) (A) (A) (A) (A) (A) (A)
                 (A) (A) (A) (A) (A) (A) (A) (A) (A) (A) (A) (A)
                 (A) (A) (A) (A) (A) (A) (A) (A) (A) (A) (A) (A)
                 (A) (A) (A) (A) (A) (A) (A) (A) (A) (A) (A) (A)
                 (A) (A) (A) (A) (A) (A) (A) (A) (A) (A) (A) (A)
                 (A) (A) (A) (A) (A) (A) (A) (A) (A) (A) (A) (A)
                 (A) (A) (A) (A) (A) (A) (A) (A) (A) (A) (A) (A)
                 (A) (A) (A) (A) (A) (A) (A) (A) (A) (A) (A) (A)
                 (A) (A) (A) (A) (A) (A) (A) (A) (A) (A) (A) (A)
                 (A) (A) (A) (A) (A) (A) (A) (A) (A) (A) (A) (A)
                 (A) (A) (A) (A) (A) (A) (A) (A) (A) (A) (A) (A)
                 (A) (A) (A) (A) (A) (A) (A) (A) (A) (A) (A) (A)
                 (A) (A) (A) (A) (A) (A) (A) (A) (A) (A) (A) (A)
                 (A) (A) (A) (A) (A) (A) (A) (A) (A) (A) (A) (A)
                 (A) (A) (A) (A) (A) (A) (A) (A) (A) (A) (A) (A)
                 (A) (A) (A) (A) (A) (A) (A) (A) (A) (A) (A) (A)
                 (A) (A) (A) (A) (A) (A) (A) (A) (A) (A) (A) (A)
                 (A) (A) (A) (A) (A) (A) (A) (A) (A) (A) (A) (A)
                 (A) (A) (A) (A) (A) (A) (A) (A) (A) (A) (A) (A)
                 (A) (A) (A) (A) (A) (A) (A) (A) (A) (A) (A) (A)
                 (A) (A) (A) (A) (A) (A) (A) (A) (A) (A) (A) (A)
                 (A) (A) (A) (A) (A) (A) (A) (A) (A) (A) (A) (A)
                 (A) (A) (A) (A) (A) (A) (A) (A) (A) (A) (A) (A)
                 (A) (A) (A) (A) (A) (A) (A) (A) (A) (A) (A) (A)
                 (A) (A) (A) (A) (A) (A) (A) (A) (A) (A) (A) (A)
                 (A) (A) (A) (A) (A) (A) (A) (A) (A) (A) (A) (A)
                 (A) (A) (A) (A) (A) (A) (A) (A) (A) (A) (A) (A)
                 (A) (A) (A) (A) (A) (A) (A) (A) (A) (A) (A) (A)
                 (A) (A) (A) (A) (A) (A) (A) (A) (A) (A) (A) (A)
                 (A) (A) (A) (A) (A) (A) (A) (A) (A) (A) (A) (A)
                 (A) (A) (A) (A) (A) (A) (A) (A) (A) (A) (A) (A)
                 (A) (A) (A) (A) (A) (A) (A) (A) (A) (A) (A) (A)
                 (A) (A) (A) (A) (A) (A) (A) (A) (A) (A) (A) (A)
                 (A) (A) (A) (A) (A) (A) (A) (A) (A) (A) (A) (A)
                 (A) (A) (A) (A) (A) (A) (A) (A) (A) (A) (A) (A)
                 (A) (A) (A) (A) (A) (A) (A) (A) (A) (A) (A) (A)
                 (A) (A) (A) (A) (A) (A) (A) (A) (A) (A) (A) (A)
                 (A) (A) (A) (A) (A) (A) (A) (A) (A) (A) (A) (A)
                 (A) (A) (A) (A) (A) (A) (A) (A) (A) (A) (A) (A)
                 (A) (A) (A) (A) (A) (A) (A) (A) (A) (A) (A) (A)
                 (A) (A) (A) (A) (A) (A) (A) (A) (A) (A) (A) (A)
                 (A) (A) (A) (A) (A) (A) (A) (A) (A) (A) (A) (A)
                 (A) (A) (A) (A) (A) (A) (A) (A) (A) (A) (A) (A)
                 (A) (A) (A) (A) (A) (A) (A) (A) (A) (A) (A) (A)
                 (A) (A) (A) (A) (A) (A) (A) (A) (A) (A) (A) (A)
                 (A) (A) (A) (A) (A) (A) (A) (A) (A) (A) (A) (A)
                 (A) (A) (A) (A) (A) (A) (A) (A) (A) (A) (A) (A)
                 (A) (A) (A) (A) (A) (A) (A) (A) (A) (A) (A) (A)
                 (A) (A) (A) (A) (A) (A) (A) (A) (A) (A) (A) (A)
                 (A) (A) (A) (A) (A) (A) (A) (A) (A) (A) (A) (A)
                 (A) (A) (A) (A) (A) (A) (A) (A) (A) (A) (A) (A)
                 (A) (A) (A) (A) (A) (A) (A) (A) (A) (A) (A) (A)
                 (A) (A) (A) (A) (A) (A) (A) (A) (A) (A) (A) (A)
                 (A) (A) (A) (A) (A) (A) (A) (A) (A) (A) (A) (A)
                 (A) (A) (A) (A) (A) (A) (A) (A) (A) (A) (A) (A)
                 (A) (A) (A) (A) (A) (A) (A) (A) (A) (A) (A) (A)
                 (A) (A) (A) (A) (A) (A) (A) (A) (A) (A) (A) (A)
                 (A) (A) (A) (A) (A) (A) (A) (A) (A) (A) (A) (A)
                 (A) (A) (A) (A) (A) (A) (A) (A) (A) (A) (A) (A)
                 (A) (A) (A) (A) (A) (A) (A) (A) (A) (A) (A) (A)
                 (A) (A) (A) (A) (A) (A) (A) (A) (A) (A) (A) (A)
                 (A) (A) (A) (A) (A) (A) (A) (A) (A) (A) (A) (A)
                 (A) (A) (A) (A) (A) (A) (A) (A) (A) (A) (A) (A)
                 (A) (A) (A) (A) (A) (A) (A) (A) (A) (A) (A) (A)
                 (A) (A) (A) (A) (A) (A) (A) (A) (A) (A) (A) (A)
                 (A) (A) (A) (A) (A) (A) (A) (A) (A) (A) (A) (A)
                 (A) (A) (A) (A) (A) (A) (A) (A) (A) (A) (A) (A)
                 (A) (A) (A) (A) (A) (A) (A) (A) (A) (A) (A) (A)
                 (A) (A) (A) (A) (A) (A) (A) (A) (A) (A) (A) (A)
                 (A) (A) (A) (A) (A) (A) (A) (A) (A) (A) (A) (A)
                 (A) (A) (A) (A) (A) (A) (A) (A) (A) (A) (A) (A)
                 (A) (A) (A) (A) (A) (A) (A) (A) (A) (A) (A) (A)
                 (A) (A) (A)
 The electronic state is 1-A.
 Alpha  occ. eigenvalues -- -145.46867 -19.18155 -19.15905 -19.15530 -19.12174
 Alpha  occ. eigenvalues --  -19.11730 -19.11163 -19.10464 -19.10024 -19.09440
 Alpha  occ. eigenvalues --  -19.09342 -19.08931 -19.08696 -19.08561 -19.08525
 Alpha  occ. eigenvalues --  -19.07601 -19.07444 -19.07248 -19.04247 -19.04191
 Alpha  occ. eigenvalues --  -19.03430 -19.03293 -18.99155 -18.97953 -15.52781
 Alpha  occ. eigenvalues --  -14.59181 -14.38075 -14.37886 -14.37525 -14.37350
 Alpha  occ. eigenvalues --  -14.36636 -14.36498 -14.36275 -14.36031 -14.34542
 Alpha  occ. eigenvalues --  -14.32918 -14.32227 -14.31375 -14.30481 -14.29269
 Alpha  occ. eigenvalues --  -12.66397 -12.66370 -12.66265 -10.35840 -10.30578
 Alpha  occ. eigenvalues --  -10.30299 -10.29946 -10.28827 -10.28776 -10.28775
 Alpha  occ. eigenvalues --  -10.28736 -10.28254 -10.27853 -10.27653 -10.26789
 Alpha  occ. eigenvalues --  -10.26764 -10.26740 -10.26553 -10.26308 -10.26173
 Alpha  occ. eigenvalues --  -10.25940 -10.25580 -10.25411 -10.25380 -10.24806
 Alpha  occ. eigenvalues --  -10.24522 -10.23992 -10.23797 -10.23727 -10.23604
 Alpha  occ. eigenvalues --  -10.23203 -10.23144 -10.23120 -10.22656 -10.22502
 Alpha  occ. eigenvalues --  -10.22089 -10.22016 -10.21623 -10.21362 -10.21070
 Alpha  occ. eigenvalues --  -10.20975 -10.20465 -10.19839 -10.19778 -10.19675
 Alpha  occ. eigenvalues --  -10.18583 -10.18223 -10.18110 -10.18060 -10.18032
 Alpha  occ. eigenvalues --  -10.17894 -10.17704 -10.16745 -10.16125 -10.15672
 Alpha  occ. eigenvalues --  -10.15584 -10.13157  -1.89485  -1.17024  -1.16850
 Alpha  occ. eigenvalues --   -1.16198  -1.14350  -1.07091  -1.05281  -1.05040
 Alpha  occ. eigenvalues --   -1.04519  -1.04448  -1.03774  -1.03450  -1.03253
 Alpha  occ. eigenvalues --   -1.02492  -1.02092  -1.01884  -1.01728  -1.01656
 Alpha  occ. eigenvalues --   -1.00638  -1.00325  -1.00077  -0.97866  -0.97057
 Alpha  occ. eigenvalues --   -0.96361  -0.94756  -0.94722  -0.94391  -0.93741
 Alpha  occ. eigenvalues --   -0.93724  -0.93358  -0.92830  -0.92779  -0.92244
 Alpha  occ. eigenvalues --   -0.91957  -0.91877  -0.90163  -0.89755  -0.89005
 Alpha  occ. eigenvalues --   -0.88886  -0.88452  -0.86940  -0.85547  -0.85169
 Alpha  occ. eigenvalues --   -0.83233  -0.82930  -0.82392  -0.81917  -0.80400
 Alpha  occ. eigenvalues --   -0.79770  -0.78478  -0.77840  -0.76967  -0.76302
 Alpha  occ. eigenvalues --   -0.75654  -0.75351  -0.75290  -0.74871  -0.74260
 Alpha  occ. eigenvalues --   -0.74233  -0.73301  -0.72238  -0.72179  -0.71379
 Alpha  occ. eigenvalues --   -0.70804  -0.70695  -0.70194  -0.69052  -0.68755
 Alpha  occ. eigenvalues --   -0.67676  -0.67099  -0.66482  -0.65645  -0.65296
 Alpha  occ. eigenvalues --   -0.63829  -0.63802  -0.63513  -0.62684  -0.62583
 Alpha  occ. eigenvalues --   -0.62191  -0.61670  -0.61652  -0.61287  -0.60803
 Alpha  occ. eigenvalues --   -0.60566  -0.60450  -0.60270  -0.59445  -0.58953
 Alpha  occ. eigenvalues --   -0.58606  -0.57670  -0.57470  -0.57076  -0.56540
 Alpha  occ. eigenvalues --   -0.56331  -0.56251  -0.55576  -0.55503  -0.55361
 Alpha  occ. eigenvalues --   -0.55014  -0.54956  -0.54783  -0.53763  -0.53679
 Alpha  occ. eigenvalues --   -0.53276  -0.52800  -0.52682  -0.52210  -0.52072
 Alpha  occ. eigenvalues --   -0.51427  -0.51268  -0.51212  -0.50928  -0.50874
 Alpha  occ. eigenvalues --   -0.50550  -0.50226  -0.50115  -0.49813  -0.49660
 Alpha  occ. eigenvalues --   -0.49489  -0.49085  -0.48802  -0.48663  -0.48326
 Alpha  occ. eigenvalues --   -0.48082  -0.47847  -0.47088  -0.46860  -0.46675
 Alpha  occ. eigenvalues --   -0.46658  -0.46372  -0.46283  -0.46078  -0.46006
 Alpha  occ. eigenvalues --   -0.45746  -0.45446  -0.45301  -0.45053  -0.44853
 Alpha  occ. eigenvalues --   -0.44665  -0.44413  -0.44249  -0.44184  -0.44125
 Alpha  occ. eigenvalues --   -0.43747  -0.43712  -0.43532  -0.43407  -0.43369
 Alpha  occ. eigenvalues --   -0.43197  -0.43054  -0.42880  -0.42756  -0.42647
 Alpha  occ. eigenvalues --   -0.42572  -0.42456  -0.42376  -0.42220  -0.42000
 Alpha  occ. eigenvalues --   -0.41909  -0.41866  -0.41758  -0.41576  -0.41296
 Alpha  occ. eigenvalues --   -0.41197  -0.41077  -0.40927  -0.40851  -0.40636
 Alpha  occ. eigenvalues --   -0.40536  -0.40405  -0.40372  -0.40329  -0.40056
 Alpha  occ. eigenvalues --   -0.39965  -0.39755  -0.39472  -0.39308  -0.39187
 Alpha  occ. eigenvalues --   -0.39115  -0.38895  -0.38693  -0.38642  -0.38509
 Alpha  occ. eigenvalues --   -0.38274  -0.38146  -0.38022  -0.37829  -0.37820
 Alpha  occ. eigenvalues --   -0.37383  -0.37150  -0.36915  -0.36838  -0.36835
 Alpha  occ. eigenvalues --   -0.36644  -0.36405  -0.36349  -0.36154  -0.36083
 Alpha  occ. eigenvalues --   -0.35902  -0.35643  -0.35477  -0.35374  -0.35055
 Alpha  occ. eigenvalues --   -0.34965  -0.34796  -0.34708  -0.34382  -0.34128
 Alpha  occ. eigenvalues --   -0.33934  -0.33783  -0.33359  -0.33137  -0.32615
 Alpha  occ. eigenvalues --   -0.32388  -0.32181  -0.31693  -0.31370  -0.31342
 Alpha  occ. eigenvalues --   -0.30418  -0.30411  -0.29714  -0.29449  -0.28883
 Alpha  occ. eigenvalues --   -0.28776  -0.28697  -0.28556  -0.28053  -0.27999
 Alpha  occ. eigenvalues --   -0.27835  -0.27633  -0.27616  -0.26975  -0.26827
 Alpha  occ. eigenvalues --   -0.26675  -0.26476  -0.26350  -0.26241  -0.25774
 Alpha  occ. eigenvalues --   -0.25154  -0.24874  -0.24836  -0.24537  -0.24375
 Alpha  occ. eigenvalues --   -0.24195  -0.24186  -0.24126  -0.23800  -0.23445
 Alpha  occ. eigenvalues --   -0.22985  -0.22730  -0.22498  -0.22159  -0.21897
 Alpha  occ. eigenvalues --   -0.20691  -0.19872  -0.19726  -0.19119  -0.18792
 Alpha  occ. eigenvalues --   -0.16144  -0.15932  -0.13329
 Alpha virt. eigenvalues --   -0.12183  -0.10613  -0.05539  -0.04099  -0.03871
 Alpha virt. eigenvalues --   -0.02262  -0.02195  -0.01488  -0.00932  -0.00836
 Alpha virt. eigenvalues --   -0.00391   0.00195   0.00380   0.00981   0.01051
 Alpha virt. eigenvalues --    0.01129   0.01302   0.01459   0.01680   0.02068
 Alpha virt. eigenvalues --    0.02236   0.02441   0.02651   0.02840   0.03327
 Alpha virt. eigenvalues --    0.03470   0.03576   0.03781   0.03893   0.04032
 Alpha virt. eigenvalues --    0.04169   0.04266   0.05176   0.05462   0.05628
 Alpha virt. eigenvalues --    0.05840   0.05968   0.06059   0.06126   0.06329
 Alpha virt. eigenvalues --    0.06523   0.06964   0.07114   0.07429   0.07484
 Alpha virt. eigenvalues --    0.07814   0.07935   0.08054   0.08501   0.08684
 Alpha virt. eigenvalues --    0.08888   0.09083   0.09436   0.09625   0.09880
 Alpha virt. eigenvalues --    0.10102   0.10143   0.10205   0.10249   0.10602
 Alpha virt. eigenvalues --    0.10662   0.10849   0.10930   0.11177   0.11318
 Alpha virt. eigenvalues --    0.11409   0.11797   0.12111   0.12355   0.12470
 Alpha virt. eigenvalues --    0.12538   0.12697   0.12763   0.13150   0.13233
 Alpha virt. eigenvalues --    0.13339   0.13472   0.13545   0.13873   0.13888
 Alpha virt. eigenvalues --    0.13983   0.14124   0.14302   0.14423   0.14513
 Alpha virt. eigenvalues --    0.14735   0.14891   0.15108   0.15191   0.15414
 Alpha virt. eigenvalues --    0.15566   0.15637   0.15760   0.16082   0.16286
 Alpha virt. eigenvalues --    0.16525   0.16815   0.16922   0.16978   0.17222
 Alpha virt. eigenvalues --    0.17543   0.17778   0.17843   0.18186   0.18516
 Alpha virt. eigenvalues --    0.18619   0.18766   0.18916   0.19052   0.19312
 Alpha virt. eigenvalues --    0.19709   0.19810   0.19955   0.20185   0.20362
 Alpha virt. eigenvalues --    0.20638   0.20923   0.21117   0.21386   0.21650
 Alpha virt. eigenvalues --    0.21978   0.22185   0.22302   0.22417   0.22567
 Alpha virt. eigenvalues --    0.22808   0.22946   0.23049   0.23263   0.23411
 Alpha virt. eigenvalues --    0.23667   0.23881   0.24031   0.24321   0.24422
 Alpha virt. eigenvalues --    0.24856   0.25028   0.25248   0.25495   0.25691
 Alpha virt. eigenvalues --    0.25770   0.25829   0.26524   0.26575   0.27129
 Alpha virt. eigenvalues --    0.27355   0.27575   0.27605   0.27673   0.27914
 Alpha virt. eigenvalues --    0.28041   0.28117   0.28360   0.28442   0.28816
 Alpha virt. eigenvalues --    0.29198   0.29408   0.29604   0.29867   0.30022
 Alpha virt. eigenvalues --    0.30653   0.30718   0.31113   0.31204   0.31358
 Alpha virt. eigenvalues --    0.31602   0.31812   0.32081   0.32290   0.32442
 Alpha virt. eigenvalues --    0.33001   0.33177   0.33653   0.33826   0.34153
 Alpha virt. eigenvalues --    0.34317   0.34433   0.34708   0.35062   0.35101
 Alpha virt. eigenvalues --    0.35595   0.35783   0.36171   0.36241   0.36475
 Alpha virt. eigenvalues --    0.36687   0.36752   0.37137   0.37344   0.37821
 Alpha virt. eigenvalues --    0.38143   0.38677   0.39085   0.39373   0.39585
 Alpha virt. eigenvalues --    0.39653   0.40069   0.40178   0.40542   0.40774
 Alpha virt. eigenvalues --    0.40911   0.41204   0.41290   0.41339   0.41721
 Alpha virt. eigenvalues --    0.42183   0.42514   0.42732   0.42787   0.43110
 Alpha virt. eigenvalues --    0.43189   0.43304   0.43517   0.43669   0.44137
 Alpha virt. eigenvalues --    0.44429   0.44489   0.44577   0.44820   0.45241
 Alpha virt. eigenvalues --    0.45472   0.45680   0.45697   0.45980   0.46100
 Alpha virt. eigenvalues --    0.46226   0.46324   0.46444   0.46844   0.46893
 Alpha virt. eigenvalues --    0.47234   0.47401   0.47690   0.47872   0.48036
 Alpha virt. eigenvalues --    0.48329   0.48973   0.49105   0.49127   0.49245
 Alpha virt. eigenvalues --    0.49379   0.49671   0.49800   0.49852   0.50220
 Alpha virt. eigenvalues --    0.50374   0.50590   0.50823   0.51112   0.51311
 Alpha virt. eigenvalues --    0.51668   0.51746   0.52021   0.52170   0.52345
 Alpha virt. eigenvalues --    0.52628   0.52805   0.52897   0.53264   0.53400
 Alpha virt. eigenvalues --    0.53557   0.53701   0.53911   0.54119   0.54191
 Alpha virt. eigenvalues --    0.54511   0.54702   0.55018   0.55259   0.55411
 Alpha virt. eigenvalues --    0.55562   0.56072   0.56256   0.56443   0.56514
 Alpha virt. eigenvalues --    0.56774   0.57177   0.57276   0.57320   0.57352
 Alpha virt. eigenvalues --    0.57573   0.57620   0.57812   0.57908   0.58198
 Alpha virt. eigenvalues --    0.58244   0.58451   0.58662   0.58825   0.58957
 Alpha virt. eigenvalues --    0.58980   0.59172   0.59334   0.59436   0.59520
 Alpha virt. eigenvalues --    0.59795   0.59914   0.60078   0.60144   0.60238
 Alpha virt. eigenvalues --    0.60379   0.60508   0.60516   0.60895   0.61050
 Alpha virt. eigenvalues --    0.61099   0.61287   0.61332   0.61542   0.61579
 Alpha virt. eigenvalues --    0.61726   0.61942   0.61993   0.62123   0.62202
 Alpha virt. eigenvalues --    0.62359   0.62621   0.62673   0.62707   0.62937
 Alpha virt. eigenvalues --    0.62994   0.63104   0.63260   0.63501   0.63525
 Alpha virt. eigenvalues --    0.63634   0.63845   0.63898   0.63934   0.63964
 Alpha virt. eigenvalues --    0.64012   0.64134   0.64414   0.64451   0.64487
 Alpha virt. eigenvalues --    0.64678   0.64804   0.64869   0.64995   0.65119
 Alpha virt. eigenvalues --    0.65181   0.65246   0.65347   0.65525   0.65589
 Alpha virt. eigenvalues --    0.65682   0.65735   0.65889   0.65970   0.66162
 Alpha virt. eigenvalues --    0.66362   0.66451   0.66604   0.66708   0.66761
 Alpha virt. eigenvalues --    0.66837   0.66960   0.67110   0.67183   0.67342
 Alpha virt. eigenvalues --    0.67493   0.67535   0.67621   0.67762   0.67940
 Alpha virt. eigenvalues --    0.68188   0.68272   0.68331   0.68407   0.68540
 Alpha virt. eigenvalues --    0.68605   0.68897   0.69039   0.69194   0.69240
 Alpha virt. eigenvalues --    0.69510   0.69615   0.69723   0.69960   0.70030
 Alpha virt. eigenvalues --    0.70221   0.70306   0.70548   0.70585   0.70677
 Alpha virt. eigenvalues --    0.70900   0.71105   0.71147   0.71231   0.71399
 Alpha virt. eigenvalues --    0.71626   0.71763   0.72020   0.72129   0.72229
 Alpha virt. eigenvalues --    0.72418   0.72530   0.72722   0.72899   0.73152
 Alpha virt. eigenvalues --    0.73234   0.73478   0.73659   0.73720   0.73839
 Alpha virt. eigenvalues --    0.74050   0.74272   0.74349   0.74478   0.74645
 Alpha virt. eigenvalues --    0.75217   0.75456   0.75522   0.75665   0.75899
 Alpha virt. eigenvalues --    0.75999   0.76239   0.76457   0.76606   0.77035
 Alpha virt. eigenvalues --    0.77243   0.77449   0.77746   0.77938   0.78071
 Alpha virt. eigenvalues --    0.78292   0.78326   0.78667   0.78910   0.79138
 Alpha virt. eigenvalues --    0.79544   0.79796   0.79891   0.80276   0.80299
 Alpha virt. eigenvalues --    0.80452   0.80653   0.80833   0.81077   0.81189
 Alpha virt. eigenvalues --    0.81520   0.81538   0.82073   0.82328   0.82474
 Alpha virt. eigenvalues --    0.82990   0.83217   0.83415   0.83619   0.83902
 Alpha virt. eigenvalues --    0.84016   0.84343   0.84687   0.85160   0.85207
 Alpha virt. eigenvalues --    0.85482   0.85620   0.85924   0.86223   0.86673
 Alpha virt. eigenvalues --    0.86803   0.87343   0.87660   0.87884   0.87911
 Alpha virt. eigenvalues --    0.88321   0.88505   0.88668   0.89478   0.89598
 Alpha virt. eigenvalues --    0.89852   0.90336   0.90402   0.91010   0.91117
 Alpha virt. eigenvalues --    0.91458   0.91527   0.91722   0.92079   0.92515
 Alpha virt. eigenvalues --    0.92775   0.93044   0.93125   0.93406   0.93824
 Alpha virt. eigenvalues --    0.94085   0.94254   0.94421   0.94728   0.94864
 Alpha virt. eigenvalues --    0.95229   0.95499   0.95555   0.95822   0.96061
 Alpha virt. eigenvalues --    0.96544   0.96807   0.96941   0.97245   0.97521
 Alpha virt. eigenvalues --    0.97643   0.98045   0.98343   0.98757   0.99066
 Alpha virt. eigenvalues --    0.99190   0.99576   0.99794   1.00042   1.00641
 Alpha virt. eigenvalues --    1.00869   1.01372   1.01618   1.01698   1.01938
 Alpha virt. eigenvalues --    1.02401   1.02653   1.03035   1.03183   1.03278
 Alpha virt. eigenvalues --    1.03774   1.03993   1.04205   1.04497   1.04772
 Alpha virt. eigenvalues --    1.04832   1.05145   1.05504   1.05800   1.05881
 Alpha virt. eigenvalues --    1.06068   1.06268   1.06630   1.06949   1.07519
 Alpha virt. eigenvalues --    1.07667   1.07920   1.08148   1.08446   1.08710
 Alpha virt. eigenvalues --    1.09301   1.09496   1.09572   1.09591   1.10152
 Alpha virt. eigenvalues --    1.10332   1.10716   1.11149   1.11680   1.11921
 Alpha virt. eigenvalues --    1.12141   1.12194   1.12496   1.12732   1.12940
 Alpha virt. eigenvalues --    1.13082   1.13338   1.13683   1.14080   1.14362
 Alpha virt. eigenvalues --    1.14639   1.14942   1.15684   1.15869   1.16014
 Alpha virt. eigenvalues --    1.16393   1.16724   1.16787   1.17065   1.17099
 Alpha virt. eigenvalues --    1.17480   1.17538   1.17874   1.18004   1.18337
 Alpha virt. eigenvalues --    1.18470   1.19068   1.19377   1.19441   1.19950
 Alpha virt. eigenvalues --    1.20234   1.20444   1.20674   1.20747   1.21087
 Alpha virt. eigenvalues --    1.21405   1.21501   1.21946   1.22109   1.22358
 Alpha virt. eigenvalues --    1.22454   1.22839   1.23111   1.23128   1.23267
 Alpha virt. eigenvalues --    1.23546   1.23787   1.24013   1.24381   1.24576
 Alpha virt. eigenvalues --    1.24820   1.24907   1.25120   1.25545   1.25603
 Alpha virt. eigenvalues --    1.25744   1.25866   1.26204   1.26524   1.26751
 Alpha virt. eigenvalues --    1.27348   1.27392   1.27818   1.28374   1.28533
 Alpha virt. eigenvalues --    1.28656   1.28899   1.29286   1.29334   1.29816
 Alpha virt. eigenvalues --    1.29985   1.30227   1.30689   1.30860   1.31307
 Alpha virt. eigenvalues --    1.31462   1.31692   1.31904   1.32086   1.32263
 Alpha virt. eigenvalues --    1.32391   1.32932   1.33225   1.33397   1.33467
 Alpha virt. eigenvalues --    1.34278   1.34568   1.34745   1.35445   1.35888
 Alpha virt. eigenvalues --    1.35999   1.36133   1.36440   1.36814   1.37133
 Alpha virt. eigenvalues --    1.37449   1.37665   1.38124   1.38304   1.38536
 Alpha virt. eigenvalues --    1.39090   1.39297   1.39931   1.40168   1.40372
 Alpha virt. eigenvalues --    1.40844   1.40989   1.41218   1.41518   1.41731
 Alpha virt. eigenvalues --    1.41953   1.42860   1.43072   1.43472   1.43829
 Alpha virt. eigenvalues --    1.44070   1.44128   1.44462   1.45118   1.45373
 Alpha virt. eigenvalues --    1.45433   1.45640   1.45880   1.46040   1.46504
 Alpha virt. eigenvalues --    1.46566   1.46656   1.46844   1.47140   1.47495
 Alpha virt. eigenvalues --    1.47695   1.47796   1.48176   1.48719   1.48920
 Alpha virt. eigenvalues --    1.49014   1.49489   1.49640   1.50481   1.50590
 Alpha virt. eigenvalues --    1.50869   1.51118   1.51253   1.51594   1.51882
 Alpha virt. eigenvalues --    1.52139   1.52364   1.52791   1.53091   1.53545
 Alpha virt. eigenvalues --    1.53879   1.54066   1.54394   1.54822   1.55109
 Alpha virt. eigenvalues --    1.55748   1.55928   1.56015   1.56510   1.57299
 Alpha virt. eigenvalues --    1.57587   1.57643   1.57960   1.58396   1.58434
 Alpha virt. eigenvalues --    1.58917   1.59049   1.59478   1.59746   1.60296
 Alpha virt. eigenvalues --    1.60772   1.60888   1.61366   1.61592   1.61791
 Alpha virt. eigenvalues --    1.61944   1.62587   1.62653   1.62789   1.63278
 Alpha virt. eigenvalues --    1.63481   1.63908   1.64755   1.65100   1.65415
 Alpha virt. eigenvalues --    1.65509   1.65746   1.66180   1.66388   1.66408
 Alpha virt. eigenvalues --    1.66467   1.67344   1.67590   1.67824   1.68524
 Alpha virt. eigenvalues --    1.68719   1.68757   1.69318   1.69814   1.69889
 Alpha virt. eigenvalues --    1.69961   1.70210   1.70483   1.70678   1.70984
 Alpha virt. eigenvalues --    1.71154   1.71547   1.71725   1.71830   1.71933
 Alpha virt. eigenvalues --    1.72178   1.72300   1.72414   1.72700   1.73049
 Alpha virt. eigenvalues --    1.73318   1.73516   1.73629   1.73744   1.73906
 Alpha virt. eigenvalues --    1.74047   1.74367   1.74466   1.74558   1.74696
 Alpha virt. eigenvalues --    1.74995   1.75397   1.75599   1.75697   1.75795
 Alpha virt. eigenvalues --    1.76175   1.76352   1.76413   1.76572   1.76650
 Alpha virt. eigenvalues --    1.76753   1.76872   1.77202   1.77279   1.77474
 Alpha virt. eigenvalues --    1.77589   1.77714   1.77916   1.78192   1.78271
 Alpha virt. eigenvalues --    1.78483   1.78535   1.78769   1.78858   1.79216
 Alpha virt. eigenvalues --    1.79319   1.79498   1.79707   1.79872   1.80081
 Alpha virt. eigenvalues --    1.80167   1.80458   1.80739   1.80804   1.80853
 Alpha virt. eigenvalues --    1.81056   1.81122   1.81564   1.81673   1.81837
 Alpha virt. eigenvalues --    1.82171   1.82337   1.82545   1.82616   1.82862
 Alpha virt. eigenvalues --    1.82991   1.83216   1.83508   1.83934   1.84151
 Alpha virt. eigenvalues --    1.84268   1.84364   1.84565   1.84585   1.84727
 Alpha virt. eigenvalues --    1.84880   1.85155   1.85689   1.85884   1.85949
 Alpha virt. eigenvalues --    1.86269   1.86474   1.86997   1.87083   1.87162
 Alpha virt. eigenvalues --    1.87406   1.87541   1.87762   1.87787   1.87964
 Alpha virt. eigenvalues --    1.87992   1.88162   1.88307   1.88565   1.88665
 Alpha virt. eigenvalues --    1.88968   1.89203   1.89420   1.89508   1.90007
 Alpha virt. eigenvalues --    1.90339   1.90517   1.90646   1.90787   1.90913
 Alpha virt. eigenvalues --    1.91190   1.91292   1.91457   1.91492   1.91685
 Alpha virt. eigenvalues --    1.91971   1.92232   1.92550   1.92607   1.92947
 Alpha virt. eigenvalues --    1.93066   1.93316   1.93599   1.93937   1.94102
 Alpha virt. eigenvalues --    1.94208   1.94479   1.94878   1.95006   1.95544
 Alpha virt. eigenvalues --    1.95754   1.95827   1.96015   1.96235   1.96676
 Alpha virt. eigenvalues --    1.96927   1.96978   1.97248   1.97870   1.98063
 Alpha virt. eigenvalues --    1.98265   1.98329   1.98376   1.98626   1.98747
 Alpha virt. eigenvalues --    1.99010   1.99534   1.99630   1.99923   1.99954
 Alpha virt. eigenvalues --    2.00095   2.00668   2.01045   2.01239   2.01307
 Alpha virt. eigenvalues --    2.01582   2.01795   2.01903   2.02355   2.02503
 Alpha virt. eigenvalues --    2.02696   2.03003   2.03303   2.03461   2.03580
 Alpha virt. eigenvalues --    2.04053   2.04189   2.04604   2.04693   2.04936
 Alpha virt. eigenvalues --    2.05035   2.05159   2.05333   2.05855   2.06160
 Alpha virt. eigenvalues --    2.06181   2.06575   2.06960   2.07360   2.07439
 Alpha virt. eigenvalues --    2.07724   2.07829   2.08017   2.08171   2.08499
 Alpha virt. eigenvalues --    2.08546   2.08885   2.08953   2.09185   2.09269
 Alpha virt. eigenvalues --    2.09636   2.09952   2.10227   2.10399   2.10802
 Alpha virt. eigenvalues --    2.11131   2.11518   2.11801   2.12029   2.12176
 Alpha virt. eigenvalues --    2.12626   2.12758   2.13059   2.13510   2.14014
 Alpha virt. eigenvalues --    2.14153   2.14222   2.14499   2.14595   2.15163
 Alpha virt. eigenvalues --    2.15255   2.15450   2.15699   2.16043   2.16375
 Alpha virt. eigenvalues --    2.16544   2.16747   2.17278   2.17533   2.17864
 Alpha virt. eigenvalues --    2.18799   2.19450   2.19527   2.19771   2.19946
 Alpha virt. eigenvalues --    2.20482   2.20723   2.20755   2.20986   2.21263
 Alpha virt. eigenvalues --    2.21728   2.22053   2.22551   2.22560   2.22764
 Alpha virt. eigenvalues --    2.23582   2.23775   2.24140   2.24474   2.24805
 Alpha virt. eigenvalues --    2.24948   2.25108   2.25274   2.25644   2.25861
 Alpha virt. eigenvalues --    2.26510   2.26583   2.26944   2.27348   2.27831
 Alpha virt. eigenvalues --    2.27950   2.28469   2.28904   2.29135   2.29444
 Alpha virt. eigenvalues --    2.29837   2.30439   2.30506   2.30893   2.31221
 Alpha virt. eigenvalues --    2.31607   2.31753   2.32045   2.32330   2.32528
 Alpha virt. eigenvalues --    2.32860   2.32884   2.33429   2.34035   2.34216
 Alpha virt. eigenvalues --    2.34358   2.34618   2.35100   2.35346   2.35735
 Alpha virt. eigenvalues --    2.36073   2.36084   2.36899   2.37152   2.37368
 Alpha virt. eigenvalues --    2.37406   2.37749   2.38327   2.38836   2.39184
 Alpha virt. eigenvalues --    2.39470   2.39849   2.39943   2.40356   2.40962
 Alpha virt. eigenvalues --    2.41476   2.41699   2.42324   2.42417   2.42598
 Alpha virt. eigenvalues --    2.42723   2.42841   2.42997   2.43657   2.43716
 Alpha virt. eigenvalues --    2.44551   2.44715   2.45148   2.45729   2.46080
 Alpha virt. eigenvalues --    2.46210   2.46965   2.47158   2.47837   2.48028
 Alpha virt. eigenvalues --    2.48093   2.48423   2.48710   2.48829   2.49097
 Alpha virt. eigenvalues --    2.49366   2.49659   2.49988   2.50516   2.50759
 Alpha virt. eigenvalues --    2.51518   2.52012   2.52370   2.52532   2.52980
 Alpha virt. eigenvalues --    2.53384   2.53851   2.53997   2.54061   2.54593
 Alpha virt. eigenvalues --    2.54889   2.55375   2.55656   2.55731   2.56530
 Alpha virt. eigenvalues --    2.56660   2.56819   2.57373   2.57680   2.57715
 Alpha virt. eigenvalues --    2.58161   2.58351   2.58868   2.59448   2.59852
 Alpha virt. eigenvalues --    2.60114   2.60200   2.60368   2.60459   2.61074
 Alpha virt. eigenvalues --    2.61133   2.61642   2.61794   2.62355   2.62456
 Alpha virt. eigenvalues --    2.62607   2.63170   2.63197   2.63368   2.63555
 Alpha virt. eigenvalues --    2.63835   2.64088   2.64559   2.64745   2.65019
 Alpha virt. eigenvalues --    2.65420   2.65882   2.66268   2.66591   2.66736
 Alpha virt. eigenvalues --    2.67254   2.67315   2.67900   2.68069   2.68393
 Alpha virt. eigenvalues --    2.68821   2.68906   2.69079   2.69119   2.69489
 Alpha virt. eigenvalues --    2.70033   2.70094   2.70390   2.70620   2.70785
 Alpha virt. eigenvalues --    2.70830   2.72042   2.72260   2.72317   2.72816
 Alpha virt. eigenvalues --    2.72925   2.73039   2.73362   2.73401   2.74284
 Alpha virt. eigenvalues --    2.74388   2.74616   2.74716   2.75029   2.75509
 Alpha virt. eigenvalues --    2.75707   2.75961   2.76049   2.76593   2.76781
 Alpha virt. eigenvalues --    2.77380   2.77777   2.77931   2.78154   2.78423
 Alpha virt. eigenvalues --    2.78609   2.78637   2.78991   2.79331   2.79512
 Alpha virt. eigenvalues --    2.79722   2.79870   2.80227   2.80254   2.80722
 Alpha virt. eigenvalues --    2.80809   2.81007   2.81126   2.81539   2.81599
 Alpha virt. eigenvalues --    2.82657   2.82741   2.82770   2.82861   2.83000
 Alpha virt. eigenvalues --    2.83281   2.83542   2.84354   2.84807   2.85415
 Alpha virt. eigenvalues --    2.85509   2.86183   2.86734   2.86822   2.87044
 Alpha virt. eigenvalues --    2.87665   2.87844   2.87963   2.88153   2.88762
 Alpha virt. eigenvalues --    2.89155   2.90074   2.90280   2.90357   2.90786
 Alpha virt. eigenvalues --    2.91049   2.91304   2.91366   2.92316   2.92520
 Alpha virt. eigenvalues --    2.92588   2.93034   2.93223   2.93466   2.93568
 Alpha virt. eigenvalues --    2.93801   2.93817   2.94169   2.94555   2.94844
 Alpha virt. eigenvalues --    2.94873   2.95123   2.95716   2.95836   2.95883
 Alpha virt. eigenvalues --    2.96182   2.96595   2.97356   2.97698   2.97795
 Alpha virt. eigenvalues --    2.97992   2.98188   2.98266   2.98327   2.98486
 Alpha virt. eigenvalues --    2.98877   2.99372   2.99565   2.99830   3.00253
 Alpha virt. eigenvalues --    3.00569   3.00692   3.01100   3.01485   3.02168
 Alpha virt. eigenvalues --    3.02478   3.03463   3.03786   3.03837   3.03974
 Alpha virt. eigenvalues --    3.04422   3.05425   3.05459   3.06122   3.06710
 Alpha virt. eigenvalues --    3.06789   3.06873   3.07719   3.08672   3.08755
 Alpha virt. eigenvalues --    3.09565   3.09729   3.10138   3.11092   3.11315
 Alpha virt. eigenvalues --    3.11498   3.11807   3.12240   3.12461   3.12992
 Alpha virt. eigenvalues --    3.13425   3.13927   3.14726   3.15106   3.15229
 Alpha virt. eigenvalues --    3.15260   3.15365   3.15936   3.16155   3.16548
 Alpha virt. eigenvalues --    3.17225   3.17370   3.17666   3.18039   3.18190
 Alpha virt. eigenvalues --    3.18207   3.18434   3.18570   3.18733   3.19093
 Alpha virt. eigenvalues --    3.19494   3.19800   3.19980   3.20018   3.21637
 Alpha virt. eigenvalues --    3.21885   3.22373   3.22758   3.22797   3.23638
 Alpha virt. eigenvalues --    3.24013   3.24679   3.25714   3.26093   3.26142
 Alpha virt. eigenvalues --    3.26690   3.27559   3.27769   3.27933   3.28440
 Alpha virt. eigenvalues --    3.29589   3.32404   3.32652   3.34125   3.34479
 Alpha virt. eigenvalues --    3.35759   3.36371   3.36856   3.37475   3.37974
 Alpha virt. eigenvalues --    3.40524   3.45818   3.46775   3.48626   3.51292
 Alpha virt. eigenvalues --    3.52271   3.52679   3.52728   3.53890   3.54349
 Alpha virt. eigenvalues --    3.54546   3.54697   3.55067   3.55271   3.55465
 Alpha virt. eigenvalues --    3.57048   3.57793   3.59748   3.60232   3.61861
 Alpha virt. eigenvalues --    3.64789   3.65500   3.65586   3.65938   3.66892
 Alpha virt. eigenvalues --    3.67195   3.67732   3.67935   3.68030   3.68111
 Alpha virt. eigenvalues --    3.68829   3.69124   3.70916   3.71120   3.71478
 Alpha virt. eigenvalues --    3.71595   3.72467   3.73589   3.73953   3.74887
 Alpha virt. eigenvalues --    3.76058   3.78926   3.80417   3.82837
          Condensed to atoms (all electrons):
 Mulliken charges:
               1
     1  C    0.061921
     2  C   -0.033675
     3  O   -0.333204
     4  H   -0.014293
     5  H    0.019588
     6  H    0.049859
     7  N   -0.123264
     8  C    0.148278
     9  C    0.118571
    10  O   -0.291517
    11  C    0.032863
    12  C    0.044714
    13  O   -0.397701
    14  O   -0.336078
    15  H    0.109106
    16  H    0.009284
    17  H   -0.006067
    18  H    0.040672
    19  N   -0.117119
    20  C    0.123387
    21  C    0.093504
    22  O   -0.240573
    23  C    0.025260
    24  C    0.038405
    25  C   -0.008130
    26  C    0.008359
    27  N    0.097029
    28  H    0.125128
    29  H   -0.057319
    30  H    0.048330
    31  H    0.009666
    32  H   -0.045948
    33  H    0.034061
    34  H    0.049610
    35  H    0.012689
    36  H    0.067194
    37  H    0.063839
    38  H    0.149019
    39  H    0.176559
    40  H    0.192969
    41  N   -0.170690
    42  C    0.114035
    43  C    0.052080
    44  O   -0.265418
    45  C    0.093961
    46  C    0.111783
    47  O   -0.324160
    48  O   -0.514830
    49  H    0.078567
    50  H    0.041764
    51  H   -0.013630
    52  H    0.027790
    53  N   -0.131568
    54  C    0.155526
    55  C    0.025008
    56  O   -0.241252
    57  H    0.111601
    58  H    0.033363
    59  H    0.009955
    60  N   -0.120545
    61  C    0.018171
    62  C    0.044156
    63  O   -0.262983
    64  C    0.175537
    65  C   -0.029485
    66  N   -0.078123
    67  O   -0.249299
    68  H    0.128457
    69  H   -0.001372
    70  H    0.017257
    71  H    0.018214
    72  H    0.131531
    73  H    0.133809
    74  N   -0.101147
    75  C    0.158492
    76  C    0.045417
    77  O   -0.270199
    78  H    0.123159
    79  H    0.039180
    80  H    0.058708
    81  N   -0.118344
    82  C    0.060974
    83  C    0.123429
    84  O   -0.267607
    85  C    0.149958
    86  C   -0.001570
    87  C    0.016925
    88  C   -0.045151
    89  C    0.002951
    90  C   -0.054299
    91  C    0.132164
    92  O   -0.177100
    93  H    0.110356
    94  H    0.039533
    95  H   -0.007870
    96  H    0.001348
    97  H   -0.019243
    98  H   -0.028232
    99  H   -0.018825
   100  H   -0.033240
   101  H    0.171752
   102  N   -0.150553
   103  C    0.128512
   104  C    0.084627
   105  O   -0.262779
   106  C   -0.108322
   107  C    0.034057
   108  C    0.040777
   109  C    0.026314
   110  H    0.123256
   111  H    0.013827
   112  H    0.003341
   113  H   -0.015376
   114  H   -0.043943
   115  H    0.000569
   116  H   -0.035139
   117  H    0.048791
   118  H    0.037899
   119  H   -0.018727
   120  H    0.006505
   121  N   -0.081782
   122  C    0.088458
   123  C    0.098362
   124  O   -0.292282
   125  C    0.202560
   126  O   -0.291976
   127  H    0.103164
   128  H    0.023120
   129  H   -0.015711
   130  H   -0.003602
   131  H    0.163050
   132  N   -0.098721
   133  C    0.051496
   134  C    0.070186
   135  O   -0.240595
   136  C    0.057423
   137  H    0.122601
   138  H   -0.003915
   139  H    0.028799
   140  H    0.002066
   141  H    0.038060
   142  N   -0.136311
   143  C    0.054530
   144  C    0.092639
   145  O   -0.264727
   146  C    0.086685
   147  H    0.113195
   148  H    0.003805
   149  H   -0.013059
   150  H    0.051170
   151  H    0.011431
   152  N   -0.127874
   153  C    0.122657
   154  C    0.016885
   155  O   -0.282996
   156  C    0.041740
   157  C    0.139884
   158  C    0.109323
   159  O   -0.471741
   160  O   -0.419906
   161  H    0.089398
   162  H    0.032476
   163  H   -0.011524
   164  H    0.027893
   165  H    0.014412
   166  H   -0.003483
   167  N   -0.149636
   168  C    0.141475
   169  H    0.026892
   170  H    0.040512
   171  H    0.017451
   172  H    0.108170
   173  Ca   1.349382
   174  O   -0.293481
   175  H    0.200835
   176  H    0.191796
 Sum of Mulliken charges =  -0.00000
 Mulliken charges with hydrogens summed into heavy atoms:
               1
     1  C    0.117075
     2  C   -0.033675
     3  O   -0.333204
     7  N   -0.014159
     8  C    0.157562
     9  C    0.118571
    10  O   -0.291517
    11  C    0.067468
    12  C    0.044714
    13  O   -0.397701
    14  O   -0.336078
    19  N    0.008009
    20  C    0.066068
    21  C    0.093504
    22  O   -0.240573
    23  C    0.083256
    24  C    0.026518
    25  C    0.054169
    26  C    0.139392
    27  N    0.615576
    41  N   -0.092122
    42  C    0.155798
    43  C    0.052080
    44  O   -0.265418
    45  C    0.108120
    46  C    0.111783
    47  O   -0.324160
    48  O   -0.514830
    53  N   -0.019967
    54  C    0.198844
    55  C    0.025008
    56  O   -0.241252
    60  N    0.007913
    61  C    0.016800
    62  C    0.044156
    63  O   -0.262983
    64  C    0.211008
    65  C   -0.029485
    66  N    0.187217
    67  O   -0.249299
    74  N    0.022012
    75  C    0.256380
    76  C    0.045417
    77  O   -0.270199
    81  N   -0.007988
    82  C    0.100507
    83  C    0.123429
    84  O   -0.267607
    85  C    0.143436
    86  C   -0.001570
    87  C   -0.002318
    88  C   -0.073383
    89  C   -0.015874
    90  C   -0.087539
    91  C    0.132164
    92  O   -0.005348
   102  N   -0.027296
   103  C    0.142339
   104  C    0.084627
   105  O   -0.262779
   106  C   -0.104981
   107  C   -0.025262
   108  C    0.054998
   109  C    0.051991
   121  N    0.021382
   122  C    0.111578
   123  C    0.098362
   124  O   -0.292282
   125  C    0.183247
   126  O   -0.128926
   132  N    0.023879
   133  C    0.047581
   134  C    0.070186
   135  O   -0.240595
   136  C    0.126348
   142  N   -0.023117
   143  C    0.058335
   144  C    0.092639
   145  O   -0.264727
   146  C    0.136226
   152  N   -0.038476
   153  C    0.155133
   154  C    0.016885
   155  O   -0.282996
   156  C    0.058109
   157  C    0.150813
   158  C    0.109323
   159  O   -0.471741
   160  O   -0.419906
   167  N   -0.041466
   168  C    0.226330
   173  Ca   1.349382
   174  O    0.099150
 DipInt: DoE/N= T F RetVal/Mat= T F Init=T NMatP=  1 IDeriv=0 Min/MaxMlt=  0  4
 Entering OneElI...
 OneElI was handed  1333951383 working-precision words.
 Multipole integrals L=0 to 4 MinM= 0 MaxM= 0.
 Requested accuracy = 0.1000D-12
 ShPair: Thresh= 1.00D-13 NBox=     0 BxSize= 0.00D+00 RnKept= 2.85D+01
         NSMCal=               327645 NSMKep=              137227
 PrmmSu-InSpLW:  IPartL=    0 NPrtUS=    1 NPrtUL=    1 DoSpLW=F IThBeg=    0 IThEnd=    0 NThAct=    1.
 PrsmSu:  NPrtUS=   1 ThrOK=F IAlg=1 NPAlg=1 LenDen=           0 ISkipM=0 DoSpLW=F IThBeg=    0 IThEnd=    0.
 Prism:   IPart=     0 DynPar=F LinDyn=F Incr=         512.
 PRISM was handed  1324798419 working-precision words and137227 shell-pairs
 IPart=  0 NShTot=      137227 NBatch=         318 AvBLen=       431.5
 PrsmSu-ThDecC:  IPartSL=    0    0 NPrtUSL=    1    1 IThBeg=    0 IThEnd=    0 CPU=   -1 GPU=   -1 NThAct=    1.
 PrSmSu:  NxtVal=            513.
 Electronic moments (au):
       -716.00000000         -7.39598600         -6.67799689         12.36896689
     -65708.01551610     -36410.02110902     -17821.45437149       -193.38691856
         67.92100739        -59.83485164     137333.07006658     -85134.65512294
      -7756.29835346      -9332.73484667     157232.70694900     -35474.21061733
     -35875.34239111     -22781.53845385     -70848.74934034       9701.87561394
  -12415794.48255484   -4280740.51611320   -1105630.03481764    -559858.35484165
   -1103561.28245956     332379.78102739    -631066.88529666     175942.60396309
    -110709.89875215   -2272400.66630173   -1238841.05535069   -1231022.70673640
     456666.98864749      68311.65033523      73960.67901483
 Electronic spatial extent (au):  <R**2>=         119939.4910
 DipInt: DoE/N= F T RetVal/Mat= T F Init=T NMatP=  1 IDeriv=0 Min/MaxMlt=  0  4
 Nuclear    moments (au):
        716.00000000         -0.00000000          0.00000000         -0.00000000
      65310.77524262      36147.63771054      17352.54487028         -0.00000000
          0.00000000         -0.00000000    -141383.64786520      84572.63038104
       8685.33637979      10766.84723868    -158886.26024178      36192.33612745
      35903.06921895      22295.96687484      72110.59685017     -10425.22855582
   12194475.85673380    4188361.06475184    1037775.84186598     534395.13796706
    1109890.81237581    -358798.92771141     625699.66360962    -170442.37443789
     107567.76222784    2228052.29719688    1194031.88979945    1201843.38674833
    -467345.85591202     -57928.95998850     -80138.36404154
 Total      moments (au):
         -0.00000000         -7.39598600         -6.67799689         12.36896689
       -397.24027348       -262.38339848       -468.90950121       -193.38691856
         67.92100739        -59.83485164      -4050.57779862       -562.02474190
        929.03802633       1434.11239201      -1653.55329278        718.12551012
         27.72682784       -485.57157901       1261.84750983       -723.35294188
    -221318.62582104     -92379.45136136     -67854.19295166     -25463.21687460
       6329.52991625     -26419.14668402      -5367.22168704       5500.22952519
      -3142.13652430     -44348.36910484     -44809.16555124     -29179.31998807
     -10678.86726453      10382.69034673      -6177.68502671
 Traceless Quadrup. (au):
        -21.06254909        113.79432591        -92.73177682       -193.38691856
         67.92100739        -59.83485164
 Charge=             -0.0000 electrons
 Dipole moment (field-independent basis, Debye):
    X=            -18.7987    Y=            -16.9738    Z=             31.4388  Tot=             40.3720
 Quadrupole moment (field-independent basis, Debye-Ang):
   XX=           -534.3018   YY=           -352.9147   ZZ=           -630.6993
   XY=           -260.1120   XZ=             91.3561   YZ=            -80.4799
 Traceless Quadrupole moment (field-independent basis, Debye-Ang):
   XX=            -28.3298   YY=            153.0573   ZZ=           -124.7274
   XY=           -260.1120   XZ=             91.3561   YZ=            -80.4799
 Octapole moment (field-independent basis, Debye-Ang**2):
  XXX=          -2883.0452  YYY=           -400.0276  ZZZ=            661.2535  XYY=           1020.7459
  XXY=          -1176.9355  XXZ=            511.1341  XZZ=             19.7349  YZZ=           -345.6111
  YYZ=            898.1344  XYZ=           -514.8548
 Hexadecapole moment (field-independent basis, Debye-Ang**3):
 XXXX=         -83359.2071 YYYY=         -34794.5311 ZZZZ=         -25557.1428 XXXY=          -9590.6685
 XXXZ=           2384.0045 YYYX=          -9950.7175 YYYZ=          -2021.5531 ZZZX=           2071.6502
 ZZZY=          -1183.4793 XXYY=         -16703.7224 XXZZ=         -16877.2804 YYZZ=         -10990.3311
 XXYZ=          -4022.1735 YYXZ=           3910.6191 ZZXY=          -2326.8124
 N-N= 1.981944547287D+04 E-N=-5.211599440492D+04  KE= 5.290439017419D+03
 Leave Link  601 at Wed Sep 18 14:33:42 2019, MaxMem=  1342177280 cpu:              47.0 elap:               1.2
 FitSet:  NAtFit=   176 NAtPot=   176 NAtFrz=     0 MDM=   180 TotChg=   0.00000
 Merz-Kollman atomic radii used.
 Read replacement radii for each type of atom:
 Rad(20) =   1.700000000000D+00
 Atom Element Radius
    1     6    1.50
    2     6    1.50
    3     8    1.40
    4     1    1.20
    5     1    1.20
    6     1    1.20
    7     7    1.50
    8     6    1.50
    9     6    1.50
   10     8    1.40
   11     6    1.50
   12     6    1.50
   13     8    1.40
   14     8    1.40
   15     1    1.20
   16     1    1.20
   17     1    1.20
   18     1    1.20
   19     7    1.50
   20     6    1.50
   21     6    1.50
   22     8    1.40
   23     6    1.50
   24     6    1.50
   25     6    1.50
   26     6    1.50
   27     7    1.50
   28     1    1.20
   29     1    1.20
   30     1    1.20
   31     1    1.20
   32     1    1.20
   33     1    1.20
   34     1    1.20
   35     1    1.20
   36     1    1.20
   37     1    1.20
   38     1    1.20
   39     1    1.20
   40     1    1.20
   41     7    1.50
   42     6    1.50
   43     6    1.50
   44     8    1.40
   45     6    1.50
   46     6    1.50
   47     8    1.40
   48     8    1.40
   49     1    1.20
   50     1    1.20
   51     1    1.20
   52     1    1.20
   53     7    1.50
   54     6    1.50
   55     6    1.50
   56     8    1.40
   57     1    1.20
   58     1    1.20
   59     1    1.20
   60     7    1.50
   61     6    1.50
   62     6    1.50
   63     8    1.40
   64     6    1.50
   65     6    1.50
   66     7    1.50
   67     8    1.40
   68     1    1.20
   69     1    1.20
   70     1    1.20
   71     1    1.20
   72     1    1.20
   73     1    1.20
   74     7    1.50
   75     6    1.50
   76     6    1.50
   77     8    1.40
   78     1    1.20
   79     1    1.20
   80     1    1.20
   81     7    1.50
   82     6    1.50
   83     6    1.50
   84     8    1.40
   85     6    1.50
   86     6    1.50
   87     6    1.50
   88     6    1.50
   89     6    1.50
   90     6    1.50
   91     6    1.50
   92     8    1.40
   93     1    1.20
   94     1    1.20
   95     1    1.20
   96     1    1.20
   97     1    1.20
   98     1    1.20
   99     1    1.20
  100     1    1.20
  101     1    1.20
  102     7    1.50
  103     6    1.50
  104     6    1.50
  105     8    1.40
  106     6    1.50
  107     6    1.50
  108     6    1.50
  109     6    1.50
  110     1    1.20
  111     1    1.20
  112     1    1.20
  113     1    1.20
  114     1    1.20
  115     1    1.20
  116     1    1.20
  117     1    1.20
  118     1    1.20
  119     1    1.20
  120     1    1.20
  121     7    1.50
  122     6    1.50
  123     6    1.50
  124     8    1.40
  125     6    1.50
  126     8    1.40
  127     1    1.20
  128     1    1.20
  129     1    1.20
  130     1    1.20
  131     1    1.20
  132     7    1.50
  133     6    1.50
  134     6    1.50
  135     8    1.40
  136     6    1.50
  137     1    1.20
  138     1    1.20
  139     1    1.20
  140     1    1.20
  141     1    1.20
  142     7    1.50
  143     6    1.50
  144     6    1.50
  145     8    1.40
  146     6    1.50
  147     1    1.20
  148     1    1.20
  149     1    1.20
  150     1    1.20
  151     1    1.20
[...]
 **** Fit       0.017144
 **** Fit       0.015490
 **** Fit       0.013523
 **** Fit       0.011253
 **** Fit       0.008745
 **** Fit       0.006155
 **** Fit       0.003787
 **** Fit       0.002127
 **** Fit       0.022322
 **** Fit       0.021501
 **** Fit       0.020568
 **** Fit       0.019448
 **** Fit       0.018086
 **** Fit       0.016436
 **** Fit       0.014462
 **** Fit       0.012135
 **** Fit       0.009440
 **** Fit       0.006399
 **** Fit       0.003111
 **** Fit      -0.000178
 **** Fit      -0.003001
 **** Fit       0.023633
 **** Fit       0.022745
 **** Fit       0.021730
 **** Fit       0.020512
 **** Fit       0.019035
 **** Fit       0.017250
 **** Fit       0.015106
 **** Fit       0.012549
 **** Fit       0.009518
 **** Fit       0.005956
 **** Fit       0.001836
 **** Fit      -0.002764
 **** Fit      -0.007541
 **** Fit       0.025205
 **** Fit       0.024232
 **** Fit       0.023114
 **** Fit       0.021782
 **** Fit       0.020184
 **** Fit       0.018268
 **** Fit       0.015979
 **** Fit       0.013244
 **** Fit       0.009967
 **** Fit       0.006021
 **** Fit       0.001256
 **** Fit      -0.004467
 **** Fit       0.026652
 **** Fit       0.025466
 **** Fit       0.024081
 **** Fit       0.022439
 **** Fit       0.020490
 **** Fit       0.018180
 **** Fit       0.015433
 **** Fit       0.012140
 **** Fit       0.008137
 **** Fit       0.003184
 **** Fit      -0.003051
 **** Fit       0.028444
 **** Fit       0.026894
 **** Fit       0.025081
 **** Fit       0.022951
 **** Fit       0.020445
 **** Fit       0.017481
 **** Fit       0.013933
 **** Fit       0.009591
 **** Fit       0.004111
 **** Fit       0.029446
 **** Fit       0.027195
 **** Fit       0.024587
 **** Fit       0.021553
 **** Fit       0.017986
 **** Fit       0.013697
 **** Fit       0.008342
 **** Fit       0.029663
 **** Fit       0.026501
 **** Fit       0.022905
 **** Fit       0.018747
 **** Fit       0.013784
 **** Fit       0.015107
 **** Fit       0.014567
 **** Fit       0.015971
 **** Fit       0.013427
 **** Fit       0.014150
 **** Fit       0.015482
 **** Fit       0.016632
 **** Fit       0.011353
 **** Fit       0.011502
 **** Fit       0.012679
 **** Fit       0.013776
 **** Fit       0.015043
 **** Fit       0.016116
 **** Fit       0.017123
 **** Fit       0.009095
 **** Fit       0.008526
 **** Fit       0.009164
 **** Fit       0.010585
 **** Fit       0.012249
 **** Fit       0.013373
 **** Fit       0.014655
 **** Fit       0.015702
 **** Fit       0.016656
 **** Fit       0.017645
 **** Fit       0.005269
 **** Fit       0.004977
 **** Fit       0.005939
 **** Fit       0.007721
 **** Fit       0.009797
 **** Fit       0.011750
 **** Fit       0.012873
 **** Fit       0.014223
 **** Fit       0.015291
 **** Fit       0.016233
 **** Fit       0.017187
 **** Fit       0.018274
 **** Fit       0.000457
 **** Fit       0.000096
 **** Fit       0.001273
 **** Fit       0.003513
 **** Fit       0.006211
 **** Fit       0.008846
 **** Fit       0.011100
 **** Fit       0.012216
 **** Fit       0.013644
 **** Fit       0.014750
 **** Fit       0.015698
 **** Fit       0.016625
 **** Fit       0.017650
 **** Fit      -0.006710
 **** Fit      -0.005237
 **** Fit      -0.002388
 **** Fit       0.001122
 **** Fit       0.004653
 **** Fit       0.007777
 **** Fit       0.010299
 **** Fit       0.011356
 **** Fit       0.012963
 **** Fit       0.014178
 **** Fit       0.015198
 **** Fit       0.016181
 **** Fit       0.017255
 **** Fit      -0.002506
 **** Fit       0.002194
 **** Fit       0.006111
 **** Fit       0.009136
 **** Fit       0.010275
 **** Fit       0.012089
 **** Fit       0.013433
 **** Fit       0.014536
 **** Fit       0.015577
 **** Fit       0.016691
 **** Fit      -0.000635
 **** Fit       0.004151
 **** Fit       0.007720
 **** Fit       0.009009
 **** Fit       0.011103
 **** Fit       0.012615
 **** Fit       0.013822
 **** Fit       0.014934
 **** Fit       0.016111
 **** Fit       0.001671
 **** Fit       0.005992
 **** Fit       0.007697
 **** Fit       0.010190
 **** Fit       0.011909
 **** Fit       0.013223
 **** Fit       0.014409
 **** Fit       0.003948
 **** Fit       0.009560
 **** Fit       0.011421
 **** Fit       0.012743
 **** Fit       0.021065
 **** Fit       0.021395
 **** Fit       0.020675
 **** Fit       0.021149
 **** Fit       0.021584
 **** Fit       0.021907
 **** Fit       0.022081
 **** Fit       0.022105
 **** Fit       0.020331
 **** Fit       0.020832
 **** Fit       0.021368
 **** Fit       0.021867
 **** Fit       0.022286
 **** Fit       0.022593
 **** Fit       0.022771
 **** Fit       0.022817
 **** Fit       0.020021
 **** Fit       0.020543
 **** Fit       0.021136
 **** Fit       0.021727
 **** Fit       0.022278
 **** Fit       0.022762
 **** Fit       0.023159
 **** Fit       0.023452
 **** Fit       0.023625
 **** Fit       0.023676
 **** Fit       0.019674
 **** Fit       0.020202
 **** Fit       0.020822
 **** Fit       0.021462
 **** Fit       0.022083
 **** Fit       0.022670
 **** Fit       0.023211
 **** Fit       0.023695
 **** Fit       0.024108
 **** Fit       0.024430
 **** Fit       0.024642
 **** Fit       0.024738
 **** Fit       0.019945
 **** Fit       0.020635
 **** Fit       0.021338
 **** Fit       0.022023
 **** Fit       0.022683
 **** Fit       0.023321
 **** Fit       0.023938
 **** Fit       0.024523
 **** Fit       0.025054
 **** Fit       0.025505
 **** Fit       0.025846
 **** Fit       0.026054
 **** Fit       0.019580
 **** Fit       0.020328
 **** Fit       0.021079
 **** Fit       0.021803
 **** Fit       0.022508
 **** Fit       0.023213
 **** Fit       0.023934
 **** Fit       0.024673
 **** Fit       0.025415
 **** Fit       0.026130
 **** Fit       0.026777
 **** Fit       0.027312
 **** Fit       0.027698
 **** Fit       0.019128
 **** Fit       0.019944
 **** Fit       0.020745
 **** Fit       0.021505
 **** Fit       0.022249
 **** Fit       0.023020
 **** Fit       0.023854
 **** Fit       0.024767
 **** Fit       0.025748
 **** Fit       0.026761
 **** Fit       0.027754
 **** Fit       0.028665
 **** Fit       0.029429
 **** Fit       0.018623
 **** Fit       0.019531
 **** Fit       0.020392
 **** Fit       0.021204
 **** Fit       0.022033
 **** Fit       0.022961
 **** Fit       0.024048
 **** Fit       0.025310
 **** Fit       0.026719
 **** Fit       0.028209
 **** Fit       0.029689
 **** Fit       0.031058
 **** Fit       0.032213
 **** Fit       0.017981
 **** Fit       0.018960
 **** Fit       0.019865
 **** Fit       0.020761
 **** Fit       0.021791
 **** Fit       0.023088
 **** Fit       0.024718
 **** Fit       0.026662
 **** Fit       0.028830
 **** Fit       0.031082
 **** Fit       0.033257
 **** Fit       0.035186
 **** Fit       0.017253
 **** Fit       0.018235
 **** Fit       0.019171
 **** Fit       0.020244
 **** Fit       0.021694
 **** Fit       0.023684
 **** Fit       0.026239
 **** Fit       0.029249
 **** Fit       0.032517
 **** Fit       0.035800
 **** Fit       0.018260
 **** Fit       0.019527
 **** Fit       0.021490
 **** Fit       0.024441
 **** Fit       0.028383
 **** Fit       0.033068
 **** Fit       0.039876
 **** Fit       0.021097
 **** Fit       0.024351
 **** Fit       0.028384
 **** Fit       0.032800
 **** Fit       0.037127
 **** Fit       0.040952
 **** Fit       0.043952
 **** Fit       0.045873
 **** Fit       0.027257
 **** Fit       0.033687
 **** Fit       0.039633
 **** Fit       0.044662
 **** Fit       0.048479
 **** Fit       0.050844
 **** Fit       0.034303
 **** Fit       0.042574
 **** Fit       0.049360
 **** Fit       0.061838
 **** Fit       0.071900
 **** Fit       0.060106
 **** Fit       0.049898
 **** Fit       0.051036
 **** Fit       0.062295
 **** Fit       0.073076
 **** Fit       0.081173
 **** Fit       0.069903
 **** Fit       0.057221
 **** Fit       0.045642
 **** Fit       0.061344
 **** Fit       0.073962
 **** Fit       0.083673
 **** Fit       0.086636
 **** Fit       0.089607
 **** Fit       0.077842
 **** Fit       0.065149
 **** Fit       0.053325
 **** Fit       0.042395
 **** Fit       0.058829
 **** Fit       0.071551
 **** Fit       0.083738
 **** Fit       0.093485
 **** Fit       0.098615
 **** Fit       0.097317
 **** Fit       0.097026
 **** Fit       0.084371
 **** Fit       0.071137
 **** Fit       0.059105
 **** Fit       0.048617
 **** Fit       0.038917
 **** Fit       0.054593
 **** Fit       0.067284
 **** Fit       0.080101
 **** Fit       0.092069
 **** Fit       0.102156
 **** Fit       0.108916
 **** Fit       0.110683
 **** Fit       0.106508
 **** Fit       0.103036
 **** Fit       0.089082
 **** Fit       0.074741
 **** Fit       0.061837
 **** Fit       0.051044
 **** Fit       0.041905
 **** Fit       0.033337
 **** Fit       0.057392
 **** Fit       0.070913
 **** Fit       0.084072
 **** Fit       0.096444
 **** Fit       0.107506
 **** Fit       0.116244
 **** Fit       0.121085
 **** Fit       0.120550
 **** Fit       0.114211
 **** Fit       0.107052
 **** Fit       0.092434
 **** Fit       0.077443
 **** Fit       0.063771
 **** Fit       0.052323
 **** Fit       0.043084
 **** Fit       0.035302
 **** Fit       0.059807
 **** Fit       0.073578
 **** Fit       0.086626
 **** Fit       0.098940
 **** Fit       0.110361
 **** Fit       0.120268
 **** Fit       0.127375
 **** Fit       0.130063
 **** Fit       0.127310
 **** Fit       0.119269
 **** Fit       0.078638
 **** Fit       0.064432
 **** Fit       0.052199
 **** Fit       0.042290
 **** Fit       0.034388
 **** Fit       0.057683
 **** Fit       0.071750
 **** Fit       0.084773
 **** Fit       0.097002
 **** Fit       0.108551
 **** Fit       0.119177
 **** Fit       0.128023
 **** Fit       0.133595
 **** Fit       0.134433
 **** Fit       0.130084
 **** Fit       0.041702
 **** Fit       0.032933
 **** Fit       0.055344
 **** Fit       0.069223
 **** Fit       0.081776
 **** Fit       0.093399
 **** Fit       0.104348
 **** Fit       0.114616
 **** Fit       0.123760
 **** Fit       0.130754
 **** Fit       0.133266
 **** Fit       0.031535
 **** Fit       0.052966
 **** Fit       0.066195
 **** Fit       0.077924
 **** Fit       0.088593
 **** Fit       0.098494
 **** Fit       0.107728
 **** Fit       0.116113
 **** Fit       0.123078
 **** Fit       0.127702
 **** Fit       0.129086
 **** Fit       0.056420
 **** Fit       0.068292
 **** Fit       0.078728
 **** Fit       0.088110
 **** Fit       0.096660
 **** Fit       0.104408
 **** Fit       0.111141
 **** Fit       0.116366
 **** Fit       0.119418
 **** Fit       0.119768
 **** Fit       0.046784
 **** Fit       0.058696
 **** Fit       0.068863
 **** Fit       0.077714
 **** Fit       0.085526
 **** Fit       0.092436
 **** Fit       0.098426
 **** Fit       0.103302
 **** Fit       0.106722
 **** Fit       0.108303
 **** Fit       0.107822
 **** Fit       0.033815
 **** Fit       0.046437
 **** Fit       0.056916
 **** Fit       0.065747
 **** Fit       0.073268
 **** Fit       0.079694
 **** Fit       0.085124
 **** Fit       0.089541
 **** Fit       0.092824
 **** Fit       0.094780
 **** Fit       0.095236
 **** Fit       0.094162
 **** Fit       0.091777
 **** Fit       0.034569
 **** Fit       0.045279
 **** Fit       0.054127
 **** Fit       0.061461
 **** Fit       0.067524
 **** Fit       0.072461
 **** Fit       0.076339
 **** Fit       0.079151
 **** Fit       0.080837
 **** Fit       0.081323
 **** Fit       0.080596
 **** Fit       0.078785
 **** Fit       0.076254
 **** Fit       0.028222
 **** Fit       0.038370
 **** Fit       0.046636
 **** Fit       0.053307
 **** Fit       0.058588
 **** Fit       0.062605
 **** Fit       0.065421
 **** Fit       0.067047
 **** Fit       0.067462
 **** Fit       0.066659
 **** Fit       0.064712
 **** Fit       0.022189
 **** Fit       0.031446
 **** Fit       0.038923
 **** Fit       0.044801
 **** Fit       0.049221
 **** Fit       0.052268
 **** Fit       0.053976
 **** Fit       0.054344
 **** Fit       0.053351
 **** Fit       0.013458
 **** Fit       0.022201
 **** Fit       0.029277
 **** Fit       0.034743
 **** Fit       0.038661
 **** Fit       0.041065
 **** Fit       0.041949
 **** Fit       0.041271
 **** Fit       0.005279
 **** Fit       0.013067
 **** Fit       0.019475
 **** Fit       0.024388
 **** Fit       0.027754
 **** Fit       0.029528
 **** Fit       0.029643
 **** Fit      -0.007390
 **** Fit      -0.000233
 **** Fit       0.006165
 **** Fit       0.011354
 **** Fit       0.015067
 **** Fit       0.017124
 **** Fit       0.017371
 **** Fit      -0.022952
 **** Fit      -0.023340
 **** Fit      -0.021423
 **** Fit      -0.017568
 **** Fit      -0.012519
 **** Fit      -0.007157
 **** Fit      -0.002265
 **** Fit       0.001569
 **** Fit       0.003935
 **** Fit       0.004533
 **** Fit      -0.024972
 **** Fit      -0.022932
 **** Fit      -0.019771
 **** Fit      -0.016164
 **** Fit      -0.012857
 **** Fit      -0.010506
 **** Fit      -0.009617
 **** Fit      -0.022909
 **** Fit      -0.024306
 **** Fit      -0.025916
 **** Fit      -0.026387
 **** Fit      -0.023395
 **** Fit      -0.026985
 **** Fit      -0.030597
 **** Fit      -0.034563
 **** Fit      -0.023581
 **** Fit      -0.028133
 **** Fit      -0.033533
 **** Fit      -0.023202
 **** Fit      -0.028272
 **** Fit      -0.034759
 **** Fit      -0.024923
 **** Fit      -0.031261
 **** Fit      -0.010351
 **** Fit      -0.013363
 **** Fit      -0.015847
 **** Fit      -0.017964
 **** Fit      -0.020782
 **** Fit      -0.025227
 **** Fit      -0.018553
 **** Fit      -0.020291
 **** Fit      -0.022637
 **** Fit      -0.026220
 **** Fit      -0.031916
 **** Fit      -0.047381
 **** Fit      -0.038749
 **** Fit      -0.031389
 **** Fit      -0.027008
 **** Fit      -0.025780
 **** Fit      -0.026851
 **** Fit      -0.029991
 **** Fit      -0.035832
 **** Fit      -0.048492
 **** Fit      -0.040325
 **** Fit      -0.034864
 **** Fit      -0.033592
 **** Fit      -0.036710
 **** Fit      -0.049999
 **** Fit      -0.042807
 **** Fit      -0.044321
 **** Fit      -0.023608
 **** Fit      -0.023342
 **** Fit      -0.020665
 **** Fit      -0.019962
 **** Fit      -0.020563
 **** Fit      -0.021478
 **** Fit      -0.027924
 **** Fit      -0.023544
 **** Fit      -0.021289
 **** Fit      -0.020639
 **** Fit      -0.021016
 **** Fit      -0.025823
 **** Fit      -0.022761
 **** Fit      -0.021274
 **** Fit      -0.021108
 **** Fit      -0.021943
 **** Fit      -0.025888
 **** Fit      -0.023249
 **** Fit      -0.021599
 **** Fit      -0.021242
 **** Fit      -0.022200
 **** Fit      -0.013401
 **** Fit      -0.019495
 **** Fit      -0.021848
 **** Fit      -0.021775
 **** Fit      -0.021042
 **** Fit      -0.020869
 **** Fit      -0.021873
 **** Fit      -0.014725
 **** Fit      -0.017770
 **** Fit      -0.019024
 **** Fit      -0.020040
 **** Fit      -0.017266
 -----------------------------------------------------------------
 Leave Link  602 at Wed Sep 18 14:33:45 2019, MaxMem=  1342177280 cpu:             126.8 elap:               2.7

 Test job not archived.
 1\1\GINC-C480-083\SP\RB3LYP\SVP\C54H83Ca1N15O23\PENGZHI\18-Sep-2019\0\
 \#b3lyp/svp scf=(tight,noincore) Test #IOP(5/87=12) Density=Current Po
 p=(MK,readradii) iop(6/33=2) iop(6/42=6)\\Ng-31_loop3_23.0\\0,1\C,0,0.
 092,90.69,14.73\C,0,0.252,89.45,15.59\O,0,-0.428,89.27,16.6\H,0,-0.659
 ,91.344,15.173\H,0,1.044,91.218,14.672\H,0,-0.225,90.4,13.728\N,0,1.11
 2,88.49,15.23\C,0,1.482,87.23,15.85\C,0,2.332,87.35,17.1\O,0,2.252,86.
 38,17.85\C,0,2.152,86.28,14.86\C,0,3.172,86.93,13.95\O,0,3.532,88.11,1
 4.17\O,0,3.572,86.31,12.94\H,0,1.702,88.77,14.46\H,0,0.532,86.77,16.1\
 H,0,1.452,85.9,14.12\H,0,2.622,85.43,15.37\N,0,2.902,88.53,17.39\C,0,3
 .442,88.95,18.66\C,0,4.642,88.11,19.08\O,0,5.662,87.87,18.44\C,0,3.872
 ,90.42,18.6\C,0,2.672,91.36,18.47\C,0,2.872,92.79,18.98\C,0,1.652,93.7
 1,18.9\N,0,0.382,93.2,19.45\H,0,3.122,89.12,16.6\H,0,2.652,88.78,19.39
 \H,0,4.532,90.64,17.76\H,0,4.462,90.69,19.47\H,0,1.832,90.95,19.02\H,0
 ,2.452,91.44,17.41\H,0,3.692,93.38,18.58\H,0,3.142,92.78,20.04\H,0,1.5
 12,94.02,17.87\H,0,1.912,94.7,19.29\H,0,0.462,93.04,20.44\H,0,-0.388,9
 3.86,19.41\H,0,0.152,92.34,18.98\N,0,4.442,87.58,20.28\C,0,5.382,86.68
 ,20.93\C,0,5.062,85.22,20.67\O,0,5.762,84.28,21.04\C,0,5.612,87.04,22.
 39\C,0,4.402,87.15,23.31\O,0,4.382,86.52,24.39\O,0,3.362,87.73,22.94\H
 ,0,3.652,87.86,20.84\H,0,6.312,86.81,20.37\H,0,6.192,87.96,22.34\H,0,6
 .322,86.36,22.87\N,0,4.032,84.93,19.86\C,0,3.542,83.61,19.55\C,0,4.432
 ,82.88,18.56\O,0,5.372,83.51,18.08\H,0,3.502,85.66,19.4\H,0,2.572,83.6
 ,19.05\H,0,3.462,83.05,20.48\N,0,4.152,81.62,18.2\C,0,3.132,80.63,18.4
 9\C,0,2.782,79.8,17.27\O,0,3.422,78.77,17.04\C,0,3.512,79.75,19.68\C,0
 ,3.482,80.46,21.03\N,0,2.372,81.11,21.39\O,0,4.382,80.24,21.84\H,0,4.8
 12,81.28,17.51\H,0,2.192,81.1,18.76\H,0,4.542,79.44,19.48\H,0,2.832,78
 .9,19.75\H,0,1.672,81.13,20.66\H,0,2.282,81.59,22.28\N,0,1.842,80.19,1
 6.4\C,0,1.192,81.48,16.4\C,0,-0.048,81.79,17.22\O,0,-0.158,82.9,17.74\
 H,0,1.672,79.6,15.6\H,0,0.892,81.68,15.37\H,0,1.872,82.3,16.66\N,0,-0.
 968,80.83,17.39\C,0,-1.878,81.,18.5\C,0,-1.228,81.04,19.87\O,0,-0.048,
 80.74,20.06\C,0,-2.838,79.81,18.51\C,0,-3.688,79.76,17.27\C,0,-4.238,8
 0.88,16.62\C,0,-3.758,78.52,16.63\C,0,-4.928,80.66,15.42\C,0,-4.518,78
 .26,15.48\C,0,-5.068,79.38,14.83\O,0,-5.778,79.24,13.67\H,0,-0.848,79.
 96,16.9\H,0,-2.348,81.97,18.33\H,0,-3.478,79.89,19.39\H,0,-2.308,78.87
 ,18.6\H,0,-4.188,81.89,17.\H,0,-3.188,77.67,16.98\H,0,-5.418,81.41,14.
 83\H,0,-4.568,77.25,15.1\H,0,-5.648,78.31,13.47\N,0,-2.008,81.44,20.88
 \C,0,-1.498,82.11,22.06\C,0,-1.668,81.3,23.34\O,0,-1.028,81.69,24.31\C
 ,0,-2.068,83.51,22.21\C,0,-1.798,84.35,20.96\C,0,-3.568,83.49,22.52\C,
 0,-0.338,84.6,20.6\H,0,-2.998,81.51,20.69\H,0,-0.428,82.28,22.02\H,0,-
 1.588,84.01,23.05\H,0,-2.318,85.31,21.04\H,0,-2.318,83.84,20.15\H,0,-3
 .918,84.5,22.71\H,0,-4.098,83.17,21.62\H,0,-3.798,82.87,23.39\H,0,-0.2
 48,85.08,19.63\H,0,0.052,85.19,21.44\H,0,0.152,83.63,20.57\N,0,-2.458,
 80.22,23.29\C,0,-2.888,79.34,24.36\C,0,-3.948,79.89,25.3\O,0,-4.748,80
 .76,24.94\C,0,-3.508,78.13,23.67\O,0,-2.498,77.57,22.87\H,0,-2.878,79.
 98,22.41\H,0,-2.088,78.96,24.99\H,0,-4.308,78.42,22.99\H,0,-3.938,77.3
 9,24.35\H,0,-2.888,76.88,22.33\N,0,-3.948,79.36,26.52\C,0,-4.728,79.79
 ,27.67\C,0,-4.278,81.14,28.2\O,0,-3.138,81.54,27.98\C,0,-4.628,78.76,2
 8.79\H,0,-3.338,78.58,26.73\H,0,-5.788,79.79,27.4\H,0,-3.678,78.78,29.
 32\H,0,-5.288,79.13,29.57\H,0,-4.938,77.76,28.47\N,0,-5.178,81.85,28.8
 9\C,0,-4.958,83.19,29.4\C,0,-4.358,84.21,28.44\O,0,-3.428,84.93,28.82\
 C,0,-4.098,83.05,30.65\H,0,-6.138,81.53,28.86\H,0,-5.958,83.53,29.66\H
 ,0,-4.358,82.24,31.33\H,0,-3.048,82.93,30.39\H,0,-4.188,83.94,31.28\N,
 0,-4.848,84.43,27.22\C,0,-4.668,85.69,26.53\C,0,-5.968,86.1,25.86\O,0,
 -6.238,87.3,25.75\C,0,-3.458,85.58,25.61\C,0,-3.218,86.8,24.73\C,0,-1.
 748,87.08,24.44\O,0,-1.338,86.65,23.34\O,0,-0.958,87.81,25.07\H,0,-5.5
 98,83.8,26.95\H,0,-4.538,86.46,27.3\H,0,-3.378,84.63,25.09\H,0,-2.618,
 85.37,26.27\H,0,-3.718,87.67,25.16\H,0,-3.728,86.58,23.8\N,0,-6.758,85
 .17,25.34\C,0,-7.988,85.49,24.63\H,0,-8.74,85.831,25.342\H,0,-7.794,86
 .278,23.902\H,0,-8.353,84.601,24.115\H,0,-6.538,84.21,25.56\Ca,0,0.83,
 87.93,23.14\O,0,1.37,85.36,23.41\H,0,2.2,84.88,23.4\H,0,0.77,84.8,23.8
 9\\Version=ES64L-G16RevA.03\State=1-A\HF=-5333.3465643\RMSD=7.650e-10\
 Dipole=-13.7403531,7.0808095,3.6540972\Quadrupole=-120.1310089,253.675
 6287,-133.5446198,84.418201,25.9286431,-21.9260601\PG=C01 [X(C54H83Ca1
 N15O23)]\\@


 Everywhere is walking distance if you have the time.
                                    -- Steven Wright
 Job cpu time:       0 days 11 hours 22 minutes  8.6 seconds.
 Elapsed time:       0 days  0 hours 14 minutes 23.5 seconds.
 File lengths (MBytes):  RWF=   1517 Int=      0 D2E=      0 Chk=    171 Scr=      1
 Normal termination of Gaussian 16 at Wed Sep 18 14:33:47 2019.
