 Entering Gaussian System, Link 0=g16
 Initial command:
 /home1/apps/gaussian/16rA.03/g16/l1.exe "/scratch/01990/pengzhi/4356770/Gau-202625.inp" -scrdir="/scratch/01990/pengzhi/4356770/"
 Entering Link 1 = /home1/apps/gaussian/16rA.03/g16/l1.exe PID=    202626.
  
 Copyright (c) 1988,1990,1992,1993,1995,1998,2003,2009,2016,
            Gaussian, Inc.  All Rights Reserved.
  
 This is part of the Gaussian(R) 16 program.  It is based on
 the Gaussian(R) 09 system (copyright 2009, Gaussian, Inc.),
 the Gaussian(R) 03 system (copyright 2003, Gaussian, Inc.),
 the Gaussian(R) 98 system (copyright 1998, Gaussian, Inc.),
 the Gaussian(R) 94 system (copyright 1995, Gaussian, Inc.),
 the Gaussian 92(TM) system (copyright 1992, Gaussian, Inc.),
 the Gaussian 90(TM) system (copyright 1990, Gaussian, Inc.),
 the Gaussian 88(TM) system (copyright 1988, Gaussian, Inc.),
 the Gaussian 86(TM) system (copyright 1986, Carnegie Mellon
 University), and the Gaussian 82(TM) system (copyright 1983,
 Carnegie Mellon University). Gaussian is a federally registered
 trademark of Gaussian, Inc.
  
 This software contains proprietary and confidential information,
 including trade secrets, belonging to Gaussian, Inc.
  
 This software is provided under written license and may be
 used, copied, transmitted, or stored only in accord with that
 written license.
  
 The following legend is applicable only to US Government
 contracts under FAR:
  
                    RESTRICTED RIGHTS LEGEND
  
 Use, reproduction and disclosure by the US Government is
 subject to restrictions as set forth in subparagraphs (a)
 and (c) of the Commercial Computer Software - Restricted
 Rights clause in FAR 52.227-19.
  
 Gaussian, Inc.
 340 Quinnipiac St., Bldg. 40, Wallingford CT 06492
  
  
 ---------------------------------------------------------------
 Warning -- This program may not be used in any manner that
 competes with the business of Gaussian, Inc. or will provide
 assistance to any competitor of Gaussian, Inc.  The licensee
 of this program is prohibited from giving any competitor of
 Gaussian, Inc. access to this program.  By using this program,
 the user acknowledges that Gaussian, Inc. is engaged in the
 business of creating and licensing software in the field of
 computational chemistry and represents and warrants to the
 licensee that it is not a competitor of Gaussian, Inc. and that
 it will not use this program in any manner prohibited above.
 ---------------------------------------------------------------
  

 Cite this work as:
 Gaussian 16, Revision A.03,
 M. J. Frisch, G. W. Trucks, H. B. Schlegel, G. E. Scuseria, 
 M. A. Robb, J. R. Cheeseman, G. Scalmani, V. Barone, 
 G. A. Petersson, H. Nakatsuji, X. Li, M. Caricato, A. V. Marenich, 
 J. Bloino, B. G. Janesko, R. Gomperts, B. Mennucci, H. P. Hratchian, 
 J. V. Ortiz, A. F. Izmaylov, J. L. Sonnenberg, D. Williams-Young, 
 F. Ding, F. Lipparini, F. Egidi, J. Goings, B. Peng, A. Petrone, 
 T. Henderson, D. Ranasinghe, V. G. Zakrzewski, J. Gao, N. Rega, 
 G. Zheng, W. Liang, M. Hada, M. Ehara, K. Toyota, R. Fukuda, 
 J. Hasegawa, M. Ishida, T. Nakajima, Y. Honda, O. Kitao, H. Nakai, 
 T. Vreven, K. Throssell, J. A. Montgomery, Jr., J. E. Peralta, 
 F. Ogliaro, M. J. Bearpark, J. J. Heyd, E. N. Brothers, K. N. Kudin, 
 V. N. Staroverov, T. A. Keith, R. Kobayashi, J. Normand, 
 K. Raghavachari, A. P. Rendell, J. C. Burant, S. S. Iyengar, 
 J. Tomasi, M. Cossi, J. M. Millam, M. Klene, C. Adamo, R. Cammi, 
 J. W. Ochterski, R. L. Martin, K. Morokuma, O. Farkas, 
 J. B. Foresman, and D. J. Fox, Gaussian, Inc., Wallingford CT, 2016.
 
 ******************************************
 Gaussian 16:  ES64L-G16RevA.03 25-Dec-2016
                18-Sep-2019 
 ******************************************
 %chk=Ng-31_loop3_46.0.chk
 %nprocshared=48
 Will use up to   48 processors via shared memory.
 %mem=10GB
 %nosave
 ----------------------------------------------------------------------
 #b3lyp/svp scf=(tight,noincore) Test #IOP(5/87=12) Density=Current Pop
 =(MK,readradii) iop(6/33=2) iop(6/42=6)
 ----------------------------------------------------------------------
 1/30=1,38=1,172=1/1;
 2/12=2,17=6,18=5,40=1/2;
 3/5=18,7=101,11=2,25=1,30=1,74=-5/1,2,3;
 4//1;
 5/5=4,32=2,38=5,87=12/2;
 6/7=2,8=2,9=2,10=2,15=8,20=101,22=-1,28=1,33=2,42=6/1,2;
 99/5=1,9=1/99;
 ----------------
 Ng-31_loop3_46.0
 ----------------
 Symbolic Z-matrix:
 Charge =  0 Multiplicity = 1
 C                     85.21     72.19     29.02 
 C                     84.68     71.43     30.23 
 O                     83.75     71.92     30.86 
 H                     86.227    71.864    28.804 
 H                     84.574    71.99     28.158 
 H                     85.209    73.259    29.233 
 N                     85.21     70.25     30.58 
 C                     84.65     69.4      31.61 
 C                     85.13     69.78     33.01 
 O                     84.5      69.33     33.97 
 C                     84.97     67.92     31.39 
 C                     86.44     67.63     31.11 
 O                     87.32     68.52     31.1 
 O                     86.82     66.53     30.66 
 H                     86.1      69.95     30.21 
 H                     83.58     69.51     31.5 
 H                     84.42     67.63     30.5 
 H                     84.56     67.31     32.2 
 N                     86.07     70.72     33.09 
 C                     86.4      71.35     34.35 
 C                     87.16     70.46     35.32 
 O                     88.12     69.84     34.87 
 C                     87.18     72.63     34.04 
 C                     86.36     73.66     33.27 
 C                     87.03     75.03     33.3 
 C                     86.23     76.03     32.48 
 N                     86.79     77.39     32.35 
 H                     86.49     71.06     32.23 
 H                     85.48     71.7      34.83 
 H                     88.13     72.38     33.56 
 H                     87.47     72.99     35.03 
 H                     85.45     73.82     33.85 
 H                     86.05     73.34     32.28 
 H                     88.06     74.88     32.96 
 H                     87.04     75.37     34.33 
 H                     85.3      76.15     33.03 
 H                     86.18     75.6      31.48 
 H                     86.       77.98     32.17 
 H                     87.04     77.71     33.28 
 H                     87.55     77.48     31.69 
 N                     86.54     70.23     36.48 
 C                     86.79     69.16     37.42 
 C                     85.65     68.15     37.4 
 O                     85.65     67.26     38.25 
 C                     87.1      69.64     38.84 
 C                     86.08     70.63     39.4 
 O                     85.01     70.79     38.79 
 O                     86.43     71.37     40.35 
 H                     85.74     70.82     36.64 
 H                     87.61     68.71     36.87 
 H                     88.02     70.21     38.76 
 H                     87.2      68.77     39.48 
 N                     84.79     68.12     36.39 
 C                     83.88     67.01     36.15 
 C                     84.59     65.87     35.43 
 O                     85.75     65.88     35.03 
 H                     84.91     68.9      35.76 
 H                     83.16     67.35     35.42 
 H                     83.3      66.75     37.04 
 N                     83.9      64.77     35.11 
 C                     82.49     64.56     35.36 
 C                     81.92     63.93     34.1 
 O                     81.71     62.72     34.07 
 C                     82.22     63.73     36.61 
 C                     82.64     64.49     37.87 
 N                     83.89     64.5      38.32 
 O                     81.83     65.26     38.38 
 H                     84.41     64.1      34.55 
 H                     82.03     65.54     35.49 
 H                     82.78     62.79     36.58 
 H                     81.16     63.53     36.69 
 H                     84.54     63.79     38.03 
 H                     84.03     64.86     39.26 
 N                     81.52     64.7      33.08 
 C                     81.69     66.14     33.03 
 C                     80.52     66.97     33.53 
 O                     80.69     68.15     33.85 
 H                     81.16     64.2      32.28 
 H                     81.77     66.31     31.95 
 H                     82.57     66.42     33.6 
 N                     79.36     66.35     33.77 
 C                     78.29     66.85     34.61 
 C                     78.51     66.32     36.02 
 O                     79.23     65.34     36.22 
 C                     76.92     66.45     34.07 
 C                     76.61     66.75     32.62 
 C                     76.49     68.07     32.16 
 C                     76.47     65.69     31.72 
 C                     76.36     68.31     30.78 
 C                     76.23     65.91     30.36 
 C                     76.19     67.24     29.89 
 O                     76.1      67.54     28.56 
 H                     79.29     65.44     33.35 
 H                     78.27     67.94     34.63 
 H                     76.14     66.82     34.73 
 H                     76.83     65.37     34.22 
 H                     76.44     68.88     32.86 
 H                     76.67     64.66     31.97 
 H                     76.23     69.33     30.45 
 H                     76.24     65.12     29.63 
 H                     75.77     66.83     28. 
 N                     78.02     67.14     36.95 
 C                     78.63     67.26     38.26 
 C                     77.66     67.04     39.41 
 O                     78.21     66.73     40.46 
 C                     79.49     68.52     38.36 
 C                     80.75     68.35     37.51 
 C                     78.75     69.81     38.05 
 C                     81.83     69.42     37.67 
 H                     77.31     67.81     36.71 
 H                     79.32     66.43     38.4 
 H                     79.76     68.65     39.41 
 H                     80.55     68.48     36.44 
 H                     81.24     67.41     37.73 
 H                     78.68     69.98     36.97 
 H                     77.76     69.81     38.5 
 H                     79.24     70.71     38.42 
 H                     82.06     69.62     38.72 
 H                     82.71     69.12     37.11 
 H                     81.43     70.39     37.39 
 N                     76.33     67.12     39.32 
 C                     75.32     66.66     40.25 
 C                     74.9      67.83     41.12 
 O                     74.4      68.83     40.61 
 C                     74.18     66.07     39.42 
 O                     74.7      64.98     38.69 
 H                     76.01     67.45     38.42 
 H                     75.81     65.92     40.88 
 H                     73.83     66.82     38.71 
 H                     73.52     65.73     40.22 
 H                     74.12     64.89     37.92 
 N                     74.91     67.7      42.45 
 C                     74.57     68.71     43.43 
 C                     75.79     69.43     44. 
 O                     76.91     68.92     43.91 
 C                     73.58     68.09     44.42 
 H                     75.27     66.81     42.78 
 H                     74.07     69.53     42.91 
 H                     72.58     68.04     43.98 
 H                     73.88     67.06     44.64 
 H                     73.56     68.7      45.32 
 N                     75.68     70.55     44.71 
 C                     76.75     71.35     45.28 
 C                     77.94     71.73     44.41 
 O                     79.03     71.86     44.97 
 C                     77.03     70.72     46.64 
 H                     74.76     70.91     44.91 
 H                     76.36     72.32     45.58 
 H                     77.48     69.73     46.56 
 H                     77.88     71.2      47.12 
 H                     76.09     70.64     47.19 
 N                     77.73     71.78     43.09 
 C                     78.8      72.23     42.23 
 C                     78.35     73.33     41.27 
 O                     79.21     73.95     40.65 
 C                     79.35     71.01     41.5 
 C                     80.31     70.16     42.33 
 C                     81.66     70.77     42.69 
 O                     82.23     71.5      41.86 
 O                     82.43     70.2      43.5 
 H                     76.78     71.65     42.76 
 H                     79.62     72.61     42.84 
 H                     79.83     71.35     40.58 
 H                     78.48     70.37     41.33 
 H                     80.56     69.29     41.72 
 H                     79.88     69.87     43.29 
 N                     77.07     73.54     40.99 
 C                     76.56     74.44     39.97 
 H                     75.661    74.934    40.339 
 H                     77.316    75.19     39.735 
 H                     76.319    73.872    39.071 
 H                     76.36     72.94     41.4 
 Ca                    84.82     71.43     42.23 
 O                     87.03     72.63     42.92 
 H                     87.19     73.43     43.43 
 H                     87.67     72.       43.25 
 
 Stoichiometry    C54H83CaN15O23
 Framework group  C1[X(C54H83CaN15O23)]
 Deg. of freedom   522
 Full point group                 C1      NOp   1
 Largest Abelian subgroup         C1      NOp   1
 Largest concise Abelian subgroup C1      NOp   1
                         Standard orientation:                         
 ---------------------------------------------------------------------
 Center     Atomic      Atomic             Coordinates (Angstroms)
 Number     Number       Type             X           Y           Z
 ---------------------------------------------------------------------
      1          6           0        8.804189    0.043427    3.803671
      2          6           0        7.529345    0.172169    2.978566
      3          8           0        6.453874    0.139759    3.565261
      4          1           0        9.618922   -0.291440    3.162348
      5          1           0        9.056820    1.011434    4.235735
      6          1           0        8.648893   -0.682270    4.602031
      7          7           0        7.590425    0.333304    1.649617
      8          6           0        6.433805    0.627572    0.829473
      9          6           0        5.669676   -0.630400    0.419091
     10          8           0        4.525266   -0.485046   -0.017027
     11          6           0        6.795452    1.393418   -0.444847
     12          6           0        7.949863    0.788327   -1.235163
     13          8           0        8.528757   -0.267875   -0.894693
     14          8           0        8.529686    1.419945   -2.141676
     15          1           0        8.442234    0.144298    1.141977
     16          1           0        5.833602    1.291821    1.435798
     17          1           0        7.123934    2.374098   -0.114596
     18          1           0        5.905833    1.572264   -1.055494
     19          7           0        6.218332   -1.800384    0.741139
     20          6           0        5.467653   -3.034122    0.652986
     21          6           0        5.202510   -3.510877   -0.765818
     22          8           0        6.157931   -3.517671   -1.537584
     23          6           0        6.216031   -4.093235    1.466072
     24          6           0        6.290347   -3.764983    2.953664
     25          6           0        6.707965   -4.986566    3.766086
     26          6           0        6.833232   -4.627187    5.238347
     27          7           0        7.303125   -5.689703    6.149588
     28          1           0        7.150505   -1.804042    1.144426
     29          1           0        4.512587   -2.913166    1.175019
     30          1           0        7.191149   -4.290376    1.012551
     31          1           0        5.644771   -5.004298    1.272613
     32          1           0        5.263338   -3.594009    3.279425
     33          1           0        6.849125   -2.864378    3.188774
     34          1           0        7.627686   -5.365121    3.308038
     35          1           0        5.926428   -5.732130    3.666403
     36          1           0        5.816109   -4.404888    5.551147
     37          1           0        7.565361   -3.820773    5.271276
     38          1           0        6.940048   -5.439233    7.049610
     39          1           0        6.751968   -6.521084    5.962952
     40          1           0        8.297520   -5.868138    6.124294
     41          7           0        3.912786   -3.603747   -1.098818
     42          6           0        3.342416   -3.642287   -2.427047
     43          6           0        2.618972   -2.338701   -2.739124
     44          8           0        1.959013   -2.276673   -3.776045
     45          6           0        2.454841   -4.861904   -2.687130
     46          6           0        1.379596   -5.088136   -1.625637
     47          8           0        1.163675   -4.188477   -0.797028
     48          8           0        0.880642   -6.233792   -1.520202
     49          1           0        3.282273   -3.526622   -0.317662
     50          1           0        4.286322   -3.606296   -2.961039
     51          1           0        3.110449   -5.722410   -2.601058
     52          1           0        2.020343   -4.762983   -3.676032
     53          7           0        2.843118   -1.250010   -2.014477
     54          6           0        2.435110    0.083338   -2.431025
     55          6           0        3.433325    0.674126   -3.419274
     56          8           0        4.483732    0.154078   -3.782448
     57          1           0        3.410149   -1.440151   -1.200830
     58          1           0        2.537062    0.724099   -1.567353
     59          1           0        1.378055    0.125297   -2.708466
     60          7           0        3.227777    1.906377   -3.896565
     61          6           0        2.130691    2.776878   -3.531420
     62          6           0        2.727598    4.160741   -3.336417
     63          8           0        2.606038    5.002716   -4.222646
     64          6           0        0.991143    2.762049   -4.544095
     65          6           0        0.299207    1.397370   -4.565888
     66          7           0        0.754706    0.372024   -5.277427
     67          8           0       -0.604926    1.192513   -3.759863
     68          1           0        3.978912    2.267882   -4.469025
     69          1           0        1.744290    2.433241   -2.571469
     70          1           0        1.365175    2.967344   -5.552090
     71          1           0        0.248906    3.497677   -4.264927
     72          1           0        1.387921    0.526300   -6.042892
     73          1           0        0.125725   -0.418799   -5.385970
     74          7           0        3.260790    4.507624   -2.157995
     75          6           0        3.420049    3.600865   -1.036645
     76          6           0        2.293433    3.592026   -0.017598
     77          8           0        2.166473    2.639109    0.756696
     78          1           0        3.640169    5.442494   -2.116900
     79          1           0        4.301869    4.023707   -0.541369
     80          1           0        3.548595    2.588542   -1.405937
     81          7           0        1.360801    4.546848   -0.095787
     82          6           0        0.034489    4.485339    0.485257
     83          6           0       -0.911456    3.907231   -0.557997
     84          8           0       -0.611820    3.913916   -1.753394
     85          6           0       -0.432036    5.857222    0.963578
     86          6           0        0.485045    6.644819    1.873113
     87          6           0        0.772271    6.204940    3.174039
     88          6           0        1.077507    7.816445    1.394072
     89          6           0        1.750441    6.877419    3.928927
     90          6           0        1.969678    8.558650    2.174305
     91          6           0        2.315922    8.068270    3.451428
     92          8           0        3.281832    8.654865    4.219493
     93          1           0        1.630846    5.335005   -0.657287
     94          1           0        0.015366    3.861418    1.379269
     95          1           0       -1.435428    5.784040    1.374370
     96          1           0       -0.613824    6.454407    0.065067
     97          1           0        0.209544    5.401357    3.605540
     98          1           0        1.005169    8.150697    0.371114
     99          1           0        1.928965    6.547381    4.941549
    100          1           0        2.529974    9.391617    1.787866
    101          1           0        3.494434    9.564772    3.988260
    102          7           0       -1.932593    3.251640   -0.005839
    103          6           0       -2.546491    2.109181   -0.654313
    104          6           0       -4.052704    2.234783   -0.819677
    105          8           0       -4.509003    1.514098   -1.699168
    106          6           0       -2.061792    0.794934   -0.041924
    107          6           0       -0.603327    0.553394   -0.433766
    108          6           0       -2.287218    0.680866    1.456065
    109          6           0       -0.025311   -0.821066   -0.096634
    110          1           0       -2.197685    3.437828    0.945823
    111          1           0       -2.218768    2.080197   -1.691789
    112          1           0       -2.693839   -0.003249   -0.436537
    113          1           0        0.091083    1.169066    0.149794
    114          1           0       -0.466079    0.670416   -1.501272
    115          1           0       -1.501506    1.197536    2.018122
    116          1           0       -3.267007    1.062423    1.733606
    117          1           0       -2.249859   -0.337855    1.840527
    118          1           0       -0.682406   -1.634421   -0.416132
    119          1           0        0.965960   -0.903452   -0.530909
    120          1           0       -0.058582   -0.979916    0.977125
    121          7           0       -4.835097    3.068328   -0.129413
    122          6           0       -6.200029    3.472968   -0.393658
    123          6           0       -7.127348    2.604319    0.435636
    124          8           0       -7.047863    2.612289    1.661898
    125          6           0       -6.298124    4.963267   -0.068100
    126          8           0       -5.413552    5.649476   -0.927199
    127          1           0       -4.346428    3.554425    0.609649
    128          1           0       -6.375892    3.258575   -1.446135
    129          1           0       -5.971060    5.126604    0.959251
    130          1           0       -7.338005    5.148744   -0.342775
    131          1           0       -5.194760    6.470696   -0.463380
    132          7           0       -8.143105    1.970153   -0.157636
    133          6           0       -9.104944    1.085226    0.465155
    134          6           0       -8.754903   -0.392417    0.304712
    135          8           0       -7.972438   -0.752619   -0.578805
    136          6           0      -10.504454    1.537532    0.039255
    137          1           0       -8.173185    2.081677   -1.166228
    138          1           0       -9.019276    1.201834    1.547681
    139          1           0      -10.807783    2.424184    0.603117
    140          1           0      -10.489689    1.825080   -1.017343
    141          1           0      -11.203166    0.724374    0.221123
    142          7           0       -9.361177   -1.341750    1.013089
    143          6           0       -9.106580   -2.771500    0.984922
    144          6           0       -7.673046   -3.274493    1.081773
    145          8           0       -7.403517   -4.326764    0.499812
    146          6           0       -9.976525   -3.303308   -0.148778
    147          1           0      -10.101195   -1.078628    1.644865
    148          1           0       -9.578729   -3.242982    1.843863
    149          1           0       -9.635000   -2.974085   -1.130600
    150          1           0       -9.796444   -4.364163   -0.308335
    151          1           0      -11.001715   -2.959916    0.004737
    152          7           0       -6.793774   -2.474571    1.694966
    153          6           0       -5.444223   -2.947977    1.898922
    154          6           0       -4.986392   -2.790994    3.348007
    155          8           0       -3.954236   -3.357430    3.697585
    156          6           0       -4.541509   -2.205888    0.920039
    157          6           0       -4.570694   -2.756761   -0.504281
    158          6           0       -3.977049   -4.141631   -0.736489
    159          8           0       -2.968564   -4.478898   -0.091578
    160          8           0       -4.110292   -4.723864   -1.839734
    161          1           0       -7.150181   -1.631366    2.131176
    162          1           0       -5.383999   -4.001318    1.623703
    163          1           0       -3.524829   -2.215383    1.318376
    164          1           0       -4.973728   -1.204406    0.845074
    165          1           0       -3.949418   -2.091372   -1.106587
    166          1           0       -5.585632   -2.828381   -0.898452
    167          7           0       -5.589800   -1.963005    4.191353
    168          6           0       -5.126009   -1.621959    5.525176
    169          1           0       -5.981206   -1.538187    6.196010
    170          1           0       -4.454986   -2.401357    5.887844
    171          1           0       -4.594943   -0.670185    5.493529
    172          1           0       -6.364459   -1.390950    3.867535
    173         20           0       -1.593751   -6.254244   -1.436174
    174          8           0       -0.697546   -8.690149   -1.687930
    175          1           0       -0.979936   -9.518984   -1.289197
    176          1           0       -0.546068   -8.903060   -2.608323
 ---------------------------------------------------------------------
 Rotational constants (GHZ):           0.0179547           0.0116568           0.0091026
 Standard basis: SVP (5D, 7F)
 There are  1809 symmetry adapted cartesian basis functions of A   symmetry.
 There are  1717 symmetry adapted basis functions of A   symmetry.
  1717 basis functions,  2922 primitive gaussians,  1809 cartesian basis functions
   358 alpha electrons      358 beta electrons
       nuclear repulsion energy     19716.4414310354 Hartrees.
 NAtoms=  176 NActive=  176 NUniq=  176 SFac= 1.00D+00 NAtFMM=   60 NAOKFM=T Big=T
 Integral buffers will be    131072 words long.
 Raffenetti 2 integral format.
 Two-electron integral symmetry is turned on.
 One-electron integrals computed using PRISM.
 NBasis=  1717 RedAO= T EigKep=  2.95D-04  NBF=  1717
 NBsUse=  1717 1.00D-06 EigRej= -1.00D+00 NBFU=  1717
 ExpMin= 1.98D-02 ExpMax= 3.51D+04 ExpMxC= 5.28D+03 IAcc=3 IRadAn=         5 AccDes= 0.00D+00
 Harris functional with IExCor=  402 and IRadAn=       5 diagonalized for initial guess.
 HarFok:  IExCor=  402 AccDes= 0.00D+00 IRadAn=         5 IDoV= 1 UseB2=F ITyADJ=14
 ICtDFT=  3500011 ScaDFX=  1.000000  1.000000  1.000000  1.000000
 FoFCou: FMM=F IPFlag=           0 FMFlag=      100000 FMFlg1=        2001
         NFxFlg=           0 DoJE=T BraDBF=F KetDBF=T FulRan=T
         wScrn=  0.000000 ICntrl=       500 IOpCl=  0 I1Cent=   200000004 NGrid=           0
         NMat0=    1 NMatS0=      1 NMatT0=    0 NMatD0=    1 NMtDS0=    0 NMtDT0=    0
 Petite list used in FoFCou.
 Requested convergence on RMS density matrix=1.00D-08 within 128 cycles.
 Requested convergence on MAX density matrix=1.00D-06.
 Requested convergence on             energy=1.00D-06.
 No special actions if energy rises.
 EnCoef did     3 forward-backward iterations
 EnCoef did     2 forward-backward iterations
 EnCoef did     2 forward-backward iterations
 EnCoef did     6 forward-backward iterations
 Rare condition: small coef for last iteration:  0.000D+00
 Rare condition: small coef for last iteration:  0.000D+00
 Rare condition: small coef for last iteration:  0.000D+00
 EnCoef did   100 forward-backward iterations
 Restarting incremental Fock formation.
 EnCoef did   100 forward-backward iterations
 Rare condition: small coef for last iteration:  0.000D+00
 EnCoef did   100 forward-backward iterations
 Rare condition: small coef for last iteration:  0.000D+00
 EnCoef did   100 forward-backward iterations
 EnCoef did   100 forward-backward iterations
 Rare condition: small coef for last iteration:  0.000D+00
 EnCoef did   100 forward-backward iterations
 EnCoef did   100 forward-backward iterations
 Rare condition: small coef for last iteration:  0.584D-15
 EnCoef did   100 forward-backward iterations
 EnCoef did   100 forward-backward iterations
 Rare condition: small coef for last iteration:  0.122D-15
 EnCoef did   100 forward-backward iterations
 EnCoef did   100 forward-backward iterations
 Rare condition: small coef for last iteration:  0.119D-15
 EnCoef did   100 forward-backward iterations
 EnCoef did   100 forward-backward iterations
 Restarting incremental Fock formation.
 SCF Done:  E(RB3LYP) =  -5333.30824710     A.U. after   43 cycles
            NFock= 43  Conv=0.80D-10     -V/T= 2.0081
 SCF density gives NOpUse=  1 NOpAll=  1.
 Hyperfine terms turned off by default for NAtoms > 100.

 **********************************************************************

            Population analysis using the SCF density.

 **********************************************************************

 Orbital symmetries:
 BldTbl:  Degeneracy threshold= 1.00D-02
       Occupied  (A) (A) (A) (A) (A) (A) (A) (A) (A) (A) (A) (A)
                 (A) (A) (A) (A) (A) (A) (A) (A) (A) (A) (A) (A)
                 (A) (A) (A) (A) (A) (A) (A) (A) (A) (A) (A) (A)
                 (A) (A) (A) (A) (A) (A) (A) (A) (A) (A) (A) (A)
                 (A) (A) (A) (A) (A) (A) (A) (A) (A) (A) (A) (A)
                 (A) (A) (A) (A) (A) (A) (A) (A) (A) (A) (A) (A)
                 (A) (A) (A) (A) (A) (A) (A) (A) (A) (A) (A) (A)
                 (A) (A) (A) (A) (A) (A) (A) (A) (A) (A) (A) (A)
                 (A) (A) (A) (A) (A) (A) (A) (A) (A) (A) (A) (A)
                 (A) (A) (A) (A) (A) (A) (A) (A) (A) (A) (A) (A)
                 (A) (A) (A) (A) (A) (A) (A) (A) (A) (A) (A) (A)
                 (A) (A) (A) (A) (A) (A) (A) (A) (A) (A) (A) (A)
                 (A) (A) (A) (A) (A) (A) (A) (A) (A) (A) (A) (A)
                 (A) (A) (A) (A) (A) (A) (A) (A) (A) (A) (A) (A)
                 (A) (A) (A) (A) (A) (A) (A) (A) (A) (A) (A) (A)
                 (A) (A) (A) (A) (A) (A) (A) (A) (A) (A) (A) (A)
                 (A) (A) (A) (A) (A) (A) (A) (A) (A) (A) (A) (A)
                 (A) (A) (A) (A) (A) (A) (A) (A) (A) (A) (A) (A)
                 (A) (A) (A) (A) (A) (A) (A) (A) (A) (A) (A) (A)
                 (A) (A) (A) (A) (A) (A) (A) (A) (A) (A) (A) (A)
                 (A) (A) (A) (A) (A) (A) (A) (A) (A) (A) (A) (A)
                 (A) (A) (A) (A) (A) (A) (A) (A) (A) (A) (A) (A)
                 (A) (A) (A) (A) (A) (A) (A) (A) (A) (A) (A) (A)
                 (A) (A) (A) (A) (A) (A) (A) (A) (A) (A) (A) (A)
                 (A) (A) (A) (A) (A) (A) (A) (A) (A) (A) (A) (A)
                 (A) (A) (A) (A) (A) (A) (A) (A) (A) (A) (A) (A)
                 (A) (A) (A) (A) (A) (A) (A) (A) (A) (A) (A) (A)
                 (A) (A) (A) (A) (A) (A) (A) (A) (A) (A) (A) (A)
                 (A) (A) (A) (A) (A) (A) (A) (A) (A) (A) (A) (A)
                 (A) (A) (A) (A) (A) (A) (A) (A) (A) (A)
       Virtual   (A) (A) (A) (A) (A) (A) (A) (A) (A) (A) (A) (A)
                 (A) (A) (A) (A) (A) (A) (A) (A) (A) (A) (A) (A)
                 (A) (A) (A) (A) (A) (A) (A) (A) (A) (A) (A) (A)
                 (A) (A) (A) (A) (A) (A) (A) (A) (A) (A) (A) (A)
                 (A) (A) (A) (A) (A) (A) (A) (A) (A) (A) (A) (A)
                 (A) (A) (A) (A) (A) (A) (A) (A) (A) (A) (A) (A)
                 (A) (A) (A) (A) (A) (A) (A) (A) (A) (A) (A) (A)
                 (A) (A) (A) (A) (A) (A) (A) (A) (A) (A) (A) (A)
                 (A) (A) (A) (A) (A) (A) (A) (A) (A) (A) (A) (A)
                 (A) (A) (A) (A) (A) (A) (A) (A) (A) (A) (A) (A)
                 (A) (A) (A) (A) (A) (A) (A) (A) (A) (A) (A) (A)
                 (A) (A) (A) (A) (A) (A) (A) (A) (A) (A) (A) (A)
                 (A) (A) (A) (A) (A) (A) (A) (A) (A) (A) (A) (A)
                 (A) (A) (A) (A) (A) (A) (A) (A) (A) (A) (A) (A)
                 (A) (A) (A) (A) (A) (A) (A) (A) (A) (A) (A) (A)
                 (A) (A) (A) (A) (A) (A) (A) (A) (A) (A) (A) (A)
                 (A) (A) (A) (A) (A) (A) (A) (A) (A) (A) (A) (A)
                 (A) (A) (A) (A) (A) (A) (A) (A) (A) (A) (A) (A)
                 (A) (A) (A) (A) (A) (A) (A) (A) (A) (A) (A) (A)
                 (A) (A) (A) (A) (A) (A) (A) (A) (A) (A) (A) (A)
                 (A) (A) (A) (A) (A) (A) (A) (A) (A) (A) (A) (A)
                 (A) (A) (A) (A) (A) (A) (A) (A) (A) (A) (A) (A)
                 (A) (A) (A) (A) (A) (A) (A) (A) (A) (A) (A) (A)
                 (A) (A) (A) (A) (A) (A) (A) (A) (A) (A) (A) (A)
                 (A) (A) (A) (A) (A) (A) (A) (A) (A) (A) (A) (A)
                 (A) (A) (A) (A) (A) (A) (A) (A) (A) (A) (A) (A)
                 (A) (A) (A) (A) (A) (A) (A) (A) (A) (A) (A) (A)
                 (A) (A) (A) (A) (A) (A) (A) (A) (A) (A) (A) (A)
                 (A) (A) (A) (A) (A) (A) (A) (A) (A) (A) (A) (A)
                 (A) (A) (A) (A) (A) (A) (A) (A) (A) (A) (A) (A)
                 (A) (A) (A) (A) (A) (A) (A) (A) (A) (A) (A) (A)
                 (A) (A) (A) (A) (A) (A) (A) (A) (A) (A) (A) (A)
                 (A) (A) (A) (A) (A) (A) (A) (A) (A) (A) (A) (A)
                 (A) (A) (A) (A) (A) (A) (A) (A) (A) (A) (A) (A)
                 (A) (A) (A) (A) (A) (A) (A) (A) (A) (A) (A) (A)
                 (A) (A) (A) (A) (A) (A) (A) (A) (A) (A) (A) (A)
                 (A) (A) (A) (A) (A) (A) (A) (A) (A) (A) (A) (A)
                 (A) (A) (A) (A) (A) (A) (A) (A) (A) (A) (A) (A)
                 (A) (A) (A) (A) (A) (A) (A) (A) (A) (A) (A) (A)
                 (A) (A) (A) (A) (A) (A) (A) (A) (A) (A) (A) (A)
                 (A) (A) (A) (A) (A) (A) (A) (A) (A) (A) (A) (A)
                 (A) (A) (A) (A) (A) (A) (A) (A) (A) (A) (A) (A)
                 (A) (A) (A) (A) (A) (A) (A) (A) (A) (A) (A) (A)
                 (A) (A) (A) (A) (A) (A) (A) (A) (A) (A) (A) (A)
                 (A) (A) (A) (A) (A) (A) (A) (A) (A) (A) (A) (A)
                 (A) (A) (A) (A) (A) (A) (A) (A) (A) (A) (A) (A)
                 (A) (A) (A) (A) (A) (A) (A) (A) (A) (A) (A) (A)
                 (A) (A) (A) (A) (A) (A) (A) (A) (A) (A) (A) (A)
                 (A) (A) (A) (A) (A) (A) (A) (A) (A) (A) (A) (A)
                 (A) (A) (A) (A) (A) (A) (A) (A) (A) (A) (A) (A)
                 (A) (A) (A) (A) (A) (A) (A) (A) (A) (A) (A) (A)
                 (A) (A) (A) (A) (A) (A) (A) (A) (A) (A) (A) (A)
                 (A) (A) (A) (A) (A) (A) (A) (A) (A) (A) (A) (A)
                 (A) (A) (A) (A) (A) (A) (A) (A) (A) (A) (A) (A)
                 (A) (A) (A) (A) (A) (A) (A) (A) (A) (A) (A) (A)
                 (A) (A) (A) (A) (A) (A) (A) (A) (A) (A) (A) (A)
                 (A) (A) (A) (A) (A) (A) (A) (A) (A) (A) (A) (A)
                 (A) (A) (A) (A) (A) (A) (A) (A) (A) (A) (A) (A)
                 (A) (A) (A) (A) (A) (A) (A) (A) (A) (A) (A) (A)
                 (A) (A) (A) (A) (A) (A) (A) (A) (A) (A) (A) (A)
                 (A) (A) (A) (A) (A) (A) (A) (A) (A) (A) (A) (A)
                 (A) (A) (A) (A) (A) (A) (A) (A) (A) (A) (A) (A)
                 (A) (A) (A) (A) (A) (A) (A) (A) (A) (A) (A) (A)
                 (A) (A) (A) (A) (A) (A) (A) (A) (A) (A) (A) (A)
                 (A) (A) (A) (A) (A) (A) (A) (A) (A) (A) (A) (A)
                 (A) (A) (A) (A) (A) (A) (A) (A) (A) (A) (A) (A)
                 (A) (A) (A) (A) (A) (A) (A) (A) (A) (A) (A) (A)
                 (A) (A) (A) (A) (A) (A) (A) (A) (A) (A) (A) (A)
                 (A) (A) (A) (A) (A) (A) (A) (A) (A) (A) (A) (A)
                 (A) (A) (A) (A) (A) (A) (A) (A) (A) (A) (A) (A)
                 (A) (A) (A) (A) (A) (A) (A) (A) (A) (A) (A) (A)
                 (A) (A) (A) (A) (A) (A) (A) (A) (A) (A) (A) (A)
                 (A) (A) (A) (A) (A) (A) (A) (A) (A) (A) (A) (A)
                 (A) (A) (A) (A) (A) (A) (A) (A) (A) (A) (A) (A)
                 (A) (A) (A) (A) (A) (A) (A) (A) (A) (A) (A) (A)
                 (A) (A) (A) (A) (A) (A) (A) (A) (A) (A) (A) (A)
                 (A) (A) (A) (A) (A) (A) (A) (A) (A) (A) (A) (A)
                 (A) (A) (A) (A) (A) (A) (A) (A) (A) (A) (A) (A)
                 (A) (A) (A) (A) (A) (A) (A) (A) (A) (A) (A) (A)
                 (A) (A) (A) (A) (A) (A) (A) (A) (A) (A) (A) (A)
                 (A) (A) (A) (A) (A) (A) (A) (A) (A) (A) (A) (A)
                 (A) (A) (A) (A) (A) (A) (A) (A) (A) (A) (A) (A)
                 (A) (A) (A) (A) (A) (A) (A) (A) (A) (A) (A) (A)
                 (A) (A) (A) (A) (A) (A) (A) (A) (A) (A) (A) (A)
                 (A) (A) (A) (A) (A) (A) (A) (A) (A) (A) (A) (A)
                 (A) (A) (A) (A) (A) (A) (A) (A) (A) (A) (A) (A)
                 (A) (A) (A) (A) (A) (A) (A) (A) (A) (A) (A) (A)
                 (A) (A) (A) (A) (A) (A) (A) (A) (A) (A) (A) (A)
                 (A) (A) (A) (A) (A) (A) (A) (A) (A) (A) (A) (A)
                 (A) (A) (A) (A) (A) (A) (A) (A) (A) (A) (A) (A)
                 (A) (A) (A) (A) (A) (A) (A) (A) (A) (A) (A) (A)
                 (A) (A) (A) (A) (A) (A) (A) (A) (A) (A) (A) (A)
                 (A) (A) (A) (A) (A) (A) (A) (A) (A) (A) (A) (A)
                 (A) (A) (A) (A) (A) (A) (A) (A) (A) (A) (A) (A)
                 (A) (A) (A) (A) (A) (A) (A) (A) (A) (A) (A) (A)
                 (A) (A) (A) (A) (A) (A) (A) (A) (A) (A) (A) (A)
                 (A) (A) (A) (A) (A) (A) (A) (A) (A) (A) (A) (A)
                 (A) (A) (A) (A) (A) (A) (A) (A) (A) (A) (A) (A)
                 (A) (A) (A) (A) (A) (A) (A) (A) (A) (A) (A) (A)
                 (A) (A) (A) (A) (A) (A) (A) (A) (A) (A) (A) (A)
                 (A) (A) (A) (A) (A) (A) (A) (A) (A) (A) (A) (A)
                 (A) (A) (A) (A) (A) (A) (A) (A) (A) (A) (A) (A)
                 (A) (A) (A) (A) (A) (A) (A) (A) (A) (A) (A) (A)
                 (A) (A) (A) (A) (A) (A) (A) (A) (A) (A) (A) (A)
                 (A) (A) (A) (A) (A) (A) (A) (A) (A) (A) (A) (A)
                 (A) (A) (A) (A) (A) (A) (A) (A) (A) (A) (A) (A)
                 (A) (A) (A) (A) (A) (A) (A) (A) (A) (A) (A) (A)
                 (A) (A) (A) (A) (A) (A) (A) (A) (A) (A) (A) (A)
                 (A) (A) (A) (A) (A) (A) (A) (A) (A) (A) (A) (A)
                 (A) (A) (A) (A) (A) (A) (A) (A) (A) (A) (A) (A)
                 (A) (A) (A) (A) (A) (A) (A) (A) (A) (A) (A) (A)
                 (A) (A) (A) (A) (A) (A) (A) (A) (A) (A) (A) (A)
                 (A) (A) (A) (A) (A) (A) (A) (A) (A) (A) (A) (A)
                 (A) (A) (A)
 The electronic state is 1-A.
 Alpha  occ. eigenvalues -- -145.45692 -19.22907 -19.15697 -19.13791 -19.09489
 Alpha  occ. eigenvalues --  -19.09478 -19.08866 -19.08282 -19.07156 -19.07047
 Alpha  occ. eigenvalues --  -19.06826 -19.06418 -19.06212 -19.06082 -19.05759
 Alpha  occ. eigenvalues --  -19.05485 -19.04895 -19.04839 -19.04273 -19.04248
 Alpha  occ. eigenvalues --  -19.03819 -19.02896 -18.97412 -18.96243 -15.51658
 Alpha  occ. eigenvalues --  -14.55677 -14.37033 -14.36140 -14.35259 -14.35198
 Alpha  occ. eigenvalues --  -14.34120 -14.33847 -14.33795 -14.33368 -14.32090
 Alpha  occ. eigenvalues --  -14.31311 -14.31203 -14.31012 -14.30814 -14.28266
 Alpha  occ. eigenvalues --  -12.65293 -12.65241 -12.65125 -10.32945 -10.28861
 Alpha  occ. eigenvalues --  -10.28323 -10.27938 -10.26618 -10.26547 -10.25956
 Alpha  occ. eigenvalues --  -10.25740 -10.25539 -10.25297 -10.25058 -10.24938
 Alpha  occ. eigenvalues --  -10.24834 -10.24684 -10.24213 -10.24188 -10.24170
 Alpha  occ. eigenvalues --  -10.24149 -10.23893 -10.23403 -10.23339 -10.23244
 Alpha  occ. eigenvalues --  -10.22087 -10.22034 -10.21992 -10.21620 -10.21466
 Alpha  occ. eigenvalues --  -10.21076 -10.21057 -10.20981 -10.20535 -10.19762
 Alpha  occ. eigenvalues --  -10.19515 -10.19283 -10.19017 -10.18982 -10.18948
 Alpha  occ. eigenvalues --  -10.18745 -10.18446 -10.18380 -10.17976 -10.17963
 Alpha  occ. eigenvalues --  -10.17804 -10.17378 -10.16686 -10.15602 -10.15424
 Alpha  occ. eigenvalues --  -10.15335 -10.14899 -10.14795 -10.14718 -10.12461
 Alpha  occ. eigenvalues --  -10.11988 -10.11000  -1.88306  -1.16104  -1.15718
 Alpha  occ. eigenvalues --   -1.14931  -1.11419  -1.08745  -1.04090  -1.03650
 Alpha  occ. eigenvalues --   -1.02862  -1.02032  -1.01669  -1.01123  -1.00830
 Alpha  occ. eigenvalues --   -1.00403  -1.00162  -1.00068  -0.99829  -0.99568
 Alpha  occ. eigenvalues --   -0.99417  -0.98878  -0.98360  -0.97960  -0.97750
 Alpha  occ. eigenvalues --   -0.96001  -0.93255  -0.92372  -0.92269  -0.92118
 Alpha  occ. eigenvalues --   -0.91274  -0.90806  -0.90414  -0.90388  -0.90198
 Alpha  occ. eigenvalues --   -0.89574  -0.89497  -0.88593  -0.88030  -0.87859
 Alpha  occ. eigenvalues --   -0.87615  -0.86924  -0.85840  -0.84858  -0.84578
 Alpha  occ. eigenvalues --   -0.80429  -0.79997  -0.79676  -0.78795  -0.77656
 Alpha  occ. eigenvalues --   -0.77083  -0.76166  -0.75388  -0.75059  -0.74133
 Alpha  occ. eigenvalues --   -0.73840  -0.73526  -0.73181  -0.72815  -0.72055
 Alpha  occ. eigenvalues --   -0.71859  -0.70696  -0.69798  -0.69257  -0.69232
 Alpha  occ. eigenvalues --   -0.69044  -0.68373  -0.67746  -0.67263  -0.65820
 Alpha  occ. eigenvalues --   -0.65518  -0.65489  -0.64724  -0.63773  -0.62923
 Alpha  occ. eigenvalues --   -0.61994  -0.61956  -0.61590  -0.61546  -0.60028
 Alpha  occ. eigenvalues --   -0.59942  -0.59638  -0.59336  -0.58980  -0.58408
 Alpha  occ. eigenvalues --   -0.58320  -0.58051  -0.57788  -0.57435  -0.56890
 Alpha  occ. eigenvalues --   -0.56806  -0.56539  -0.56171  -0.56080  -0.55743
 Alpha  occ. eigenvalues --   -0.54958  -0.54896  -0.54860  -0.54542  -0.54518
 Alpha  occ. eigenvalues --   -0.53794  -0.53077  -0.51608  -0.51601  -0.51264
 Alpha  occ. eigenvalues --   -0.51062  -0.50514  -0.50310  -0.50040  -0.49767
 Alpha  occ. eigenvalues --   -0.49536  -0.49333  -0.48705  -0.48622  -0.48440
 Alpha  occ. eigenvalues --   -0.48199  -0.47802  -0.47720  -0.47674  -0.47354
 Alpha  occ. eigenvalues --   -0.47313  -0.47195  -0.47082  -0.46703  -0.46350
 Alpha  occ. eigenvalues --   -0.46222  -0.46041  -0.45956  -0.45229  -0.45168
 Alpha  occ. eigenvalues --   -0.44754  -0.44623  -0.44361  -0.44206  -0.44078
 Alpha  occ. eigenvalues --   -0.43976  -0.43452  -0.43221  -0.43124  -0.42933
 Alpha  occ. eigenvalues --   -0.42850  -0.42763  -0.42615  -0.42535  -0.42390
 Alpha  occ. eigenvalues --   -0.42357  -0.42209  -0.42150  -0.41697  -0.41336
 Alpha  occ. eigenvalues --   -0.41247  -0.41209  -0.41152  -0.41004  -0.40785
 Alpha  occ. eigenvalues --   -0.40747  -0.40584  -0.40380  -0.40346  -0.40315
 Alpha  occ. eigenvalues --   -0.40141  -0.40125  -0.39871  -0.39626  -0.39587
 Alpha  occ. eigenvalues --   -0.39397  -0.38951  -0.38878  -0.38864  -0.38532
 Alpha  occ. eigenvalues --   -0.38382  -0.38141  -0.38037  -0.37842  -0.37748
 Alpha  occ. eigenvalues --   -0.37553  -0.37532  -0.37405  -0.37317  -0.37162
 Alpha  occ. eigenvalues --   -0.37156  -0.37013  -0.36875  -0.36778  -0.36497
 Alpha  occ. eigenvalues --   -0.36211  -0.36145  -0.35994  -0.35856  -0.35714
 Alpha  occ. eigenvalues --   -0.35607  -0.35473  -0.35240  -0.35125  -0.35047
 Alpha  occ. eigenvalues --   -0.34784  -0.34736  -0.34470  -0.34419  -0.34283
 Alpha  occ. eigenvalues --   -0.34171  -0.34073  -0.33610  -0.33461  -0.33411
 Alpha  occ. eigenvalues --   -0.33333  -0.33068  -0.32617  -0.32553  -0.32372
 Alpha  occ. eigenvalues --   -0.32234  -0.32096  -0.31811  -0.31548  -0.31337
 Alpha  occ. eigenvalues --   -0.31097  -0.30675  -0.30355  -0.29070  -0.28399
 Alpha  occ. eigenvalues --   -0.28054  -0.27851  -0.27330  -0.26888  -0.26862
 Alpha  occ. eigenvalues --   -0.26569  -0.26095  -0.26064  -0.25608  -0.25576
 Alpha  occ. eigenvalues --   -0.25376  -0.24986  -0.24881  -0.24682  -0.24447
 Alpha  occ. eigenvalues --   -0.24191  -0.24168  -0.24072  -0.23721  -0.23628
 Alpha  occ. eigenvalues --   -0.23539  -0.23293  -0.23191  -0.23147  -0.22655
 Alpha  occ. eigenvalues --   -0.22448  -0.22046  -0.21786  -0.21774  -0.21721
 Alpha  occ. eigenvalues --   -0.21029  -0.20859  -0.20795  -0.20490  -0.20393
 Alpha  occ. eigenvalues --   -0.20204  -0.20099  -0.19212  -0.19062  -0.18373
 Alpha  occ. eigenvalues --   -0.15434  -0.13858  -0.10448
 Alpha virt. eigenvalues --   -0.09413  -0.07614  -0.02948  -0.02637  -0.01624
 Alpha virt. eigenvalues --   -0.00800  -0.00162   0.00161   0.00503   0.00836
 Alpha virt. eigenvalues --    0.00911   0.01118   0.02092   0.02487   0.02807
 Alpha virt. eigenvalues --    0.02899   0.03317   0.03531   0.03958   0.04025
 Alpha virt. eigenvalues --    0.04238   0.04566   0.04618   0.04677   0.04993
 Alpha virt. eigenvalues --    0.05030   0.05226   0.05504   0.05650   0.05672
 Alpha virt. eigenvalues --    0.05905   0.06173   0.06397   0.07084   0.07472
 Alpha virt. eigenvalues --    0.07570   0.07650   0.07735   0.07845   0.07902
 Alpha virt. eigenvalues --    0.08024   0.08508   0.08668   0.08973   0.09063
 Alpha virt. eigenvalues --    0.09393   0.09471   0.09624   0.09845   0.09975
 Alpha virt. eigenvalues --    0.10307   0.10866   0.10903   0.11198   0.11701
 Alpha virt. eigenvalues --    0.11811   0.11835   0.12330   0.12472   0.12623
 Alpha virt. eigenvalues --    0.12660   0.12898   0.12966   0.13187   0.13549
 Alpha virt. eigenvalues --    0.13734   0.13826   0.13915   0.13986   0.14260
 Alpha virt. eigenvalues --    0.14329   0.14380   0.14454   0.14557   0.14709
 Alpha virt. eigenvalues --    0.15078   0.15192   0.15390   0.15529   0.15596
 Alpha virt. eigenvalues --    0.15777   0.15971   0.16015   0.16138   0.16344
 Alpha virt. eigenvalues --    0.16440   0.16707   0.16906   0.17070   0.17280
 Alpha virt. eigenvalues --    0.17647   0.17677   0.17906   0.17947   0.18536
 Alpha virt. eigenvalues --    0.18564   0.18736   0.18966   0.19026   0.19171
 Alpha virt. eigenvalues --    0.19298   0.19557   0.19666   0.19913   0.20166
 Alpha virt. eigenvalues --    0.20422   0.20583   0.20845   0.20954   0.21245
 Alpha virt. eigenvalues --    0.21379   0.21669   0.22158   0.22574   0.22712
 Alpha virt. eigenvalues --    0.22985   0.23150   0.23241   0.23330   0.23430
 Alpha virt. eigenvalues --    0.23838   0.23991   0.24125   0.24281   0.24708
 Alpha virt. eigenvalues --    0.24996   0.25029   0.25193   0.25325   0.25502
 Alpha virt. eigenvalues --    0.25835   0.25917   0.26029   0.26284   0.26365
 Alpha virt. eigenvalues --    0.26854   0.27256   0.27579   0.27716   0.27818
 Alpha virt. eigenvalues --    0.28091   0.28304   0.28542   0.28846   0.28988
 Alpha virt. eigenvalues --    0.29205   0.29431   0.29749   0.29940   0.30255
 Alpha virt. eigenvalues --    0.30701   0.30920   0.30977   0.31219   0.31788
 Alpha virt. eigenvalues --    0.31926   0.32052   0.32093   0.32235   0.32351
 Alpha virt. eigenvalues --    0.32593   0.32723   0.33061   0.33204   0.33498
 Alpha virt. eigenvalues --    0.33657   0.34021   0.34433   0.34552   0.34645
 Alpha virt. eigenvalues --    0.35142   0.35586   0.35762   0.35994   0.36259
 Alpha virt. eigenvalues --    0.36518   0.36874   0.37103   0.37241   0.37666
 Alpha virt. eigenvalues --    0.37938   0.38092   0.38389   0.38582   0.39271
 Alpha virt. eigenvalues --    0.39560   0.39814   0.40277   0.40371   0.40614
 Alpha virt. eigenvalues --    0.40796   0.41072   0.41195   0.41493   0.41611
 Alpha virt. eigenvalues --    0.41915   0.42431   0.42775   0.42838   0.42919
 Alpha virt. eigenvalues --    0.43046   0.43210   0.43267   0.43667   0.43692
 Alpha virt. eigenvalues --    0.44032   0.44398   0.44523   0.44702   0.44847
 Alpha virt. eigenvalues --    0.45046   0.45410   0.45616   0.45815   0.45918
 Alpha virt. eigenvalues --    0.46368   0.46520   0.46636   0.46969   0.47011
 Alpha virt. eigenvalues --    0.47154   0.47290   0.47622   0.47843   0.48012
 Alpha virt. eigenvalues --    0.48107   0.48337   0.48404   0.48631   0.48811
 Alpha virt. eigenvalues --    0.49079   0.49207   0.49518   0.49677   0.49915
 Alpha virt. eigenvalues --    0.50164   0.50747   0.50876   0.51224   0.51464
 Alpha virt. eigenvalues --    0.51502   0.51620   0.51837   0.52086   0.52416
 Alpha virt. eigenvalues --    0.52552   0.52638   0.52822   0.53202   0.53331
 Alpha virt. eigenvalues --    0.53454   0.53513   0.53914   0.54113   0.54286
 Alpha virt. eigenvalues --    0.54409   0.54719   0.54939   0.55097   0.55570
 Alpha virt. eigenvalues --    0.55603   0.55674   0.55744   0.55879   0.55996
 Alpha virt. eigenvalues --    0.56164   0.56241   0.56630   0.56772   0.57105
 Alpha virt. eigenvalues --    0.57285   0.57350   0.57483   0.57628   0.57811
 Alpha virt. eigenvalues --    0.57882   0.58303   0.58379   0.58472   0.58771
 Alpha virt. eigenvalues --    0.58871   0.59142   0.59191   0.59356   0.59454
 Alpha virt. eigenvalues --    0.59815   0.59913   0.60319   0.60367   0.60506
 Alpha virt. eigenvalues --    0.60596   0.60768   0.60878   0.60991   0.61132
 Alpha virt. eigenvalues --    0.61237   0.61593   0.61639   0.61791   0.62046
 Alpha virt. eigenvalues --    0.62091   0.62238   0.62413   0.62469   0.62728
 Alpha virt. eigenvalues --    0.62758   0.63044   0.63181   0.63367   0.63412
 Alpha virt. eigenvalues --    0.63680   0.63922   0.64117   0.64210   0.64283
 Alpha virt. eigenvalues --    0.64317   0.64474   0.64641   0.64758   0.64874
 Alpha virt. eigenvalues --    0.65038   0.65191   0.65261   0.65399   0.65588
 Alpha virt. eigenvalues --    0.65674   0.65767   0.65886   0.65948   0.66067
 Alpha virt. eigenvalues --    0.66159   0.66330   0.66443   0.66623   0.66641
 Alpha virt. eigenvalues --    0.66781   0.66860   0.66988   0.67146   0.67284
 Alpha virt. eigenvalues --    0.67348   0.67405   0.67509   0.67728   0.67844
 Alpha virt. eigenvalues --    0.67891   0.67983   0.68068   0.68116   0.68125
 Alpha virt. eigenvalues --    0.68238   0.68321   0.68478   0.68579   0.68730
 Alpha virt. eigenvalues --    0.68896   0.69005   0.69201   0.69242   0.69303
 Alpha virt. eigenvalues --    0.69524   0.69700   0.69729   0.69748   0.69953
 Alpha virt. eigenvalues --    0.70075   0.70214   0.70389   0.70537   0.70562
 Alpha virt. eigenvalues --    0.70718   0.70844   0.71087   0.71146   0.71275
 Alpha virt. eigenvalues --    0.71338   0.71437   0.71507   0.71768   0.71936
 Alpha virt. eigenvalues --    0.72231   0.72365   0.72442   0.72587   0.72632
 Alpha virt. eigenvalues --    0.72830   0.73048   0.73334   0.73356   0.73591
 Alpha virt. eigenvalues --    0.73778   0.73893   0.74104   0.74265   0.74402
 Alpha virt. eigenvalues --    0.74460   0.74751   0.74961   0.75105   0.75328
 Alpha virt. eigenvalues --    0.75366   0.75472   0.75682   0.75789   0.76005
 Alpha virt. eigenvalues --    0.76125   0.76328   0.76521   0.76728   0.76757
 Alpha virt. eigenvalues --    0.76957   0.77316   0.77404   0.77412   0.77910
 Alpha virt. eigenvalues --    0.78084   0.78247   0.78359   0.78636   0.79075
 Alpha virt. eigenvalues --    0.79264   0.79621   0.79824   0.79944   0.79965
 Alpha virt. eigenvalues --    0.80236   0.80504   0.80714   0.80843   0.81010
 Alpha virt. eigenvalues --    0.81235   0.81596   0.81696   0.82091   0.82363
 Alpha virt. eigenvalues --    0.82413   0.82469   0.82607   0.82690   0.83164
 Alpha virt. eigenvalues --    0.83269   0.83719   0.83807   0.84047   0.84279
 Alpha virt. eigenvalues --    0.84439   0.84560   0.84987   0.85361   0.85446
 Alpha virt. eigenvalues --    0.85649   0.85840   0.86341   0.86436   0.86655
 Alpha virt. eigenvalues --    0.87126   0.87399   0.87536   0.87846   0.87979
 Alpha virt. eigenvalues --    0.88664   0.88832   0.89318   0.89629   0.89696
 Alpha virt. eigenvalues --    0.89892   0.90243   0.90430   0.90804   0.91124
 Alpha virt. eigenvalues --    0.91653   0.91859   0.92256   0.92288   0.92713
 Alpha virt. eigenvalues --    0.92941   0.93190   0.93401   0.93697   0.94024
 Alpha virt. eigenvalues --    0.94371   0.94615   0.94895   0.95083   0.95469
 Alpha virt. eigenvalues --    0.95675   0.96328   0.96455   0.96702   0.97011
 Alpha virt. eigenvalues --    0.97085   0.97292   0.97653   0.97784   0.97991
 Alpha virt. eigenvalues --    0.98139   0.98595   0.98930   0.99255   0.99485
 Alpha virt. eigenvalues --    0.99704   0.99787   1.00418   1.00472   1.00978
 Alpha virt. eigenvalues --    1.01243   1.01572   1.01793   1.01932   1.02242
 Alpha virt. eigenvalues --    1.02961   1.03115   1.03197   1.03745   1.04019
 Alpha virt. eigenvalues --    1.04163   1.04939   1.05153   1.05572   1.05672
 Alpha virt. eigenvalues --    1.05870   1.06466   1.06574   1.06887   1.07071
 Alpha virt. eigenvalues --    1.07598   1.07979   1.07994   1.08166   1.08439
 Alpha virt. eigenvalues --    1.08548   1.08916   1.09143   1.09429   1.09824
 Alpha virt. eigenvalues --    1.10174   1.10212   1.10499   1.10880   1.11063
 Alpha virt. eigenvalues --    1.11564   1.11959   1.12081   1.12289   1.12652
 Alpha virt. eigenvalues --    1.13116   1.13195   1.13298   1.13610   1.13928
 Alpha virt. eigenvalues --    1.14162   1.14206   1.14676   1.14704   1.14896
 Alpha virt. eigenvalues --    1.15051   1.15230   1.15566   1.16053   1.16262
 Alpha virt. eigenvalues --    1.16322   1.16552   1.16718   1.17028   1.17322
 Alpha virt. eigenvalues --    1.17515   1.17894   1.18215   1.18435   1.18574
 Alpha virt. eigenvalues --    1.18805   1.19027   1.19438   1.19765   1.19987
 Alpha virt. eigenvalues --    1.20566   1.20834   1.20979   1.21272   1.21536
 Alpha virt. eigenvalues --    1.21919   1.22207   1.22336   1.22551   1.22921
 Alpha virt. eigenvalues --    1.23124   1.23480   1.23647   1.24003   1.24184
 Alpha virt. eigenvalues --    1.24392   1.24714   1.24757   1.25006   1.25238
 Alpha virt. eigenvalues --    1.25365   1.25668   1.25920   1.26076   1.26416
 Alpha virt. eigenvalues --    1.26940   1.26955   1.27293   1.27642   1.27904
 Alpha virt. eigenvalues --    1.28142   1.28339   1.28650   1.29179   1.29257
 Alpha virt. eigenvalues --    1.29362   1.29557   1.29772   1.30125   1.30209
 Alpha virt. eigenvalues --    1.30379   1.30677   1.30792   1.30897   1.30991
 Alpha virt. eigenvalues --    1.31645   1.31726   1.31918   1.32252   1.32560
 Alpha virt. eigenvalues --    1.32608   1.33303   1.33426   1.33751   1.33844
 Alpha virt. eigenvalues --    1.34358   1.34531   1.34813   1.35143   1.35510
 Alpha virt. eigenvalues --    1.35951   1.36292   1.36858   1.36988   1.37220
 Alpha virt. eigenvalues --    1.38302   1.38572   1.38747   1.39133   1.39356
 Alpha virt. eigenvalues --    1.39493   1.39928   1.40202   1.40508   1.40817
 Alpha virt. eigenvalues --    1.41094   1.41504   1.41887   1.41914   1.42646
 Alpha virt. eigenvalues --    1.42853   1.42907   1.43136   1.43504   1.43744
 Alpha virt. eigenvalues --    1.44124   1.44232   1.44794   1.44970   1.45195
 Alpha virt. eigenvalues --    1.45732   1.45931   1.46191   1.46435   1.46549
 Alpha virt. eigenvalues --    1.46871   1.47085   1.47326   1.47791   1.48467
 Alpha virt. eigenvalues --    1.48622   1.48909   1.48988   1.49373   1.49461
 Alpha virt. eigenvalues --    1.49833   1.50090   1.50699   1.50922   1.51143
 Alpha virt. eigenvalues --    1.51301   1.51481   1.52100   1.52139   1.52473
 Alpha virt. eigenvalues --    1.52811   1.52866   1.53204   1.53288   1.53590
 Alpha virt. eigenvalues --    1.53717   1.53908   1.54388   1.54588   1.54639
 Alpha virt. eigenvalues --    1.55266   1.55540   1.55640   1.55901   1.56935
 Alpha virt. eigenvalues --    1.57159   1.57490   1.57899   1.58247   1.59003
 Alpha virt. eigenvalues --    1.59213   1.59774   1.60051   1.60316   1.60535
 Alpha virt. eigenvalues --    1.61122   1.61763   1.61872   1.62228   1.62430
 Alpha virt. eigenvalues --    1.62969   1.63024   1.63417   1.63675   1.63770
 Alpha virt. eigenvalues --    1.64117   1.64392   1.64534   1.64926   1.65553
 Alpha virt. eigenvalues --    1.65626   1.65908   1.66035   1.66361   1.67189
 Alpha virt. eigenvalues --    1.67297   1.67472   1.67728   1.67960   1.68216
 Alpha virt. eigenvalues --    1.68800   1.69003   1.69060   1.69457   1.69739
 Alpha virt. eigenvalues --    1.69857   1.70285   1.70452   1.70747   1.70851
 Alpha virt. eigenvalues --    1.71224   1.72272   1.72419   1.72533   1.72823
 Alpha virt. eigenvalues --    1.73157   1.73469   1.73485   1.73548   1.73598
 Alpha virt. eigenvalues --    1.74064   1.74149   1.74325   1.74604   1.74825
 Alpha virt. eigenvalues --    1.74967   1.75401   1.75597   1.75850   1.76160
 Alpha virt. eigenvalues --    1.76255   1.76395   1.76585   1.76689   1.76757
 Alpha virt. eigenvalues --    1.77049   1.77317   1.77572   1.77623   1.77766
 Alpha virt. eigenvalues --    1.77860   1.78063   1.78165   1.78191   1.78339
 Alpha virt. eigenvalues --    1.78624   1.78771   1.78852   1.79162   1.79504
 Alpha virt. eigenvalues --    1.79616   1.79860   1.79961   1.80076   1.80270
 Alpha virt. eigenvalues --    1.80356   1.80442   1.80521   1.80739   1.80810
 Alpha virt. eigenvalues --    1.81024   1.81290   1.81532   1.81692   1.82016
 Alpha virt. eigenvalues --    1.82264   1.82532   1.82817   1.83033   1.83267
 Alpha virt. eigenvalues --    1.83401   1.83637   1.83724   1.83903   1.83992
 Alpha virt. eigenvalues --    1.84357   1.84601   1.85023   1.85142   1.85343
 Alpha virt. eigenvalues --    1.85409   1.85554   1.85947   1.86084   1.86409
 Alpha virt. eigenvalues --    1.86640   1.86876   1.87046   1.87080   1.87303
 Alpha virt. eigenvalues --    1.87607   1.87834   1.87981   1.88429   1.88499
 Alpha virt. eigenvalues --    1.88639   1.88749   1.89145   1.89355   1.89406
 Alpha virt. eigenvalues --    1.89703   1.89924   1.90162   1.90450   1.90467
 Alpha virt. eigenvalues --    1.90884   1.90970   1.91002   1.91250   1.91281
 Alpha virt. eigenvalues --    1.91509   1.91737   1.91843   1.91985   1.92133
 Alpha virt. eigenvalues --    1.92405   1.92466   1.92660   1.92771   1.93103
 Alpha virt. eigenvalues --    1.93163   1.93304   1.93689   1.93916   1.94147
 Alpha virt. eigenvalues --    1.94424   1.94578   1.94686   1.94990   1.95214
 Alpha virt. eigenvalues --    1.95244   1.95623   1.95663   1.95763   1.96119
 Alpha virt. eigenvalues --    1.96238   1.96337   1.96605   1.96925   1.97163
 Alpha virt. eigenvalues --    1.97476   1.97613   1.98002   1.98056   1.98183
 Alpha virt. eigenvalues --    1.98212   1.98734   1.98827   1.99089   1.99460
 Alpha virt. eigenvalues --    1.99514   1.99885   2.00232   2.00260   2.00547
 Alpha virt. eigenvalues --    2.00862   2.01103   2.01624   2.01708   2.01889
 Alpha virt. eigenvalues --    2.01951   2.02003   2.02286   2.02693   2.02829
 Alpha virt. eigenvalues --    2.03112   2.03678   2.03816   2.04411   2.04663
 Alpha virt. eigenvalues --    2.04762   2.04879   2.05050   2.05171   2.05396
 Alpha virt. eigenvalues --    2.05480   2.05808   2.06115   2.06458   2.06617
 Alpha virt. eigenvalues --    2.06965   2.07023   2.07530   2.07677   2.07912
 Alpha virt. eigenvalues --    2.08208   2.08428   2.08621   2.08888   2.09268
 Alpha virt. eigenvalues --    2.09499   2.10055   2.10258   2.10388   2.10521
 Alpha virt. eigenvalues --    2.10821   2.10842   2.11402   2.11484   2.11942
 Alpha virt. eigenvalues --    2.12215   2.12405   2.12713   2.12789   2.12993
 Alpha virt. eigenvalues --    2.13509   2.13883   2.13969   2.14167   2.14504
 Alpha virt. eigenvalues --    2.14650   2.14859   2.14993   2.15367   2.15929
 Alpha virt. eigenvalues --    2.16178   2.16259   2.16390   2.16499   2.16861
 Alpha virt. eigenvalues --    2.17127   2.17284   2.17516   2.17799   2.18206
 Alpha virt. eigenvalues --    2.18578   2.18892   2.19154   2.19432   2.19773
 Alpha virt. eigenvalues --    2.20031   2.20070   2.20537   2.21069   2.21100
 Alpha virt. eigenvalues --    2.21825   2.21978   2.22186   2.22395   2.22627
 Alpha virt. eigenvalues --    2.22898   2.23359   2.23883   2.24077   2.24393
 Alpha virt. eigenvalues --    2.24771   2.24814   2.25803   2.26074   2.26518
 Alpha virt. eigenvalues --    2.26716   2.27090   2.27438   2.27591   2.28097
 Alpha virt. eigenvalues --    2.28713   2.29123   2.29233   2.29601   2.29872
 Alpha virt. eigenvalues --    2.29944   2.30094   2.30345   2.30811   2.31023
 Alpha virt. eigenvalues --    2.31278   2.31520   2.32380   2.32536   2.32728
 Alpha virt. eigenvalues --    2.32972   2.33408   2.33582   2.34075   2.34256
 Alpha virt. eigenvalues --    2.34947   2.35334   2.35699   2.36071   2.36729
 Alpha virt. eigenvalues --    2.37121   2.37371   2.37477   2.37838   2.38174
 Alpha virt. eigenvalues --    2.38902   2.38947   2.39200   2.39802   2.40082
 Alpha virt. eigenvalues --    2.40166   2.40508   2.40568   2.41006   2.41175
 Alpha virt. eigenvalues --    2.41531   2.41933   2.42302   2.42675   2.42937
 Alpha virt. eigenvalues --    2.43330   2.43998   2.44088   2.44248   2.44734
 Alpha virt. eigenvalues --    2.44872   2.45189   2.45708   2.45930   2.46311
 Alpha virt. eigenvalues --    2.46667   2.46992   2.47160   2.47388   2.47511
 Alpha virt. eigenvalues --    2.47881   2.48135   2.48505   2.48917   2.49147
 Alpha virt. eigenvalues --    2.49528   2.49645   2.49707   2.50786   2.51025
 Alpha virt. eigenvalues --    2.51380   2.52262   2.52662   2.52808   2.53076
 Alpha virt. eigenvalues --    2.53438   2.54132   2.54399   2.54899   2.55935
 Alpha virt. eigenvalues --    2.56284   2.56734   2.56819   2.57019   2.57332
 Alpha virt. eigenvalues --    2.57610   2.58052   2.58331   2.58367   2.58775
 Alpha virt. eigenvalues --    2.58963   2.59121   2.59907   2.60162   2.60507
 Alpha virt. eigenvalues --    2.60708   2.61262   2.61535   2.61614   2.61972
 Alpha virt. eigenvalues --    2.62069   2.62253   2.62429   2.62637   2.63114
 Alpha virt. eigenvalues --    2.63386   2.63476   2.63944   2.64740   2.65093
 Alpha virt. eigenvalues --    2.65178   2.65355   2.65447   2.65921   2.66353
 Alpha virt. eigenvalues --    2.66572   2.66922   2.67243   2.67455   2.67812
 Alpha virt. eigenvalues --    2.67943   2.68372   2.68772   2.68808   2.69332
 Alpha virt. eigenvalues --    2.69866   2.70219   2.70287   2.71056   2.71278
 Alpha virt. eigenvalues --    2.71402   2.71530   2.72224   2.72590   2.72748
 Alpha virt. eigenvalues --    2.72975   2.73191   2.73462   2.73563   2.74096
 Alpha virt. eigenvalues --    2.74117   2.74379   2.74717   2.74994   2.75584
 Alpha virt. eigenvalues --    2.75902   2.75995   2.76110   2.76372   2.76844
 Alpha virt. eigenvalues --    2.76924   2.77305   2.77616   2.78340   2.78756
 Alpha virt. eigenvalues --    2.79154   2.79281   2.79693   2.79758   2.79923
 Alpha virt. eigenvalues --    2.80113   2.80226   2.80363   2.80451   2.80767
 Alpha virt. eigenvalues --    2.80921   2.81008   2.81123   2.81404   2.81856
 Alpha virt. eigenvalues --    2.81944   2.82126   2.82260   2.82683   2.83066
 Alpha virt. eigenvalues --    2.83201   2.83425   2.83711   2.83899   2.83975
 Alpha virt. eigenvalues --    2.84338   2.84378   2.84672   2.84930   2.85051
 Alpha virt. eigenvalues --    2.85697   2.86236   2.86809   2.87142   2.87350
 Alpha virt. eigenvalues --    2.87490   2.87987   2.88053   2.88401   2.88650
 Alpha virt. eigenvalues --    2.89107   2.89589   2.89687   2.89929   2.90040
 Alpha virt. eigenvalues --    2.90078   2.90863   2.91322   2.91545   2.91932
 Alpha virt. eigenvalues --    2.91980   2.92253   2.92782   2.92842   2.93451
 Alpha virt. eigenvalues --    2.93771   2.94149   2.94177   2.94249   2.94481
 Alpha virt. eigenvalues --    2.94722   2.94862   2.95048   2.95811   2.95952
 Alpha virt. eigenvalues --    2.96106   2.96440   2.96540   2.97794   2.98214
 Alpha virt. eigenvalues --    2.98280   2.98410   2.98505   2.98877   2.98946
 Alpha virt. eigenvalues --    2.99148   2.99512   2.99894   3.00233   3.00759
 Alpha virt. eigenvalues --    3.01195   3.01380   3.01535   3.01719   3.02027
 Alpha virt. eigenvalues --    3.02582   3.03553   3.04054   3.04579   3.04935
 Alpha virt. eigenvalues --    3.05201   3.05840   3.06333   3.06412   3.06907
 Alpha virt. eigenvalues --    3.06998   3.07779   3.07821   3.08171   3.08655
 Alpha virt. eigenvalues --    3.08715   3.08790   3.09204   3.09477   3.10311
 Alpha virt. eigenvalues --    3.10526   3.10593   3.11668   3.12728   3.12986
 Alpha virt. eigenvalues --    3.13448   3.13763   3.14362   3.14475   3.14887
 Alpha virt. eigenvalues --    3.14998   3.15081   3.15283   3.15826   3.15940
 Alpha virt. eigenvalues --    3.16124   3.16712   3.16811   3.17298   3.17528
 Alpha virt. eigenvalues --    3.18387   3.18558   3.19232   3.19299   3.19525
 Alpha virt. eigenvalues --    3.19916   3.20082   3.20555   3.20912   3.21351
 Alpha virt. eigenvalues --    3.21712   3.21791   3.22475   3.22616   3.22904
 Alpha virt. eigenvalues --    3.23594   3.23705   3.24793   3.24960   3.25099
 Alpha virt. eigenvalues --    3.25152   3.25677   3.26544   3.27027   3.28646
 Alpha virt. eigenvalues --    3.28757   3.28922   3.30236   3.31082   3.32797
 Alpha virt. eigenvalues --    3.33310   3.33831   3.34321   3.34647   3.35163
 Alpha virt. eigenvalues --    3.37256   3.37868   3.38033   3.38730   3.40374
 Alpha virt. eigenvalues --    3.40683   3.41068   3.43250   3.46988   3.48210
 Alpha virt. eigenvalues --    3.53446   3.54214   3.55730   3.56655   3.56924
 Alpha virt. eigenvalues --    3.57352   3.57676   3.58630   3.59426   3.59605
 Alpha virt. eigenvalues --    3.59991   3.60607   3.60725   3.61156   3.61662
 Alpha virt. eigenvalues --    3.65973   3.66964   3.67525   3.67613   3.68634
 Alpha virt. eigenvalues --    3.68961   3.69660   3.69899   3.70140   3.70858
 Alpha virt. eigenvalues --    3.70888   3.71629   3.72021   3.72678   3.72975
 Alpha virt. eigenvalues --    3.73125   3.74503   3.75467   3.76162   3.76219
 Alpha virt. eigenvalues --    3.76558   3.77178   3.78319   3.79316
          Condensed to atoms (all electrons):
 Mulliken charges:
               1
     1  C    0.081004
     2  C   -0.014435
     3  O   -0.309902
     4  H    0.004743
     5  H    0.043625
     6  H   -0.013968
     7  N   -0.151285
     8  C    0.125544
     9  C    0.130845
    10  O   -0.309317
    11  C    0.040011
    12  C    0.048648
    13  O   -0.368362
    14  O   -0.325778
    15  H    0.117437
    16  H    0.011413
    17  H   -0.011198
    18  H    0.028339
    19  N   -0.084027
    20  C    0.123295
    21  C    0.074635
    22  O   -0.254137
    23  C   -0.014064
    24  C    0.024052
    25  C   -0.022416
    26  C    0.023350
    27  N    0.154716
    28  H    0.117623
    29  H   -0.015245
    30  H    0.028945
    31  H   -0.009554
    32  H    0.006855
    33  H    0.030170
    34  H    0.023680
    35  H    0.010881
    36  H    0.058155
    37  H    0.072374
    38  H    0.124019
    39  H    0.123586
    40  H    0.140468
    41  N   -0.185991
    42  C    0.142903
    43  C    0.050910
    44  O   -0.320605
    45  C    0.139856
    46  C    0.039681
    47  O   -0.326580
    48  O   -0.502841
    49  H    0.128205
    50  H    0.033467
    51  H   -0.008926
    52  H    0.017638
    53  N   -0.127238
    54  C    0.170194
    55  C    0.025429
    56  O   -0.243045
    57  H    0.135407
    58  H    0.018786
    59  H    0.070334
    60  N   -0.142383
    61  C   -0.032050
    62  C    0.086213
    63  O   -0.264359
    64  C    0.241585
    65  C   -0.064552
    66  N   -0.003217
    67  O   -0.263805
    68  H    0.126935
    69  H    0.040513
    70  H   -0.018860
    71  H    0.023828
    72  H    0.109734
    73  H    0.132704
    74  N   -0.153165
    75  C    0.184402
    76  C    0.026534
    77  O   -0.276503
    78  H    0.122416
    79  H    0.037735
    80  H    0.078541
    81  N   -0.092322
    82  C    0.080130
    83  C    0.105727
    84  O   -0.248170
    85  C    0.124404
    86  C    0.025350
    87  C    0.005968
    88  C   -0.021728
    89  C   -0.011951
    90  C   -0.036069
    91  C    0.162536
    92  O   -0.213278
    93  H    0.102770
    94  H    0.016380
    95  H   -0.020697
    96  H   -0.020207
    97  H   -0.030940
    98  H   -0.026300
    99  H   -0.020701
   100  H   -0.042481
   101  H    0.177713
   102  N   -0.150357
   103  C    0.136700
   104  C    0.051928
   105  O   -0.276159
   106  C   -0.061516
   107  C   -0.052563
   108  C    0.027249
   109  C    0.047515
   110  H    0.111794
   111  H    0.057923
   112  H    0.004695
   113  H    0.019693
   114  H    0.037466
   115  H   -0.008104
   116  H   -0.023408
   117  H    0.021287
   118  H   -0.007668
   119  H    0.023255
   120  H   -0.027052
   121  N   -0.105811
   122  C    0.109679
   123  C    0.072656
   124  O   -0.303229
   125  C    0.233657
   126  O   -0.293550
   127  H    0.086931
   128  H    0.004310
   129  H    0.005579
   130  H   -0.003852
   131  H    0.166781
   132  N   -0.112722
   133  C    0.106865
   134  C    0.039586
   135  O   -0.250125
   136  C    0.065804
   137  H    0.129145
   138  H    0.002613
   139  H    0.030892
   140  H    0.020140
   141  H    0.002140
   142  N   -0.129918
   143  C    0.055145
   144  C    0.095450
   145  O   -0.270533
   146  C    0.069699
   147  H    0.106621
   148  H    0.015068
   149  H    0.026175
   150  H    0.021131
   151  H   -0.009519
   152  N   -0.140465
   153  C    0.086964
   154  C    0.056743
   155  O   -0.281807
   156  C    0.066134
   157  C    0.058659
   158  C    0.108126
   159  O   -0.453879
   160  O   -0.412199
   161  H    0.115559
   162  H    0.035348
   163  H    0.036473
   164  H   -0.009339
   165  H    0.051907
   166  H    0.029966
   167  N   -0.151225
   168  C    0.123866
   169  H    0.011383
   170  H    0.046895
   171  H    0.028753
   172  H    0.093820
   173  Ca   1.359740
   174  O   -0.295470
   175  H    0.191884
   176  H    0.191991
 Sum of Mulliken charges =  -0.00000
 Mulliken charges with hydrogens summed into heavy atoms:
               1
     1  C    0.115404
     2  C   -0.014435
     3  O   -0.309902
     7  N   -0.033849
     8  C    0.136957
     9  C    0.130845
    10  O   -0.309317
    11  C    0.057152
    12  C    0.048648
    13  O   -0.368362
    14  O   -0.325778
    19  N    0.033596
    20  C    0.108050
    21  C    0.074635
    22  O   -0.254137
    23  C    0.005327
    24  C    0.061078
    25  C    0.012145
    26  C    0.153879
    27  N    0.542789
    41  N   -0.057786
    42  C    0.176370
    43  C    0.050910
    44  O   -0.320605
    45  C    0.148568
    46  C    0.039681
    47  O   -0.326580
    48  O   -0.502841
    53  N    0.008169
    54  C    0.259315
    55  C    0.025429
    56  O   -0.243045
    60  N   -0.015447
    61  C    0.008463
    62  C    0.086213
    63  O   -0.264359
    64  C    0.246552
    65  C   -0.064552
    66  N    0.239220
    67  O   -0.263805
    74  N   -0.030749
    75  C    0.300678
    76  C    0.026534
    77  O   -0.276503
    81  N    0.010448
    82  C    0.096510
    83  C    0.105727
    84  O   -0.248170
    85  C    0.083500
    86  C    0.025350
    87  C   -0.024972
    88  C   -0.048028
    89  C   -0.032652
    90  C   -0.078550
    91  C    0.162536
    92  O   -0.035565
   102  N   -0.038563
   103  C    0.194622
   104  C    0.051928
   105  O   -0.276159
   106  C   -0.056821
   107  C    0.004595
   108  C    0.017024
   109  C    0.036051
   121  N   -0.018881
   122  C    0.113989
   123  C    0.072656
   124  O   -0.303229
   125  C    0.235383
   126  O   -0.126769
   132  N    0.016423
   133  C    0.109478
   134  C    0.039586
   135  O   -0.250125
   136  C    0.118976
   142  N   -0.023296
   143  C    0.070213
   144  C    0.095450
   145  O   -0.270533
   146  C    0.107486
   152  N   -0.024906
   153  C    0.122313
   154  C    0.056743
   155  O   -0.281807
   156  C    0.093269
   157  C    0.140532
   158  C    0.108126
   159  O   -0.453879
   160  O   -0.412199
   167  N   -0.057405
   168  C    0.210896
   173  Ca   1.359740
   174  O    0.088405
 DipInt: DoE/N= T F RetVal/Mat= T F Init=T NMatP=  1 IDeriv=0 Min/MaxMlt=  0  4
 Entering OneElI...
 OneElI was handed  1333951383 working-precision words.
 Multipole integrals L=0 to 4 MinM= 0 MaxM= 0.
 Requested accuracy = 0.1000D-12
 ShPair: Thresh= 1.00D-13 NBox=     0 BxSize= 0.00D+00 RnKept= 3.30D+01
         NSMCal=               327645 NSMKep=              136247
 PrmmSu-InSpLW:  IPartL=    0 NPrtUS=    1 NPrtUL=    1 DoSpLW=F IThBeg=    0 IThEnd=    0 NThAct=    1.
 PrsmSu:  NPrtUS=   1 ThrOK=F IAlg=1 NPAlg=1 LenDen=           0 ISkipM=0 DoSpLW=F IThBeg=    0 IThEnd=    0.
 Prism:   IPart=     0 DynPar=F LinDyn=F Incr=         512.
 PRISM was handed  1324839761 working-precision words and136247 shell-pairs
 IPart=  0 NShTot=      136247 NBatch=         317 AvBLen=       429.8
 PrsmSu-ThDecC:  IPartSL=    0    0 NPrtUSL=    1    1 IThBeg=    0 IThEnd=    0 CPU=   -1 GPU=   -1 NThAct=    1.
 PrSmSu:  NxtVal=            513.
 Electronic moments (au):
       -716.00000000         -3.97277557         -8.18734084         11.72538857
     -68257.81701336     -38538.73783940     -15871.97079037       -100.12639231
        132.36405194        -48.26663358     144954.48906873     -51232.21227636
     -19767.63612897     -26696.62840376      82753.13783387     -99481.05160059
     -58008.54484832       3574.04316206     -41775.65987638      12743.37609281
  -13617111.53260672   -5131458.22632806   -1020391.38408204     272370.36236172
    -390233.96625869    -309403.04073807    -797890.49505841    -173881.23039020
     256789.13354762   -2123316.02926540   -1303735.29978128    -958589.54569073
     596336.17760598    -448085.18053871     110316.30244278
 Electronic spatial extent (au):  <R**2>=         122668.5256
 DipInt: DoE/N= F T RetVal/Mat= T F Init=T NMatP=  1 IDeriv=0 Min/MaxMlt=  0  4
 Nuclear    moments (au):
        716.00000000          0.00000000         -0.00000000         -0.00000000
      67875.36979040      38336.67159399      15532.79353923         -0.00000000
          0.00000000          0.00000000    -147114.68911465      49198.66989353
      20747.04349412      27670.13677411     -83775.41538147     102232.99402810
      58892.09833683      -4886.58798799      42480.18256494     -13970.88370171
   13399347.25430533    5059515.46664068     981592.26078952    -297146.04589298
     418688.17177014     305319.32467337     800028.00769821     188272.43811698
    -267565.53295792    2077334.98585684    1270234.08259658     938608.01023578
    -614536.45627034     464265.05375620    -123887.40738017
 Total      moments (au):
         -0.00000000         -3.97277557         -8.18734084         11.72538857
       -382.44722296       -202.06624541       -339.17725113       -100.12639231
        132.36405194        -48.26663358      -2160.20004592      -2033.54238283
        979.40736515        973.50837035      -1022.27754760       2751.94242752
        883.55348851      -1312.54482594        704.52268856      -1227.50760890
    -217764.27830139     -71942.75968738     -38799.12329252     -24775.68353126
      28454.20551145      -4083.71606470       2137.51263980      14391.20772679
     -10776.39941030     -45981.04340856     -33501.21718469     -19981.53545495
     -18200.27866435      16179.87321749     -13571.10493739
 Traceless Quadrup. (au):
        -74.55031646        105.83066109        -31.28034463       -100.12639231
        132.36405194        -48.26663358
 Charge=             -0.0000 electrons
 Dipole moment (field-independent basis, Debye):
    X=            -10.0978    Y=            -20.8101    Z=             29.8030  Tot=             37.7259
 Quadrupole moment (field-independent basis, Debye-Ang):
   XX=           -514.4046   YY=           -271.7860   ZZ=           -456.2050
   XY=           -134.6734   XZ=            178.0342   YZ=            -64.9203
 Traceless Quadrupole moment (field-independent basis, Debye-Ang):
   XX=           -100.2727   YY=            142.3459   ZZ=            -42.0731
   XY=           -134.6734   XZ=            178.0342   YZ=            -64.9203
 Octapole moment (field-independent basis, Debye-Ang**2):
  XXX=          -1537.5472  YYY=          -1447.3971  ZZZ=            697.1044  XYY=            692.9058
  XXY=           -727.6178  XXZ=           1958.7266  XZZ=            628.8793  YZZ=           -934.2188
  YYZ=            501.4521  XYZ=           -873.6926
 Hexadecapole moment (field-independent basis, Debye-Ang**3):
 XXXX=         -82020.4694 YYYY=         -27097.0931 ZZZZ=         -14613.6103 XXXY=          -9331.7105
 XXXZ=          10717.2182 YYYX=          -1538.1233 YYYZ=            805.0898 ZZZX=           5420.4189
 ZZZY=          -4058.9088 XXYY=         -17318.6658 XXZZ=         -12618.1648 YYZZ=          -7526.0044
 XXYZ=          -6855.0977 YYXZ=           6094.1161 ZZXY=          -5111.5289
 N-N= 1.971644143104D+04 E-N=-5.192365801482D+04  KE= 5.290663406548D+03
 Leave Link  601 at Wed Sep 18 20:01:19 2019, MaxMem=  1342177280 cpu:              41.0 elap:               1.0
 FitSet:  NAtFit=   176 NAtPot=   176 NAtFrz=     0 MDM=   180 TotChg=   0.00000
 Merz-Kollman atomic radii used.
 Read replacement radii for each type of atom:
 Rad(20) =   1.700000000000D+00
 Atom Element Radius
    1     6    1.50
    2     6    1.50
    3     8    1.40
    4     1    1.20
    5     1    1.20
    6     1    1.20
    7     7    1.50
    8     6    1.50
    9     6    1.50
   10     8    1.40
   11     6    1.50
   12     6    1.50
   13     8    1.40
   14     8    1.40
   15     1    1.20
   16     1    1.20
   17     1    1.20
   18     1    1.20
   19     7    1.50
   20     6    1.50
   21     6    1.50
   22     8    1.40
   23     6    1.50
   24     6    1.50
   25     6    1.50
   26     6    1.50
   27     7    1.50
   28     1    1.20
   29     1    1.20
   30     1    1.20
   31     1    1.20
   32     1    1.20
   33     1    1.20
   34     1    1.20
   35     1    1.20
   36     1    1.20
   37     1    1.20
   38     1    1.20
   39     1    1.20
   40     1    1.20
   41     7    1.50
   42     6    1.50
   43     6    1.50
   44     8    1.40
   45     6    1.50
   46     6    1.50
   47     8    1.40
   48     8    1.40
   49     1    1.20
   50     1    1.20
   51     1    1.20
   52     1    1.20
   53     7    1.50
   54     6    1.50
   55     6    1.50
   56     8    1.40
   57     1    1.20
   58     1    1.20
   59     1    1.20
   60     7    1.50
   61     6    1.50
   62     6    1.50
   63     8    1.40
   64     6    1.50
   65     6    1.50
   66     7    1.50
   67     8    1.40
   68     1    1.20
   69     1    1.20
   70     1    1.20
   71     1    1.20
   72     1    1.20
   73     1    1.20
   74     7    1.50
   75     6    1.50
   76     6    1.50
   77     8    1.40
   78     1    1.20
   79     1    1.20
   80     1    1.20
   81     7    1.50
   82     6    1.50
   83     6    1.50
   84     8    1.40
   85     6    1.50
   86     6    1.50
   87     6    1.50
   88     6    1.50
   89     6    1.50
   90     6    1.50
   91     6    1.50
   92     8    1.40
   93     1    1.20
   94     1    1.20
   95     1    1.20
   96     1    1.20
   97     1    1.20
   98     1    1.20
   99     1    1.20
  100     1    1.20
  101     1    1.20
  102     7    1.50
  103     6    1.50
  104     6    1.50
  105     8    1.40
  106     6    1.50
  107     6    1.50
[...]
 **** Fit      -0.010391
 **** Fit      -0.005228
 **** Fit       0.007746
 **** Fit       0.009957
 **** Fit       0.002280
 **** Fit      -0.008574
 **** Fit      -0.019466
 **** Fit       0.005617
 **** Fit       0.016379
 **** Fit       0.020721
 **** Fit       0.018771
 **** Fit       0.011965
 **** Fit       0.000916
 **** Fit      -0.008899
 **** Fit      -0.018628
 **** Fit       0.002372
 **** Fit       0.015508
 **** Fit       0.024458
 **** Fit       0.028994
 **** Fit       0.029182
 **** Fit       0.025514
 **** Fit       0.018905
 **** Fit       0.010407
 **** Fit      -0.002980
 **** Fit      -0.012249
 **** Fit      -0.021118
 **** Fit      -0.029341
 **** Fit       0.013371
 **** Fit       0.024226
 **** Fit       0.031883
 **** Fit       0.036296
 **** Fit       0.037414
 **** Fit       0.035332
 **** Fit       0.030475
 **** Fit       0.023550
 **** Fit       0.015295
 **** Fit       0.006307
 **** Fit      -0.009645
 **** Fit      -0.019122
 **** Fit       0.004995
 **** Fit       0.018154
 **** Fit       0.028658
 **** Fit       0.036571
 **** Fit       0.041882
 **** Fit       0.044466
 **** Fit       0.044138
 **** Fit       0.040878
 **** Fit       0.035084
 **** Fit       0.027477
 **** Fit       0.018756
 **** Fit       0.009436
 **** Fit      -0.000105
 **** Fit       0.010208
 **** Fit       0.022437
 **** Fit       0.032527
 **** Fit       0.040538
 **** Fit       0.046504
 **** Fit       0.050338
 **** Fit       0.051750
 **** Fit       0.050319
 **** Fit       0.045872
 **** Fit       0.038863
 **** Fit       0.030201
 **** Fit       0.020673
 **** Fit       0.010701
 **** Fit       0.008910
 **** Fit       0.021445
 **** Fit       0.032141
 **** Fit       0.041030
 **** Fit       0.048221
 **** Fit       0.053794
 **** Fit       0.057645
 **** Fit       0.011610
 **** Fit       0.006976
 **** Fit       0.019724
 **** Fit       0.030869
 **** Fit       0.040386
 **** Fit       0.048419
 **** Fit       0.055194
 **** Fit       0.060919
 **** Fit       0.004232
 **** Fit       0.017280
 **** Fit       0.028835
 **** Fit       0.038833
 **** Fit       0.047432
 **** Fit       0.054924
 **** Fit       0.061720
 **** Fit       0.001772
 **** Fit       0.015745
 **** Fit       0.028004
 **** Fit       0.038556
 **** Fit       0.047631
 **** Fit       0.055608
 **** Fit       0.063051
 **** Fit       0.013661
 **** Fit       0.026644
 **** Fit       0.037692
 **** Fit       0.047127
 **** Fit       0.055379
 **** Fit       0.063063
 **** Fit       0.019390
 **** Fit       0.031959
 **** Fit       0.042504
 **** Fit       0.051488
 **** Fit       0.059455
 **** Fit       0.010956
 **** Fit       0.025253
 **** Fit       0.037032
 **** Fit       0.046859
 **** Fit       0.055251
 **** Fit       0.062793
 **** Fit       0.019894
 **** Fit       0.033033
 **** Fit       0.043787
 **** Fit       0.052754
 **** Fit       0.060489
 **** Fit       0.014365
 **** Fit       0.028756
 **** Fit       0.040391
 **** Fit       0.049952
 **** Fit       0.057995
 **** Fit      -0.037664
 **** Fit      -0.033892
 **** Fit      -0.032223
 **** Fit       0.018367
 **** Fit       0.032102
 **** Fit       0.043235
 **** Fit       0.052401
 **** Fit       0.060145
 **** Fit      -0.028228
 **** Fit      -0.026275
 **** Fit      -0.026652
 **** Fit       0.022959
 **** Fit       0.035646
 **** Fit       0.046051
 **** Fit       0.054715
 **** Fit       0.062164
 **** Fit      -0.020529
 **** Fit      -0.019175
 **** Fit      -0.020098
 **** Fit       0.015513
 **** Fit       0.029529
 **** Fit       0.041111
 **** Fit       0.050733
 **** Fit       0.058904
 **** Fit       0.066254
 **** Fit      -0.013919
 **** Fit      -0.012296
 **** Fit      -0.011559
 **** Fit      -0.012786
 **** Fit      -0.016551
 **** Fit       0.023404
 **** Fit       0.035762
 **** Fit       0.046180
 **** Fit       0.055005
 **** Fit       0.062754
 **** Fit      -0.004379
 **** Fit      -0.003801
 **** Fit      -0.003674
 **** Fit      -0.005004
 **** Fit      -0.008206
 **** Fit       0.018317
 **** Fit       0.030530
 **** Fit       0.041294
 **** Fit       0.050554
 **** Fit       0.058567
 **** Fit       0.065837
 **** Fit       0.005829
 **** Fit       0.004829
 **** Fit       0.004566
 **** Fit       0.004009
 **** Fit       0.002403
 **** Fit      -0.000316
 **** Fit       0.021143
 **** Fit       0.032052
 **** Fit       0.042125
 **** Fit       0.050956
 **** Fit       0.058576
 **** Fit       0.065270
 **** Fit       0.033787
 **** Fit       0.023407
 **** Fit       0.025352
 **** Fit       0.020600
 **** Fit       0.017285
 **** Fit       0.014821
 **** Fit       0.013261
 **** Fit       0.012358
 **** Fit       0.011422
 **** Fit       0.010037
 **** Fit       0.008580
 **** Fit       0.008243
 **** Fit       0.010477
 **** Fit       0.015976
 **** Fit       0.024108
 **** Fit       0.033428
 **** Fit       0.042583
 **** Fit       0.050750
 **** Fit       0.057602
 **** Fit       0.062980
 **** Fit       0.042057
 **** Fit       0.032489
 **** Fit       0.031759
 **** Fit       0.026481
 **** Fit       0.022935
 **** Fit       0.020704
 **** Fit       0.019357
 **** Fit       0.018412
 **** Fit       0.018054
 **** Fit       0.019399
 **** Fit       0.023604
 **** Fit       0.030599
 **** Fit       0.038987
 **** Fit       0.047088
 **** Fit       0.053696
 **** Fit       0.057939
 **** Fit       0.058743
 **** Fit       0.055113
 **** Fit       0.047713
 **** Fit       0.039115
 **** Fit       0.036114
 **** Fit       0.030679
 **** Fit       0.027418
 **** Fit       0.025936
 **** Fit       0.026178
 **** Fit       0.029111
 **** Fit       0.035238
 **** Fit       0.042890
 **** Fit       0.049287
 **** Fit       0.052053
 **** Fit       0.049740
 **** Fit       0.043302
 **** Fit       0.038565
 **** Fit       0.033552
 **** Fit       0.033153
 **** Fit       0.038097
 **** Fit       0.044449
 **** Fit       0.044618
 **** Fit       0.039209
 **** Fit       0.041472
 **** Fit       0.034467
 **** Fit       0.037323
 **** Fit       0.048034
 **** Fit       0.045713
 **** Fit       0.039851
 **** Fit       0.027185
 **** Fit       0.026328
 **** Fit       0.054003
 **** Fit       0.032629
 **** Fit       0.019809
 **** Fit       0.016350
 **** Fit       0.033002
 **** Fit       0.025832
 **** Fit       0.012554
 **** Fit       0.006961
 **** Fit       0.026540
 **** Fit       0.019292
 **** Fit       0.005669
 **** Fit       0.028612
 **** Fit       0.021005
 **** Fit       0.013372
 **** Fit      -0.000549
 **** Fit       0.031888
 **** Fit       0.024183
 **** Fit       0.016360
 **** Fit       0.008212
 **** Fit      -0.005754
 **** Fit       0.027772
 **** Fit       0.020178
 **** Fit       0.012293
 **** Fit       0.003805
 **** Fit       0.032284
 **** Fit       0.024972
 **** Fit       0.017449
 **** Fit       0.009478
 **** Fit       0.000676
 **** Fit       0.031542
 **** Fit       0.024258
 **** Fit       0.016664
 **** Fit       0.008497
 **** Fit      -0.000681
 **** Fit       0.064134
 **** Fit       0.038164
 **** Fit       0.031336
 **** Fit       0.024260
 **** Fit       0.016793
 **** Fit       0.008676
 **** Fit      -0.000532
 **** Fit       0.063368
 **** Fit       0.061115
 **** Fit       0.039144
 **** Fit       0.032630
 **** Fit       0.025789
 **** Fit       0.018500
 **** Fit       0.010533
 **** Fit       0.001485
 **** Fit      -0.004923
 **** Fit       0.061417
 **** Fit       0.060340
 **** Fit       0.047354
 **** Fit       0.041592
 **** Fit       0.035432
 **** Fit       0.028866
 **** Fit       0.021812
 **** Fit       0.014091
 **** Fit       0.005374
 **** Fit       0.001510
 **** Fit       0.062747
 **** Fit       0.060630
 **** Fit       0.060321
 **** Fit       0.061104
 **** Fit       0.018904
 **** Fit       0.010810
 **** Fit       0.064853
 **** Fit       0.061795
 **** Fit       0.060793
 **** Fit       0.061073
 **** Fit       0.062001
 **** Fit       0.063036
 **** Fit       0.065329
 **** Fit       0.062655
 **** Fit       0.046182
 **** Fit       0.042631
 **** Fit       0.044395
 **** Fit       0.048638
 **** Fit       0.049237
 **** Fit       0.047698
 **** Fit       0.045062
 **** Fit       0.038565
 **** Fit       0.053456
 **** Fit       0.051839
 **** Fit       0.050360
 **** Fit       0.049002
 **** Fit       0.047224
 **** Fit       0.044673
 **** Fit       0.041466
 **** Fit       0.056857
 **** Fit       0.054031
 **** Fit       0.052249
 **** Fit       0.051114
 **** Fit       0.050123
 **** Fit       0.048879
 **** Fit       0.047113
 **** Fit       0.044660
 **** Fit       0.041478
 **** Fit       0.037732
 **** Fit       0.062353
 **** Fit       0.057512
 **** Fit       0.054612
 **** Fit       0.053009
 **** Fit       0.052075
 **** Fit       0.051340
 **** Fit       0.050486
 **** Fit       0.049292
 **** Fit       0.047599
 **** Fit       0.045284
 **** Fit       0.042249
 **** Fit       0.038445
 **** Fit       0.033943
 **** Fit       0.059353
 **** Fit       0.055883
 **** Fit       0.054049
 **** Fit       0.053083
 **** Fit       0.052475
 **** Fit       0.051899
 **** Fit       0.051141
 **** Fit       0.050048
 **** Fit       0.048501
 **** Fit       0.046391
 **** Fit       0.043610
 **** Fit       0.040045
 **** Fit       0.035592
 **** Fit       0.060783
 **** Fit       0.056942
 **** Fit       0.054926
 **** Fit       0.053895
 **** Fit       0.053332
 **** Fit       0.052912
 **** Fit       0.052427
 **** Fit       0.051737
 **** Fit       0.050735
 **** Fit       0.049334
 **** Fit       0.047444
 **** Fit       0.044968
 **** Fit       0.041791
 **** Fit       0.037773
 **** Fit       0.032759
 **** Fit       0.062023
 **** Fit       0.057771
 **** Fit       0.055587
 **** Fit       0.054505
 **** Fit       0.053959
 **** Fit       0.053607
 **** Fit       0.053236
 **** Fit       0.052706
 **** Fit       0.051914
 **** Fit       0.050775
 **** Fit       0.049210
 **** Fit       0.047130
 **** Fit       0.044427
 **** Fit       0.040963
 **** Fit       0.036559
 **** Fit       0.062981
 **** Fit       0.058551
 **** Fit       0.056266
 **** Fit       0.055131
 **** Fit       0.054574
 **** Fit       0.054254
 **** Fit       0.053960
 **** Fit       0.053556
 **** Fit       0.052943
 **** Fit       0.052045
 **** Fit       0.050791
 **** Fit       0.049106
 **** Fit       0.046902
 **** Fit       0.044063
 **** Fit       0.040440
 **** Fit       0.035827
 **** Fit       0.061248
 **** Fit       0.057981
 **** Fit       0.056307
 **** Fit       0.055478
 **** Fit       0.055060
 **** Fit       0.054788
 **** Fit       0.054496
 **** Fit       0.054072
 **** Fit       0.053434
 **** Fit       0.052514
 **** Fit       0.051247
 **** Fit       0.049562
 **** Fit       0.047369
 **** Fit       0.044553
 **** Fit       0.040957
 **** Fit       0.060256
 **** Fit       0.057842
 **** Fit       0.056624
 **** Fit       0.056019
 **** Fit       0.055680
 **** Fit       0.055397
 **** Fit       0.055031
 **** Fit       0.054487
 **** Fit       0.053689
 **** Fit       0.052572
 **** Fit       0.051063
 **** Fit       0.049077
 **** Fit       0.046503
 **** Fit       0.043185
 **** Fit       0.058987
 **** Fit       0.057720
 **** Fit       0.057071
 **** Fit       0.056689
 **** Fit       0.056357
 **** Fit       0.055936
 **** Fit       0.055328
 **** Fit       0.054457
 **** Fit       0.053252
 **** Fit       0.051638
 **** Fit       0.049519
 **** Fit       0.060678
 **** Fit       0.059323
 **** Fit       0.058591
 **** Fit       0.058140
 **** Fit       0.057757
 **** Fit       0.057305
 **** Fit       0.056693
 **** Fit       0.055850
 **** Fit       0.054717
 **** Fit       0.053232
 **** Fit       0.061467
 **** Fit       0.060656
 **** Fit       0.060150
 **** Fit       0.059734
 **** Fit       0.059282
 **** Fit       0.058723
 **** Fit       0.052120
 **** Fit       0.046926
 **** Fit       0.041399
 **** Fit       0.035535
 **** Fit       0.011315
 **** Fit       0.002829
 **** Fit       0.060593
 **** Fit       0.057974
 **** Fit       0.054676
 **** Fit       0.050820
 **** Fit       0.046510
 **** Fit       0.041809
 **** Fit       0.036732
 **** Fit       0.031250
 **** Fit       0.025284
 **** Fit       0.018706
 **** Fit       0.016582
 **** Fit       0.009997
 **** Fit       0.060962
 **** Fit       0.060428
 **** Fit       0.060011
 **** Fit       0.059298
 **** Fit       0.058046
 **** Fit       0.056155
 **** Fit       0.053630
 **** Fit       0.050529
 **** Fit       0.046930
 **** Fit       0.042895
 **** Fit       0.038461
 **** Fit       0.033636
 **** Fit       0.028402
 **** Fit       0.022727
 **** Fit       0.021685
 **** Fit       0.016870
 **** Fit       0.012729
 **** Fit       0.066180
 **** Fit       0.062059
 **** Fit       0.059716
 **** Fit       0.058465
 **** Fit       0.057721
 **** Fit       0.057029
 **** Fit       0.056073
 **** Fit       0.054665
 **** Fit       0.052724
 **** Fit       0.050248
 **** Fit       0.047275
 **** Fit       0.043856
 **** Fit       0.040039
 **** Fit       0.035863
 **** Fit       0.031366
 **** Fit       0.026602
 **** Fit       0.026538
 **** Fit       0.023053
 **** Fit       0.020948
 **** Fit       0.021529
 **** Fit       0.026352
 **** Fit       0.067390
 **** Fit       0.062603
 **** Fit       0.059361
 **** Fit       0.057379
 **** Fit       0.056169
 **** Fit       0.055249
 **** Fit       0.054237
 **** Fit       0.052875
 **** Fit       0.051026
 **** Fit       0.048651
 **** Fit       0.045770
 **** Fit       0.042437
 **** Fit       0.038725
 **** Fit       0.034726
 **** Fit       0.030581
 **** Fit       0.031096
 **** Fit       0.028838
 **** Fit       0.028457
 **** Fit       0.031060
 **** Fit       0.037335
 **** Fit       0.046622
 **** Fit       0.065363
 **** Fit       0.062354
 **** Fit       0.059246
 **** Fit       0.056845
 **** Fit       0.055196
 **** Fit       0.053995
 **** Fit       0.052862
 **** Fit       0.051487
 **** Fit       0.049679
 **** Fit       0.047361
 **** Fit       0.044550
 **** Fit       0.041328
 **** Fit       0.037836
 **** Fit       0.034301
 **** Fit       0.035342
 **** Fit       0.034163
 **** Fit       0.035384
 **** Fit       0.039643
 **** Fit       0.046257
 **** Fit       0.052923
 **** Fit       0.057110
 **** Fit       0.058052
 **** Fit       0.056899
 **** Fit       0.055157
 **** Fit       0.053597
 **** Fit       0.052262
 **** Fit       0.050869
 **** Fit       0.049124
 **** Fit       0.046869
 **** Fit       0.044111
 **** Fit       0.041012
 **** Fit       0.037905
 **** Fit       0.039275
 **** Fit       0.039232
 **** Fit       0.042318
 **** Fit       0.047472
 **** Fit       0.051636
 **** Fit       0.052975
 **** Fit       0.052337
 **** Fit       0.051029
 **** Fit       0.049383
 **** Fit       0.047198
 **** Fit       0.044423
 **** Fit       0.041466
 **** Fit       0.042909
 **** Fit       0.044459
 **** Fit       0.048292
 **** Fit       0.049396
 **** Fit       0.047881
 **** Fit       0.045081
 **** Fit       0.046271
 -----------------------------------------------------------------
 Leave Link  602 at Wed Sep 18 20:01:23 2019, MaxMem=  1342177280 cpu:             124.3 elap:               2.6

 Test job not archived.
 1\1\GINC-C484-013\SP\RB3LYP\SVP\C54H83Ca1N15O23\PENGZHI\18-Sep-2019\0\
 \#b3lyp/svp scf=(tight,noincore) Test #IOP(5/87=12) Density=Current Po
 p=(MK,readradii) iop(6/33=2) iop(6/42=6)\\Ng-31_loop3_46.0\\0,1\C,0,85
 .21,72.19,29.02\C,0,84.68,71.43,30.23\O,0,83.75,71.92,30.86\H,0,86.227
 ,71.864,28.804\H,0,84.574,71.99,28.158\H,0,85.209,73.259,29.233\N,0,85
 .21,70.25,30.58\C,0,84.65,69.4,31.61\C,0,85.13,69.78,33.01\O,0,84.5,69
 .33,33.97\C,0,84.97,67.92,31.39\C,0,86.44,67.63,31.11\O,0,87.32,68.52,
 31.1\O,0,86.82,66.53,30.66\H,0,86.1,69.95,30.21\H,0,83.58,69.51,31.5\H
 ,0,84.42,67.63,30.5\H,0,84.56,67.31,32.2\N,0,86.07,70.72,33.09\C,0,86.
 4,71.35,34.35\C,0,87.16,70.46,35.32\O,0,88.12,69.84,34.87\C,0,87.18,72
 .63,34.04\C,0,86.36,73.66,33.27\C,0,87.03,75.03,33.3\C,0,86.23,76.03,3
 2.48\N,0,86.79,77.39,32.35\H,0,86.49,71.06,32.23\H,0,85.48,71.7,34.83\
 H,0,88.13,72.38,33.56\H,0,87.47,72.99,35.03\H,0,85.45,73.82,33.85\H,0,
 86.05,73.34,32.28\H,0,88.06,74.88,32.96\H,0,87.04,75.37,34.33\H,0,85.3
 ,76.15,33.03\H,0,86.18,75.6,31.48\H,0,86.,77.98,32.17\H,0,87.04,77.71,
 33.28\H,0,87.55,77.48,31.69\N,0,86.54,70.23,36.48\C,0,86.79,69.16,37.4
 2\C,0,85.65,68.15,37.4\O,0,85.65,67.26,38.25\C,0,87.1,69.64,38.84\C,0,
 86.08,70.63,39.4\O,0,85.01,70.79,38.79\O,0,86.43,71.37,40.35\H,0,85.74
 ,70.82,36.64\H,0,87.61,68.71,36.87\H,0,88.02,70.21,38.76\H,0,87.2,68.7
 7,39.48\N,0,84.79,68.12,36.39\C,0,83.88,67.01,36.15\C,0,84.59,65.87,35
 .43\O,0,85.75,65.88,35.03\H,0,84.91,68.9,35.76\H,0,83.16,67.35,35.42\H
 ,0,83.3,66.75,37.04\N,0,83.9,64.77,35.11\C,0,82.49,64.56,35.36\C,0,81.
 92,63.93,34.1\O,0,81.71,62.72,34.07\C,0,82.22,63.73,36.61\C,0,82.64,64
 .49,37.87\N,0,83.89,64.5,38.32\O,0,81.83,65.26,38.38\H,0,84.41,64.1,34
 .55\H,0,82.03,65.54,35.49\H,0,82.78,62.79,36.58\H,0,81.16,63.53,36.69\
 H,0,84.54,63.79,38.03\H,0,84.03,64.86,39.26\N,0,81.52,64.7,33.08\C,0,8
 1.69,66.14,33.03\C,0,80.52,66.97,33.53\O,0,80.69,68.15,33.85\H,0,81.16
 ,64.2,32.28\H,0,81.77,66.31,31.95\H,0,82.57,66.42,33.6\N,0,79.36,66.35
 ,33.77\C,0,78.29,66.85,34.61\C,0,78.51,66.32,36.02\O,0,79.23,65.34,36.
 22\C,0,76.92,66.45,34.07\C,0,76.61,66.75,32.62\C,0,76.49,68.07,32.16\C
 ,0,76.47,65.69,31.72\C,0,76.36,68.31,30.78\C,0,76.23,65.91,30.36\C,0,7
 6.19,67.24,29.89\O,0,76.1,67.54,28.56\H,0,79.29,65.44,33.35\H,0,78.27,
 67.94,34.63\H,0,76.14,66.82,34.73\H,0,76.83,65.37,34.22\H,0,76.44,68.8
 8,32.86\H,0,76.67,64.66,31.97\H,0,76.23,69.33,30.45\H,0,76.24,65.12,29
 .63\H,0,75.77,66.83,28.\N,0,78.02,67.14,36.95\C,0,78.63,67.26,38.26\C,
 0,77.66,67.04,39.41\O,0,78.21,66.73,40.46\C,0,79.49,68.52,38.36\C,0,80
 .75,68.35,37.51\C,0,78.75,69.81,38.05\C,0,81.83,69.42,37.67\H,0,77.31,
 67.81,36.71\H,0,79.32,66.43,38.4\H,0,79.76,68.65,39.41\H,0,80.55,68.48
 ,36.44\H,0,81.24,67.41,37.73\H,0,78.68,69.98,36.97\H,0,77.76,69.81,38.
 5\H,0,79.24,70.71,38.42\H,0,82.06,69.62,38.72\H,0,82.71,69.12,37.11\H,
 0,81.43,70.39,37.39\N,0,76.33,67.12,39.32\C,0,75.32,66.66,40.25\C,0,74
 .9,67.83,41.12\O,0,74.4,68.83,40.61\C,0,74.18,66.07,39.42\O,0,74.7,64.
 98,38.69\H,0,76.01,67.45,38.42\H,0,75.81,65.92,40.88\H,0,73.83,66.82,3
 8.71\H,0,73.52,65.73,40.22\H,0,74.12,64.89,37.92\N,0,74.91,67.7,42.45\
 C,0,74.57,68.71,43.43\C,0,75.79,69.43,44.\O,0,76.91,68.92,43.91\C,0,73
 .58,68.09,44.42\H,0,75.27,66.81,42.78\H,0,74.07,69.53,42.91\H,0,72.58,
 68.04,43.98\H,0,73.88,67.06,44.64\H,0,73.56,68.7,45.32\N,0,75.68,70.55
 ,44.71\C,0,76.75,71.35,45.28\C,0,77.94,71.73,44.41\O,0,79.03,71.86,44.
 97\C,0,77.03,70.72,46.64\H,0,74.76,70.91,44.91\H,0,76.36,72.32,45.58\H
 ,0,77.48,69.73,46.56\H,0,77.88,71.2,47.12\H,0,76.09,70.64,47.19\N,0,77
 .73,71.78,43.09\C,0,78.8,72.23,42.23\C,0,78.35,73.33,41.27\O,0,79.21,7
 3.95,40.65\C,0,79.35,71.01,41.5\C,0,80.31,70.16,42.33\C,0,81.66,70.77,
 42.69\O,0,82.23,71.5,41.86\O,0,82.43,70.2,43.5\H,0,76.78,71.65,42.76\H
 ,0,79.62,72.61,42.84\H,0,79.83,71.35,40.58\H,0,78.48,70.37,41.33\H,0,8
 0.56,69.29,41.72\H,0,79.88,69.87,43.29\N,0,77.07,73.54,40.99\C,0,76.56
 ,74.44,39.97\H,0,75.661,74.934,40.339\H,0,77.316,75.19,39.735\H,0,76.3
 19,73.872,39.071\H,0,76.36,72.94,41.4\Ca,0,84.82,71.43,42.23\O,0,87.03
 ,72.63,42.92\H,0,87.19,73.43,43.43\H,0,87.67,72.,43.25\\Version=ES64L-
 G16RevA.03\State=1-A\HF=-5333.3082471\RMSD=8.032e-11\Dipole=-2.6443273
 ,14.2674597,3.1220761\Quadrupole=-17.5356966,62.0522859,-44.5165894,16
 7.6911468,44.5734882,-74.6083137\PG=C01 [X(C54H83Ca1N15O23)]\\@


 I LOVE THOSE WHO LONG FOR THE IMPOSSIBLE.

                                 -- GOETHE
 Job cpu time:       0 days 15 hours 21 minutes 20.3 seconds.
 Elapsed time:       0 days  0 hours 19 minutes 28.0 seconds.
 File lengths (MBytes):  RWF=   1517 Int=      0 D2E=      0 Chk=    171 Scr=      1
 Normal termination of Gaussian 16 at Wed Sep 18 20:01:24 2019.
