 Entering Gaussian System, Link 0=g16
 Initial command:
 /home1/apps/gaussian/16rA.03/g16/l1.exe "/scratch/01990/pengzhi/4354926/Gau-439633.inp" -scrdir="/scratch/01990/pengzhi/4354926/"
 Entering Link 1 = /home1/apps/gaussian/16rA.03/g16/l1.exe PID=    439634.
  
 Copyright (c) 1988,1990,1992,1993,1995,1998,2003,2009,2016,
            Gaussian, Inc.  All Rights Reserved.
  
 This is part of the Gaussian(R) 16 program.  It is based on
 the Gaussian(R) 09 system (copyright 2009, Gaussian, Inc.),
 the Gaussian(R) 03 system (copyright 2003, Gaussian, Inc.),
 the Gaussian(R) 98 system (copyright 1998, Gaussian, Inc.),
 the Gaussian(R) 94 system (copyright 1995, Gaussian, Inc.),
 the Gaussian 92(TM) system (copyright 1992, Gaussian, Inc.),
 the Gaussian 90(TM) system (copyright 1990, Gaussian, Inc.),
 the Gaussian 88(TM) system (copyright 1988, Gaussian, Inc.),
 the Gaussian 86(TM) system (copyright 1986, Carnegie Mellon
 University), and the Gaussian 82(TM) system (copyright 1983,
 Carnegie Mellon University). Gaussian is a federally registered
 trademark of Gaussian, Inc.
  
 This software contains proprietary and confidential information,
 including trade secrets, belonging to Gaussian, Inc.
  
 This software is provided under written license and may be
 used, copied, transmitted, or stored only in accord with that
 written license.
  
 The following legend is applicable only to US Government
 contracts under FAR:
  
                    RESTRICTED RIGHTS LEGEND
  
 Use, reproduction and disclosure by the US Government is
 subject to restrictions as set forth in subparagraphs (a)
 and (c) of the Commercial Computer Software - Restricted
 Rights clause in FAR 52.227-19.
  
 Gaussian, Inc.
 340 Quinnipiac St., Bldg. 40, Wallingford CT 06492
  
  
 ---------------------------------------------------------------
 Warning -- This program may not be used in any manner that
 competes with the business of Gaussian, Inc. or will provide
 assistance to any competitor of Gaussian, Inc.  The licensee
 of this program is prohibited from giving any competitor of
 Gaussian, Inc. access to this program.  By using this program,
 the user acknowledges that Gaussian, Inc. is engaged in the
 business of creating and licensing software in the field of
 computational chemistry and represents and warrants to the
 licensee that it is not a competitor of Gaussian, Inc. and that
 it will not use this program in any manner prohibited above.
 ---------------------------------------------------------------
  

 Cite this work as:
 Gaussian 16, Revision A.03,
 M. J. Frisch, G. W. Trucks, H. B. Schlegel, G. E. Scuseria, 
 M. A. Robb, J. R. Cheeseman, G. Scalmani, V. Barone, 
 G. A. Petersson, H. Nakatsuji, X. Li, M. Caricato, A. V. Marenich, 
 J. Bloino, B. G. Janesko, R. Gomperts, B. Mennucci, H. P. Hratchian, 
 J. V. Ortiz, A. F. Izmaylov, J. L. Sonnenberg, D. Williams-Young, 
 F. Ding, F. Lipparini, F. Egidi, J. Goings, B. Peng, A. Petrone, 
 T. Henderson, D. Ranasinghe, V. G. Zakrzewski, J. Gao, N. Rega, 
 G. Zheng, W. Liang, M. Hada, M. Ehara, K. Toyota, R. Fukuda, 
 J. Hasegawa, M. Ishida, T. Nakajima, Y. Honda, O. Kitao, H. Nakai, 
 T. Vreven, K. Throssell, J. A. Montgomery, Jr., J. E. Peralta, 
 F. Ogliaro, M. J. Bearpark, J. J. Heyd, E. N. Brothers, K. N. Kudin, 
 V. N. Staroverov, T. A. Keith, R. Kobayashi, J. Normand, 
 K. Raghavachari, A. P. Rendell, J. C. Burant, S. S. Iyengar, 
 J. Tomasi, M. Cossi, J. M. Millam, M. Klene, C. Adamo, R. Cammi, 
 J. W. Ochterski, R. L. Martin, K. Morokuma, O. Farkas, 
 J. B. Foresman, and D. J. Fox, Gaussian, Inc., Wallingford CT, 2016.
 
 ******************************************
 Gaussian 16:  ES64L-G16RevA.03 25-Dec-2016
                18-Sep-2019 
 ******************************************
 %chk=Ng-31_loop3_22.0.chk
 %nprocshared=48
 Will use up to   48 processors via shared memory.
 %mem=10GB
 %nosave
 ----------------------------------------------------------------------
 #b3lyp/svp scf=(tight,noincore) Test #IOP(5/87=12) Density=Current Pop
 =(MK,readradii) iop(6/33=2) iop(6/42=6)
 ----------------------------------------------------------------------
 1/30=1,38=1,172=1/1;
 2/12=2,17=6,18=5,40=1/2;
 3/5=18,7=101,11=2,25=1,30=1,74=-5/1,2,3;
 4//1;
 5/5=4,32=2,38=5,87=12/2;
 6/7=2,8=2,9=2,10=2,15=8,20=101,22=-1,28=1,33=2,42=6/1,2;
 99/5=1,9=1/99;
 ----------------
 Ng-31_loop3_22.0
 ----------------
 Symbolic Z-matrix:
 Charge =  0 Multiplicity = 1
 C                     61.08     59.83     34.31 
 C                     60.69     58.63     35.15 
 O                     59.58     58.09     35.16 
 H                     62.087    59.687    33.918 
 H                     60.38     59.937    33.481 
 H                     61.055    60.729    34.926 
 N                     61.61     58.14     35.99 
 C                     61.46     57.03     36.91 
 C                     60.77     57.55     38.16 
 O                     59.92     56.86     38.73 
 C                     62.84     56.45     37.19 
 C                     64.08     57.34     37.14 
 O                     65.12     56.77     36.75 
 O                     64.03     58.53     37.53 
 H                     62.5      58.6      36.1 
 H                     60.69     56.39     36.47 
 H                     63.07     55.66     36.49 
 H                     62.76     56.04     38.2 
 N                     61.21     58.71     38.65 
 C                     60.67     59.39     39.8 
 C                     61.13     58.63     41.04 
 O                     62.32     58.54     41.32 
 C                     61.13     60.85     39.82 
 C                     60.66     61.7      38.64 
 C                     59.18     62.       38.41 
 C                     58.92     63.02     37.3 
 N                     57.52     63.17     36.87 
 H                     62.12     59.03     38.32 
 H                     59.58     59.32     39.8 
 H                     62.21     60.91     39.81 
 H                     60.65     61.32     40.68 
 H                     61.12     61.28     37.75 
 H                     61.09     62.68     38.83 
 H                     58.72     62.42     39.3 
 H                     58.66     61.12     38.04 
 H                     59.53     62.76     36.44 
 H                     59.26     63.97     37.72 
 H                     56.97     63.57     37.61 
 H                     57.42     63.91     36.18 
 H                     57.14     62.33     36.45 
 N                     60.17     58.16     41.85 
 C                     60.45     57.21     42.9 
 C                     60.68     55.79     42.38 
 O                     60.8      54.83     43.14 
 C                     59.27     57.34     43.86 
 C                     57.9      57.28     43.2 
 O                     57.04     58.       43.76 
 O                     57.83     56.53     42.2 
 H                     59.26     58.43     41.5 
 H                     61.35     57.43     43.46 
 H                     59.42     58.28     44.38 
 H                     59.29     56.56     44.62 
 N                     60.77     55.6      41.06 
 C                     61.55     54.51     40.53 
 C                     63.05     54.76     40.55 
 O                     63.51     55.83     40.96 
 H                     60.58     56.41     40.49 
 H                     61.19     54.24     39.53 
 H                     61.31     53.65     41.15 
 N                     63.86     53.82     40.07 
 C                     63.51     52.45     39.73 
 C                     64.38     52.02     38.56 
 O                     65.59     51.92     38.77 
 C                     63.71     51.66     41.02 
 C                     63.66     50.15     40.83 
 N                     64.       49.38     41.88 
 O                     63.47     49.7      39.7 
 H                     64.83     54.07     39.91 
 H                     62.45     52.32     39.5 
 H                     62.96     51.79     41.79 
 H                     64.7      51.94     41.39 
 H                     64.1      49.78     42.8 
 H                     63.72     48.42     41.78 
 N                     63.96     51.76     37.32 
 C                     62.79     52.37     36.72 
 C                     61.53     51.52     36.82 
 O                     60.51     51.93     36.26 
 H                     64.68     51.57     36.64 
 H                     63.01     52.57     35.67 
 H                     62.56     53.36     37.11 
 N                     61.52     50.44     37.6 
 C                     60.26     49.79     37.93 
 C                     59.44     50.55     38.96 
 O                     59.94     51.01     39.98 
 C                     60.61     48.41     38.47 
 C                     61.26     47.41     37.55 
 C                     60.44     46.62     36.73 
 C                     62.65     47.31     37.42 
 C                     61.02     45.85     35.72 
 C                     63.29     46.57     36.42 
 C                     62.43     45.78     35.63 
 O                     63.01     44.91     34.76 
 H                     62.37     50.22     38.08 
 H                     59.78     49.66     36.96 
 H                     59.71     48.07     38.98 
 H                     61.35     48.65     39.23 
 H                     59.36     46.65     36.71 
 H                     63.29     47.85     38.11 
 H                     60.35     45.24     35.13 
 H                     64.35     46.38     36.35 
 H                     63.92     45.2      34.74 
 N                     58.19     50.91     38.64 
 C                     57.28     51.78     39.35 
 C                     56.4      50.99     40.31 
 O                     55.84     49.95     39.97 
 C                     56.56     52.82     38.49 
 C                     57.61     53.72     37.85 
 C                     55.63     52.11     37.52 
 C                     57.04     54.81     36.94 
 H                     57.85     50.6      37.75 
 H                     57.84     52.38     40.06 
 H                     55.93     53.33     39.22 
 H                     58.23     53.1      37.2 
 H                     58.2      54.19     38.63 
 H                     54.84     51.58     38.06 
 H                     55.17     52.83     36.84 
 H                     56.04     51.32     36.88 
 H                     57.76     55.61     36.78 
 H                     56.66     54.33     36.03 
 H                     56.12     55.2      37.37 
 N                     56.21     51.5      41.53 
 C                     55.47     50.9      42.61 
 C                     53.98     50.66     42.38 
 O                     53.5      50.68     41.25 
 C                     56.14     49.59     43.03 
 O                     57.26     49.87     43.84 
 H                     56.57     52.44     41.68 
 H                     55.42     51.64     43.41 
 H                     56.38     49.       42.14 
 H                     55.53     48.91     43.62 
 H                     57.72     50.64     43.51 
 N                     53.27     50.35     43.47 
 C                     51.84     50.15     43.48 
 C                     51.02     51.35     43.04 
 O                     51.16     52.47     43.52 
 C                     51.48     49.63     44.87 
 H                     53.82     50.39     44.32 
 H                     51.59     49.26     42.9 
 H                     51.87     48.61     44.9 
 H                     51.96     50.23     45.64 
 H                     50.39     49.65     44.99 
 N                     50.06     51.14     42.13 
 C                     49.09     52.12     41.69 
 C                     49.78     53.34     41.09 
 O                     49.23     54.43     41.2 
 C                     48.13     52.45     42.83 
 H                     50.12     50.31     41.56 
 H                     48.37     51.66     41.01 
 H                     47.65     51.61     43.31 
 H                     48.74     52.89     43.62 
 H                     47.38     53.1      42.38 
 N                     50.98     53.28     40.52 
 C                     51.65     54.36     39.81 
 C                     51.27     54.28     38.34 
 O                     51.31     55.33     37.69 
 C                     53.17     54.22     39.93 
 C                     53.86     55.58     39.86 
 C                     53.8      56.35     41.18 
 O                     54.33     55.92     42.23 
 O                     53.19     57.43     41.27 
 H                     51.38     52.35     40.52 
 H                     51.33     55.27     40.31 
 H                     53.45     53.71     39.02 
 H                     53.42     53.58     40.77 
 H                     53.46     56.17     39.04 
 H                     54.94     55.51     39.72 
 N                     50.75     53.13     37.9 
 C                     50.02     53.13     36.65 
 H                     49.124    53.742    36.753 
 H                     50.65     53.54     35.861 
 H                     49.735    52.109    36.395 
 H                     50.83     52.26     38.41 
 Ca                    54.48     58.22     43.53 
 O                     52.41     56.95     44.5 
 H                     51.75     56.27     44.35 
 H                     52.31     57.19     45.42 
 
 Stoichiometry    C54H83CaN15O23
 Framework group  C1[X(C54H83CaN15O23)]
 Deg. of freedom   522
 Full point group                 C1      NOp   1
 Largest Abelian subgroup         C1      NOp   1
 Largest concise Abelian subgroup C1      NOp   1
                         Standard orientation:                         
 ---------------------------------------------------------------------
 Center     Atomic      Atomic             Coordinates (Angstroms)
 Number     Number       Type             X           Y           Z
 ---------------------------------------------------------------------
      1          6           0        4.862758   -5.448252    4.402777
      2          6           0        4.159824   -4.307147    3.694637
      3          8           0        3.073524   -3.819615    4.020312
      4          1           0        5.931850   -5.241434    4.452074
      5          1           0        4.465986   -5.549116    5.413267
      6          1           0        4.697693   -6.374739    3.852634
      7          7           0        4.739425   -3.814510    2.593061
      8          6           0        4.244011   -2.755883    1.735813
      9          6           0        3.227688   -3.363701    0.783635
     10          8           0        2.203197   -2.740233    0.491733
     11          6           0        5.430188   -2.126686    1.017275
     12          6           0        6.672524   -2.955692    0.698605
     13          8           0        7.747516   -2.321351    0.723177
     14          8           0        6.571612   -4.163355    0.379127
     15          1           0        5.574922   -4.237793    2.220803
     16          1           0        3.615443   -2.132354    2.377852
     17          1           0        5.822215   -1.295725    1.585445
     18          1           0        5.013404   -1.767504    0.072882
     19          7           0        3.557967   -4.523553    0.213583
     20          6           0        2.724468   -5.279577   -0.686531
     21          6           0        2.726885   -4.556922   -2.029872
     22          8           0        3.761406   -4.425404   -2.674129
     23          6           0        3.238699   -6.716341   -0.808497
     24          6           0        3.213176   -7.532015    0.483720
     25          6           0        1.900308   -7.888675    1.178320
     26          6           0        2.061653   -8.867575    2.342718
     27          7           0        0.878717   -9.061717    3.197336
     28          1           0        4.542497   -4.786049    0.248187
     29          1           0        1.687496   -5.259682   -0.344048
     30          1           0        4.268755   -6.726258   -1.138627
     31          1           0        2.540969   -7.246767   -1.458668
     32          1           0        3.904273   -7.051026    1.170113
     33          1           0        3.617771   -8.498955    0.196090
     34          1           0        1.209211   -8.369664    0.491928
     35          1           0        1.472754   -7.017401    1.667993
     36          1           0        2.894744   -8.540750    2.957898
     37          1           0        2.306986   -9.819243    1.864556
     38          1           0        0.148286   -9.519998    2.681053
     39          1           0        1.043547   -9.773121    3.904751
     40          1           0        0.601853   -8.221651    3.691335
     41          7           0        1.535526   -4.169032   -2.508208
     42          6           0        1.416034   -3.256319   -3.619998
     43          6           0        1.715021   -1.804931   -3.240812
     44          8           0        1.534410   -0.876281   -4.027317
     45          6           0        0.003855   -3.484124   -4.153621
     46          6           0       -1.090584   -3.456792   -3.096476
     47          8           0       -2.039704   -4.240359   -3.334794
     48          8           0       -0.886305   -2.665747   -2.147836
     49          1           0        0.798756   -4.464131   -1.880843
     50          1           0        2.105767   -3.460272   -4.429116
     51          1           0        0.037151   -4.439105   -4.666850
     52          1           0       -0.261088   -2.739679   -4.903292
     53          7           0        2.203875   -1.550710   -2.023030
     54          6           0        3.046321   -0.402963   -1.798619
     55          6           0        4.475970   -0.584605   -2.284430
     56          8           0        4.845112   -1.650063   -2.787553
     57          1           0        2.249786   -2.341591   -1.398932
     58          1           0        3.003603   -0.104200   -0.744382
     59          1           0        2.574330    0.415814   -2.335673
     60          7           0        5.339833    0.412541   -2.112559
     61          6           0        5.035560    1.779201   -1.719294
     62          6           0        6.202546    2.301792   -0.897259
     63          8           0        7.277426    2.447414   -1.481747
     64          6           0        4.774151    2.517585   -3.028743
     65          6           0        4.698943    4.030826   -2.876607
     66          7           0        4.646739    4.766668   -4.002135
     67          8           0        4.847721    4.522960   -1.758051
     68          1           0        6.323771    0.214856   -2.260161
     69          1           0        4.095778    1.870887   -1.169928
     70          1           0        3.829126    2.318195   -3.518101
     71          1           0        5.612322    2.266590   -3.684389
     72          1           0        4.475733    4.329928   -4.894556
     73          1           0        4.357181    5.716399   -3.846680
     74          7           0        6.178927    2.598826    0.403823
     75          6           0        5.293994    1.963983    1.360311
     76          6           0        4.019319    2.749864    1.639049
     77          8           0        3.252378    2.319643    2.504387
     78          1           0        7.063780    2.852590    0.815575
     79          1           0        5.843840    1.822609    2.292289
     80          1           0        5.010919    0.947650    1.091918
     81          7           0        3.702282    3.791387    0.871183
     82          6           0        2.366960    4.367148    0.937621
     83          6           0        1.310448    3.523959    0.242125
     84          8           0        1.490563    3.041095   -0.869811
     85          6           0        2.449062    5.735539    0.274850
     86          6           0        3.296020    6.805391    0.912798
     87          6           0        2.730727    7.593729    1.926636
     88          6           0        4.648259    6.974846    0.593836
     89          6           0        3.552946    8.434981    2.678733
     90          6           0        5.525934    7.788453    1.318357
     91          6           0        4.913313    8.573582    2.316389
     92          8           0        5.685767    9.508208    2.932822
     93          1           0        4.344262    4.027884    0.140957
     94          1           0        2.209216    4.519331    2.005403
     95          1           0        1.416316    6.010202    0.065812
     96          1           0        2.925518    5.495129   -0.672774
     97          1           0        1.715308    7.515210    2.287828
     98          1           0        5.069322    6.433691   -0.247090
     99          1           0        3.067991    9.040031    3.432280
    100          1           0        6.541395    8.029843    1.044187
    101          1           0        6.571195    9.261441    2.672585
    102          7           0        0.247278    3.122091    0.951118
    103          6           0       -0.787642    2.179674    0.590714
    104          6           0       -1.968845    2.883683   -0.064443
    105          8           0       -2.452997    3.911413    0.404778
    106          6           0       -1.139565    1.148276    1.664012
    107          6           0        0.108605    0.327623    1.965178
    108          6           0       -1.757351    1.858615    2.857184
    109          6           0       -0.082573   -0.744503    3.039932
    110          1           0        0.186646    3.456646    1.893560
    111          1           0       -0.445194    1.574062   -0.242150
    112          1           0       -1.936292    0.577018    1.185691
    113          1           0        0.864355    1.004525    2.367603
    114          1           0        0.449963   -0.150095    1.052676
    115          1           0       -2.706290    2.326544    2.579413
    116          1           0       -1.937967    1.150210    3.668320
    117          1           0       -1.213595    2.695076    3.311565
    118          1           0        0.696330   -1.502489    2.987317
    119          1           0       -0.184679   -0.241223    4.009047
    120          1           0       -1.066843   -1.195556    2.934274
    121          7           0       -2.502511    2.310134   -1.146497
    122          6           0       -3.577725    2.825460   -1.954182
    123          6           0       -4.931361    3.007207   -1.272100
    124          8           0       -5.030161    3.017038   -0.048237
    125          6           0       -3.150636    4.144164   -2.602268
    126          8           0       -2.327467    3.878962   -3.716252
    127          1           0       -2.154005    1.381736   -1.375232
    128          1           0       -3.833484    2.048060   -2.675526
    129          1           0       -2.677869    4.784713   -1.851276
    130          1           0       -3.953398    4.767737   -2.988702
    131          1           0       -1.743294    3.146788   -3.526350
    132          7           0       -5.964482    3.234059   -2.090330
    133          6           0       -7.334321    3.367640   -1.653641
    134          6           0       -7.903646    2.152747   -0.942373
    135          8           0       -7.856832    1.019520   -1.409283
    136          6           0       -8.142163    3.806343   -2.873080
    137          1           0       -5.707931    3.180395   -3.069055
    138          1           0       -7.440639    4.270892   -1.050456
    139          1           0       -7.841117    4.840698   -3.054412
    140          1           0       -7.894369    3.194315   -3.737557
    141          1           0       -9.211608    3.730928   -2.641779
    142          7           0       -8.539731    2.360012    0.217901
    143          6           0       -9.263950    1.357781    0.970192
    144          6           0       -8.350945    0.199469    1.356502
    145          8           0       -8.843526   -0.918488    1.457677
    146          6           0      -10.512594    0.932229    0.202147
    147          1           0       -8.351948    3.217140    0.715364
    148          1           0       -9.759328    1.814979    1.829244
    149          1           0      -11.166888    1.726465   -0.125709
    150          1           0      -10.157162    0.484906   -0.727030
    151          1           0      -11.044316    0.269846    0.884804
    152          7           0       -7.038246    0.340464    1.516003
    153          6           0       -6.117759   -0.674018    2.008882
    154          6           0       -6.020805   -0.544231    3.520655
    155          8           0       -5.717906   -1.560400    4.154889
    156          6           0       -4.723165   -0.470147    1.410597
    157          6           0       -3.968507   -1.792455    1.298378
    158          6           0       -4.395323   -2.624082    0.087954
    159          8           0       -4.247775   -2.218817   -1.087754
    160          8           0       -4.939059   -3.733893    0.226769
    161          1           0       -6.713086    1.286842    1.362572
    162          1           0       -6.525304   -1.619686    1.662301
    163          1           0       -4.201575    0.093319    2.170235
    164          1           0       -4.787167    0.141468    0.516432
    165          1           0       -4.055829   -2.361966    2.219536
    166          1           0       -2.905155   -1.666687    1.087751
    167          7           0       -6.442019    0.599683    4.068868
    168          6           0       -6.741195    0.623514    5.484963
    169          1           0       -7.587156   -0.032985    5.688257
    170          1           0       -5.872626    0.279410    6.045946
    171          1           0       -6.990345    1.640992    5.787212
    172          1           0       -6.576801    1.448147    3.534693
    173         20           0       -4.380647   -4.566686   -2.301162
    174          8           0       -6.720483   -3.438684   -2.603616
    175          1           0       -7.338211   -2.783488   -2.272511
    176          1           0       -7.090287   -3.724927   -3.437469
 ---------------------------------------------------------------------
 Rotational constants (GHZ):           0.0174160           0.0132449           0.0095073
 Standard basis: SVP (5D, 7F)
 There are  1809 symmetry adapted cartesian basis functions of A   symmetry.
 There are  1717 symmetry adapted basis functions of A   symmetry.
  1717 basis functions,  2922 primitive gaussians,  1809 cartesian basis functions
   358 alpha electrons      358 beta electrons
       nuclear repulsion energy     20072.4582117178 Hartrees.
 NAtoms=  176 NActive=  176 NUniq=  176 SFac= 1.00D+00 NAtFMM=   60 NAOKFM=T Big=T
 Integral buffers will be    131072 words long.
 Raffenetti 2 integral format.
 Two-electron integral symmetry is turned on.
 One-electron integrals computed using PRISM.
 NBasis=  1717 RedAO= T EigKep=  3.42D-04  NBF=  1717
 NBsUse=  1717 1.00D-06 EigRej= -1.00D+00 NBFU=  1717
 ExpMin= 1.98D-02 ExpMax= 3.51D+04 ExpMxC= 5.28D+03 IAcc=3 IRadAn=         5 AccDes= 0.00D+00
 Harris functional with IExCor=  402 and IRadAn=       5 diagonalized for initial guess.
 HarFok:  IExCor=  402 AccDes= 0.00D+00 IRadAn=         5 IDoV= 1 UseB2=F ITyADJ=14
 ICtDFT=  3500011 ScaDFX=  1.000000  1.000000  1.000000  1.000000
 FoFCou: FMM=F IPFlag=           0 FMFlag=      100000 FMFlg1=        2001
         NFxFlg=           0 DoJE=T BraDBF=F KetDBF=T FulRan=T
         wScrn=  0.000000 ICntrl=       500 IOpCl=  0 I1Cent=   200000004 NGrid=           0
         NMat0=    1 NMatS0=      1 NMatT0=    0 NMatD0=    1 NMtDS0=    0 NMtDT0=    0
 Petite list used in FoFCou.
 Requested convergence on RMS density matrix=1.00D-08 within 128 cycles.
 Requested convergence on MAX density matrix=1.00D-06.
 Requested convergence on             energy=1.00D-06.
 No special actions if energy rises.
 EnCoef did     1 forward-backward iterations
 EnCoef did     2 forward-backward iterations
 EnCoef did     3 forward-backward iterations
 EnCoef did     6 forward-backward iterations
 Rare condition: small coef for last iteration:  0.111D-15
 EnCoef did    41 forward-backward iterations
 EnCoef did    36 forward-backward iterations
 Rare condition: small coef for last iteration:  0.000D+00
 Restarting incremental Fock formation.
 EnCoef did   100 forward-backward iterations
 EnCoef did   100 forward-backward iterations
 Rare condition: small coef for last iteration:  0.000D+00
 EnCoef did   100 forward-backward iterations
 EnCoef did   100 forward-backward iterations
 Rare condition: small coef for last iteration: -0.415D-15
 EnCoef did   100 forward-backward iterations
 SCF Done:  E(RB3LYP) =  -5333.34288073     A.U. after   38 cycles
            NFock= 38  Conv=0.14D-08     -V/T= 2.0081
 SCF density gives NOpUse=  1 NOpAll=  1.
 Hyperfine terms turned off by default for NAtoms > 100.

 **********************************************************************

            Population analysis using the SCF density.

 **********************************************************************

 Orbital symmetries:
 BldTbl:  Degeneracy threshold= 1.00D-02
       Occupied  (A) (A) (A) (A) (A) (A) (A) (A) (A) (A) (A) (A)
                 (A) (A) (A) (A) (A) (A) (A) (A) (A) (A) (A) (A)
                 (A) (A) (A) (A) (A) (A) (A) (A) (A) (A) (A) (A)
                 (A) (A) (A) (A) (A) (A) (A) (A) (A) (A) (A) (A)
                 (A) (A) (A) (A) (A) (A) (A) (A) (A) (A) (A) (A)
                 (A) (A) (A) (A) (A) (A) (A) (A) (A) (A) (A) (A)
                 (A) (A) (A) (A) (A) (A) (A) (A) (A) (A) (A) (A)
                 (A) (A) (A) (A) (A) (A) (A) (A) (A) (A) (A) (A)
                 (A) (A) (A) (A) (A) (A) (A) (A) (A) (A) (A) (A)
                 (A) (A) (A) (A) (A) (A) (A) (A) (A) (A) (A) (A)
                 (A) (A) (A) (A) (A) (A) (A) (A) (A) (A) (A) (A)
                 (A) (A) (A) (A) (A) (A) (A) (A) (A) (A) (A) (A)
                 (A) (A) (A) (A) (A) (A) (A) (A) (A) (A) (A) (A)
                 (A) (A) (A) (A) (A) (A) (A) (A) (A) (A) (A) (A)
                 (A) (A) (A) (A) (A) (A) (A) (A) (A) (A) (A) (A)
                 (A) (A) (A) (A) (A) (A) (A) (A) (A) (A) (A) (A)
                 (A) (A) (A) (A) (A) (A) (A) (A) (A) (A) (A) (A)
                 (A) (A) (A) (A) (A) (A) (A) (A) (A) (A) (A) (A)
                 (A) (A) (A) (A) (A) (A) (A) (A) (A) (A) (A) (A)
                 (A) (A) (A) (A) (A) (A) (A) (A) (A) (A) (A) (A)
                 (A) (A) (A) (A) (A) (A) (A) (A) (A) (A) (A) (A)
                 (A) (A) (A) (A) (A) (A) (A) (A) (A) (A) (A) (A)
                 (A) (A) (A) (A) (A) (A) (A) (A) (A) (A) (A) (A)
                 (A) (A) (A) (A) (A) (A) (A) (A) (A) (A) (A) (A)
                 (A) (A) (A) (A) (A) (A) (A) (A) (A) (A) (A) (A)
                 (A) (A) (A) (A) (A) (A) (A) (A) (A) (A) (A) (A)
                 (A) (A) (A) (A) (A) (A) (A) (A) (A) (A) (A) (A)
                 (A) (A) (A) (A) (A) (A) (A) (A) (A) (A) (A) (A)
                 (A) (A) (A) (A) (A) (A) (A) (A) (A) (A) (A) (A)
                 (A) (A) (A) (A) (A) (A) (A) (A) (A) (A)
       Virtual   (A) (A) (A) (A) (A) (A) (A) (A) (A) (A) (A) (A)
                 (A) (A) (A) (A) (A) (A) (A) (A) (A) (A) (A) (A)
                 (A) (A) (A) (A) (A) (A) (A) (A) (A) (A) (A) (A)
                 (A) (A) (A) (A) (A) (A) (A) (A) (A) (A) (A) (A)
                 (A) (A) (A) (A) (A) (A) (A) (A) (A) (A) (A) (A)
                 (A) (A) (A) (A) (A) (A) (A) (A) (A) (A) (A) (A)
                 (A) (A) (A) (A) (A) (A) (A) (A) (A) (A) (A) (A)
                 (A) (A) (A) (A) (A) (A) (A) (A) (A) (A) (A) (A)
                 (A) (A) (A) (A) (A) (A) (A) (A) (A) (A) (A) (A)
                 (A) (A) (A) (A) (A) (A) (A) (A) (A) (A) (A) (A)
                 (A) (A) (A) (A) (A) (A) (A) (A) (A) (A) (A) (A)
                 (A) (A) (A) (A) (A) (A) (A) (A) (A) (A) (A) (A)
                 (A) (A) (A) (A) (A) (A) (A) (A) (A) (A) (A) (A)
                 (A) (A) (A) (A) (A) (A) (A) (A) (A) (A) (A) (A)
                 (A) (A) (A) (A) (A) (A) (A) (A) (A) (A) (A) (A)
                 (A) (A) (A) (A) (A) (A) (A) (A) (A) (A) (A) (A)
                 (A) (A) (A) (A) (A) (A) (A) (A) (A) (A) (A) (A)
                 (A) (A) (A) (A) (A) (A) (A) (A) (A) (A) (A) (A)
                 (A) (A) (A) (A) (A) (A) (A) (A) (A) (A) (A) (A)
                 (A) (A) (A) (A) (A) (A) (A) (A) (A) (A) (A) (A)
                 (A) (A) (A) (A) (A) (A) (A) (A) (A) (A) (A) (A)
                 (A) (A) (A) (A) (A) (A) (A) (A) (A) (A) (A) (A)
                 (A) (A) (A) (A) (A) (A) (A) (A) (A) (A) (A) (A)
                 (A) (A) (A) (A) (A) (A) (A) (A) (A) (A) (A) (A)
                 (A) (A) (A) (A) (A) (A) (A) (A) (A) (A) (A) (A)
                 (A) (A) (A) (A) (A) (A) (A) (A) (A) (A) (A) (A)
                 (A) (A) (A) (A) (A) (A) (A) (A) (A) (A) (A) (A)
                 (A) (A) (A) (A) (A) (A) (A) (A) (A) (A) (A) (A)
                 (A) (A) (A) (A) (A) (A) (A) (A) (A) (A) (A) (A)
                 (A) (A) (A) (A) (A) (A) (A) (A) (A) (A) (A) (A)
                 (A) (A) (A) (A) (A) (A) (A) (A) (A) (A) (A) (A)
                 (A) (A) (A) (A) (A) (A) (A) (A) (A) (A) (A) (A)
                 (A) (A) (A) (A) (A) (A) (A) (A) (A) (A) (A) (A)
                 (A) (A) (A) (A) (A) (A) (A) (A) (A) (A) (A) (A)
                 (A) (A) (A) (A) (A) (A) (A) (A) (A) (A) (A) (A)
                 (A) (A) (A) (A) (A) (A) (A) (A) (A) (A) (A) (A)
                 (A) (A) (A) (A) (A) (A) (A) (A) (A) (A) (A) (A)
                 (A) (A) (A) (A) (A) (A) (A) (A) (A) (A) (A) (A)
                 (A) (A) (A) (A) (A) (A) (A) (A) (A) (A) (A) (A)
                 (A) (A) (A) (A) (A) (A) (A) (A) (A) (A) (A) (A)
                 (A) (A) (A) (A) (A) (A) (A) (A) (A) (A) (A) (A)
                 (A) (A) (A) (A) (A) (A) (A) (A) (A) (A) (A) (A)
                 (A) (A) (A) (A) (A) (A) (A) (A) (A) (A) (A) (A)
                 (A) (A) (A) (A) (A) (A) (A) (A) (A) (A) (A) (A)
                 (A) (A) (A) (A) (A) (A) (A) (A) (A) (A) (A) (A)
                 (A) (A) (A) (A) (A) (A) (A) (A) (A) (A) (A) (A)
                 (A) (A) (A) (A) (A) (A) (A) (A) (A) (A) (A) (A)
                 (A) (A) (A) (A) (A) (A) (A) (A) (A) (A) (A) (A)
                 (A) (A) (A) (A) (A) (A) (A) (A) (A) (A) (A) (A)
                 (A) (A) (A) (A) (A) (A) (A) (A) (A) (A) (A) (A)
                 (A) (A) (A) (A) (A) (A) (A) (A) (A) (A) (A) (A)
                 (A) (A) (A) (A) (A) (A) (A) (A) (A) (A) (A) (A)
                 (A) (A) (A) (A) (A) (A) (A) (A) (A) (A) (A) (A)
                 (A) (A) (A) (A) (A) (A) (A) (A) (A) (A) (A) (A)
                 (A) (A) (A) (A) (A) (A) (A) (A) (A) (A) (A) (A)
                 (A) (A) (A) (A) (A) (A) (A) (A) (A) (A) (A) (A)
                 (A) (A) (A) (A) (A) (A) (A) (A) (A) (A) (A) (A)
                 (A) (A) (A) (A) (A) (A) (A) (A) (A) (A) (A) (A)
                 (A) (A) (A) (A) (A) (A) (A) (A) (A) (A) (A) (A)
                 (A) (A) (A) (A) (A) (A) (A) (A) (A) (A) (A) (A)
                 (A) (A) (A) (A) (A) (A) (A) (A) (A) (A) (A) (A)
                 (A) (A) (A) (A) (A) (A) (A) (A) (A) (A) (A) (A)
                 (A) (A) (A) (A) (A) (A) (A) (A) (A) (A) (A) (A)
                 (A) (A) (A) (A) (A) (A) (A) (A) (A) (A) (A) (A)
                 (A) (A) (A) (A) (A) (A) (A) (A) (A) (A) (A) (A)
                 (A) (A) (A) (A) (A) (A) (A) (A) (A) (A) (A) (A)
                 (A) (A) (A) (A) (A) (A) (A) (A) (A) (A) (A) (A)
                 (A) (A) (A) (A) (A) (A) (A) (A) (A) (A) (A) (A)
                 (A) (A) (A) (A) (A) (A) (A) (A) (A) (A) (A) (A)
                 (A) (A) (A) (A) (A) (A) (A) (A) (A) (A) (A) (A)
                 (A) (A) (A) (A) (A) (A) (A) (A) (A) (A) (A) (A)
                 (A) (A) (A) (A) (A) (A) (A) (A) (A) (A) (A) (A)
                 (A) (A) (A) (A) (A) (A) (A) (A) (A) (A) (A) (A)
                 (A) (A) (A) (A) (A) (A) (A) (A) (A) (A) (A) (A)
                 (A) (A) (A) (A) (A) (A) (A) (A) (A) (A) (A) (A)
                 (A) (A) (A) (A) (A) (A) (A) (A) (A) (A) (A) (A)
                 (A) (A) (A) (A) (A) (A) (A) (A) (A) (A) (A) (A)
                 (A) (A) (A) (A) (A) (A) (A) (A) (A) (A) (A) (A)
                 (A) (A) (A) (A) (A) (A) (A) (A) (A) (A) (A) (A)
                 (A) (A) (A) (A) (A) (A) (A) (A) (A) (A) (A) (A)
                 (A) (A) (A) (A) (A) (A) (A) (A) (A) (A) (A) (A)
                 (A) (A) (A) (A) (A) (A) (A) (A) (A) (A) (A) (A)
                 (A) (A) (A) (A) (A) (A) (A) (A) (A) (A) (A) (A)
                 (A) (A) (A) (A) (A) (A) (A) (A) (A) (A) (A) (A)
                 (A) (A) (A) (A) (A) (A) (A) (A) (A) (A) (A) (A)
                 (A) (A) (A) (A) (A) (A) (A) (A) (A) (A) (A) (A)
                 (A) (A) (A) (A) (A) (A) (A) (A) (A) (A) (A) (A)
                 (A) (A) (A) (A) (A) (A) (A) (A) (A) (A) (A) (A)
                 (A) (A) (A) (A) (A) (A) (A) (A) (A) (A) (A) (A)
                 (A) (A) (A) (A) (A) (A) (A) (A) (A) (A) (A) (A)
                 (A) (A) (A) (A) (A) (A) (A) (A) (A) (A) (A) (A)
                 (A) (A) (A) (A) (A) (A) (A) (A) (A) (A) (A) (A)
                 (A) (A) (A) (A) (A) (A) (A) (A) (A) (A) (A) (A)
                 (A) (A) (A) (A) (A) (A) (A) (A) (A) (A) (A) (A)
                 (A) (A) (A) (A) (A) (A) (A) (A) (A) (A) (A) (A)
                 (A) (A) (A) (A) (A) (A) (A) (A) (A) (A) (A) (A)
                 (A) (A) (A) (A) (A) (A) (A) (A) (A) (A) (A) (A)
                 (A) (A) (A) (A) (A) (A) (A) (A) (A) (A) (A) (A)
                 (A) (A) (A) (A) (A) (A) (A) (A) (A) (A) (A) (A)
                 (A) (A) (A) (A) (A) (A) (A) (A) (A) (A) (A) (A)
                 (A) (A) (A) (A) (A) (A) (A) (A) (A) (A) (A) (A)
                 (A) (A) (A) (A) (A) (A) (A) (A) (A) (A) (A) (A)
                 (A) (A) (A) (A) (A) (A) (A) (A) (A) (A) (A) (A)
                 (A) (A) (A) (A) (A) (A) (A) (A) (A) (A) (A) (A)
                 (A) (A) (A) (A) (A) (A) (A) (A) (A) (A) (A) (A)
                 (A) (A) (A) (A) (A) (A) (A) (A) (A) (A) (A) (A)
                 (A) (A) (A) (A) (A) (A) (A) (A) (A) (A) (A) (A)
                 (A) (A) (A) (A) (A) (A) (A) (A) (A) (A) (A) (A)
                 (A) (A) (A) (A) (A) (A) (A) (A) (A) (A) (A) (A)
                 (A) (A) (A) (A) (A) (A) (A) (A) (A) (A) (A) (A)
                 (A) (A) (A) (A) (A) (A) (A) (A) (A) (A) (A) (A)
                 (A) (A) (A) (A) (A) (A) (A) (A) (A) (A) (A) (A)
                 (A) (A) (A) (A) (A) (A) (A) (A) (A) (A) (A) (A)
                 (A) (A) (A)
 The electronic state is 1-A.
 Alpha  occ. eigenvalues -- -145.47777 -19.21175 -19.14102 -19.11233 -19.10651
 Alpha  occ. eigenvalues --  -19.09886 -19.09385 -19.07957 -19.07831 -19.07716
 Alpha  occ. eigenvalues --  -19.06944 -19.06882 -19.06617 -19.06239 -19.06055
 Alpha  occ. eigenvalues --  -19.05642 -19.05633 -19.05123 -19.05018 -19.04240
 Alpha  occ. eigenvalues --  -19.03481 -19.03065 -18.98600 -18.96871 -15.53707
 Alpha  occ. eigenvalues --  -14.59561 -14.36828 -14.36556 -14.34733 -14.34583
 Alpha  occ. eigenvalues --  -14.34483 -14.33993 -14.32637 -14.32578 -14.31664
 Alpha  occ. eigenvalues --  -14.31617 -14.31426 -14.30763 -14.29927 -14.27591
 Alpha  occ. eigenvalues --  -12.67313 -12.67282 -12.67203 -10.35118 -10.29443
 Alpha  occ. eigenvalues --  -10.28279 -10.27683 -10.27407 -10.27110 -10.26428
 Alpha  occ. eigenvalues --  -10.25742 -10.25629 -10.25604 -10.25160 -10.24964
 Alpha  occ. eigenvalues --  -10.24508 -10.24443 -10.24380 -10.24311 -10.24292
 Alpha  occ. eigenvalues --  -10.23779 -10.23461 -10.23148 -10.22800 -10.22742
 Alpha  occ. eigenvalues --  -10.22438 -10.21887 -10.21731 -10.21430 -10.21017
 Alpha  occ. eigenvalues --  -10.20982 -10.20961 -10.20560 -10.20476 -10.20101
 Alpha  occ. eigenvalues --  -10.20030 -10.18783 -10.18553 -10.17890 -10.17887
 Alpha  occ. eigenvalues --  -10.17506 -10.17297 -10.17071 -10.17016 -10.16913
 Alpha  occ. eigenvalues --  -10.16847 -10.16827 -10.16679 -10.16634 -10.16370
 Alpha  occ. eigenvalues --  -10.16108 -10.15846 -10.15066 -10.14345 -10.13470
 Alpha  occ. eigenvalues --  -10.13115 -10.11861  -1.90372  -1.17936  -1.17520
 Alpha  occ. eigenvalues --   -1.17043  -1.14592  -1.07143  -1.04307  -1.03589
 Alpha  occ. eigenvalues --   -1.02907  -1.01811  -1.01643  -1.01069  -1.00709
 Alpha  occ. eigenvalues --   -1.00396  -1.00129  -0.99892  -0.99860  -0.99525
 Alpha  occ. eigenvalues --   -0.99457  -0.98609  -0.98521  -0.98135  -0.96835
 Alpha  occ. eigenvalues --   -0.95702  -0.93449  -0.93379  -0.92239  -0.91605
 Alpha  occ. eigenvalues --   -0.90826  -0.90708  -0.89783  -0.89725  -0.89673
 Alpha  occ. eigenvalues --   -0.89441  -0.89428  -0.89233  -0.88838  -0.88489
 Alpha  occ. eigenvalues --   -0.88210  -0.87831  -0.87006  -0.84488  -0.82525
 Alpha  occ. eigenvalues --   -0.82405  -0.81090  -0.80732  -0.78747  -0.78108
 Alpha  occ. eigenvalues --   -0.76865  -0.75967  -0.75907  -0.75077  -0.75043
 Alpha  occ. eigenvalues --   -0.74951  -0.74019  -0.73662  -0.72325  -0.71678
 Alpha  occ. eigenvalues --   -0.71598  -0.71310  -0.70123  -0.69849  -0.68701
 Alpha  occ. eigenvalues --   -0.68391  -0.68187  -0.67994  -0.67609  -0.67314
 Alpha  occ. eigenvalues --   -0.66205  -0.65351  -0.64271  -0.62779  -0.62422
 Alpha  occ. eigenvalues --   -0.62274  -0.61577  -0.61477  -0.60581  -0.60499
 Alpha  occ. eigenvalues --   -0.60075  -0.59780  -0.59665  -0.59500  -0.58456
 Alpha  occ. eigenvalues --   -0.58195  -0.57585  -0.57522  -0.57079  -0.56716
 Alpha  occ. eigenvalues --   -0.56589  -0.56392  -0.56103  -0.55857  -0.55370
 Alpha  occ. eigenvalues --   -0.54936  -0.54857  -0.54279  -0.53789  -0.53525
 Alpha  occ. eigenvalues --   -0.53078  -0.52742  -0.51999  -0.51811  -0.51457
 Alpha  occ. eigenvalues --   -0.51356  -0.51207  -0.50454  -0.50069  -0.49912
 Alpha  occ. eigenvalues --   -0.49741  -0.49453  -0.49243  -0.48873  -0.48538
 Alpha  occ. eigenvalues --   -0.48460  -0.48118  -0.47988  -0.47502  -0.47424
 Alpha  occ. eigenvalues --   -0.47200  -0.46891  -0.46842  -0.46580  -0.46447
 Alpha  occ. eigenvalues --   -0.46062  -0.45445  -0.45419  -0.45347  -0.45025
 Alpha  occ. eigenvalues --   -0.44780  -0.44554  -0.44489  -0.44354  -0.44146
 Alpha  occ. eigenvalues --   -0.43937  -0.43597  -0.43407  -0.43336  -0.43102
 Alpha  occ. eigenvalues --   -0.42960  -0.42725  -0.42516  -0.42378  -0.42073
 Alpha  occ. eigenvalues --   -0.42037  -0.41927  -0.41756  -0.41513  -0.41365
 Alpha  occ. eigenvalues --   -0.41246  -0.41002  -0.40895  -0.40761  -0.40668
 Alpha  occ. eigenvalues --   -0.40535  -0.40446  -0.40216  -0.40191  -0.40131
 Alpha  occ. eigenvalues --   -0.39877  -0.39774  -0.39577  -0.39496  -0.39375
 Alpha  occ. eigenvalues --   -0.39031  -0.38927  -0.38855  -0.38778  -0.38710
 Alpha  occ. eigenvalues --   -0.38656  -0.38434  -0.38400  -0.38243  -0.38149
 Alpha  occ. eigenvalues --   -0.37990  -0.37753  -0.37557  -0.37511  -0.37405
 Alpha  occ. eigenvalues --   -0.37228  -0.37129  -0.36990  -0.36897  -0.36831
 Alpha  occ. eigenvalues --   -0.36689  -0.36357  -0.36062  -0.35987  -0.35709
 Alpha  occ. eigenvalues --   -0.35522  -0.35444  -0.35162  -0.35016  -0.34843
 Alpha  occ. eigenvalues --   -0.34701  -0.34670  -0.34497  -0.34067  -0.33853
 Alpha  occ. eigenvalues --   -0.33822  -0.33709  -0.33503  -0.33459  -0.33211
 Alpha  occ. eigenvalues --   -0.33138  -0.33010  -0.32777  -0.32723  -0.32396
 Alpha  occ. eigenvalues --   -0.32169  -0.32108  -0.31822  -0.31601  -0.31246
 Alpha  occ. eigenvalues --   -0.30593  -0.30201  -0.30124  -0.29679  -0.29093
 Alpha  occ. eigenvalues --   -0.29025  -0.28778  -0.28313  -0.28084  -0.27379
 Alpha  occ. eigenvalues --   -0.27008  -0.26984  -0.26861  -0.26318  -0.25726
 Alpha  occ. eigenvalues --   -0.25132  -0.24997  -0.24677  -0.24527  -0.24431
 Alpha  occ. eigenvalues --   -0.24192  -0.24096  -0.23970  -0.23846  -0.23709
 Alpha  occ. eigenvalues --   -0.23459  -0.23431  -0.23150  -0.22808  -0.22706
 Alpha  occ. eigenvalues --   -0.22583  -0.22106  -0.22034  -0.21897  -0.21411
 Alpha  occ. eigenvalues --   -0.20750  -0.20693  -0.20428  -0.20352  -0.20010
 Alpha  occ. eigenvalues --   -0.19776  -0.19746  -0.19608  -0.18920  -0.18134
 Alpha  occ. eigenvalues --   -0.15339  -0.15243  -0.12966
 Alpha virt. eigenvalues --   -0.12122  -0.11378  -0.05466  -0.04559  -0.02506
 Alpha virt. eigenvalues --   -0.02029  -0.00139   0.00444   0.00503   0.01116
 Alpha virt. eigenvalues --    0.01441   0.02109   0.02243   0.02695   0.03042
 Alpha virt. eigenvalues --    0.03085   0.03206   0.03536   0.03685   0.03931
 Alpha virt. eigenvalues --    0.04030   0.04129   0.04577   0.04692   0.05247
 Alpha virt. eigenvalues --    0.05406   0.05493   0.05654   0.06073   0.06240
 Alpha virt. eigenvalues --    0.06355   0.06414   0.06893   0.06909   0.07282
 Alpha virt. eigenvalues --    0.07297   0.07648   0.07780   0.07826   0.08041
 Alpha virt. eigenvalues --    0.08414   0.08442   0.08641   0.08690   0.09054
 Alpha virt. eigenvalues --    0.09305   0.09315   0.09496   0.09895   0.10118
 Alpha virt. eigenvalues --    0.10218   0.10683   0.10772   0.10818   0.11140
 Alpha virt. eigenvalues --    0.11339   0.11457   0.12006   0.12219   0.12326
 Alpha virt. eigenvalues --    0.12537   0.12709   0.13007   0.13155   0.13241
 Alpha virt. eigenvalues --    0.13387   0.13458   0.13553   0.13717   0.13872
 Alpha virt. eigenvalues --    0.14017   0.14066   0.14313   0.14670   0.14982
 Alpha virt. eigenvalues --    0.15169   0.15250   0.15523   0.15673   0.15732
 Alpha virt. eigenvalues --    0.15899   0.16186   0.16461   0.16619   0.16750
 Alpha virt. eigenvalues --    0.16772   0.16846   0.17018   0.17228   0.17420
 Alpha virt. eigenvalues --    0.17584   0.17639   0.17941   0.18093   0.18133
 Alpha virt. eigenvalues --    0.18233   0.18438   0.18680   0.18993   0.19178
 Alpha virt. eigenvalues --    0.19420   0.19796   0.19989   0.20307   0.20408
 Alpha virt. eigenvalues --    0.20454   0.20574   0.20677   0.20832   0.21019
 Alpha virt. eigenvalues --    0.21146   0.21474   0.21604   0.22271   0.22366
 Alpha virt. eigenvalues --    0.22705   0.22976   0.23089   0.23233   0.23567
 Alpha virt. eigenvalues --    0.23736   0.24001   0.24110   0.24383   0.24488
 Alpha virt. eigenvalues --    0.24645   0.25058   0.25216   0.25617   0.25765
 Alpha virt. eigenvalues --    0.25871   0.26209   0.26263   0.26407   0.26738
 Alpha virt. eigenvalues --    0.26767   0.27010   0.27325   0.27628   0.27770
 Alpha virt. eigenvalues --    0.27972   0.28052   0.28269   0.28661   0.29222
 Alpha virt. eigenvalues --    0.29277   0.29470   0.29601   0.29778   0.29962
 Alpha virt. eigenvalues --    0.30124   0.30454   0.30906   0.31037   0.31126
 Alpha virt. eigenvalues --    0.31624   0.31742   0.31802   0.32154   0.32345
 Alpha virt. eigenvalues --    0.32542   0.32561   0.32963   0.33351   0.33508
 Alpha virt. eigenvalues --    0.33937   0.34048   0.34172   0.34628   0.34776
 Alpha virt. eigenvalues --    0.35247   0.35384   0.35568   0.35856   0.36494
 Alpha virt. eigenvalues --    0.36608   0.36805   0.36979   0.37655   0.37757
 Alpha virt. eigenvalues --    0.37903   0.38215   0.38348   0.38524   0.38994
 Alpha virt. eigenvalues --    0.39053   0.39796   0.39914   0.40122   0.40708
 Alpha virt. eigenvalues --    0.41195   0.41428   0.41539   0.41674   0.41869
 Alpha virt. eigenvalues --    0.42071   0.42335   0.42466   0.42608   0.43052
 Alpha virt. eigenvalues --    0.43402   0.43774   0.43955   0.44065   0.44308
 Alpha virt. eigenvalues --    0.44665   0.44797   0.44941   0.45086   0.45173
 Alpha virt. eigenvalues --    0.45368   0.45817   0.46001   0.46085   0.46253
 Alpha virt. eigenvalues --    0.46308   0.46564   0.46861   0.46968   0.47121
 Alpha virt. eigenvalues --    0.47425   0.47498   0.47695   0.47867   0.48009
 Alpha virt. eigenvalues --    0.48282   0.48364   0.48687   0.48837   0.49277
 Alpha virt. eigenvalues --    0.49574   0.49593   0.49869   0.49990   0.50175
 Alpha virt. eigenvalues --    0.50324   0.50482   0.50579   0.50637   0.51059
 Alpha virt. eigenvalues --    0.51126   0.51369   0.51643   0.51856   0.51968
 Alpha virt. eigenvalues --    0.52330   0.52670   0.52734   0.52922   0.53211
 Alpha virt. eigenvalues --    0.53564   0.53636   0.53737   0.53955   0.54006
 Alpha virt. eigenvalues --    0.54321   0.54646   0.54836   0.55134   0.55436
 Alpha virt. eigenvalues --    0.55629   0.55764   0.55940   0.56046   0.56174
 Alpha virt. eigenvalues --    0.56438   0.56718   0.56850   0.56977   0.57185
 Alpha virt. eigenvalues --    0.57253   0.57386   0.57476   0.57617   0.57839
 Alpha virt. eigenvalues --    0.58153   0.58353   0.58453   0.58590   0.58649
 Alpha virt. eigenvalues --    0.58935   0.59180   0.59351   0.59557   0.59601
 Alpha virt. eigenvalues --    0.59733   0.59986   0.60095   0.60242   0.60581
 Alpha virt. eigenvalues --    0.60619   0.60827   0.60913   0.61100   0.61274
 Alpha virt. eigenvalues --    0.61420   0.61492   0.61618   0.61727   0.62005
 Alpha virt. eigenvalues --    0.62083   0.62181   0.62458   0.62612   0.62882
 Alpha virt. eigenvalues --    0.63000   0.63133   0.63315   0.63446   0.63521
 Alpha virt. eigenvalues --    0.63679   0.63838   0.63892   0.64002   0.64063
 Alpha virt. eigenvalues --    0.64168   0.64261   0.64674   0.64808   0.64896
 Alpha virt. eigenvalues --    0.65169   0.65199   0.65255   0.65449   0.65476
 Alpha virt. eigenvalues --    0.65624   0.65749   0.65886   0.65996   0.66031
 Alpha virt. eigenvalues --    0.66212   0.66308   0.66343   0.66427   0.66584
 Alpha virt. eigenvalues --    0.66608   0.66713   0.66951   0.67056   0.67104
 Alpha virt. eigenvalues --    0.67167   0.67269   0.67428   0.67550   0.67657
 Alpha virt. eigenvalues --    0.67768   0.67832   0.67956   0.68015   0.68347
 Alpha virt. eigenvalues --    0.68469   0.68488   0.68561   0.68707   0.68864
 Alpha virt. eigenvalues --    0.69062   0.69170   0.69271   0.69363   0.69377
 Alpha virt. eigenvalues --    0.69431   0.69558   0.69572   0.69759   0.69811
 Alpha virt. eigenvalues --    0.69910   0.70099   0.70166   0.70266   0.70386
 Alpha virt. eigenvalues --    0.70561   0.70745   0.70849   0.70881   0.71086
 Alpha virt. eigenvalues --    0.71233   0.71435   0.71555   0.71675   0.71805
 Alpha virt. eigenvalues --    0.71915   0.72138   0.72332   0.72495   0.72560
 Alpha virt. eigenvalues --    0.72679   0.72851   0.73067   0.73120   0.73241
 Alpha virt. eigenvalues --    0.73390   0.73624   0.73877   0.73990   0.74146
 Alpha virt. eigenvalues --    0.74194   0.74485   0.74656   0.74733   0.74969
 Alpha virt. eigenvalues --    0.75027   0.75240   0.75482   0.75714   0.76001
 Alpha virt. eigenvalues --    0.76102   0.76262   0.76394   0.76575   0.77026
 Alpha virt. eigenvalues --    0.77126   0.77241   0.77661   0.77763   0.77851
 Alpha virt. eigenvalues --    0.78431   0.78538   0.78613   0.78680   0.78938
 Alpha virt. eigenvalues --    0.79157   0.79314   0.79443   0.79978   0.80085
 Alpha virt. eigenvalues --    0.80339   0.80369   0.80697   0.80713   0.80874
 Alpha virt. eigenvalues --    0.81157   0.81333   0.81395   0.81817   0.82018
 Alpha virt. eigenvalues --    0.82251   0.82260   0.82620   0.83009   0.83374
 Alpha virt. eigenvalues --    0.83512   0.83914   0.84138   0.84178   0.84276
 Alpha virt. eigenvalues --    0.84524   0.84847   0.85325   0.85428   0.85830
 Alpha virt. eigenvalues --    0.85967   0.86078   0.86485   0.86694   0.86817
 Alpha virt. eigenvalues --    0.87014   0.87446   0.87482   0.87830   0.88105
 Alpha virt. eigenvalues --    0.88244   0.88721   0.88749   0.88867   0.89521
 Alpha virt. eigenvalues --    0.89603   0.89739   0.90268   0.90565   0.90766
 Alpha virt. eigenvalues --    0.91072   0.91186   0.91764   0.91831   0.92132
 Alpha virt. eigenvalues --    0.92377   0.92803   0.93182   0.93411   0.93836
 Alpha virt. eigenvalues --    0.94337   0.94441   0.94894   0.95227   0.95304
 Alpha virt. eigenvalues --    0.95641   0.95879   0.96190   0.96648   0.96968
 Alpha virt. eigenvalues --    0.97103   0.97537   0.97861   0.98233   0.98352
 Alpha virt. eigenvalues --    0.98507   0.98703   0.99252   0.99727   1.00049
 Alpha virt. eigenvalues --    1.00406   1.00947   1.01092   1.01256   1.01659
 Alpha virt. eigenvalues --    1.01878   1.02390   1.02508   1.02662   1.02860
 Alpha virt. eigenvalues --    1.02997   1.03280   1.03494   1.03859   1.04013
 Alpha virt. eigenvalues --    1.04463   1.04516   1.04719   1.04821   1.05232
 Alpha virt. eigenvalues --    1.05802   1.06196   1.06478   1.06555   1.06740
 Alpha virt. eigenvalues --    1.07230   1.07704   1.07857   1.07961   1.08088
 Alpha virt. eigenvalues --    1.08296   1.08751   1.08849   1.09024   1.09263
 Alpha virt. eigenvalues --    1.09641   1.09904   1.10094   1.10346   1.10510
 Alpha virt. eigenvalues --    1.10990   1.11496   1.11874   1.12310   1.12335
 Alpha virt. eigenvalues --    1.12449   1.12697   1.13031   1.13159   1.13374
 Alpha virt. eigenvalues --    1.13727   1.13838   1.13916   1.14286   1.14630
 Alpha virt. eigenvalues --    1.14670   1.15016   1.15351   1.15482   1.16090
 Alpha virt. eigenvalues --    1.16259   1.16499   1.16604   1.17331   1.17397
 Alpha virt. eigenvalues --    1.17700   1.17996   1.18282   1.18357   1.18539
 Alpha virt. eigenvalues --    1.18592   1.18918   1.19399   1.19457   1.19803
 Alpha virt. eigenvalues --    1.19892   1.20375   1.20501   1.20818   1.21531
 Alpha virt. eigenvalues --    1.21703   1.21807   1.22219   1.22546   1.22896
 Alpha virt. eigenvalues --    1.23204   1.23389   1.23700   1.24338   1.24369
 Alpha virt. eigenvalues --    1.24527   1.24928   1.25048   1.25328   1.25771
 Alpha virt. eigenvalues --    1.26474   1.26747   1.26904   1.27053   1.27096
 Alpha virt. eigenvalues --    1.27350   1.27674   1.27735   1.27841   1.28072
 Alpha virt. eigenvalues --    1.28275   1.28563   1.28698   1.29066   1.29227
 Alpha virt. eigenvalues --    1.29656   1.29867   1.30041   1.30188   1.30233
 Alpha virt. eigenvalues --    1.30836   1.31068   1.31273   1.31699   1.31962
 Alpha virt. eigenvalues --    1.32040   1.32267   1.32490   1.32896   1.33325
 Alpha virt. eigenvalues --    1.33538   1.33959   1.34471   1.34875   1.35090
 Alpha virt. eigenvalues --    1.35172   1.35316   1.35449   1.35641   1.35927
 Alpha virt. eigenvalues --    1.36715   1.37005   1.37231   1.37850   1.38122
 Alpha virt. eigenvalues --    1.38266   1.38619   1.39149   1.39478   1.39529
 Alpha virt. eigenvalues --    1.39809   1.40190   1.40606   1.40906   1.41335
 Alpha virt. eigenvalues --    1.41518   1.41650   1.42005   1.42178   1.42798
 Alpha virt. eigenvalues --    1.43189   1.43776   1.43872   1.44245   1.44424
 Alpha virt. eigenvalues --    1.44708   1.45012   1.45329   1.45521   1.45648
 Alpha virt. eigenvalues --    1.45839   1.46680   1.47115   1.47378   1.47736
 Alpha virt. eigenvalues --    1.48049   1.48270   1.48460   1.48724   1.48774
 Alpha virt. eigenvalues --    1.48958   1.49270   1.49910   1.50152   1.50289
 Alpha virt. eigenvalues --    1.50579   1.50755   1.51119   1.51445   1.51769
 Alpha virt. eigenvalues --    1.51965   1.52206   1.52445   1.52879   1.53132
 Alpha virt. eigenvalues --    1.53168   1.53456   1.53919   1.54346   1.54637
 Alpha virt. eigenvalues --    1.54939   1.55166   1.55312   1.55566   1.55724
 Alpha virt. eigenvalues --    1.56529   1.56808   1.57013   1.57405   1.57652
 Alpha virt. eigenvalues --    1.57913   1.58403   1.58492   1.59187   1.59386
 Alpha virt. eigenvalues --    1.59591   1.60069   1.60250   1.60490   1.60675
 Alpha virt. eigenvalues --    1.61160   1.61518   1.61969   1.62228   1.62335
 Alpha virt. eigenvalues --    1.62365   1.62712   1.63036   1.63594   1.64004
 Alpha virt. eigenvalues --    1.64482   1.65046   1.65271   1.65434   1.65572
 Alpha virt. eigenvalues --    1.65704   1.66170   1.66263   1.66678   1.67274
 Alpha virt. eigenvalues --    1.67534   1.67618   1.67739   1.68287   1.68317
 Alpha virt. eigenvalues --    1.68846   1.69174   1.69282   1.69335   1.69555
 Alpha virt. eigenvalues --    1.70290   1.70578   1.70798   1.70915   1.71118
 Alpha virt. eigenvalues --    1.71423   1.71712   1.71981   1.72230   1.72418
 Alpha virt. eigenvalues --    1.72501   1.72615   1.73215   1.73347   1.73453
 Alpha virt. eigenvalues --    1.73717   1.74047   1.74120   1.74202   1.74594
 Alpha virt. eigenvalues --    1.74808   1.75031   1.75379   1.75441   1.75634
 Alpha virt. eigenvalues --    1.75674   1.75915   1.76121   1.76298   1.76731
 Alpha virt. eigenvalues --    1.77062   1.77247   1.77636   1.77818   1.77906
 Alpha virt. eigenvalues --    1.78030   1.78119   1.78219   1.78458   1.78745
 Alpha virt. eigenvalues --    1.78815   1.78944   1.79239   1.79464   1.79522
 Alpha virt. eigenvalues --    1.79629   1.79816   1.80032   1.80360   1.80612
 Alpha virt. eigenvalues --    1.80712   1.80994   1.81147   1.81334   1.81593
 Alpha virt. eigenvalues --    1.81681   1.81839   1.82134   1.82217   1.82543
 Alpha virt. eigenvalues --    1.82696   1.82809   1.83005   1.83280   1.83324
 Alpha virt. eigenvalues --    1.83471   1.83844   1.83892   1.84006   1.84130
 Alpha virt. eigenvalues --    1.84367   1.84602   1.84700   1.84892   1.85244
 Alpha virt. eigenvalues --    1.85276   1.85444   1.85878   1.86032   1.86249
 Alpha virt. eigenvalues --    1.86525   1.86701   1.86859   1.86948   1.87106
 Alpha virt. eigenvalues --    1.87653   1.87772   1.87891   1.88070   1.88375
 Alpha virt. eigenvalues --    1.88704   1.88867   1.88934   1.89071   1.89275
 Alpha virt. eigenvalues --    1.89376   1.89772   1.90183   1.90337   1.90395
 Alpha virt. eigenvalues --    1.90667   1.90750   1.90858   1.91140   1.91426
 Alpha virt. eigenvalues --    1.91635   1.91863   1.91958   1.92301   1.92357
 Alpha virt. eigenvalues --    1.92678   1.92785   1.92952   1.93266   1.93360
 Alpha virt. eigenvalues --    1.93470   1.93712   1.93874   1.94049   1.94417
 Alpha virt. eigenvalues --    1.94525   1.94724   1.94857   1.95092   1.95351
 Alpha virt. eigenvalues --    1.95637   1.95858   1.95932   1.96330   1.96546
 Alpha virt. eigenvalues --    1.96844   1.97166   1.97226   1.97563   1.97745
 Alpha virt. eigenvalues --    1.97897   1.98007   1.98531   1.98692   1.98865
 Alpha virt. eigenvalues --    1.99113   1.99510   1.99526   1.99698   1.99914
 Alpha virt. eigenvalues --    2.00106   2.00147   2.00332   2.00450   2.00618
 Alpha virt. eigenvalues --    2.00945   2.01037   2.01419   2.01507   2.01610
 Alpha virt. eigenvalues --    2.02037   2.02315   2.02389   2.02557   2.02696
 Alpha virt. eigenvalues --    2.02903   2.02992   2.03377   2.03751   2.03844
 Alpha virt. eigenvalues --    2.04155   2.04319   2.04715   2.05391   2.05619
 Alpha virt. eigenvalues --    2.05798   2.06108   2.06330   2.06567   2.06650
 Alpha virt. eigenvalues --    2.07106   2.07519   2.07719   2.07920   2.08244
 Alpha virt. eigenvalues --    2.08401   2.08682   2.08774   2.09353   2.09608
 Alpha virt. eigenvalues --    2.09908   2.10139   2.10226   2.10651   2.10724
 Alpha virt. eigenvalues --    2.10966   2.11473   2.11615   2.11674   2.12004
 Alpha virt. eigenvalues --    2.12193   2.12265   2.12632   2.12717   2.12748
 Alpha virt. eigenvalues --    2.12825   2.13786   2.13998   2.14174   2.14516
 Alpha virt. eigenvalues --    2.14721   2.14757   2.15051   2.15219   2.15429
 Alpha virt. eigenvalues --    2.15564   2.15932   2.16050   2.16231   2.16487
 Alpha virt. eigenvalues --    2.17138   2.17213   2.17654   2.18239   2.18428
 Alpha virt. eigenvalues --    2.18684   2.19122   2.19293   2.19522   2.19635
 Alpha virt. eigenvalues --    2.19853   2.20819   2.21011   2.21338   2.21482
 Alpha virt. eigenvalues --    2.21977   2.22162   2.22440   2.22866   2.23151
 Alpha virt. eigenvalues --    2.23218   2.23354   2.23645   2.24281   2.24538
 Alpha virt. eigenvalues --    2.24650   2.25029   2.25605   2.25845   2.26040
 Alpha virt. eigenvalues --    2.26141   2.26534   2.26728   2.27492   2.27922
 Alpha virt. eigenvalues --    2.28058   2.28137   2.28515   2.28689   2.29352
 Alpha virt. eigenvalues --    2.29911   2.30252   2.30416   2.30801   2.31046
 Alpha virt. eigenvalues --    2.31153   2.31418   2.31660   2.32093   2.32186
 Alpha virt. eigenvalues --    2.32906   2.33148   2.33202   2.33332   2.33831
 Alpha virt. eigenvalues --    2.34361   2.34537   2.35470   2.35481   2.35900
 Alpha virt. eigenvalues --    2.36071   2.36380   2.36712   2.37144   2.37410
 Alpha virt. eigenvalues --    2.37534   2.37956   2.38414   2.38748   2.39070
 Alpha virt. eigenvalues --    2.39371   2.39852   2.39903   2.40112   2.40427
 Alpha virt. eigenvalues --    2.41546   2.41625   2.41657   2.41903   2.42190
 Alpha virt. eigenvalues --    2.42606   2.42957   2.43026   2.43950   2.44110
 Alpha virt. eigenvalues --    2.44351   2.44506   2.44684   2.45192   2.46006
 Alpha virt. eigenvalues --    2.46116   2.46618   2.46808   2.46861   2.47248
 Alpha virt. eigenvalues --    2.47487   2.48364   2.48471   2.48911   2.49603
 Alpha virt. eigenvalues --    2.49735   2.49882   2.50362   2.50644   2.50871
 Alpha virt. eigenvalues --    2.51517   2.51608   2.51713   2.52095   2.52301
 Alpha virt. eigenvalues --    2.53191   2.53225   2.53428   2.54362   2.54840
 Alpha virt. eigenvalues --    2.55355   2.55390   2.55854   2.56055   2.56382
 Alpha virt. eigenvalues --    2.57126   2.57914   2.57980   2.58373   2.59191
 Alpha virt. eigenvalues --    2.59377   2.59709   2.59790   2.60074   2.60379
 Alpha virt. eigenvalues --    2.60756   2.60997   2.61222   2.61575   2.61988
 Alpha virt. eigenvalues --    2.62663   2.62811   2.62961   2.63150   2.63668
 Alpha virt. eigenvalues --    2.64042   2.64110   2.64260   2.64635   2.64846
 Alpha virt. eigenvalues --    2.65171   2.65494   2.65839   2.66090   2.66312
 Alpha virt. eigenvalues --    2.66640   2.67182   2.67325   2.67858   2.67909
 Alpha virt. eigenvalues --    2.68405   2.68691   2.68917   2.69460   2.69476
 Alpha virt. eigenvalues --    2.69561   2.69827   2.70118   2.70713   2.70736
 Alpha virt. eigenvalues --    2.71118   2.71151   2.71575   2.72173   2.72253
 Alpha virt. eigenvalues --    2.72506   2.72664   2.72878   2.73549   2.73694
 Alpha virt. eigenvalues --    2.73892   2.74209   2.74558   2.74694   2.74920
 Alpha virt. eigenvalues --    2.75143   2.75391   2.75536   2.75566   2.76230
 Alpha virt. eigenvalues --    2.76979   2.77181   2.77430   2.77689   2.77914
 Alpha virt. eigenvalues --    2.77976   2.78288   2.78510   2.78997   2.79146
 Alpha virt. eigenvalues --    2.79244   2.79346   2.79725   2.79991   2.80458
 Alpha virt. eigenvalues --    2.80630   2.80657   2.80762   2.81244   2.81305
 Alpha virt. eigenvalues --    2.81576   2.81728   2.82014   2.82169   2.82347
 Alpha virt. eigenvalues --    2.83048   2.83440   2.83623   2.83927   2.84353
 Alpha virt. eigenvalues --    2.84618   2.84656   2.84978   2.85061   2.85321
 Alpha virt. eigenvalues --    2.86086   2.86437   2.86824   2.86878   2.87186
 Alpha virt. eigenvalues --    2.87787   2.87963   2.88071   2.88417   2.88621
 Alpha virt. eigenvalues --    2.88701   2.89232   2.90175   2.90378   2.90578
 Alpha virt. eigenvalues --    2.90599   2.90993   2.91348   2.91575   2.92075
 Alpha virt. eigenvalues --    2.92088   2.92239   2.92557   2.92823   2.93426
 Alpha virt. eigenvalues --    2.93715   2.94041   2.94219   2.94811   2.95100
 Alpha virt. eigenvalues --    2.95429   2.95664   2.95810   2.96807   2.96831
 Alpha virt. eigenvalues --    2.96987   2.97496   2.98427   2.98580   2.98719
 Alpha virt. eigenvalues --    2.99228   2.99538   2.99844   2.99978   3.00010
 Alpha virt. eigenvalues --    3.00349   3.00507   3.00682   3.00850   3.00935
 Alpha virt. eigenvalues --    3.01243   3.01696   3.01955   3.02130   3.02566
 Alpha virt. eigenvalues --    3.02745   3.02849   3.03263   3.03304   3.03561
 Alpha virt. eigenvalues --    3.03867   3.04421   3.04980   3.05161   3.05673
 Alpha virt. eigenvalues --    3.05783   3.06468   3.06671   3.07709   3.08400
 Alpha virt. eigenvalues --    3.08537   3.09588   3.10240   3.10375   3.10966
 Alpha virt. eigenvalues --    3.10990   3.11479   3.11534   3.11641   3.12571
 Alpha virt. eigenvalues --    3.13066   3.13436   3.13916   3.14841   3.14936
 Alpha virt. eigenvalues --    3.15694   3.15772   3.15882   3.15898   3.16417
 Alpha virt. eigenvalues --    3.17694   3.18079   3.18293   3.18734   3.18989
 Alpha virt. eigenvalues --    3.19381   3.19487   3.19625   3.19760   3.20061
 Alpha virt. eigenvalues --    3.20376   3.20527   3.20626   3.21308   3.21613
 Alpha virt. eigenvalues --    3.21805   3.22563   3.23105   3.23390   3.24133
 Alpha virt. eigenvalues --    3.24314   3.24684   3.25484   3.25806   3.26025
 Alpha virt. eigenvalues --    3.26384   3.26767   3.27121   3.27327   3.27884
 Alpha virt. eigenvalues --    3.28571   3.29133   3.30762   3.31276   3.31858
 Alpha virt. eigenvalues --    3.32167   3.33228   3.33473   3.34663   3.36693
 Alpha virt. eigenvalues --    3.37167   3.37520   3.37793   3.40072   3.41481
 Alpha virt. eigenvalues --    3.41609   3.42143   3.43177   3.44030   3.49449
 Alpha virt. eigenvalues --    3.51844   3.52323   3.53851   3.54625   3.55555
 Alpha virt. eigenvalues --    3.57111   3.57523   3.58771   3.59918   3.60215
 Alpha virt. eigenvalues --    3.60850   3.61458   3.62368   3.63436   3.63492
 Alpha virt. eigenvalues --    3.64604   3.66396   3.66812   3.67472   3.68381
 Alpha virt. eigenvalues --    3.68603   3.69299   3.70313   3.70355   3.71226
 Alpha virt. eigenvalues --    3.71398   3.72261   3.72529   3.72863   3.73086
 Alpha virt. eigenvalues --    3.73430   3.74072   3.74732   3.74866   3.76586
 Alpha virt. eigenvalues --    3.77475   3.79759   3.80707   3.84200
          Condensed to atoms (all electrons):
 Mulliken charges:
               1
     1  C    0.053969
     2  C   -0.000584
     3  O   -0.309715
     4  H    0.046247
     5  H    0.010800
     6  H   -0.008431
     7  N   -0.142113
     8  C    0.124095
     9  C    0.052525
    10  O   -0.307535
    11  C    0.058198
    12  C    0.066658
    13  O   -0.346871
    14  O   -0.393770
    15  H    0.100807
    16  H    0.012865
    17  H   -0.000047
    18  H    0.036104
    19  N   -0.136313
    20  C    0.121896
    21  C    0.010462
    22  O   -0.232106
    23  C    0.094572
    24  C    0.007007
    25  C   -0.001058
    26  C   -0.018493
    27  N    0.088420
    28  H    0.120967
    29  H   -0.046978
    30  H    0.053851
    31  H   -0.019117
    32  H    0.026460
    33  H   -0.000028
    34  H    0.005615
    35  H    0.040259
    36  H    0.082692
    37  H    0.064192
    38  H    0.184227
    39  H    0.189014
    40  H    0.211268
    41  N   -0.153507
    42  C    0.170306
    43  C    0.073950
    44  O   -0.308919
    45  C    0.087379
    46  C    0.101111
    47  O   -0.513728
    48  O   -0.317578
    49  H    0.123859
    50  H    0.026473
    51  H   -0.034974
    52  H    0.015332
    53  N   -0.115588
    54  C    0.154652
    55  C    0.006739
    56  O   -0.244708
    57  H    0.134295
    58  H    0.034737
    59  H    0.028500
    60  N   -0.114671
    61  C    0.043393
    62  C    0.073525
    63  O   -0.279222
    64  C    0.099648
    65  C    0.055827
    66  N   -0.036017
    67  O   -0.288624
    68  H    0.141300
    69  H    0.017812
    70  H    0.039661
    71  H    0.034267
    72  H    0.124675
    73  H    0.126048
    74  N   -0.112204
    75  C    0.160056
    76  C    0.030437
    77  O   -0.302412
    78  H    0.128091
    79  H    0.032478
    80  H    0.057791
    81  N   -0.143259
    82  C    0.156483
    83  C    0.101816
    84  O   -0.290268
    85  C    0.080688
    86  C    0.012462
    87  C   -0.019647
    88  C   -0.007748
    89  C   -0.024181
    90  C   -0.027950
    91  C    0.123881
    92  O   -0.185412
    93  H    0.150881
    94  H   -0.012719
    95  H   -0.006817
    96  H    0.004311
    97  H   -0.031591
    98  H   -0.013014
    99  H   -0.031032
   100  H   -0.037342
   101  H    0.161107
   102  N   -0.097350
   103  C    0.121329
   104  C    0.078303
   105  O   -0.279161
   106  C   -0.068354
   107  C    0.025381
   108  C    0.045056
   109  C    0.036390
   110  H    0.114744
   111  H   -0.011386
   112  H   -0.017841
   113  H    0.015810
   114  H    0.024563
   115  H    0.016512
   116  H    0.003414
   117  H   -0.009915
   118  H    0.044387
   119  H   -0.006224
   120  H   -0.024913
   121  N   -0.123764
   122  C    0.042460
   123  C    0.071753
   124  O   -0.263445
   125  C    0.266415
   126  O   -0.320282
   127  H    0.148118
   128  H    0.014874
   129  H    0.023852
   130  H   -0.020494
   131  H    0.163488
   132  N   -0.121395
   133  C    0.096838
   134  C    0.096993
   135  O   -0.272401
   136  C    0.021076
   137  H    0.125132
   138  H   -0.006041
   139  H    0.033709
   140  H    0.022921
   141  H    0.026350
   142  N   -0.152138
   143  C    0.050476
   144  C    0.062067
   145  O   -0.281113
   146  C    0.060380
   147  H    0.120970
   148  H    0.019746
   149  H   -0.009379
   150  H    0.021569
   151  H    0.030098
   152  N   -0.129908
   153  C    0.081211
   154  C    0.082476
   155  O   -0.278360
   156  C    0.066432
   157  C    0.105805
   158  C    0.056941
   159  O   -0.430113
   160  O   -0.430660
   161  H    0.113245
   162  H    0.036478
   163  H   -0.007419
   164  H    0.018598
   165  H   -0.000523
   166  H    0.037257
   167  N   -0.163190
   168  C    0.141739
   169  H    0.026565
   170  H    0.034583
   171  H    0.004005
   172  H    0.107933
   173  Ca   1.324874
   174  O   -0.304426
   175  H    0.222443
   176  H    0.163584
 Sum of Mulliken charges =  -0.00000
 Mulliken charges with hydrogens summed into heavy atoms:
               1
     1  C    0.102586
     2  C   -0.000584
     3  O   -0.309715
     7  N   -0.041306
     8  C    0.136960
     9  C    0.052525
    10  O   -0.307535
    11  C    0.094255
    12  C    0.066658
    13  O   -0.346871
    14  O   -0.393770
    19  N   -0.015346
    20  C    0.074919
    21  C    0.010462
    22  O   -0.232106
    23  C    0.129305
    24  C    0.033439
    25  C    0.044816
    26  C    0.128391
    27  N    0.672930
    41  N   -0.029649
    42  C    0.196779
    43  C    0.073950
    44  O   -0.308919
    45  C    0.067737
    46  C    0.101111
    47  O   -0.513728
    48  O   -0.317578
    53  N    0.018707
    54  C    0.217890
    55  C    0.006739
    56  O   -0.244708
    60  N    0.026629
    61  C    0.061205
    62  C    0.073525
    63  O   -0.279222
    64  C    0.173576
    65  C    0.055827
    66  N    0.214705
    67  O   -0.288624
    74  N    0.015887
    75  C    0.250325
    76  C    0.030437
    77  O   -0.302412
    81  N    0.007622
    82  C    0.143764
    83  C    0.101816
    84  O   -0.290268
    85  C    0.078182
    86  C    0.012462
    87  C   -0.051237
    88  C   -0.020761
    89  C   -0.055214
    90  C   -0.065292
    91  C    0.123881
    92  O   -0.024305
   102  N    0.017393
   103  C    0.109943
   104  C    0.078303
   105  O   -0.279161
   106  C   -0.086194
   107  C    0.065754
   108  C    0.055067
   109  C    0.049640
   121  N    0.024354
   122  C    0.057334
   123  C    0.071753
   124  O   -0.263445
   125  C    0.269773
   126  O   -0.156794
   132  N    0.003738
   133  C    0.090797
   134  C    0.096993
   135  O   -0.272401
   136  C    0.104056
   142  N   -0.031168
   143  C    0.070221
   144  C    0.062067
   145  O   -0.281113
   146  C    0.102668
   152  N   -0.016663
   153  C    0.117689
   154  C    0.082476
   155  O   -0.278360
   156  C    0.077612
   157  C    0.142538
   158  C    0.056941
   159  O   -0.430113
   160  O   -0.430660
   167  N   -0.055256
   168  C    0.206891
   173  Ca   1.324874
   174  O    0.081601
 DipInt: DoE/N= T F RetVal/Mat= T F Init=T NMatP=  1 IDeriv=0 Min/MaxMlt=  0  4
 Entering OneElI...
 OneElI was handed  1333951383 working-precision words.
 Multipole integrals L=0 to 4 MinM= 0 MaxM= 0.
 Requested accuracy = 0.1000D-12
 ShPair: Thresh= 1.00D-13 NBox=     0 BxSize= 0.00D+00 RnKept= 3.46D+01
         NSMCal=               327645 NSMKep=              141676
 PrmmSu-InSpLW:  IPartL=    0 NPrtUS=    1 NPrtUL=    1 DoSpLW=F IThBeg=    0 IThEnd=    0 NThAct=    1.
 PrsmSu:  NPrtUS=   1 ThrOK=F IAlg=1 NPAlg=1 LenDen=           0 ISkipM=0 DoSpLW=F IThBeg=    0 IThEnd=    0.
 Prism:   IPart=     0 DynPar=F LinDyn=F Incr=         512.
 PRISM was handed  1324627221 working-precision words and141676 shell-pairs
 IPart=  0 NShTot=      141676 NBatch=         326 AvBLen=       434.6
 PrsmSu-ThDecC:  IPartSL=    0    0 NPrtUSL=    1    1 IThBeg=    0 IThEnd=    0 CPU=   -1 GPU=   -1 NThAct=    1.
 PrSmSu:  NxtVal=            513.
 Electronic moments (au):
       -716.00000000        -11.42381164        -11.16521102          1.13157449
     -59673.15907433     -42531.98143867     -14010.81701089         31.71946728
         60.25522834        -64.48770286     227827.72721351      -8848.33624143
      -7378.42629863    -160715.65871832     -69188.59055726     -23401.91622672
       6851.58303247      13424.91071038     -48070.34383438      -1537.51644701
   -9783005.40944227   -6587861.00027149    -634827.21026370     329829.18473674
     191328.61366127    -826109.53072733    -111950.76740834     139695.28453838
      65588.31135817   -2562116.11687360   -1033304.66763888    -834329.43832874
     101724.17561298    -668674.55424742       8310.14716795
 Electronic spatial extent (au):  <R**2>=         116215.9575
 DipInt: DoE/N= F T RetVal/Mat= T F Init=T NMatP=  1 IDeriv=0 Min/MaxMlt=  0  4
 Nuclear    moments (au):
        716.00000000          0.00000000         -0.00000000          0.00000000
      59200.67058000      42395.12782321      13624.13008292         -0.00000000
         -0.00000000         -0.00000000    -230351.35835177       3434.80880779
       7306.81489346     160305.49333905      70168.85806564      23003.74204753
      -7176.40166976     -13870.81178420      49077.92356620        749.62001727
    9562691.69096674    6520164.21420479     588443.07498773    -323943.35607172
    -182277.26682790     823734.29780729      84528.25771005    -139044.39027870
     -69510.07574105    2509900.91999207     995532.04424626     812406.36137389
     -97058.98790471     674674.89314903      -7384.74349544
 Total      moments (au):
         -0.00000000        -11.42381164        -11.16521102          1.13157449
       -472.48849433       -136.85361546       -386.68692797         31.71946728
         60.25522834        -64.48770286      -2523.63113826      -5413.52743364
        -71.61140517       -410.16537928        980.26750838       -398.17417919
       -324.81863728       -445.90107382       1007.57973182       -787.89642974
    -220313.71847553     -67696.78606670     -46384.13527598       5885.82866502
       9051.34683336      -2375.23292003     -27422.50969829        650.89425968
      -3921.76438288     -52215.19688153     -37772.62339262     -21923.07695485
       4665.18770827       6000.33890161        925.40367251
 Traceless Quadrup. (au):
       -140.47881507        195.15606380        -54.67724872         31.71946728
         60.25522834        -64.48770286
 Charge=             -0.0000 electrons
 Dipole moment (field-independent basis, Debye):
    X=            -29.0364    Y=            -28.3791    Z=              2.8762  Tot=             40.7033
 Quadrupole moment (field-independent basis, Debye-Ang):
   XX=           -635.5132   YY=           -184.0728   ZZ=           -520.1072
   XY=             42.6638   XZ=             81.0453   YZ=            -86.7382
 Traceless Quadrupole moment (field-independent basis, Debye-Ang):
   XX=           -188.9488   YY=            262.4916   ZZ=            -73.5428
   XY=             42.6638   XZ=             81.0453   YZ=            -86.7382
 Octapole moment (field-independent basis, Debye-Ang**2):
  XXX=          -1796.2234  YYY=          -3853.1403  ZZZ=            -50.9702  XYY=           -291.9399
  XXY=            697.7166  XXZ=           -283.4050  XZZ=           -231.1934  YZZ=           -317.3752
  YYZ=            717.1564  XYZ=           -560.7943
 Hexadecapole moment (field-independent basis, Debye-Ang**3):
 XXXX=         -82980.7108 YYYY=         -25497.8558 ZZZZ=         -17470.4895 XXXY=           2216.8853
 XXXZ=           3409.1712 YYYX=           -894.6266 YYYZ=         -10328.6321 ZZZX=            245.1580
 ZZZY=          -1477.1245 XXYY=         -19666.7469 XXZZ=         -14226.9812 YYZZ=          -8257.2820
 XXYZ=           1757.1334 YYXZ=           2260.0154 ZZXY=            348.5514
 N-N= 2.007245821172D+04 E-N=-5.263501344877D+04  KE= 5.290530216834D+03
 Leave Link  601 at Wed Sep 18 14:36:47 2019, MaxMem=  1342177280 cpu:              42.2 elap:               1.1
 FitSet:  NAtFit=   176 NAtPot=   176 NAtFrz=     0 MDM=   180 TotChg=   0.00000
 Merz-Kollman atomic radii used.
 Read replacement radii for each type of atom:
 Rad(20) =   1.700000000000D+00
 Atom Element Radius
    1     6    1.50
    2     6    1.50
    3     8    1.40
    4     1    1.20
    5     1    1.20
    6     1    1.20
    7     7    1.50
    8     6    1.50
    9     6    1.50
   10     8    1.40
   11     6    1.50
   12     6    1.50
   13     8    1.40
   14     8    1.40
   15     1    1.20
   16     1    1.20
   17     1    1.20
   18     1    1.20
   19     7    1.50
   20     6    1.50
   21     6    1.50
   22     8    1.40
   23     6    1.50
   24     6    1.50
   25     6    1.50
   26     6    1.50
   27     7    1.50
   28     1    1.20
   29     1    1.20
   30     1    1.20
   31     1    1.20
   32     1    1.20
   33     1    1.20
   34     1    1.20
   35     1    1.20
   36     1    1.20
   37     1    1.20
   38     1    1.20
   39     1    1.20
   40     1    1.20
   41     7    1.50
   42     6    1.50
   43     6    1.50
   44     8    1.40
   45     6    1.50
   46     6    1.50
   47     8    1.40
   48     8    1.40
   49     1    1.20
   50     1    1.20
   51     1    1.20
   52     1    1.20
   53     7    1.50
   54     6    1.50
   55     6    1.50
   56     8    1.40
   57     1    1.20
   58     1    1.20
   59     1    1.20
   60     7    1.50
   61     6    1.50
   62     6    1.50
   63     8    1.40
   64     6    1.50
   65     6    1.50
   66     7    1.50
   67     8    1.40
   68     1    1.20
   69     1    1.20
   70     1    1.20
   71     1    1.20
   72     1    1.20
   73     1    1.20
   74     7    1.50
   75     6    1.50
   76     6    1.50
   77     8    1.40
   78     1    1.20
   79     1    1.20
   80     1    1.20
   81     7    1.50
   82     6    1.50
   83     6    1.50
   84     8    1.40
   85     6    1.50
   86     6    1.50
   87     6    1.50
   88     6    1.50
   89     6    1.50
   90     6    1.50
   91     6    1.50
   92     8    1.40
   93     1    1.20
   94     1    1.20
   95     1    1.20
   96     1    1.20
   97     1    1.20
   98     1    1.20
   99     1    1.20
  100     1    1.20
  101     1    1.20
  102     7    1.50
  103     6    1.50
  104     6    1.50
  105     8    1.40
  106     6    1.50
  107     6    1.50
  108     6    1.50
  109     6    1.50
  110     1    1.20
  111     1    1.20
  112     1    1.20
  113     1    1.20
  114     1    1.20
  115     1    1.20
  116     1    1.20
  117     1    1.20
  118     1    1.20
  119     1    1.20
  120     1    1.20
  121     7    1.50
  122     6    1.50
  123     6    1.50
  124     8    1.40
  125     6    1.50
  126     8    1.40
  127     1    1.20
  128     1    1.20
  129     1    1.20
  130     1    1.20
  131     1    1.20
  132     7    1.50
  133     6    1.50
  134     6    1.50
  135     8    1.40
  136     6    1.50
  137     1    1.20
[...]
 **** Fit       0.029384
 **** Fit      -0.002178
 **** Fit       0.002131
 **** Fit       0.007202
 **** Fit       0.012650
 **** Fit       0.018092
 **** Fit       0.023166
 **** Fit       0.027525
 **** Fit       0.030832
 **** Fit       0.032807
 **** Fit       0.033312
 **** Fit      -0.005257
 **** Fit      -0.000194
 **** Fit       0.006059
 **** Fit       0.012902
 **** Fit       0.019802
 **** Fit       0.026275
 **** Fit       0.031818
 **** Fit       0.035878
 **** Fit      -0.001560
 **** Fit       0.006756
 **** Fit       0.015792
 **** Fit       0.024836
 **** Fit       0.041199
 **** Fit       0.043498
 **** Fit       0.043070
 **** Fit       0.039718
 **** Fit       0.033403
 **** Fit       0.024406
 **** Fit       0.040139
 **** Fit       0.046790
 **** Fit       0.051744
 **** Fit       0.054961
 **** Fit       0.056299
 **** Fit       0.055531
 **** Fit       0.052409
 **** Fit       0.046771
 **** Fit       0.038639
 **** Fit       0.028269
 **** Fit       0.016165
 **** Fit       0.001243
 **** Fit       0.030113
 **** Fit       0.039368
 **** Fit       0.047180
 **** Fit       0.053622
 **** Fit       0.058753
 **** Fit       0.062583
 **** Fit       0.065056
 **** Fit       0.066029
 **** Fit       0.065283
 **** Fit       0.062558
 **** Fit       0.057634
 **** Fit       0.050413
 **** Fit       0.040950
 **** Fit       0.029409
 **** Fit       0.016021
 **** Fit       0.028175
 **** Fit       0.037693
 **** Fit       0.046018
 **** Fit       0.053161
 **** Fit       0.059179
 **** Fit       0.064131
 **** Fit       0.068052
 **** Fit       0.070934
 **** Fit       0.072715
 **** Fit       0.073267
 **** Fit       0.072396
 **** Fit       0.069869
 **** Fit       0.065464
 **** Fit       0.059043
 **** Fit       0.050595
 **** Fit       0.040202
 **** Fit       0.027895
 **** Fit       0.013529
 **** Fit       0.035773
 **** Fit       0.044348
 **** Fit       0.051872
 **** Fit       0.058365
 **** Fit       0.063889
 **** Fit       0.068506
 **** Fit       0.072261
 **** Fit       0.075171
 **** Fit       0.077217
 **** Fit       0.078336
 **** Fit       0.078415
 **** Fit       0.077292
 **** Fit       0.074768
 **** Fit       0.070645
 **** Fit       0.064780
 **** Fit       0.057140
 **** Fit       0.047812
 **** Fit       0.036914
 **** Fit       0.024361
 **** Fit       0.043468
 **** Fit       0.051490
 **** Fit       0.058415
 **** Fit       0.064326
 **** Fit       0.069317
 **** Fit       0.073462
 **** Fit       0.076811
 **** Fit       0.079387
 **** Fit       0.081176
 **** Fit       0.082131
 **** Fit       0.082161
 **** Fit       0.081131
 **** Fit       0.078867
 **** Fit       0.075175
 **** Fit       0.069879
 **** Fit       0.062883
 **** Fit       0.054227
 **** Fit       0.044106
 **** Fit       0.057896
 **** Fit       0.064189
 **** Fit       0.069491
 **** Fit       0.073924
 **** Fit       0.077575
 **** Fit       0.080494
 **** Fit       0.082701
 **** Fit       0.084187
 **** Fit       0.084910
 **** Fit       0.084796
 **** Fit       0.083732
 **** Fit       0.081567
 **** Fit       0.078123
 **** Fit       0.073213
 **** Fit       0.066687
 **** Fit       0.058485
 **** Fit       0.048710
 **** Fit       0.067367
 **** Fit       0.072401
 **** Fit       0.076584
 **** Fit       0.080018
 **** Fit       0.082758
 **** Fit       0.084825
 **** Fit       0.086216
 **** Fit       0.086895
 **** Fit       0.086803
 **** Fit       0.085843
 **** Fit       0.083888
 **** Fit       0.080772
 **** Fit       0.076306
 **** Fit       0.070294
 **** Fit       0.062569
 **** Fit       0.053053
 **** Fit       0.070987
 **** Fit       0.075421
 **** Fit       0.079139
 **** Fit       0.082215
 **** Fit       0.084682
 **** Fit       0.086546
 **** Fit       0.087795
 **** Fit       0.088393
 **** Fit       0.088285
 **** Fit       0.087388
 **** Fit       0.085590
 **** Fit       0.082746
 **** Fit       0.078677
 **** Fit       0.073178
 **** Fit       0.066026
 **** Fit       0.057012
 **** Fit       0.079639
 **** Fit       0.082522
 **** Fit       0.084985
 **** Fit       0.086970
 **** Fit       0.088428
 **** Fit       0.089307
 **** Fit       0.089550
 **** Fit       0.089082
 **** Fit       0.087804
 **** Fit       0.085593
 **** Fit       0.082286
 **** Fit       0.077685
 **** Fit       0.071548
 **** Fit       0.063596
 **** Fit       0.053522
 **** Fit       0.084489
 **** Fit       0.086013
 **** Fit       0.087584
 **** Fit       0.088935
 **** Fit       0.089904
 **** Fit       0.090376
 **** Fit       0.090253
 **** Fit       0.089435
 **** Fit       0.087807
 **** Fit       0.085228
 **** Fit       0.081522
 **** Fit       0.076473
 **** Fit       0.069810
 **** Fit       0.061201
 **** Fit       0.050242
 **** Fit       0.089749
 **** Fit       0.089897
 **** Fit       0.090438
 **** Fit       0.090925
 **** Fit       0.091097
 **** Fit       0.090775
 **** Fit       0.089814
 **** Fit       0.088072
 **** Fit       0.085391
 **** Fit       0.081582
 **** Fit       0.076415
 **** Fit       0.069597
 **** Fit       0.060758
 **** Fit       0.049419
 **** Fit      -0.009617
 **** Fit      -0.003512
 **** Fit       0.002259
 **** Fit       0.007957
 **** Fit       0.093192
 **** Fit       0.092316
 **** Fit       0.091997
 **** Fit       0.091699
 **** Fit       0.091100
 **** Fit       0.089976
 **** Fit       0.088142
 **** Fit       0.085415
 **** Fit       0.081595
 **** Fit       0.076444
 **** Fit       0.069666
 **** Fit       0.060881
 **** Fit       0.049590
 **** Fit      -0.000602
 **** Fit       0.006308
 **** Fit       0.012788
 **** Fit       0.019150
 **** Fit       0.094318
 **** Fit       0.092943
 **** Fit       0.091961
 **** Fit       0.090848
 **** Fit       0.089258
 **** Fit       0.086926
 **** Fit       0.083609
 **** Fit       0.079050
 **** Fit       0.072952
 **** Fit       0.064942
 **** Fit       0.054541
 **** Fit       0.006744
 **** Fit       0.014430
 **** Fit       0.021659
 **** Fit       0.028835
 **** Fit       0.093494
 **** Fit       0.091802
 **** Fit       0.090169
 **** Fit       0.088123
 **** Fit       0.085313
 **** Fit       0.081427
 **** Fit       0.076150
 **** Fit       0.069125
 **** Fit       0.059914
 **** Fit       0.047967
 **** Fit       0.012981
 **** Fit       0.021334
 **** Fit       0.029236
 **** Fit       0.037169
 **** Fit       0.093197
 **** Fit       0.091012
 **** Fit       0.088958
 **** Fit       0.086525
 **** Fit       0.083295
 **** Fit       0.078897
 **** Fit       0.072965
 **** Fit       0.065101
 **** Fit       0.054845
 **** Fit       0.020490
 **** Fit       0.029413
 **** Fit       0.038027
 **** Fit       0.046882
 **** Fit       0.056638
 **** Fit       0.090011
 **** Fit       0.087864
 **** Fit       0.085350
 **** Fit       0.082043
 **** Fit       0.077505
 **** Fit       0.071308
 **** Fit       0.063018
 **** Fit       0.052196
 **** Fit       0.027854
 **** Fit       0.037081
 **** Fit       0.046210
 **** Fit       0.055614
 **** Fit       0.065404
 **** Fit       0.086387
 **** Fit       0.085412
 **** Fit       0.083408
 **** Fit       0.080363
 **** Fit       0.075938
 **** Fit       0.069698
 **** Fit       0.061219
 **** Fit       0.050187
 **** Fit       0.027726
 **** Fit       0.037173
 **** Fit       0.046877
 **** Fit       0.056622
 **** Fit       0.065991
 **** Fit       0.073727
 **** Fit       0.078384
 **** Fit       0.079775
 **** Fit       0.078640
 **** Fit       0.075396
 **** Fit       0.069889
 **** Fit       0.061763
 **** Fit       0.050889
 **** Fit       0.037160
 **** Fit       0.046527
 **** Fit       0.056636
 **** Fit       0.065588
 **** Fit       0.071239
 **** Fit       0.072452
 **** Fit       0.069454
 **** Fit       0.062499
 **** Fit       0.052040
 **** Fit       0.040241
 **** Fit       0.044428
 **** Fit       0.046269
 **** Fit       0.055946
 **** Fit       0.063558
 **** Fit       0.062566
 **** Fit       0.053420
 **** Fit       0.054798
 **** Fit      -0.011336
 **** Fit      -0.002789
 **** Fit      -0.000650
 **** Fit       0.001075
 **** Fit       0.002498
 **** Fit       0.006176
 **** Fit       0.008197
 **** Fit       0.010481
 **** Fit       0.013360
 **** Fit       0.017084
 **** Fit       0.013537
 **** Fit       0.015218
 **** Fit       0.017401
 **** Fit       0.020446
 **** Fit       0.024754
 **** Fit       0.030807
 **** Fit       0.021661
 **** Fit       0.023466
 **** Fit       0.026150
 **** Fit       0.030065
 **** Fit       0.035671
 **** Fit       0.043623
 **** Fit       0.027285
 **** Fit       0.028464
 **** Fit       0.030374
 **** Fit       0.033279
 **** Fit       0.037519
 **** Fit       0.043568
 **** Fit       0.052119
 **** Fit       0.032911
 **** Fit       0.033732
 **** Fit       0.035204
 **** Fit       0.037553
 **** Fit       0.041065
 **** Fit       0.046134
 **** Fit       0.053329
 **** Fit       0.063509
 **** Fit       0.038901
 **** Fit       0.040086
 **** Fit       0.041980
 **** Fit       0.044814
 **** Fit       0.048896
 **** Fit       0.054661
 **** Fit       0.062742
 **** Fit      -0.015864
 **** Fit       0.043446
 **** Fit       0.044413
 **** Fit       0.045839
 **** Fit       0.047910
 **** Fit       0.050852
 **** Fit       0.054968
 **** Fit       0.060683
 **** Fit       0.068610
 **** Fit       0.079660
 **** Fit      -0.008366
 **** Fit      -0.005167
 **** Fit      -0.001344
 **** Fit      -0.000207
 **** Fit       0.002061
 **** Fit       0.004715
 **** Fit       0.007766
 **** Fit       0.011357
 **** Fit       0.009628
 **** Fit       0.010268
 **** Fit       0.012219
 **** Fit       0.015040
 **** Fit       0.018728
 **** Fit       0.023366
 **** Fit       0.023963
 **** Fit       0.019761
 **** Fit       0.018772
 **** Fit       0.019857
 **** Fit       0.022338
 **** Fit       0.025911
 **** Fit       0.030394
 **** Fit       0.035495
 **** Fit       0.030179
 **** Fit       0.027473
 **** Fit       0.027474
 **** Fit       0.029381
 **** Fit       0.032674
 **** Fit       0.036977
 **** Fit       0.040203
 **** Fit       0.036210
 **** Fit       0.035477
 **** Fit       0.037162
 **** Fit      -0.017606
 **** Fit      -0.011395
 **** Fit      -0.007770
 **** Fit      -0.007081
 **** Fit      -0.001742
 **** Fit       0.001364
 **** Fit       0.001172
 **** Fit       0.005921
 **** Fit       0.009164
 **** Fit      -0.001426
 **** Fit       0.004338
 **** Fit       0.009278
 **** Fit       0.013272
 **** Fit       0.016301
 **** Fit       0.001846
 **** Fit       0.007670
 **** Fit       0.012624
 **** Fit       0.016855
 **** Fit       0.020388
 **** Fit       0.023253
 **** Fit       0.010352
 **** Fit       0.015548
 **** Fit       0.019881
 **** Fit       0.023615
 **** Fit       0.026856
 **** Fit       0.029672
 **** Fit       0.014487
 **** Fit       0.019875
 **** Fit       0.024239
 **** Fit       0.027998
 **** Fit       0.031358
 **** Fit       0.034443
 **** Fit       0.016921
 **** Fit       0.022875
 **** Fit       0.027641
 **** Fit       0.031719
 **** Fit       0.035421
 **** Fit       0.038950
 **** Fit       0.014922
 **** Fit       0.021872
 **** Fit       0.027627
 **** Fit       0.032481
 **** Fit       0.036813
 **** Fit       0.040939
 **** Fit       0.045123
 **** Fit       0.005201
 **** Fit       0.014986
 **** Fit       0.020964
 **** Fit       0.026850
 **** Fit       0.032220
 **** Fit       0.037108
 **** Fit       0.041760
 **** Fit       0.046481
 **** Fit       0.017632
 **** Fit       0.020919
 **** Fit       0.025450
 **** Fit       0.030638
 **** Fit       0.035948
 **** Fit       0.041212
 **** Fit       0.046596
 **** Fit       0.030328
 **** Fit       0.034674
 **** Fit       0.039754
 **** Fit       0.046186
 **** Fit       0.046722
 **** Fit       0.048055
 **** Fit       0.050299
 **** Fit       0.053645
 **** Fit       0.058403
 **** Fit       0.065069
 **** Fit       0.047334
 **** Fit       0.047632
 **** Fit       0.048354
 **** Fit       0.049620
 **** Fit       0.051547
 **** Fit       0.054282
 **** Fit       0.058034
 **** Fit       0.063108
 **** Fit       0.069959
 **** Fit       0.079273
 **** Fit       0.046991
 **** Fit       0.047765
 **** Fit       0.048539
 **** Fit       0.049528
 **** Fit       0.050891
 **** Fit       0.052766
 **** Fit       0.055299
 **** Fit       0.058669
 **** Fit       0.063120
 **** Fit       0.068990
 **** Fit       0.076761
 **** Fit       0.087122
 **** Fit       0.043452
 **** Fit       0.045548
 **** Fit       0.047123
 **** Fit       0.048405
 **** Fit       0.049631
 **** Fit       0.051005
 **** Fit       0.052697
 **** Fit       0.054859
 **** Fit       0.057651
 **** Fit       0.061260
 **** Fit       0.065925
 **** Fit       0.071959
 **** Fit       0.079773
 **** Fit       0.089884
 **** Fit       0.038409
 **** Fit       0.041133
 **** Fit       0.043644
 **** Fit       0.045796
 **** Fit       0.047600
 **** Fit       0.049181
 **** Fit       0.050709
 **** Fit       0.052359
 **** Fit       0.054289
 **** Fit       0.056652
 **** Fit       0.059603
 **** Fit       0.063316
 **** Fit       0.067997
 **** Fit       0.073881
 **** Fit       0.081220
 **** Fit       0.090221
 **** Fit       0.038416
 **** Fit       0.039664
 **** Fit       0.041641
 **** Fit       0.043866
 **** Fit       0.046041
 **** Fit       0.048040
 **** Fit       0.049890
 **** Fit       0.051711
 **** Fit       0.053666
 **** Fit       0.055921
 **** Fit       0.058643
 **** Fit       0.062000
 **** Fit       0.066160
 **** Fit       0.071283
 **** Fit       0.077473
 **** Fit       0.084670
 **** Fit       0.092445
 **** Fit       0.063567
 **** Fit       0.054374
 **** Fit       0.047808
 **** Fit       0.044185
 **** Fit       0.042999
 **** Fit       0.043468
 **** Fit       0.044882
 **** Fit       0.046724
 **** Fit       0.048689
 **** Fit       0.050666
 **** Fit       0.052693
 **** Fit       0.054896
 **** Fit       0.057434
 **** Fit       0.060467
 **** Fit       0.064136
 **** Fit       0.068530
 **** Fit       0.073611
 **** Fit       0.079078
 **** Fit       0.084162
 **** Fit       0.087482
 **** Fit       0.067424
 **** Fit       0.059763
 **** Fit       0.053152
 **** Fit       0.048950
 **** Fit       0.047235
 **** Fit       0.047373
 **** Fit       0.048616
 **** Fit       0.050418
 **** Fit       0.052505
 **** Fit       0.054843
 **** Fit       0.057530
 **** Fit       0.060702
 **** Fit       0.064432
 **** Fit       0.068618
 **** Fit       0.072803
 **** Fit       0.075989
 **** Fit       0.076699
 **** Fit       0.073744
 **** Fit       0.063346
 **** Fit       0.057220
 **** Fit       0.052687
 **** Fit       0.050960
 **** Fit       0.051492
 **** Fit       0.053341
 **** Fit       0.055956
 **** Fit       0.059185
 **** Fit       0.062923
 **** Fit       0.066635
 **** Fit       0.068952
 **** Fit       0.068016
 **** Fit       0.060611
 **** Fit       0.055908
 **** Fit       0.054798
 **** Fit       0.057187
 **** Fit       0.061003
 **** Fit       0.063299
 **** Fit       0.058669
 -----------------------------------------------------------------
 Leave Link  602 at Wed Sep 18 14:36:49 2019, MaxMem=  1342177280 cpu:             117.8 elap:               2.5

 Test job not archived.
 1\1\GINC-C480-052\SP\RB3LYP\SVP\C54H83Ca1N15O23\PENGZHI\18-Sep-2019\0\
 \#b3lyp/svp scf=(tight,noincore) Test #IOP(5/87=12) Density=Current Po
 p=(MK,readradii) iop(6/33=2) iop(6/42=6)\\Ng-31_loop3_22.0\\0,1\C,0,61
 .08,59.83,34.31\C,0,60.69,58.63,35.15\O,0,59.58,58.09,35.16\H,0,62.087
 ,59.687,33.918\H,0,60.38,59.937,33.481\H,0,61.055,60.729,34.926\N,0,61
 .61,58.14,35.99\C,0,61.46,57.03,36.91\C,0,60.77,57.55,38.16\O,0,59.92,
 56.86,38.73\C,0,62.84,56.45,37.19\C,0,64.08,57.34,37.14\O,0,65.12,56.7
 7,36.75\O,0,64.03,58.53,37.53\H,0,62.5,58.6,36.1\H,0,60.69,56.39,36.47
 \H,0,63.07,55.66,36.49\H,0,62.76,56.04,38.2\N,0,61.21,58.71,38.65\C,0,
 60.67,59.39,39.8\C,0,61.13,58.63,41.04\O,0,62.32,58.54,41.32\C,0,61.13
 ,60.85,39.82\C,0,60.66,61.7,38.64\C,0,59.18,62.,38.41\C,0,58.92,63.02,
 37.3\N,0,57.52,63.17,36.87\H,0,62.12,59.03,38.32\H,0,59.58,59.32,39.8\
 H,0,62.21,60.91,39.81\H,0,60.65,61.32,40.68\H,0,61.12,61.28,37.75\H,0,
 61.09,62.68,38.83\H,0,58.72,62.42,39.3\H,0,58.66,61.12,38.04\H,0,59.53
 ,62.76,36.44\H,0,59.26,63.97,37.72\H,0,56.97,63.57,37.61\H,0,57.42,63.
 91,36.18\H,0,57.14,62.33,36.45\N,0,60.17,58.16,41.85\C,0,60.45,57.21,4
 2.9\C,0,60.68,55.79,42.38\O,0,60.8,54.83,43.14\C,0,59.27,57.34,43.86\C
 ,0,57.9,57.28,43.2\O,0,57.04,58.,43.76\O,0,57.83,56.53,42.2\H,0,59.26,
 58.43,41.5\H,0,61.35,57.43,43.46\H,0,59.42,58.28,44.38\H,0,59.29,56.56
 ,44.62\N,0,60.77,55.6,41.06\C,0,61.55,54.51,40.53\C,0,63.05,54.76,40.5
 5\O,0,63.51,55.83,40.96\H,0,60.58,56.41,40.49\H,0,61.19,54.24,39.53\H,
 0,61.31,53.65,41.15\N,0,63.86,53.82,40.07\C,0,63.51,52.45,39.73\C,0,64
 .38,52.02,38.56\O,0,65.59,51.92,38.77\C,0,63.71,51.66,41.02\C,0,63.66,
 50.15,40.83\N,0,64.,49.38,41.88\O,0,63.47,49.7,39.7\H,0,64.83,54.07,39
 .91\H,0,62.45,52.32,39.5\H,0,62.96,51.79,41.79\H,0,64.7,51.94,41.39\H,
 0,64.1,49.78,42.8\H,0,63.72,48.42,41.78\N,0,63.96,51.76,37.32\C,0,62.7
 9,52.37,36.72\C,0,61.53,51.52,36.82\O,0,60.51,51.93,36.26\H,0,64.68,51
 .57,36.64\H,0,63.01,52.57,35.67\H,0,62.56,53.36,37.11\N,0,61.52,50.44,
 37.6\C,0,60.26,49.79,37.93\C,0,59.44,50.55,38.96\O,0,59.94,51.01,39.98
 \C,0,60.61,48.41,38.47\C,0,61.26,47.41,37.55\C,0,60.44,46.62,36.73\C,0
 ,62.65,47.31,37.42\C,0,61.02,45.85,35.72\C,0,63.29,46.57,36.42\C,0,62.
 43,45.78,35.63\O,0,63.01,44.91,34.76\H,0,62.37,50.22,38.08\H,0,59.78,4
 9.66,36.96\H,0,59.71,48.07,38.98\H,0,61.35,48.65,39.23\H,0,59.36,46.65
 ,36.71\H,0,63.29,47.85,38.11\H,0,60.35,45.24,35.13\H,0,64.35,46.38,36.
 35\H,0,63.92,45.2,34.74\N,0,58.19,50.91,38.64\C,0,57.28,51.78,39.35\C,
 0,56.4,50.99,40.31\O,0,55.84,49.95,39.97\C,0,56.56,52.82,38.49\C,0,57.
 61,53.72,37.85\C,0,55.63,52.11,37.52\C,0,57.04,54.81,36.94\H,0,57.85,5
 0.6,37.75\H,0,57.84,52.38,40.06\H,0,55.93,53.33,39.22\H,0,58.23,53.1,3
 7.2\H,0,58.2,54.19,38.63\H,0,54.84,51.58,38.06\H,0,55.17,52.83,36.84\H
 ,0,56.04,51.32,36.88\H,0,57.76,55.61,36.78\H,0,56.66,54.33,36.03\H,0,5
 6.12,55.2,37.37\N,0,56.21,51.5,41.53\C,0,55.47,50.9,42.61\C,0,53.98,50
 .66,42.38\O,0,53.5,50.68,41.25\C,0,56.14,49.59,43.03\O,0,57.26,49.87,4
 3.84\H,0,56.57,52.44,41.68\H,0,55.42,51.64,43.41\H,0,56.38,49.,42.14\H
 ,0,55.53,48.91,43.62\H,0,57.72,50.64,43.51\N,0,53.27,50.35,43.47\C,0,5
 1.84,50.15,43.48\C,0,51.02,51.35,43.04\O,0,51.16,52.47,43.52\C,0,51.48
 ,49.63,44.87\H,0,53.82,50.39,44.32\H,0,51.59,49.26,42.9\H,0,51.87,48.6
 1,44.9\H,0,51.96,50.23,45.64\H,0,50.39,49.65,44.99\N,0,50.06,51.14,42.
 13\C,0,49.09,52.12,41.69\C,0,49.78,53.34,41.09\O,0,49.23,54.43,41.2\C,
 0,48.13,52.45,42.83\H,0,50.12,50.31,41.56\H,0,48.37,51.66,41.01\H,0,47
 .65,51.61,43.31\H,0,48.74,52.89,43.62\H,0,47.38,53.1,42.38\N,0,50.98,5
 3.28,40.52\C,0,51.65,54.36,39.81\C,0,51.27,54.28,38.34\O,0,51.31,55.33
 ,37.69\C,0,53.17,54.22,39.93\C,0,53.86,55.58,39.86\C,0,53.8,56.35,41.1
 8\O,0,54.33,55.92,42.23\O,0,53.19,57.43,41.27\H,0,51.38,52.35,40.52\H,
 0,51.33,55.27,40.31\H,0,53.45,53.71,39.02\H,0,53.42,53.58,40.77\H,0,53
 .46,56.17,39.04\H,0,54.94,55.51,39.72\N,0,50.75,53.13,37.9\C,0,50.02,5
 3.13,36.65\H,0,49.124,53.742,36.753\H,0,50.65,53.54,35.861\H,0,49.735,
 52.109,36.395\H,0,50.83,52.26,38.41\Ca,0,54.48,58.22,43.53\O,0,52.41,5
 6.95,44.5\H,0,51.75,56.27,44.35\H,0,52.31,57.19,45.42\\Version=ES64L-G
 16RevA.03\State=1-A\HF=-5333.3428807\RMSD=1.434e-09\Dipole=-11.6949093
 ,10.5126052,3.0265655\Quadrupole=-162.6734508,194.0897432,-31.4162924,
 -65.9199726,-23.1191507,-41.9548025\PG=C01 [X(C54H83Ca1N15O23)]\\@


 TO DRY ONE'S EYES AND LAUGH AT A FALL
 AND BAFFLED, GET UP AND BEGIN AGAIN.
           R. BROWNING
 Job cpu time:       0 days 13 hours 47 minutes 46.8 seconds.
 Elapsed time:       0 days  0 hours 17 minutes 27.3 seconds.
 File lengths (MBytes):  RWF=   1517 Int=      0 D2E=      0 Chk=    171 Scr=      1
 Normal termination of Gaussian 16 at Wed Sep 18 14:36:50 2019.
