 Entering Gaussian System, Link 0=g16
 Initial command:
 /home1/apps/gaussian/16rA.03/g16/l1.exe "/scratch/01990/pengzhi/4356751/Gau-125136.inp" -scrdir="/scratch/01990/pengzhi/4356751/"
 Entering Link 1 = /home1/apps/gaussian/16rA.03/g16/l1.exe PID=    125137.
  
 Copyright (c) 1988,1990,1992,1993,1995,1998,2003,2009,2016,
            Gaussian, Inc.  All Rights Reserved.
  
 This is part of the Gaussian(R) 16 program.  It is based on
 the Gaussian(R) 09 system (copyright 2009, Gaussian, Inc.),
 the Gaussian(R) 03 system (copyright 2003, Gaussian, Inc.),
 the Gaussian(R) 98 system (copyright 1998, Gaussian, Inc.),
 the Gaussian(R) 94 system (copyright 1995, Gaussian, Inc.),
 the Gaussian 92(TM) system (copyright 1992, Gaussian, Inc.),
 the Gaussian 90(TM) system (copyright 1990, Gaussian, Inc.),
 the Gaussian 88(TM) system (copyright 1988, Gaussian, Inc.),
 the Gaussian 86(TM) system (copyright 1986, Carnegie Mellon
 University), and the Gaussian 82(TM) system (copyright 1983,
 Carnegie Mellon University). Gaussian is a federally registered
 trademark of Gaussian, Inc.
  
 This software contains proprietary and confidential information,
 including trade secrets, belonging to Gaussian, Inc.
  
 This software is provided under written license and may be
 used, copied, transmitted, or stored only in accord with that
 written license.
  
 The following legend is applicable only to US Government
 contracts under FAR:
  
                    RESTRICTED RIGHTS LEGEND
  
 Use, reproduction and disclosure by the US Government is
 subject to restrictions as set forth in subparagraphs (a)
 and (c) of the Commercial Computer Software - Restricted
 Rights clause in FAR 52.227-19.
  
 Gaussian, Inc.
 340 Quinnipiac St., Bldg. 40, Wallingford CT 06492
  
  
 ---------------------------------------------------------------
 Warning -- This program may not be used in any manner that
 competes with the business of Gaussian, Inc. or will provide
 assistance to any competitor of Gaussian, Inc.  The licensee
 of this program is prohibited from giving any competitor of
 Gaussian, Inc. access to this program.  By using this program,
 the user acknowledges that Gaussian, Inc. is engaged in the
 business of creating and licensing software in the field of
 computational chemistry and represents and warrants to the
 licensee that it is not a competitor of Gaussian, Inc. and that
 it will not use this program in any manner prohibited above.
 ---------------------------------------------------------------
  

 Cite this work as:
 Gaussian 16, Revision A.03,
 M. J. Frisch, G. W. Trucks, H. B. Schlegel, G. E. Scuseria, 
 M. A. Robb, J. R. Cheeseman, G. Scalmani, V. Barone, 
 G. A. Petersson, H. Nakatsuji, X. Li, M. Caricato, A. V. Marenich, 
 J. Bloino, B. G. Janesko, R. Gomperts, B. Mennucci, H. P. Hratchian, 
 J. V. Ortiz, A. F. Izmaylov, J. L. Sonnenberg, D. Williams-Young, 
 F. Ding, F. Lipparini, F. Egidi, J. Goings, B. Peng, A. Petrone, 
 T. Henderson, D. Ranasinghe, V. G. Zakrzewski, J. Gao, N. Rega, 
 G. Zheng, W. Liang, M. Hada, M. Ehara, K. Toyota, R. Fukuda, 
 J. Hasegawa, M. Ishida, T. Nakajima, Y. Honda, O. Kitao, H. Nakai, 
 T. Vreven, K. Throssell, J. A. Montgomery, Jr., J. E. Peralta, 
 F. Ogliaro, M. J. Bearpark, J. J. Heyd, E. N. Brothers, K. N. Kudin, 
 V. N. Staroverov, T. A. Keith, R. Kobayashi, J. Normand, 
 K. Raghavachari, A. P. Rendell, J. C. Burant, S. S. Iyengar, 
 J. Tomasi, M. Cossi, J. M. Millam, M. Klene, C. Adamo, R. Cammi, 
 J. W. Ochterski, R. L. Martin, K. Morokuma, O. Farkas, 
 J. B. Foresman, and D. J. Fox, Gaussian, Inc., Wallingford CT, 2016.
 
 ******************************************
 Gaussian 16:  ES64L-G16RevA.03 25-Dec-2016
                18-Sep-2019 
 ******************************************
 %chk=Ng-31_loop3_33.0.chk
 %nprocshared=48
 Will use up to   48 processors via shared memory.
 %mem=10GB
 %nosave
 ----------------------------------------------------------------------
 #b3lyp/svp scf=(tight,noincore) Test #IOP(5/87=12) Density=Current Pop
 =(MK,readradii) iop(6/33=2) iop(6/42=6)
 ----------------------------------------------------------------------
 1/30=1,38=1,172=1/1;
 2/12=2,17=6,18=5,40=1/2;
 3/5=18,7=101,11=2,25=1,30=1,74=-5/1,2,3;
 4//1;
 5/5=4,32=2,38=5,87=12/2;
 6/7=2,8=2,9=2,10=2,15=8,20=101,22=-1,28=1,33=2,42=6/1,2;
 99/5=1,9=1/99;
 ----------------
 Ng-31_loop3_33.0
 ----------------
 Symbolic Z-matrix:
 Charge =  0 Multiplicity = 1
 C                     85.91     71.59     29.19 
 C                     85.18     70.75     30.23 
 O                     83.99     70.93     30.51 
 H                     86.905    71.177    29.023 
 H                     85.351    71.578    28.254 
 H                     85.998    72.616    29.548 
 N                     85.95     69.88     30.88 
 C                     85.58     69.06     32.02 
 C                     85.96     69.66     33.37 
 O                     85.19     69.54     34.31 
 C                     85.97     67.6      31.79 
 C                     87.4      67.4      31.32 
 O                     88.21     68.35     31.45 
 O                     87.67     66.34     30.72 
 H                     86.95     69.85     30.8 
 H                     84.49     68.97     32.01 
 H                     85.33     67.28     30.96 
 H                     85.78     67.07     32.72 
 N                     86.96     70.55     33.45 
 C                     87.17     71.46     34.55 
 C                     87.57     70.6      35.74 
 O                     88.34     69.66     35.6 
 C                     88.16     72.54     34.12 
 C                     87.51     73.63     33.28 
 C                     88.52     74.64     32.74 
 C                     87.92     75.87     32.06 
 N                     87.19     76.73     33. 
 H                     87.6      70.61     32.67 
 H                     86.2      71.93     34.68 
 H                     89.03     72.15     33.6 
 H                     88.57     72.94     35.05 
 H                     86.83     74.24     33.88 
 H                     86.92     73.24     32.45 
 H                     89.18     74.13     32.04 
 H                     89.24     74.98     33.48 
 H                     87.26     75.46     31.29 
 H                     88.78     76.43     31.7 
 H                     86.82     77.53     32.5 
 H                     86.39     76.28     33.42 
 H                     87.73     77.15     33.74 
 N                     87.05     71.01     36.91 
 C                     87.14     70.3      38.17 
 C                     86.11     69.18     38.3 
 O                     85.77     68.82     39.42 
 C                     87.25     71.28     39.33 
 C                     86.       72.14     39.53 
 O                     85.2      72.29     38.58 
 O                     85.82     72.78     40.58 
 H                     86.65     71.93     36.99 
 H                     88.05     69.71     38.17 
 H                     88.09     71.9      39.03 
 H                     87.36     70.73     40.26 
 N                     85.59     68.61     37.21 
 C                     84.81     67.39     37.11 
 C                     85.54     66.26     36.41 
 O                     86.77     66.35     36.43 
 H                     85.96     68.97     36.35 
 H                     83.96     67.68     36.49 
 H                     84.43     67.14     38.11 
 N                     84.89     65.3      35.75 
 C                     83.47     65.06     35.63 
 C                     83.17     64.67     34.19 
 O                     83.13     63.49     33.87 
 C                     83.19     63.94     36.63 
 C                     83.72     64.26     38.02 
 N                     84.86     63.68     38.41 
 O                     83.11     64.97     38.82 
 H                     85.48     64.67     35.21 
 H                     82.92     65.96     35.93 
 H                     83.74     63.04     36.34 
 H                     82.13     63.67     36.6 
 H                     85.23     62.96     37.8 
 H                     85.2      63.85     39.35 
 N                     82.91     65.61     33.28 
 C                     82.66     67.03     33.44 
 C                     81.53     67.47     34.36 
 O                     81.59     68.53     34.98 
 H                     82.52     65.23     32.44 
 H                     82.49     67.5      32.47 
 H                     83.62     67.41     33.8 
 N                     80.45     66.7      34.31 
 C                     79.29     67.02     35.12 
 C                     79.53     66.71     36.59 
 O                     80.33     65.83     36.92 
 C                     77.95     66.5      34.61 
 C                     77.48     67.22     33.36 
 C                     77.44     68.61     33.25 
 C                     77.14     66.41     32.27 
 C                     77.25     69.16     31.98 
 C                     76.71     66.92     31.04 
 C                     76.87     68.32     30.92 
 O                     76.72     68.93     29.71 
 H                     80.29     66.19     33.45 
 H                     79.34     68.11     35.06 
 H                     77.2      66.72     35.37 
 H                     77.99     65.42     34.57 
 H                     77.75     69.2      34.1 
 H                     77.11     65.33     32.31 
 H                     77.29     70.23     31.84 
 H                     76.5      66.31     30.18 
 H                     76.41     68.35     29.01 
 N                     78.91     67.44     37.51 
 C                     79.32     67.54     38.9 
 C                     78.23     67.12     39.88 
 O                     78.59     66.63     40.95 
 C                     79.82     68.95     39.21 
 C                     81.08     69.25     38.4 
 C                     78.78     69.98     38.79 
 C                     82.28     68.55     39.04 
 H                     78.17     68.08     37.27 
 H                     80.13     66.84     39.08 
 H                     79.99     69.05     40.29 
 H                     81.34     70.3      38.34 
 H                     80.98     69.01     37.34 
 H                     78.55     69.84     37.74 
 H                     77.82     69.85     39.3 
 H                     79.07     71.02     38.91 
 H                     82.34     67.55     38.61 
 H                     83.2      69.06     38.74 
 H                     82.28     68.51     40.13 
 N                     76.95     67.32     39.59 
 C                     75.81     67.06     40.45 
 C                     75.48     68.25     41.34 
 O                     74.65     69.08     40.96 
 C                     74.65     66.58     39.59 
 O                     74.87     65.37     38.91 
 H                     76.72     67.65     38.66 
 H                     76.1      66.29     41.17 
 H                     74.29     67.29     38.84 
 H                     73.82     66.44     40.29 
 H                     74.31     65.38     38.13 
 N                     76.01     68.26     42.56 
 C                     75.87     69.32     43.54 
 C                     77.15     69.8      44.21 
 O                     78.26     69.3      44.09 
 C                     74.89     68.69     44.53 
 H                     76.59     67.47     42.79 
 H                     75.39     70.15     43.02 
 H                     73.97     68.37     44.05 
 H                     75.36     67.87     45.08 
 H                     74.63     69.47     45.24 
 N                     77.08     70.7      45.19 
 C                     78.11     71.44     45.9 
 C                     79.18     72.06     45.01 
 O                     80.35     72.05     45.38 
 C                     78.74     70.5      46.93 
 H                     76.16     71.07     45.38 
 H                     77.6      72.2      46.48 
 H                     79.22     69.67     46.41 
 H                     79.45     71.09     47.51 
 H                     78.04     69.99     47.59 
 N                     78.75     72.42     43.8 
 C                     79.72     72.95     42.85 
 C                     79.2      74.16     42.09 
 O                     79.98     74.92     41.51 
 C                     80.06     71.75     41.98 
 C                     81.04     70.74     42.57 
 C                     82.4      71.37     42.85 
 O                     82.8      72.45     42.37 
 O                     83.15     70.78     43.66 
 H                     77.82     72.21     43.46 
 H                     80.54     73.45     43.36 
 H                     80.45     72.25     41.08 
 H                     79.12     71.24     41.78 
 H                     81.28     70.       41.81 
 H                     80.59     70.25     43.44 
 N                     77.88     74.35     41.99 
 C                     77.27     75.31     41.09 
 H                     76.356    75.699    41.539 
 H                     77.964    76.131    40.91 
 H                     77.03     74.822    40.145 
 H                     77.28     73.58     42.25 
 Ca                    85.3      72.13     43.19 
 O                     84.87     74.71     43.24 
 H                     85.44     75.46     43.39 
 H                     84.02     75.1      43.02 
 
 Stoichiometry    C54H83CaN15O23
 Framework group  C1[X(C54H83CaN15O23)]
 Deg. of freedom   522
 Full point group                 C1      NOp   1
 Largest Abelian subgroup         C1      NOp   1
 Largest concise Abelian subgroup C1      NOp   1
                         Standard orientation:                         
 ---------------------------------------------------------------------
 Center     Atomic      Atomic             Coordinates (Angstroms)
 Number     Number       Type             X           Y           Z
 ---------------------------------------------------------------------
      1          6           0        8.931572   -0.047394    3.401092
      2          6           0        7.715182    0.474990    2.647693
      3          8           0        6.762479    1.014187    3.220862
      4          1           0        9.690774   -0.367784    2.687338
      5          1           0        9.337806    0.744254    4.031162
      6          1           0        8.638181   -0.893107    4.023406
      7          7           0        7.717169    0.213901    1.342270
      8          6           0        6.637768    0.444690    0.398590
      9          6           0        5.758825   -0.775970    0.144920
     10          8           0        4.554004   -0.623106    0.018674
     11          6           0        7.144785    1.187126   -0.837664
     12          6           0        8.394699    0.589161   -1.458914
     13          8           0        8.723481   -0.577918   -1.134373
     14          8           0        9.098787    1.331167   -2.173189
     15          1           0        8.387058   -0.383111    0.892687
     16          1           0        5.992236    1.214137    0.831648
     17          1           0        7.436544    2.172360   -0.456755
     18          1           0        6.323404    1.217558   -1.549217
     19          7           0        6.245821   -2.007639    0.355459
     20          6           0        5.443870   -3.194983    0.526598
     21          6           0        4.792669   -3.463660   -0.822272
     22          8           0        5.426376   -3.327236   -1.859530
     23          6           0        6.318372   -4.307397    1.100340
     24          6           0        6.526494   -4.173745    2.602013
     25          6           0        7.504704   -5.206975    3.156399
     26          6           0        7.607476   -5.263369    4.680065
     27          7           0        6.367386   -5.736084    5.308410
     28          1           0        7.248610   -2.110966    0.428516
     29          1           0        4.725711   -2.909133    1.288987
     30          1           0        7.280991   -4.401960    0.606555
     31          1           0        5.803291   -5.236674    0.847088
     32          1           0        5.601849   -4.373432    3.149421
     33          1           0        6.852727   -3.178253    2.904778
     34          1           0        8.490620   -5.010541    2.737969
     35          1           0        7.331578   -6.216138    2.791411
     36          1           0        7.844948   -4.236990    4.974602
     37          1           0        8.379336   -6.004429    4.874650
     38          1           0        6.492316   -5.760031    6.313755
     39          1           0        5.577468   -5.128333    5.148503
     40          1           0        6.080591   -6.676957    5.089080
     41          7           0        3.524145   -3.901115   -0.739315
     42          6           0        2.620842   -4.091087   -1.856344
     43          6           0        1.962866   -2.793459   -2.320487
     44          8           0        0.889582   -2.854640   -2.906932
     45          6           0        1.706536   -5.283065   -1.608689
     46          6           0        0.739852   -5.084871   -0.438928
     47          8           0        1.001688   -4.229083    0.435183
     48          8           0       -0.241772   -5.830591   -0.281394
     49          1           0        3.162983   -4.239341    0.137021
     50          1           0        3.206753   -4.322815   -2.739073
     51          1           0        2.415009   -6.074743   -1.382168
     52          1           0        1.067727   -5.435783   -2.473617
     53          7           0        2.548845   -1.616706   -2.085370
     54          6           0        2.230750   -0.317458   -2.648904
     55          6           0        3.296594    0.212678   -3.588442
     56          8           0        4.018818   -0.652438   -4.089807
     57          1           0        3.433755   -1.691797   -1.619112
     58          1           0        2.191757    0.337086   -1.776521
     59          1           0        1.221924   -0.366004   -3.081124
     60          7           0        3.486107    1.519626   -3.777310
     61          6           0        2.737549    2.645148   -3.266172
     62          6           0        3.723600    3.725643   -2.846725
     63          8           0        4.025168    4.617245   -3.628072
     64          6           0        1.841953    3.063706   -4.430438
     65          6           0        1.038904    1.898689   -4.990121
     66          7           0        1.453484    1.335948   -6.130097
     67          8           0       -0.008345    1.502441   -4.477816
     68          1           0        4.309902    1.763225   -4.323772
     69          1           0        2.112181    2.318076   -2.426863
     70          1           0        2.459379    3.386289   -5.273840
     71          1           0        1.241361    3.932712   -4.144922
     72          1           0        2.205342    1.809316   -6.617983
     73          1           0        0.902096    0.588476   -6.536739
     74          7           0        4.232186    3.728487   -1.613586
     75          6           0        3.867829    2.950770   -0.444441
     76          6           0        2.427292    3.004488    0.044299
     77          8           0        1.906813    2.038580    0.599026
     78          1           0        4.686660    4.592095   -1.390574
     79          1           0        4.506991    3.209465    0.401283
     80          1           0        4.139186    1.931438   -0.732413
     81          7           0        1.860827    4.201380   -0.047181
     82          6           0        0.496803    4.397435    0.405701
     83          6           0       -0.506883    3.770781   -0.550604
     84          8           0       -0.231987    3.639944   -1.746687
     85          6           0        0.123359    5.817247    0.818947
     86          6           0        0.788392    6.244100    2.114064
     87          6           0        0.767259    5.469189    3.273748
     88          6           0        1.497746    7.450445    2.077330
     89          6           0        1.627759    5.826661    4.314543
     90          6           0        2.183814    7.970736    3.180284
     91          6           0        2.290923    7.063941    4.260215
     92          8           0        3.124307    7.331718    5.305426
     93          1           0        2.478113    5.003701   -0.024009
     94          1           0        0.508563    3.724989    1.267024
     95          1           0       -0.947028    5.829902    1.025370
     96          1           0        0.244827    6.469858   -0.034836
     97          1           0        0.243741    4.524724    3.248966
     98          1           0        1.513355    8.112727    1.222907
     99          1           0        1.698228    5.208881    5.197426
    100          1           0        2.776941    8.866798    3.147519
    101          1           0        3.528078    8.202719    5.276695
    102          7           0       -1.656704    3.314934   -0.067058
    103          6           0       -2.518951    2.362658   -0.745218
    104          6           0       -3.930793    2.889502   -0.977678
    105          8           0       -4.533308    2.474401   -1.967257
    106          6           0       -2.548446    1.035250    0.010638
    107          6           0       -1.161581    0.394774    0.000892
    108          6           0       -2.906044    1.271039    1.471949
    109          6           0       -0.902017   -0.245876   -1.363584
    110          1           0       -1.952254    3.513110    0.875373
    111          1           0       -2.129788    2.182537   -1.742519
    112          1           0       -3.309555    0.378464   -0.430547
    113          1           0       -1.020444   -0.389971    0.734346
    114          1           0       -0.365547    1.082638    0.291363
    115          1           0       -2.202608    1.977904    1.896825
    116          1           0       -3.883582    1.746823    1.600976
    117          1           0       -2.889133    0.392058    2.110075
    118          1           0       -0.463546    0.519868   -2.003802
    119          1           0       -0.138508   -1.022362   -1.260515
    120          1           0       -1.765346   -0.710787   -1.841309
    121          7           0       -4.486382    3.730995   -0.114132
    122          6           0       -5.842844    4.246398   -0.148344
    123          6           0       -6.821428    3.333737    0.577276
    124          8           0       -7.071714    3.537150    1.768150
    125          6           0       -5.831904    5.681649    0.357158
    126          8           0       -5.085402    6.583901   -0.419743
    127          1           0       -3.906770    4.096454    0.632319
    128          1           0       -6.192695    4.205321   -1.183388
    129          1           0       -5.496902    5.818491    1.389267
    130          1           0       -6.881159    5.993579    0.340898
    131          1           0       -4.805012    7.292702    0.164281
    132          7           0       -7.470646    2.434691   -0.157321
    133          6           0       -8.397968    1.437409    0.341779
    134          6           0       -8.185453    0.009308   -0.140990
    135          8           0       -7.388784   -0.353858   -0.995348
    136          6           0       -9.738516    2.016592   -0.110857
    137          1           0       -7.254779    2.436975   -1.140579
    138          1           0       -8.325471    1.475729    1.429426
    139          1           0       -9.894019    3.027044    0.255211
    140          1           0       -9.841493    1.965198   -1.198310
    141          1           0      -10.506943    1.389979    0.332964
    142          7           0       -9.060753   -0.935682    0.199809
    143          6           0       -9.046912   -2.377979    0.020400
    144          6           0       -7.730778   -3.054558    0.382935
    145          8           0       -7.316754   -3.976562   -0.313049
    146          6           0       -9.427136   -2.675675   -1.431567
    147          1           0       -9.790275   -0.648159    0.835834
    148          1           0       -9.862003   -2.771169    0.616327
    149          1           0       -8.673591   -2.247062   -2.093505
    150          1           0       -9.494390   -3.759431   -1.529296
    151          1           0      -10.343586   -2.204101   -1.782904
    152          7           0       -7.051495   -2.451482    1.359395
    153          6           0       -5.742698   -2.980934    1.721373
    154          6           0       -5.526808   -3.041279    3.225318
    155          8           0       -4.640704   -3.753814    3.704393
    156          6           0       -4.773347   -2.077649    0.975093
    157          6           0       -4.588260   -2.362922   -0.512510
    158          6           0       -4.026716   -3.759789   -0.754024
    159          8           0       -3.469171   -4.465498    0.110799
    160          8           0       -4.180889   -4.250981   -1.894928
    161          1           0       -7.330915   -1.564667    1.759501
    162          1           0       -5.682395   -4.049844    1.530860
    163          1           0       -3.853069   -2.233454    1.558971
    164          1           0       -5.151810   -1.063650    1.085865
    165          1           0       -3.794637   -1.725306   -0.895142
    166          1           0       -5.521588   -2.160689   -1.048700
    167          7           0       -6.256884   -2.252922    4.021550
    168          6           0       -5.969038   -2.038854    5.426903
    169          1           0       -6.901802   -1.883146    5.969144
    170          1           0       -5.456332   -2.912286    5.829801
    171          1           0       -5.333935   -1.159726    5.538915
    172          1           0       -6.779400   -1.507829    3.583015
    173         20           0       -2.589743   -6.266101   -1.623916
    174          8           0       -3.045914   -7.586843    0.587723
    175          1           0       -2.865971   -8.484242    0.856416
    176          1           0       -3.408681   -7.173065    1.375243
 ---------------------------------------------------------------------
 Rotational constants (GHZ):           0.0186613           0.0116134           0.0091829
 Standard basis: SVP (5D, 7F)
 There are  1809 symmetry adapted cartesian basis functions of A   symmetry.
 There are  1717 symmetry adapted basis functions of A   symmetry.
  1717 basis functions,  2922 primitive gaussians,  1809 cartesian basis functions
   358 alpha electrons      358 beta electrons
       nuclear repulsion energy     19761.2481992256 Hartrees.
 NAtoms=  176 NActive=  176 NUniq=  176 SFac= 1.00D+00 NAtFMM=   60 NAOKFM=T Big=T
 Integral buffers will be    131072 words long.
 Raffenetti 2 integral format.
 Two-electron integral symmetry is turned on.
 One-electron integrals computed using PRISM.
 NBasis=  1717 RedAO= T EigKep=  3.34D-04  NBF=  1717
 NBsUse=  1717 1.00D-06 EigRej= -1.00D+00 NBFU=  1717
 ExpMin= 1.98D-02 ExpMax= 3.51D+04 ExpMxC= 5.28D+03 IAcc=3 IRadAn=         5 AccDes= 0.00D+00
 Harris functional with IExCor=  402 and IRadAn=       5 diagonalized for initial guess.
 HarFok:  IExCor=  402 AccDes= 0.00D+00 IRadAn=         5 IDoV= 1 UseB2=F ITyADJ=14
 ICtDFT=  3500011 ScaDFX=  1.000000  1.000000  1.000000  1.000000
 FoFCou: FMM=F IPFlag=           0 FMFlag=      100000 FMFlg1=        2001
         NFxFlg=           0 DoJE=T BraDBF=F KetDBF=T FulRan=T
         wScrn=  0.000000 ICntrl=       500 IOpCl=  0 I1Cent=   200000004 NGrid=           0
         NMat0=    1 NMatS0=      1 NMatT0=    0 NMatD0=    1 NMtDS0=    0 NMtDT0=    0
 Petite list used in FoFCou.
 Requested convergence on RMS density matrix=1.00D-08 within 128 cycles.
 Requested convergence on MAX density matrix=1.00D-06.
 Requested convergence on             energy=1.00D-06.
 No special actions if energy rises.
 EnCoef did     2 forward-backward iterations
 EnCoef did     3 forward-backward iterations
 EnCoef did     4 forward-backward iterations
 EnCoef did     5 forward-backward iterations
 EnCoef did     9 forward-backward iterations
 EnCoef did     5 forward-backward iterations
 EnCoef did    18 forward-backward iterations
 Rare condition: small coef for last iteration:  0.000D+00
 EnCoef did   100 forward-backward iterations
 Rare condition: small coef for last iteration:  0.000D+00
 EnCoef did   100 forward-backward iterations
 Restarting incremental Fock formation.
 EnCoef did   100 forward-backward iterations
 Rare condition: small coef for last iteration:  0.125D-14
 EnCoef did   100 forward-backward iterations
 EnCoef did   100 forward-backward iterations
 Rare condition: small coef for last iteration:  0.634D-16
 EnCoef did   100 forward-backward iterations
 Rare condition: small coef for last iteration:  0.000D+00
 EnCoef did   100 forward-backward iterations
 EnCoef did   100 forward-backward iterations
 Rare condition: small coef for last iteration: -0.124D-15
 EnCoef did   100 forward-backward iterations
 Rare condition: small coef for last iteration:  0.000D+00
 EnCoef did   100 forward-backward iterations
 EnCoef did   100 forward-backward iterations
 Rare condition: small coef for last iteration:  0.000D+00
 EnCoef did   100 forward-backward iterations
 EnCoef did   100 forward-backward iterations
 Rare condition: small coef for last iteration: -0.138D-15
 EnCoef did    25 forward-backward iterations
 Rare condition: small coef for last iteration:  0.222D-15
 EnCoef did   100 forward-backward iterations
 Rare condition: small coef for last iteration:  0.000D+00
 EnCoef did   100 forward-backward iterations
 Rare condition: small coef for last iteration:  0.000D+00
 EnCoef did   100 forward-backward iterations
 EnCoef did   100 forward-backward iterations
 Rare condition: small coef for last iteration:  0.111D-15
 EnCoef did   100 forward-backward iterations
 Restarting incremental Fock formation.
 Restarting incremental Fock formation.
 SCF Done:  E(RB3LYP) =  -5333.29721378     A.U. after   61 cycles
            NFock= 61  Conv=0.24D-08     -V/T= 2.0081
 SCF density gives NOpUse=  1 NOpAll=  1.
 Hyperfine terms turned off by default for NAtoms > 100.

 **********************************************************************

            Population analysis using the SCF density.

 **********************************************************************

 Orbital symmetries:
 BldTbl:  Degeneracy threshold= 1.00D-02
       Occupied  (A) (A) (A) (A) (A) (A) (A) (A) (A) (A) (A) (A)
                 (A) (A) (A) (A) (A) (A) (A) (A) (A) (A) (A) (A)
                 (A) (A) (A) (A) (A) (A) (A) (A) (A) (A) (A) (A)
                 (A) (A) (A) (A) (A) (A) (A) (A) (A) (A) (A) (A)
                 (A) (A) (A) (A) (A) (A) (A) (A) (A) (A) (A) (A)
                 (A) (A) (A) (A) (A) (A) (A) (A) (A) (A) (A) (A)
                 (A) (A) (A) (A) (A) (A) (A) (A) (A) (A) (A) (A)
                 (A) (A) (A) (A) (A) (A) (A) (A) (A) (A) (A) (A)
                 (A) (A) (A) (A) (A) (A) (A) (A) (A) (A) (A) (A)
                 (A) (A) (A) (A) (A) (A) (A) (A) (A) (A) (A) (A)
                 (A) (A) (A) (A) (A) (A) (A) (A) (A) (A) (A) (A)
                 (A) (A) (A) (A) (A) (A) (A) (A) (A) (A) (A) (A)
                 (A) (A) (A) (A) (A) (A) (A) (A) (A) (A) (A) (A)
                 (A) (A) (A) (A) (A) (A) (A) (A) (A) (A) (A) (A)
                 (A) (A) (A) (A) (A) (A) (A) (A) (A) (A) (A) (A)
                 (A) (A) (A) (A) (A) (A) (A) (A) (A) (A) (A) (A)
                 (A) (A) (A) (A) (A) (A) (A) (A) (A) (A) (A) (A)
                 (A) (A) (A) (A) (A) (A) (A) (A) (A) (A) (A) (A)
                 (A) (A) (A) (A) (A) (A) (A) (A) (A) (A) (A) (A)
                 (A) (A) (A) (A) (A) (A) (A) (A) (A) (A) (A) (A)
                 (A) (A) (A) (A) (A) (A) (A) (A) (A) (A) (A) (A)
                 (A) (A) (A) (A) (A) (A) (A) (A) (A) (A) (A) (A)
                 (A) (A) (A) (A) (A) (A) (A) (A) (A) (A) (A) (A)
                 (A) (A) (A) (A) (A) (A) (A) (A) (A) (A) (A) (A)
                 (A) (A) (A) (A) (A) (A) (A) (A) (A) (A) (A) (A)
                 (A) (A) (A) (A) (A) (A) (A) (A) (A) (A) (A) (A)
                 (A) (A) (A) (A) (A) (A) (A) (A) (A) (A) (A) (A)
                 (A) (A) (A) (A) (A) (A) (A) (A) (A) (A) (A) (A)
                 (A) (A) (A) (A) (A) (A) (A) (A) (A) (A) (A) (A)
                 (A) (A) (A) (A) (A) (A) (A) (A) (A) (A)
       Virtual   (A) (A) (A) (A) (A) (A) (A) (A) (A) (A) (A) (A)
                 (A) (A) (A) (A) (A) (A) (A) (A) (A) (A) (A) (A)
                 (A) (A) (A) (A) (A) (A) (A) (A) (A) (A) (A) (A)
                 (A) (A) (A) (A) (A) (A) (A) (A) (A) (A) (A) (A)
                 (A) (A) (A) (A) (A) (A) (A) (A) (A) (A) (A) (A)
                 (A) (A) (A) (A) (A) (A) (A) (A) (A) (A) (A) (A)
                 (A) (A) (A) (A) (A) (A) (A) (A) (A) (A) (A) (A)
                 (A) (A) (A) (A) (A) (A) (A) (A) (A) (A) (A) (A)
                 (A) (A) (A) (A) (A) (A) (A) (A) (A) (A) (A) (A)
                 (A) (A) (A) (A) (A) (A) (A) (A) (A) (A) (A) (A)
                 (A) (A) (A) (A) (A) (A) (A) (A) (A) (A) (A) (A)
                 (A) (A) (A) (A) (A) (A) (A) (A) (A) (A) (A) (A)
                 (A) (A) (A) (A) (A) (A) (A) (A) (A) (A) (A) (A)
                 (A) (A) (A) (A) (A) (A) (A) (A) (A) (A) (A) (A)
                 (A) (A) (A) (A) (A) (A) (A) (A) (A) (A) (A) (A)
                 (A) (A) (A) (A) (A) (A) (A) (A) (A) (A) (A) (A)
                 (A) (A) (A) (A) (A) (A) (A) (A) (A) (A) (A) (A)
                 (A) (A) (A) (A) (A) (A) (A) (A) (A) (A) (A) (A)
                 (A) (A) (A) (A) (A) (A) (A) (A) (A) (A) (A) (A)
                 (A) (A) (A) (A) (A) (A) (A) (A) (A) (A) (A) (A)
                 (A) (A) (A) (A) (A) (A) (A) (A) (A) (A) (A) (A)
                 (A) (A) (A) (A) (A) (A) (A) (A) (A) (A) (A) (A)
                 (A) (A) (A) (A) (A) (A) (A) (A) (A) (A) (A) (A)
                 (A) (A) (A) (A) (A) (A) (A) (A) (A) (A) (A) (A)
                 (A) (A) (A) (A) (A) (A) (A) (A) (A) (A) (A) (A)
                 (A) (A) (A) (A) (A) (A) (A) (A) (A) (A) (A) (A)
                 (A) (A) (A) (A) (A) (A) (A) (A) (A) (A) (A) (A)
                 (A) (A) (A) (A) (A) (A) (A) (A) (A) (A) (A) (A)
                 (A) (A) (A) (A) (A) (A) (A) (A) (A) (A) (A) (A)
                 (A) (A) (A) (A) (A) (A) (A) (A) (A) (A) (A) (A)
                 (A) (A) (A) (A) (A) (A) (A) (A) (A) (A) (A) (A)
                 (A) (A) (A) (A) (A) (A) (A) (A) (A) (A) (A) (A)
                 (A) (A) (A) (A) (A) (A) (A) (A) (A) (A) (A) (A)
                 (A) (A) (A) (A) (A) (A) (A) (A) (A) (A) (A) (A)
                 (A) (A) (A) (A) (A) (A) (A) (A) (A) (A) (A) (A)
                 (A) (A) (A) (A) (A) (A) (A) (A) (A) (A) (A) (A)
                 (A) (A) (A) (A) (A) (A) (A) (A) (A) (A) (A) (A)
                 (A) (A) (A) (A) (A) (A) (A) (A) (A) (A) (A) (A)
                 (A) (A) (A) (A) (A) (A) (A) (A) (A) (A) (A) (A)
                 (A) (A) (A) (A) (A) (A) (A) (A) (A) (A) (A) (A)
                 (A) (A) (A) (A) (A) (A) (A) (A) (A) (A) (A) (A)
                 (A) (A) (A) (A) (A) (A) (A) (A) (A) (A) (A) (A)
                 (A) (A) (A) (A) (A) (A) (A) (A) (A) (A) (A) (A)
                 (A) (A) (A) (A) (A) (A) (A) (A) (A) (A) (A) (A)
                 (A) (A) (A) (A) (A) (A) (A) (A) (A) (A) (A) (A)
                 (A) (A) (A) (A) (A) (A) (A) (A) (A) (A) (A) (A)
                 (A) (A) (A) (A) (A) (A) (A) (A) (A) (A) (A) (A)
                 (A) (A) (A) (A) (A) (A) (A) (A) (A) (A) (A) (A)
                 (A) (A) (A) (A) (A) (A) (A) (A) (A) (A) (A) (A)
                 (A) (A) (A) (A) (A) (A) (A) (A) (A) (A) (A) (A)
                 (A) (A) (A) (A) (A) (A) (A) (A) (A) (A) (A) (A)
                 (A) (A) (A) (A) (A) (A) (A) (A) (A) (A) (A) (A)
                 (A) (A) (A) (A) (A) (A) (A) (A) (A) (A) (A) (A)
                 (A) (A) (A) (A) (A) (A) (A) (A) (A) (A) (A) (A)
                 (A) (A) (A) (A) (A) (A) (A) (A) (A) (A) (A) (A)
                 (A) (A) (A) (A) (A) (A) (A) (A) (A) (A) (A) (A)
                 (A) (A) (A) (A) (A) (A) (A) (A) (A) (A) (A) (A)
                 (A) (A) (A) (A) (A) (A) (A) (A) (A) (A) (A) (A)
                 (A) (A) (A) (A) (A) (A) (A) (A) (A) (A) (A) (A)
                 (A) (A) (A) (A) (A) (A) (A) (A) (A) (A) (A) (A)
                 (A) (A) (A) (A) (A) (A) (A) (A) (A) (A) (A) (A)
                 (A) (A) (A) (A) (A) (A) (A) (A) (A) (A) (A) (A)
                 (A) (A) (A) (A) (A) (A) (A) (A) (A) (A) (A) (A)
                 (A) (A) (A) (A) (A) (A) (A) (A) (A) (A) (A) (A)
                 (A) (A) (A) (A) (A) (A) (A) (A) (A) (A) (A) (A)
                 (A) (A) (A) (A) (A) (A) (A) (A) (A) (A) (A) (A)
                 (A) (A) (A) (A) (A) (A) (A) (A) (A) (A) (A) (A)
                 (A) (A) (A) (A) (A) (A) (A) (A) (A) (A) (A) (A)
                 (A) (A) (A) (A) (A) (A) (A) (A) (A) (A) (A) (A)
                 (A) (A) (A) (A) (A) (A) (A) (A) (A) (A) (A) (A)
                 (A) (A) (A) (A) (A) (A) (A) (A) (A) (A) (A) (A)
                 (A) (A) (A) (A) (A) (A) (A) (A) (A) (A) (A) (A)
                 (A) (A) (A) (A) (A) (A) (A) (A) (A) (A) (A) (A)
                 (A) (A) (A) (A) (A) (A) (A) (A) (A) (A) (A) (A)
                 (A) (A) (A) (A) (A) (A) (A) (A) (A) (A) (A) (A)
                 (A) (A) (A) (A) (A) (A) (A) (A) (A) (A) (A) (A)
                 (A) (A) (A) (A) (A) (A) (A) (A) (A) (A) (A) (A)
                 (A) (A) (A) (A) (A) (A) (A) (A) (A) (A) (A) (A)
                 (A) (A) (A) (A) (A) (A) (A) (A) (A) (A) (A) (A)
                 (A) (A) (A) (A) (A) (A) (A) (A) (A) (A) (A) (A)
                 (A) (A) (A) (A) (A) (A) (A) (A) (A) (A) (A) (A)
                 (A) (A) (A) (A) (A) (A) (A) (A) (A) (A) (A) (A)
                 (A) (A) (A) (A) (A) (A) (A) (A) (A) (A) (A) (A)
                 (A) (A) (A) (A) (A) (A) (A) (A) (A) (A) (A) (A)
                 (A) (A) (A) (A) (A) (A) (A) (A) (A) (A) (A) (A)
                 (A) (A) (A) (A) (A) (A) (A) (A) (A) (A) (A) (A)
                 (A) (A) (A) (A) (A) (A) (A) (A) (A) (A) (A) (A)
                 (A) (A) (A) (A) (A) (A) (A) (A) (A) (A) (A) (A)
                 (A) (A) (A) (A) (A) (A) (A) (A) (A) (A) (A) (A)
                 (A) (A) (A) (A) (A) (A) (A) (A) (A) (A) (A) (A)
                 (A) (A) (A) (A) (A) (A) (A) (A) (A) (A) (A) (A)
                 (A) (A) (A) (A) (A) (A) (A) (A) (A) (A) (A) (A)
                 (A) (A) (A) (A) (A) (A) (A) (A) (A) (A) (A) (A)
                 (A) (A) (A) (A) (A) (A) (A) (A) (A) (A) (A) (A)
                 (A) (A) (A) (A) (A) (A) (A) (A) (A) (A) (A) (A)
                 (A) (A) (A) (A) (A) (A) (A) (A) (A) (A) (A) (A)
                 (A) (A) (A) (A) (A) (A) (A) (A) (A) (A) (A) (A)
                 (A) (A) (A) (A) (A) (A) (A) (A) (A) (A) (A) (A)
                 (A) (A) (A) (A) (A) (A) (A) (A) (A) (A) (A) (A)
                 (A) (A) (A) (A) (A) (A) (A) (A) (A) (A) (A) (A)
                 (A) (A) (A) (A) (A) (A) (A) (A) (A) (A) (A) (A)
                 (A) (A) (A) (A) (A) (A) (A) (A) (A) (A) (A) (A)
                 (A) (A) (A) (A) (A) (A) (A) (A) (A) (A) (A) (A)
                 (A) (A) (A) (A) (A) (A) (A) (A) (A) (A) (A) (A)
                 (A) (A) (A) (A) (A) (A) (A) (A) (A) (A) (A) (A)
                 (A) (A) (A) (A) (A) (A) (A) (A) (A) (A) (A) (A)
                 (A) (A) (A) (A) (A) (A) (A) (A) (A) (A) (A) (A)
                 (A) (A) (A) (A) (A) (A) (A) (A) (A) (A) (A) (A)
                 (A) (A) (A) (A) (A) (A) (A) (A) (A) (A) (A) (A)
                 (A) (A) (A) (A) (A) (A) (A) (A) (A) (A) (A) (A)
                 (A) (A) (A) (A) (A) (A) (A) (A) (A) (A) (A) (A)
                 (A) (A) (A) (A) (A) (A) (A) (A) (A) (A) (A) (A)
                 (A) (A) (A) (A) (A) (A) (A) (A) (A) (A) (A) (A)
                 (A) (A) (A)
 The electronic state is 1-A.
 Alpha  occ. eigenvalues -- -145.46549 -19.19927 -19.15663 -19.13097 -19.10415
 Alpha  occ. eigenvalues --  -19.09809 -19.09298 -19.08400 -19.08305 -19.07348
 Alpha  occ. eigenvalues --  -19.07341 -19.06958 -19.05786 -19.05737 -19.05547
 Alpha  occ. eigenvalues --  -19.05211 -19.05074 -19.04728 -19.04609 -19.03398
 Alpha  occ. eigenvalues --  -19.03026 -19.01959 -18.96707 -18.95537 -15.52457
 Alpha  occ. eigenvalues --  -14.57978 -14.36817 -14.36152 -14.35572 -14.35473
 Alpha  occ. eigenvalues --  -14.35069 -14.34186 -14.34060 -14.33110 -14.31424
 Alpha  occ. eigenvalues --  -14.31370 -14.31243 -14.31042 -14.29868 -14.28157
 Alpha  occ. eigenvalues --  -12.66051 -12.66025 -12.65977 -10.34939 -10.29782
 Alpha  occ. eigenvalues --  -10.28561 -10.28126 -10.27245 -10.26856 -10.26549
 Alpha  occ. eigenvalues --  -10.26455 -10.26157 -10.25831 -10.25512 -10.25101
 Alpha  occ. eigenvalues --  -10.24430 -10.24427 -10.24275 -10.24247 -10.24059
 Alpha  occ. eigenvalues --  -10.24054 -10.23899 -10.23893 -10.23441 -10.22953
 Alpha  occ. eigenvalues --  -10.22580 -10.22285 -10.22007 -10.21890 -10.21539
 Alpha  occ. eigenvalues --  -10.21413 -10.21327 -10.20585 -10.20514 -10.20502
 Alpha  occ. eigenvalues --  -10.20095 -10.19970 -10.19430 -10.19248 -10.19200
 Alpha  occ. eigenvalues --  -10.19129 -10.18736 -10.18609 -10.17139 -10.17059
 Alpha  occ. eigenvalues --  -10.16887 -10.16546 -10.16497 -10.16226 -10.15735
 Alpha  occ. eigenvalues --  -10.15670 -10.15567 -10.15469 -10.15145 -10.12514
 Alpha  occ. eigenvalues --  -10.11008 -10.10475  -1.89095  -1.16501  -1.16219
 Alpha  occ. eigenvalues --   -1.15944  -1.13430  -1.05783  -1.04831  -1.04405
 Alpha  occ. eigenvalues --   -1.02961  -1.02327  -1.01710  -1.01630  -1.01325
 Alpha  occ. eigenvalues --   -1.00763  -1.00633  -1.00479  -0.99923  -0.99803
 Alpha  occ. eigenvalues --   -0.98459  -0.98164  -0.97657  -0.97266  -0.96883
 Alpha  occ. eigenvalues --   -0.95994  -0.93573  -0.93219  -0.92426  -0.91706
 Alpha  occ. eigenvalues --   -0.91446  -0.90893  -0.90680  -0.90408  -0.89662
 Alpha  occ. eigenvalues --   -0.89427  -0.89389  -0.88718  -0.88523  -0.88442
 Alpha  occ. eigenvalues --   -0.87230  -0.86885  -0.85616  -0.85184  -0.84598
 Alpha  occ. eigenvalues --   -0.81627  -0.80791  -0.80565  -0.79331  -0.77995
 Alpha  occ. eigenvalues --   -0.77769  -0.76273  -0.75800  -0.75241  -0.74801
 Alpha  occ. eigenvalues --   -0.73857  -0.73615  -0.73242  -0.73094  -0.72658
 Alpha  occ. eigenvalues --   -0.72375  -0.70771  -0.70438  -0.69185  -0.68747
 Alpha  occ. eigenvalues --   -0.68594  -0.68238  -0.68009  -0.67792  -0.67693
 Alpha  occ. eigenvalues --   -0.65758  -0.65636  -0.65022  -0.64071  -0.63561
 Alpha  occ. eigenvalues --   -0.62182  -0.61876  -0.61549  -0.61452  -0.60769
 Alpha  occ. eigenvalues --   -0.60159  -0.59944  -0.59390  -0.59250  -0.59190
 Alpha  occ. eigenvalues --   -0.58826  -0.58488  -0.58251  -0.58104  -0.57178
 Alpha  occ. eigenvalues --   -0.56976  -0.56780  -0.56667  -0.55751  -0.55441
 Alpha  occ. eigenvalues --   -0.55087  -0.55077  -0.54595  -0.54366  -0.54117
 Alpha  occ. eigenvalues --   -0.53942  -0.53155  -0.52379  -0.52247  -0.51342
 Alpha  occ. eigenvalues --   -0.51169  -0.50865  -0.50403  -0.50288  -0.50162
 Alpha  occ. eigenvalues --   -0.50043  -0.49281  -0.49204  -0.48794  -0.48736
 Alpha  occ. eigenvalues --   -0.48505  -0.48196  -0.48056  -0.47910  -0.47590
 Alpha  occ. eigenvalues --   -0.47333  -0.47205  -0.47111  -0.47013  -0.46379
 Alpha  occ. eigenvalues --   -0.46314  -0.46281  -0.45622  -0.45529  -0.45436
 Alpha  occ. eigenvalues --   -0.44418  -0.44306  -0.44120  -0.43998  -0.43590
 Alpha  occ. eigenvalues --   -0.43488  -0.43469  -0.43346  -0.43231  -0.43066
 Alpha  occ. eigenvalues --   -0.42925  -0.42850  -0.42796  -0.42325  -0.42220
 Alpha  occ. eigenvalues --   -0.42165  -0.42048  -0.41916  -0.41696  -0.41450
 Alpha  occ. eigenvalues --   -0.41216  -0.41167  -0.41046  -0.40994  -0.40979
 Alpha  occ. eigenvalues --   -0.40823  -0.40777  -0.40656  -0.40525  -0.40282
 Alpha  occ. eigenvalues --   -0.40042  -0.40032  -0.39890  -0.39511  -0.39287
 Alpha  occ. eigenvalues --   -0.39018  -0.38947  -0.38746  -0.38638  -0.38558
 Alpha  occ. eigenvalues --   -0.38357  -0.38234  -0.38090  -0.38076  -0.37995
 Alpha  occ. eigenvalues --   -0.37830  -0.37737  -0.37717  -0.37553  -0.37511
 Alpha  occ. eigenvalues --   -0.37364  -0.37176  -0.37112  -0.36965  -0.36744
 Alpha  occ. eigenvalues --   -0.36615  -0.36534  -0.36279  -0.36038  -0.35997
 Alpha  occ. eigenvalues --   -0.35837  -0.35470  -0.35401  -0.35144  -0.34924
 Alpha  occ. eigenvalues --   -0.34671  -0.34481  -0.34309  -0.34227  -0.34026
 Alpha  occ. eigenvalues --   -0.33822  -0.33590  -0.33495  -0.33290  -0.33175
 Alpha  occ. eigenvalues --   -0.33129  -0.33027  -0.32958  -0.32910  -0.32849
 Alpha  occ. eigenvalues --   -0.32716  -0.32552  -0.32408  -0.31828  -0.31318
 Alpha  occ. eigenvalues --   -0.31038  -0.30603  -0.30159  -0.30032  -0.28000
 Alpha  occ. eigenvalues --   -0.27640  -0.27437  -0.27353  -0.27057  -0.26467
 Alpha  occ. eigenvalues --   -0.26372  -0.26228  -0.26206  -0.26081  -0.25952
 Alpha  occ. eigenvalues --   -0.25725  -0.25639  -0.25558  -0.25104  -0.24703
 Alpha  occ. eigenvalues --   -0.24284  -0.23895  -0.23818  -0.23508  -0.23358
 Alpha  occ. eigenvalues --   -0.23338  -0.23035  -0.22818  -0.22805  -0.22604
 Alpha  occ. eigenvalues --   -0.22322  -0.21851  -0.21839  -0.21511  -0.21192
 Alpha  occ. eigenvalues --   -0.20957  -0.20918  -0.20698  -0.20611  -0.20228
 Alpha  occ. eigenvalues --   -0.19724  -0.19472  -0.18894  -0.18298  -0.17587
 Alpha  occ. eigenvalues --   -0.13762  -0.13583  -0.11334
 Alpha virt. eigenvalues --   -0.10475  -0.10294  -0.04440  -0.03820  -0.02225
 Alpha virt. eigenvalues --   -0.01684  -0.00669  -0.00631   0.00190   0.00300
 Alpha virt. eigenvalues --    0.01049   0.01775   0.02035   0.02122   0.02408
 Alpha virt. eigenvalues --    0.02751   0.02805   0.03076   0.03119   0.03738
 Alpha virt. eigenvalues --    0.04163   0.04332   0.04421   0.04811   0.04891
 Alpha virt. eigenvalues --    0.04922   0.05064   0.05425   0.06022   0.06071
 Alpha virt. eigenvalues --    0.06392   0.06503   0.06535   0.06793   0.07291
 Alpha virt. eigenvalues --    0.07451   0.07528   0.07875   0.07977   0.08065
 Alpha virt. eigenvalues --    0.08177   0.08206   0.08469   0.08828   0.09202
 Alpha virt. eigenvalues --    0.09343   0.09452   0.09568   0.09929   0.10166
 Alpha virt. eigenvalues --    0.10478   0.10615   0.11017   0.11145   0.11498
 Alpha virt. eigenvalues --    0.11689   0.11816   0.11890   0.12187   0.12231
 Alpha virt. eigenvalues --    0.12312   0.12527   0.12675   0.12897   0.13018
 Alpha virt. eigenvalues --    0.13159   0.13246   0.13363   0.13441   0.13804
 Alpha virt. eigenvalues --    0.13907   0.14173   0.14262   0.14360   0.14444
 Alpha virt. eigenvalues --    0.14601   0.14792   0.14896   0.15209   0.15275
 Alpha virt. eigenvalues --    0.15356   0.15524   0.15836   0.16060   0.16200
 Alpha virt. eigenvalues --    0.16355   0.16527   0.16935   0.17070   0.17116
 Alpha virt. eigenvalues --    0.17366   0.17688   0.17836   0.17939   0.18179
 Alpha virt. eigenvalues --    0.18577   0.18629   0.18888   0.19082   0.19289
 Alpha virt. eigenvalues --    0.19568   0.19831   0.20050   0.20131   0.20470
 Alpha virt. eigenvalues --    0.20551   0.20754   0.20858   0.21011   0.21129
 Alpha virt. eigenvalues --    0.21305   0.21703   0.21914   0.22016   0.22176
 Alpha virt. eigenvalues --    0.22292   0.22783   0.22856   0.23156   0.23285
 Alpha virt. eigenvalues --    0.23428   0.23610   0.23642   0.24298   0.24443
 Alpha virt. eigenvalues --    0.24710   0.24951   0.25233   0.25349   0.25606
 Alpha virt. eigenvalues --    0.25693   0.25785   0.25923   0.26119   0.26297
 Alpha virt. eigenvalues --    0.26700   0.26807   0.26973   0.27195   0.27511
 Alpha virt. eigenvalues --    0.27836   0.27973   0.28006   0.28266   0.28485
 Alpha virt. eigenvalues --    0.28774   0.29133   0.29387   0.29469   0.29779
 Alpha virt. eigenvalues --    0.29923   0.30076   0.30318   0.30490   0.30795
 Alpha virt. eigenvalues --    0.31049   0.31148   0.31317   0.31730   0.31796
 Alpha virt. eigenvalues --    0.32161   0.32388   0.32537   0.32891   0.33114
 Alpha virt. eigenvalues --    0.33216   0.33883   0.34143   0.34506   0.34856
 Alpha virt. eigenvalues --    0.34956   0.35617   0.36380   0.36548   0.36846
 Alpha virt. eigenvalues --    0.36889   0.37068   0.37195   0.37542   0.37617
 Alpha virt. eigenvalues --    0.37846   0.38107   0.38271   0.39020   0.39111
 Alpha virt. eigenvalues --    0.39366   0.39512   0.39635   0.39919   0.40426
 Alpha virt. eigenvalues --    0.40940   0.41152   0.41491   0.41770   0.41826
 Alpha virt. eigenvalues --    0.42060   0.42208   0.42349   0.42663   0.42804
 Alpha virt. eigenvalues --    0.42923   0.43410   0.43630   0.43662   0.44044
 Alpha virt. eigenvalues --    0.44127   0.44197   0.44449   0.44864   0.44931
 Alpha virt. eigenvalues --    0.45205   0.45440   0.45623   0.45758   0.45817
 Alpha virt. eigenvalues --    0.46178   0.46519   0.46816   0.46852   0.47024
 Alpha virt. eigenvalues --    0.47143   0.47302   0.47621   0.47859   0.48075
 Alpha virt. eigenvalues --    0.48333   0.48520   0.48686   0.48846   0.48995
 Alpha virt. eigenvalues --    0.49216   0.49427   0.49818   0.49998   0.50373
 Alpha virt. eigenvalues --    0.50503   0.50609   0.50834   0.51041   0.51212
 Alpha virt. eigenvalues --    0.51311   0.51468   0.51653   0.51791   0.52249
 Alpha virt. eigenvalues --    0.52392   0.52496   0.52669   0.52851   0.53030
 Alpha virt. eigenvalues --    0.53289   0.53333   0.53963   0.54046   0.54303
 Alpha virt. eigenvalues --    0.54444   0.54678   0.54760   0.54894   0.55155
 Alpha virt. eigenvalues --    0.55240   0.55486   0.55721   0.56147   0.56193
 Alpha virt. eigenvalues --    0.56388   0.56521   0.56547   0.56802   0.57058
 Alpha virt. eigenvalues --    0.57173   0.57577   0.57723   0.57933   0.58207
 Alpha virt. eigenvalues --    0.58365   0.58482   0.58534   0.58710   0.58856
 Alpha virt. eigenvalues --    0.59028   0.59130   0.59169   0.59525   0.59671
 Alpha virt. eigenvalues --    0.59759   0.59959   0.60126   0.60435   0.60500
 Alpha virt. eigenvalues --    0.60569   0.60736   0.60828   0.60980   0.61052
 Alpha virt. eigenvalues --    0.61110   0.61502   0.61771   0.61901   0.62099
 Alpha virt. eigenvalues --    0.62157   0.62385   0.62497   0.62524   0.62609
 Alpha virt. eigenvalues --    0.62833   0.63041   0.63203   0.63217   0.63318
 Alpha virt. eigenvalues --    0.63612   0.63781   0.63847   0.63945   0.64026
 Alpha virt. eigenvalues --    0.64178   0.64351   0.64527   0.64587   0.64733
 Alpha virt. eigenvalues --    0.64818   0.64882   0.64995   0.65091   0.65253
 Alpha virt. eigenvalues --    0.65388   0.65467   0.65544   0.65626   0.65832
 Alpha virt. eigenvalues --    0.65933   0.66030   0.66162   0.66217   0.66368
 Alpha virt. eigenvalues --    0.66487   0.66653   0.66781   0.66881   0.67056
 Alpha virt. eigenvalues --    0.67181   0.67295   0.67419   0.67478   0.67536
 Alpha virt. eigenvalues --    0.67595   0.67873   0.67891   0.68074   0.68130
 Alpha virt. eigenvalues --    0.68159   0.68263   0.68418   0.68565   0.68681
 Alpha virt. eigenvalues --    0.68794   0.68872   0.68932   0.69118   0.69152
 Alpha virt. eigenvalues --    0.69377   0.69390   0.69451   0.69515   0.69654
 Alpha virt. eigenvalues --    0.69802   0.69949   0.70078   0.70122   0.70272
 Alpha virt. eigenvalues --    0.70402   0.70607   0.70794   0.70857   0.71093
 Alpha virt. eigenvalues --    0.71346   0.71509   0.71680   0.71776   0.71947
 Alpha virt. eigenvalues --    0.72011   0.72102   0.72400   0.72509   0.72623
 Alpha virt. eigenvalues --    0.72987   0.73057   0.73118   0.73317   0.73610
 Alpha virt. eigenvalues --    0.73726   0.73936   0.73975   0.74117   0.74448
 Alpha virt. eigenvalues --    0.74560   0.74640   0.74939   0.75049   0.75210
 Alpha virt. eigenvalues --    0.75265   0.75710   0.75990   0.76095   0.76393
 Alpha virt. eigenvalues --    0.76644   0.76733   0.76844   0.77117   0.77309
 Alpha virt. eigenvalues --    0.77393   0.77769   0.77809   0.77869   0.78016
 Alpha virt. eigenvalues --    0.78196   0.78369   0.78554   0.78908   0.79069
 Alpha virt. eigenvalues --    0.79396   0.79586   0.79743   0.79933   0.80137
 Alpha virt. eigenvalues --    0.80370   0.80545   0.80778   0.80843   0.81230
 Alpha virt. eigenvalues --    0.81543   0.81794   0.81958   0.82027   0.82425
 Alpha virt. eigenvalues --    0.82569   0.82801   0.82946   0.83428   0.83532
 Alpha virt. eigenvalues --    0.83793   0.83916   0.84266   0.84615   0.84773
 Alpha virt. eigenvalues --    0.85000   0.85350   0.85550   0.85858   0.85981
 Alpha virt. eigenvalues --    0.86143   0.86487   0.86834   0.86966   0.87222
 Alpha virt. eigenvalues --    0.87351   0.88117   0.88248   0.88534   0.88602
 Alpha virt. eigenvalues --    0.88813   0.89270   0.89530   0.89782   0.89949
 Alpha virt. eigenvalues --    0.90227   0.90538   0.90848   0.91131   0.91400
 Alpha virt. eigenvalues --    0.91542   0.91952   0.92121   0.92402   0.92580
 Alpha virt. eigenvalues --    0.92902   0.93569   0.93764   0.94083   0.94448
 Alpha virt. eigenvalues --    0.94654   0.95019   0.95289   0.95511   0.95591
 Alpha virt. eigenvalues --    0.95766   0.95929   0.96222   0.96388   0.96648
 Alpha virt. eigenvalues --    0.96966   0.97202   0.97400   0.97722   0.98080
 Alpha virt. eigenvalues --    0.98388   0.98696   0.98850   0.99139   0.99588
 Alpha virt. eigenvalues --    0.99736   1.00104   1.00244   1.00446   1.00796
 Alpha virt. eigenvalues --    1.01297   1.01606   1.02452   1.02688   1.02861
 Alpha virt. eigenvalues --    1.03252   1.03618   1.03764   1.03924   1.04196
 Alpha virt. eigenvalues --    1.04384   1.04539   1.04697   1.05134   1.05218
 Alpha virt. eigenvalues --    1.05511   1.05761   1.05973   1.06255   1.06436
 Alpha virt. eigenvalues --    1.06737   1.06900   1.07165   1.07634   1.07713
 Alpha virt. eigenvalues --    1.07957   1.08144   1.08542   1.08704   1.08892
 Alpha virt. eigenvalues --    1.09167   1.09491   1.09732   1.09880   1.10215
 Alpha virt. eigenvalues --    1.10685   1.10925   1.11274   1.11301   1.11611
 Alpha virt. eigenvalues --    1.12375   1.12510   1.12705   1.12973   1.13471
 Alpha virt. eigenvalues --    1.13582   1.13710   1.14361   1.14483   1.14647
 Alpha virt. eigenvalues --    1.14833   1.15165   1.15217   1.15507   1.15726
 Alpha virt. eigenvalues --    1.15879   1.16097   1.16342   1.16550   1.16764
 Alpha virt. eigenvalues --    1.17082   1.17225   1.17862   1.18022   1.18558
 Alpha virt. eigenvalues --    1.18597   1.18795   1.18973   1.19097   1.19805
 Alpha virt. eigenvalues --    1.19854   1.20350   1.20495   1.20660   1.21084
 Alpha virt. eigenvalues --    1.21289   1.21987   1.22193   1.22304   1.22625
 Alpha virt. eigenvalues --    1.23141   1.23160   1.23399   1.23534   1.23781
 Alpha virt. eigenvalues --    1.24204   1.24411   1.24437   1.24553   1.24855
 Alpha virt. eigenvalues --    1.25393   1.25557   1.25845   1.26320   1.26409
 Alpha virt. eigenvalues --    1.26678   1.26860   1.27089   1.27701   1.28161
 Alpha virt. eigenvalues --    1.28235   1.28503   1.28657   1.28939   1.29022
 Alpha virt. eigenvalues --    1.29087   1.29746   1.29865   1.30136   1.30394
 Alpha virt. eigenvalues --    1.30504   1.31164   1.31482   1.31610   1.31951
 Alpha virt. eigenvalues --    1.32109   1.32298   1.32613   1.32822   1.33207
 Alpha virt. eigenvalues --    1.33345   1.33560   1.34031   1.34327   1.34750
 Alpha virt. eigenvalues --    1.34983   1.35547   1.36044   1.36101   1.36437
 Alpha virt. eigenvalues --    1.36779   1.37056   1.37421   1.37472   1.37702
 Alpha virt. eigenvalues --    1.38058   1.38154   1.38438   1.38525   1.38797
 Alpha virt. eigenvalues --    1.39922   1.40246   1.40458   1.40713   1.40877
 Alpha virt. eigenvalues --    1.41200   1.41529   1.41632   1.41874   1.41986
 Alpha virt. eigenvalues --    1.42187   1.42543   1.42889   1.43375   1.43759
 Alpha virt. eigenvalues --    1.43922   1.44379   1.44696   1.45111   1.45230
 Alpha virt. eigenvalues --    1.45283   1.45928   1.46005   1.46183   1.46840
 Alpha virt. eigenvalues --    1.47176   1.47695   1.47844   1.48012   1.48562
 Alpha virt. eigenvalues --    1.48656   1.49036   1.49212   1.49244   1.49896
 Alpha virt. eigenvalues --    1.50179   1.50282   1.50891   1.51258   1.51369
 Alpha virt. eigenvalues --    1.51619   1.51966   1.52080   1.52322   1.52436
 Alpha virt. eigenvalues --    1.52552   1.53031   1.53436   1.53835   1.54041
 Alpha virt. eigenvalues --    1.54449   1.54507   1.54923   1.55226   1.55749
 Alpha virt. eigenvalues --    1.55996   1.56109   1.56463   1.56674   1.57015
 Alpha virt. eigenvalues --    1.57026   1.57706   1.58307   1.58507   1.59711
 Alpha virt. eigenvalues --    1.59810   1.60304   1.60797   1.60808   1.61055
 Alpha virt. eigenvalues --    1.61521   1.61627   1.62039   1.62236   1.62458
 Alpha virt. eigenvalues --    1.62605   1.62961   1.63354   1.63665   1.63895
 Alpha virt. eigenvalues --    1.64238   1.64425   1.65039   1.65181   1.65411
 Alpha virt. eigenvalues --    1.65642   1.65890   1.66042   1.66482   1.66782
 Alpha virt. eigenvalues --    1.66980   1.67059   1.67322   1.67545   1.67939
 Alpha virt. eigenvalues --    1.68336   1.68869   1.69035   1.69153   1.69320
 Alpha virt. eigenvalues --    1.69602   1.70278   1.70426   1.70923   1.71078
 Alpha virt. eigenvalues --    1.71321   1.71411   1.71940   1.72096   1.72291
 Alpha virt. eigenvalues --    1.72483   1.72770   1.72972   1.73096   1.73518
 Alpha virt. eigenvalues --    1.73705   1.74101   1.74191   1.74309   1.74590
 Alpha virt. eigenvalues --    1.74721   1.74984   1.75070   1.75123   1.75397
 Alpha virt. eigenvalues --    1.75530   1.75876   1.75981   1.76339   1.76493
 Alpha virt. eigenvalues --    1.76797   1.77186   1.77244   1.77554   1.77713
 Alpha virt. eigenvalues --    1.77836   1.78021   1.78305   1.78335   1.78472
 Alpha virt. eigenvalues --    1.78679   1.79094   1.79177   1.79258   1.79318
 Alpha virt. eigenvalues --    1.79637   1.79693   1.79815   1.79865   1.80037
 Alpha virt. eigenvalues --    1.80344   1.80486   1.80549   1.80711   1.80986
 Alpha virt. eigenvalues --    1.81020   1.81124   1.81225   1.81648   1.81873
 Alpha virt. eigenvalues --    1.82155   1.82447   1.82588   1.82659   1.82851
 Alpha virt. eigenvalues --    1.83296   1.83457   1.83555   1.83766   1.83778
 Alpha virt. eigenvalues --    1.84030   1.84241   1.84308   1.84518   1.84665
 Alpha virt. eigenvalues --    1.84813   1.85126   1.85588   1.85848   1.86049
 Alpha virt. eigenvalues --    1.86227   1.86430   1.86586   1.86641   1.86730
 Alpha virt. eigenvalues --    1.86856   1.86923   1.87062   1.87353   1.87514
 Alpha virt. eigenvalues --    1.87886   1.88010   1.88241   1.88351   1.88536
 Alpha virt. eigenvalues --    1.88863   1.89031   1.89233   1.89518   1.89663
 Alpha virt. eigenvalues --    1.90089   1.90225   1.90371   1.90476   1.90655
 Alpha virt. eigenvalues --    1.90788   1.91182   1.91244   1.91499   1.91769
 Alpha virt. eigenvalues --    1.91913   1.92062   1.92375   1.92805   1.92867
 Alpha virt. eigenvalues --    1.92894   1.93039   1.93337   1.93406   1.93898
 Alpha virt. eigenvalues --    1.93948   1.94304   1.94408   1.94502   1.94708
 Alpha virt. eigenvalues --    1.94989   1.95250   1.95862   1.96069   1.96243
 Alpha virt. eigenvalues --    1.96267   1.96392   1.96478   1.96712   1.96913
 Alpha virt. eigenvalues --    1.97126   1.97441   1.97638   1.97846   1.98318
 Alpha virt. eigenvalues --    1.98614   1.98815   1.98895   1.99139   1.99403
 Alpha virt. eigenvalues --    1.99481   1.99855   1.99978   2.00331   2.00496
 Alpha virt. eigenvalues --    2.00832   2.01012   2.01251   2.01795   2.02149
 Alpha virt. eigenvalues --    2.02261   2.02585   2.02678   2.02873   2.03141
 Alpha virt. eigenvalues --    2.03198   2.03501   2.03949   2.04077   2.04220
 Alpha virt. eigenvalues --    2.04972   2.05031   2.05224   2.05390   2.05447
 Alpha virt. eigenvalues --    2.05898   2.06043   2.06114   2.06285   2.06669
 Alpha virt. eigenvalues --    2.07104   2.07211   2.07405   2.07513   2.07746
 Alpha virt. eigenvalues --    2.07951   2.08312   2.08522   2.08651   2.09030
 Alpha virt. eigenvalues --    2.09270   2.09618   2.09798   2.10192   2.10535
 Alpha virt. eigenvalues --    2.10588   2.10907   2.11434   2.11856   2.12072
 Alpha virt. eigenvalues --    2.12238   2.12562   2.12926   2.13174   2.13391
 Alpha virt. eigenvalues --    2.13674   2.14251   2.14352   2.14420   2.14646
 Alpha virt. eigenvalues --    2.15060   2.15074   2.15326   2.15619   2.16146
 Alpha virt. eigenvalues --    2.16463   2.16516   2.16726   2.16869   2.17027
 Alpha virt. eigenvalues --    2.17261   2.17533   2.17667   2.17737   2.17961
 Alpha virt. eigenvalues --    2.18637   2.18958   2.19010   2.19151   2.19391
 Alpha virt. eigenvalues --    2.19486   2.19912   2.20427   2.20799   2.21092
 Alpha virt. eigenvalues --    2.21336   2.21485   2.21775   2.21966   2.22452
 Alpha virt. eigenvalues --    2.22995   2.23461   2.24011   2.24099   2.24980
 Alpha virt. eigenvalues --    2.25080   2.25538   2.26152   2.26332   2.26885
 Alpha virt. eigenvalues --    2.27102   2.27255   2.28023   2.28250   2.28709
 Alpha virt. eigenvalues --    2.29103   2.29495   2.29590   2.30118   2.30229
 Alpha virt. eigenvalues --    2.30475   2.30660   2.31195   2.31403   2.31995
 Alpha virt. eigenvalues --    2.32236   2.32750   2.33250   2.33324   2.33584
 Alpha virt. eigenvalues --    2.33855   2.34020   2.34218   2.34776   2.34977
 Alpha virt. eigenvalues --    2.35123   2.35308   2.35450   2.35888   2.36152
 Alpha virt. eigenvalues --    2.36419   2.36974   2.37279   2.37440   2.37606
 Alpha virt. eigenvalues --    2.38241   2.38310   2.38659   2.38725   2.39556
 Alpha virt. eigenvalues --    2.39957   2.40252   2.40443   2.40678   2.41001
 Alpha virt. eigenvalues --    2.41595   2.41672   2.41857   2.42065   2.42419
 Alpha virt. eigenvalues --    2.42677   2.42844   2.43174   2.43318   2.43593
 Alpha virt. eigenvalues --    2.44003   2.44208   2.44493   2.44912   2.45309
 Alpha virt. eigenvalues --    2.45335   2.45926   2.46320   2.46521   2.47079
 Alpha virt. eigenvalues --    2.47322   2.47656   2.47806   2.47916   2.48475
 Alpha virt. eigenvalues --    2.48608   2.49766   2.49982   2.50402   2.51306
 Alpha virt. eigenvalues --    2.51745   2.52009   2.52326   2.52583   2.52819
 Alpha virt. eigenvalues --    2.53244   2.53754   2.53849   2.54010   2.54613
 Alpha virt. eigenvalues --    2.54824   2.55192   2.55891   2.56230   2.56532
 Alpha virt. eigenvalues --    2.56880   2.56975   2.57032   2.57789   2.58148
 Alpha virt. eigenvalues --    2.58270   2.58397   2.58819   2.59418   2.59837
 Alpha virt. eigenvalues --    2.60031   2.60626   2.60660   2.60965   2.61177
 Alpha virt. eigenvalues --    2.61324   2.61499   2.61992   2.62037   2.62593
 Alpha virt. eigenvalues --    2.62813   2.62987   2.63051   2.63194   2.63749
 Alpha virt. eigenvalues --    2.64199   2.64499   2.64956   2.65225   2.66006
 Alpha virt. eigenvalues --    2.66325   2.66673   2.66963   2.67286   2.67397
 Alpha virt. eigenvalues --    2.67663   2.68141   2.69476   2.69545   2.69699
 Alpha virt. eigenvalues --    2.70191   2.70303   2.70650   2.70844   2.71078
 Alpha virt. eigenvalues --    2.71290   2.71306   2.71514   2.72153   2.72235
 Alpha virt. eigenvalues --    2.72488   2.72571   2.73021   2.73160   2.73426
 Alpha virt. eigenvalues --    2.73493   2.74256   2.74437   2.74607   2.75121
 Alpha virt. eigenvalues --    2.75396   2.75578   2.75782   2.76059   2.76152
 Alpha virt. eigenvalues --    2.76501   2.76685   2.76954   2.77550   2.78199
 Alpha virt. eigenvalues --    2.78294   2.78530   2.78713   2.78863   2.79001
 Alpha virt. eigenvalues --    2.79323   2.79764   2.79940   2.80090   2.80116
 Alpha virt. eigenvalues --    2.80457   2.80633   2.81057   2.81209   2.81364
 Alpha virt. eigenvalues --    2.81511   2.81774   2.82195   2.82586   2.82756
 Alpha virt. eigenvalues --    2.82904   2.83275   2.83338   2.83583   2.83743
 Alpha virt. eigenvalues --    2.83906   2.84065   2.85004   2.85733   2.86014
 Alpha virt. eigenvalues --    2.86494   2.86839   2.87208   2.87341   2.87398
 Alpha virt. eigenvalues --    2.87681   2.88022   2.88191   2.88276   2.88437
 Alpha virt. eigenvalues --    2.88580   2.89011   2.89209   2.89482   2.89884
 Alpha virt. eigenvalues --    2.90243   2.90673   2.90952   2.91167   2.91213
 Alpha virt. eigenvalues --    2.92251   2.92347   2.93082   2.93179   2.93266
 Alpha virt. eigenvalues --    2.93327   2.93989   2.94064   2.94653   2.94734
 Alpha virt. eigenvalues --    2.94848   2.95046   2.95407   2.95908   2.96382
 Alpha virt. eigenvalues --    2.96407   2.96726   2.96995   2.97243   2.97489
 Alpha virt. eigenvalues --    2.98143   2.98259   2.98572   2.98941   2.99062
 Alpha virt. eigenvalues --    2.99194   2.99683   2.99898   3.00191   3.00406
 Alpha virt. eigenvalues --    3.00658   3.00870   3.01088   3.01370   3.01908
 Alpha virt. eigenvalues --    3.02470   3.03035   3.03471   3.04578   3.04851
 Alpha virt. eigenvalues --    3.05059   3.05486   3.05576   3.05824   3.06006
 Alpha virt. eigenvalues --    3.06521   3.07180   3.07691   3.08228   3.08558
 Alpha virt. eigenvalues --    3.09117   3.09527   3.09787   3.10562   3.11031
 Alpha virt. eigenvalues --    3.11382   3.11768   3.12155   3.12467   3.12981
 Alpha virt. eigenvalues --    3.13042   3.13320   3.13626   3.14676   3.14870
 Alpha virt. eigenvalues --    3.15028   3.15135   3.15262   3.15276   3.16376
 Alpha virt. eigenvalues --    3.16920   3.17172   3.17363   3.18275   3.18517
 Alpha virt. eigenvalues --    3.18774   3.18917   3.19245   3.19655   3.20017
 Alpha virt. eigenvalues --    3.20183   3.20745   3.21167   3.21348   3.21450
 Alpha virt. eigenvalues --    3.21968   3.22070   3.22170   3.22332   3.23109
 Alpha virt. eigenvalues --    3.23548   3.23956   3.24303   3.24502   3.25208
 Alpha virt. eigenvalues --    3.25410   3.25887   3.27043   3.28824   3.28838
 Alpha virt. eigenvalues --    3.28874   3.29391   3.30386   3.30792   3.32596
 Alpha virt. eigenvalues --    3.33198   3.34762   3.35556   3.35773   3.37303
 Alpha virt. eigenvalues --    3.37623   3.37727   3.39871   3.41026   3.41922
 Alpha virt. eigenvalues --    3.43664   3.44282   3.47341   3.49019   3.50032
 Alpha virt. eigenvalues --    3.53323   3.53414   3.53597   3.54120   3.54730
 Alpha virt. eigenvalues --    3.55402   3.55830   3.58082   3.58584   3.59684
 Alpha virt. eigenvalues --    3.59875   3.60249   3.61175   3.61708   3.63327
 Alpha virt. eigenvalues --    3.66620   3.66852   3.67429   3.67537   3.68154
 Alpha virt. eigenvalues --    3.69387   3.69620   3.70832   3.71061   3.71510
 Alpha virt. eigenvalues --    3.72171   3.72198   3.72391   3.73137   3.73934
 Alpha virt. eigenvalues --    3.74206   3.74649   3.74930   3.75359   3.75799
 Alpha virt. eigenvalues --    3.76118   3.77885   3.80735   3.81634
          Condensed to atoms (all electrons):
 Mulliken charges:
               1
     1  C    0.052382
     2  C    0.008448
     3  O   -0.308083
     4  H    0.013992
     5  H    0.029780
     6  H   -0.013762
     7  N   -0.129930
     8  C    0.091607
     9  C    0.129544
    10  O   -0.291833
    11  C    0.064072
    12  C    0.060185
    13  O   -0.408672
    14  O   -0.353283
    15  H    0.109568
    16  H   -0.007483
    17  H   -0.014000
    18  H    0.012991
    19  N   -0.126973
    20  C    0.114480
    21  C    0.063424
    22  O   -0.239324
    23  C    0.059693
    24  C    0.008039
    25  C   -0.043730
    26  C    0.056439
    27  N    0.100372
    28  H    0.101314
    29  H   -0.001854
    30  H    0.027633
    31  H   -0.005190
    32  H   -0.039298
    33  H    0.035129
    34  H    0.052591
    35  H    0.008867
    36  H    0.087195
    37  H    0.066341
    38  H    0.160352
    39  H    0.174610
    40  H    0.158730
    41  N   -0.151258
    42  C    0.143741
    43  C    0.060753
    44  O   -0.312735
    45  C    0.073642
    46  C    0.096952
    47  O   -0.339216
    48  O   -0.426565
    49  H    0.101413
    50  H    0.017517
    51  H   -0.009053
    52  H   -0.032456
    53  N   -0.119111
    54  C    0.142910
    55  C    0.013571
    56  O   -0.259571
    57  H    0.129293
    58  H    0.031226
    59  H    0.077143
    60  N   -0.142573
    61  C    0.015096
    62  C    0.065508
    63  O   -0.255979
    64  C    0.181487
    65  C   -0.034292
    66  N   -0.040176
    67  O   -0.254050
    68  H    0.130391
    69  H    0.065624
    70  H   -0.026637
    71  H    0.025717
    72  H    0.113121
    73  H    0.131037
    74  N   -0.102058
    75  C    0.134456
    76  C    0.044647
    77  O   -0.249333
    78  H    0.114816
    79  H    0.065475
    80  H    0.059696
    81  N   -0.099374
    82  C    0.034311
    83  C    0.079063
    84  O   -0.255506
    85  C    0.193293
    86  C   -0.014539
    87  C    0.008129
    88  C   -0.037895
    89  C    0.001213
    90  C   -0.020091
    91  C    0.137154
    92  O   -0.206106
    93  H    0.111187
    94  H    0.007938
    95  H   -0.015860
    96  H    0.004683
    97  H   -0.019640
    98  H   -0.026328
    99  H   -0.015296
   100  H   -0.035619
   101  H    0.172398
   102  N   -0.140540
   103  C    0.126493
   104  C    0.077786
   105  O   -0.272995
   106  C   -0.070861
   107  C    0.011692
   108  C    0.042223
   109  C   -0.020252
   110  H    0.107608
   111  H    0.052369
   112  H    0.014779
   113  H   -0.004316
   114  H    0.006566
   115  H   -0.034614
   116  H   -0.020791
   117  H    0.011714
   118  H    0.042024
   119  H    0.042403
   120  H    0.007976
   121  N   -0.111519
   122  C    0.127107
   123  C    0.059765
   124  O   -0.299884
   125  C    0.203291
   126  O   -0.293104
   127  H    0.099499
   128  H    0.006750
   129  H   -0.004737
   130  H   -0.010602
   131  H    0.165779
   132  N   -0.111002
   133  C    0.085477
   134  C    0.061565
   135  O   -0.234956
   136  C    0.060557
   137  H    0.135752
   138  H    0.013471
   139  H    0.036291
   140  H    0.028679
   141  H   -0.015113
   142  N   -0.140442
   143  C    0.050459
   144  C    0.096704
   145  O   -0.253720
   146  C    0.072521
   147  H    0.101260
   148  H    0.010526
   149  H    0.042540
   150  H    0.021605
   151  H   -0.014629
   152  N   -0.153746
   153  C    0.093577
   154  C    0.037901
   155  O   -0.278208
   156  C    0.064065
   157  C    0.107465
   158  C    0.092126
   159  O   -0.417752
   160  O   -0.458263
   161  H    0.107516
   162  H    0.032546
   163  H    0.029962
   164  H   -0.036156
   165  H    0.035711
   166  H    0.050262
   167  N   -0.152512
   168  C    0.120714
   169  H    0.012152
   170  H    0.046852
   171  H    0.026245
   172  H    0.092179
   173  Ca   1.349667
   174  O   -0.312160
   175  H    0.176979
   176  H    0.216075
 Sum of Mulliken charges =  -0.00000
 Mulliken charges with hydrogens summed into heavy atoms:
               1
     1  C    0.082393
     2  C    0.008448
     3  O   -0.308083
     7  N   -0.020363
     8  C    0.084124
     9  C    0.129544
    10  O   -0.291833
    11  C    0.063063
    12  C    0.060185
    13  O   -0.408672
    14  O   -0.353283
    19  N   -0.025658
    20  C    0.112626
    21  C    0.063424
    22  O   -0.239324
    23  C    0.082136
    24  C    0.003870
    25  C    0.017727
    26  C    0.209975
    27  N    0.594064
    41  N   -0.049845
    42  C    0.161258
    43  C    0.060753
    44  O   -0.312735
    45  C    0.032133
    46  C    0.096952
    47  O   -0.339216
    48  O   -0.426565
    53  N    0.010182
    54  C    0.251279
    55  C    0.013571
    56  O   -0.259571
    60  N   -0.012182
    61  C    0.080720
    62  C    0.065508
    63  O   -0.255979
    64  C    0.180567
    65  C   -0.034292
    66  N    0.203982
    67  O   -0.254050
    74  N    0.012758
    75  C    0.259627
    76  C    0.044647
    77  O   -0.249333
    81  N    0.011813
    82  C    0.042248
    83  C    0.079063
    84  O   -0.255506
    85  C    0.182115
    86  C   -0.014539
    87  C   -0.011511
    88  C   -0.064223
    89  C   -0.014083
    90  C   -0.055711
    91  C    0.137154
    92  O   -0.033708
   102  N   -0.032933
   103  C    0.178862
   104  C    0.077786
   105  O   -0.272995
   106  C   -0.056083
   107  C    0.013942
   108  C   -0.001467
   109  C    0.072150
   121  N   -0.012020
   122  C    0.133858
   123  C    0.059765
   124  O   -0.299884
   125  C    0.187952
   126  O   -0.127325
   132  N    0.024750
   133  C    0.098948
   134  C    0.061565
   135  O   -0.234956
   136  C    0.110414
   142  N   -0.039182
   143  C    0.060985
   144  C    0.096704
   145  O   -0.253720
   146  C    0.122037
   152  N   -0.046230
   153  C    0.126123
   154  C    0.037901
   155  O   -0.278208
   156  C    0.057871
   157  C    0.193438
   158  C    0.092126
   159  O   -0.417752
   160  O   -0.458263
   167  N   -0.060333
   168  C    0.205963
   173  Ca   1.349667
   174  O    0.080894
 DipInt: DoE/N= T F RetVal/Mat= T F Init=T NMatP=  1 IDeriv=0 Min/MaxMlt=  0  4
 Entering OneElI...
 OneElI was handed  1333951383 working-precision words.
 Multipole integrals L=0 to 4 MinM= 0 MaxM= 0.
 Requested accuracy = 0.1000D-12
 ShPair: Thresh= 1.00D-13 NBox=     0 BxSize= 0.00D+00 RnKept= 3.24D+01
         NSMCal=               327645 NSMKep=              136946
 PrmmSu-InSpLW:  IPartL=    0 NPrtUS=    1 NPrtUL=    1 DoSpLW=F IThBeg=    0 IThEnd=    0 NThAct=    1.
 PrsmSu:  NPrtUS=   1 ThrOK=F IAlg=1 NPAlg=1 LenDen=           0 ISkipM=0 DoSpLW=F IThBeg=    0 IThEnd=    0.
 Prism:   IPart=     0 DynPar=F LinDyn=F Incr=         512.
 PRISM was handed  1324811115 working-precision words and136946 shell-pairs
 IPart=  0 NShTot=      136946 NBatch=         317 AvBLen=       432.0
 PrsmSu-ThDecC:  IPartSL=    0    0 NPrtUSL=    1    1 IThBeg=    0 IThEnd=    0 CPU=   -1 GPU=   -1 NThAct=    1.
 PrSmSu:  NxtVal=            513.
 Electronic moments (au):
       -716.00000000         -4.81073509        -10.05258037         11.69883556
     -68963.92517286     -36942.53692816     -15427.54764952        -86.14648941
        128.41646772        -50.68217722      73725.52461099     -28538.15826528
     -12097.33847681      -1587.20080982      73741.75429390     -70050.11771501
     -48972.35362223     -12844.30495194     -59630.59206063      15563.73768203
  -13108950.27207221   -4148768.32832182   -1019964.08374690     468175.62390834
    -433621.68560828     -85688.28356847    -503756.59445402     -21228.11480260
     116112.89336760   -2338929.67968542   -1231610.26988383    -912088.10421372
     495098.12027922    -428191.22851326     -50655.01426933
 Electronic spatial extent (au):  <R**2>=         121334.0098
 DipInt: DoE/N= F T RetVal/Mat= T F Init=T NMatP=  1 IDeriv=0 Min/MaxMlt=  0  4
 Nuclear    moments (au):
        716.00000000         -0.00000000          0.00000000          0.00000000
      68549.43019812      36748.84758268      15076.03208884          0.00000000
         -0.00000000         -0.00000000     -76413.44332499      26407.12589456
      12742.71474372       2450.56683616     -75349.02837090      72449.27371496
      49649.24514449      11755.80001618      60609.29491099     -16696.32808768
   12863471.25389255    4074226.94980298     980036.28027481    -489988.90693342
     460091.54595703      83543.20285628     502646.54691821      30615.13363225
    -125916.93178142    2295725.23807765    1190997.73690332     893526.69910385
    -509220.80671155     444423.99196962      41228.56833691
 Total      moments (au):
          0.00000000         -4.81073509        -10.05258037         11.69883556
       -414.49497474       -193.68934548       -351.51556068        -86.14648941
        128.41646772        -50.68217722      -2687.91871400      -2131.03237073
        645.37626691        863.36602635      -1607.27407700       2399.15599995
        676.89152226      -1088.50493577        978.70285036      -1132.59040565
    -245479.01817966     -74541.37851885     -39927.80347210     -21813.28302508
      26469.86034875      -2145.08071218      -1110.04753581       9387.01882965
      -9804.03841382     -43204.44160776     -40612.53298051     -18561.40510986
     -14122.68643234      16232.76345636      -9426.44593242
 Traceless Quadrup. (au):
        -94.59501444        126.21061482        -31.61560038        -86.14648941
        128.41646772        -50.68217722
 Charge=              0.0000 electrons
 Dipole moment (field-independent basis, Debye):
    X=            -12.2277    Y=            -25.5511    Z=             29.7355  Tot=             41.0679
 Quadrupole moment (field-independent basis, Debye-Ang):
   XX=           -557.5099   YY=           -260.5188   ZZ=           -472.8005
   XY=           -115.8700   XZ=            172.7245   YZ=            -68.1693
 Traceless Quadrupole moment (field-independent basis, Debye-Ang):
   XX=           -127.2335   YY=            169.7576   ZZ=            -42.5241
   XY=           -115.8700   XZ=            172.7245   YZ=            -68.1693
 Octapole moment (field-independent basis, Debye-Ang**2):
  XXX=          -1913.1570  YYY=          -1516.7867  ZZZ=            459.3540  XYY=            614.5107
  XXY=          -1143.9958  XXZ=           1707.6268  XZZ=            481.7853  YZZ=           -774.7559
  YYZ=            696.6030  XYZ=           -806.1342
 Hexadecapole moment (field-independent basis, Debye-Ang**3):
 XXXX=         -92459.1694 YYYY=         -28075.8575 ZZZZ=         -15038.7254 XXXY=          -8215.9284
 XXXZ=           9969.8187 YYYX=           -807.9403 YYYZ=           -418.0971 ZZZX=           3535.6014
 ZZZY=          -3692.6710 XXYY=         -16272.8644 XXZZ=         -15296.6274 YYZZ=          -6991.1152
 XXYZ=          -5319.2809 YYXZ=           6114.0371 ZZXY=          -3550.4516
 N-N= 1.976124819923D+04 E-N=-5.201248192857D+04  KE= 5.290624872774D+03
 Leave Link  601 at Wed Sep 18 17:26:29 2019, MaxMem=  1342177280 cpu:              51.0 elap:               1.3
 FitSet:  NAtFit=   176 NAtPot=   176 NAtFrz=     0 MDM=   180 TotChg=   0.00000
 Merz-Kollman atomic radii used.
 Read replacement radii for each type of atom:
 Rad(20) =   1.700000000000D+00
 Atom Element Radius
    1     6    1.50
    2     6    1.50
    3     8    1.40
    4     1    1.20
    5     1    1.20
    6     1    1.20
    7     7    1.50
    8     6    1.50
    9     6    1.50
   10     8    1.40
   11     6    1.50
   12     6    1.50
   13     8    1.40
   14     8    1.40
   15     1    1.20
   16     1    1.20
   17     1    1.20
   18     1    1.20
   19     7    1.50
   20     6    1.50
   21     6    1.50
   22     8    1.40
   23     6    1.50
   24     6    1.50
   25     6    1.50
   26     6    1.50
   27     7    1.50
   28     1    1.20
   29     1    1.20
   30     1    1.20
   31     1    1.20
   32     1    1.20
   33     1    1.20
   34     1    1.20
   35     1    1.20
   36     1    1.20
   37     1    1.20
   38     1    1.20
   39     1    1.20
   40     1    1.20
   41     7    1.50
   42     6    1.50
   43     6    1.50
   44     8    1.40
   45     6    1.50
   46     6    1.50
   47     8    1.40
   48     8    1.40
   49     1    1.20
   50     1    1.20
   51     1    1.20
   52     1    1.20
   53     7    1.50
   54     6    1.50
   55     6    1.50
   56     8    1.40
   57     1    1.20
   58     1    1.20
   59     1    1.20
   60     7    1.50
   61     6    1.50
   62     6    1.50
   63     8    1.40
   64     6    1.50
   65     6    1.50
   66     7    1.50
   67     8    1.40
   68     1    1.20
   69     1    1.20
   70     1    1.20
   71     1    1.20
   72     1    1.20
[...]
 **** Fit       0.019405
 **** Fit       0.023405
 **** Fit       0.037902
 **** Fit       0.040800
 **** Fit       0.042248
 **** Fit       0.042171
 **** Fit       0.040501
 **** Fit       0.037273
 **** Fit       0.013656
 **** Fit       0.015821
 **** Fit       0.018365
 **** Fit       0.016187
 **** Fit       0.019563
 **** Fit       0.002648
 **** Fit       0.014713
 **** Fit       0.037271
 **** Fit       0.002987
 **** Fit       0.015917
 **** Fit       0.026197
 **** Fit       0.034342
 **** Fit       0.058317
 **** Fit       0.049191
 **** Fit       0.038522
 **** Fit      -0.003344
 **** Fit       0.011560
 **** Fit       0.023633
 **** Fit       0.033335
 **** Fit       0.041190
 **** Fit       0.047720
 **** Fit       0.053406
 **** Fit       0.073514
 **** Fit       0.070264
 **** Fit       0.065344
 **** Fit       0.058947
 **** Fit       0.051137
 **** Fit       0.041821
 **** Fit       0.030786
 **** Fit       0.006777
 **** Fit       0.020201
 **** Fit       0.031142
 **** Fit       0.040054
 **** Fit       0.047378
 **** Fit       0.053506
 **** Fit       0.058758
 **** Fit       0.063345
 **** Fit       0.067335
 **** Fit       0.070645
 **** Fit       0.073065
 **** Fit       0.074340
 **** Fit       0.074269
 **** Fit       0.072761
 **** Fit       0.069839
 **** Fit       0.065575
 **** Fit       0.060034
 **** Fit       0.053223
 **** Fit       0.045086
 **** Fit       0.035522
 **** Fit       0.002557
 **** Fit       0.017253
 **** Fit       0.029319
 **** Fit       0.039186
 **** Fit       0.047271
 **** Fit       0.053939
 **** Fit       0.059489
 **** Fit       0.064134
 **** Fit       0.067988
 **** Fit       0.071061
 **** Fit       0.073273
 **** Fit       0.074498
 **** Fit       0.074610
 **** Fit       0.073530
 **** Fit       0.071235
 **** Fit       0.067741
 **** Fit       0.063072
 **** Fit       0.057233
 **** Fit       0.050204
 **** Fit       0.041950
 **** Fit       0.032469
 **** Fit       0.014153
 **** Fit       0.027025
 **** Fit       0.037630
 **** Fit       0.046348
 **** Fit       0.053516
 **** Fit       0.059413
 **** Fit       0.064251
 **** Fit       0.068165
 **** Fit       0.071218
 **** Fit       0.073402
 **** Fit       0.074668
 **** Fit       0.074950
 **** Fit       0.074193
 **** Fit       0.072370
 **** Fit       0.069476
 **** Fit       0.065518
 **** Fit       0.060503
 **** Fit       0.054430
 **** Fit       0.047303
 **** Fit       0.039156
 **** Fit       0.030108
 **** Fit       0.018553
 **** Fit       0.030859
 **** Fit       0.041040
 **** Fit       0.049427
 **** Fit       0.056306
 **** Fit       0.061914
 **** Fit       0.066424
 **** Fit       0.069951
 **** Fit       0.072550
 **** Fit       0.074229
 **** Fit       0.074966
 **** Fit       0.074733
 **** Fit       0.073505
 **** Fit       0.071274
 **** Fit       0.068040
 **** Fit       0.063813
 **** Fit       0.058606
 **** Fit       0.052443
 **** Fit       0.045376
 **** Fit       0.037522
 **** Fit       0.023013
 **** Fit       0.034506
 **** Fit       0.044081
 **** Fit       0.051994
 **** Fit       0.058473
 **** Fit       0.063706
 **** Fit       0.067835
 **** Fit       0.070953
 **** Fit       0.073112
 **** Fit       0.074330
 **** Fit       0.074604
 **** Fit       0.073928
 **** Fit       0.072296
 **** Fit       0.069714
 **** Fit       0.066194
 **** Fit       0.061755
 **** Fit       0.056434
 **** Fit       0.050292
 **** Fit       0.043442
 **** Fit      -0.033743
 **** Fit       0.015080
 **** Fit       0.027921
 **** Fit       0.038778
 **** Fit       0.047823
 **** Fit       0.055249
 **** Fit       0.061242
 **** Fit       0.065955
 **** Fit       0.069503
 **** Fit       0.071962
 **** Fit       0.073374
 **** Fit       0.073759
 **** Fit       0.073128
 **** Fit       0.071489
 **** Fit       0.068858
 **** Fit       0.065260
 **** Fit       0.060737
 **** Fit       0.055351
 **** Fit       0.049207
 **** Fit       0.042482
 **** Fit      -0.022600
 **** Fit      -0.023072
 **** Fit       0.020755
 **** Fit       0.032564
 **** Fit       0.042641
 **** Fit       0.051035
 **** Fit       0.057862
 **** Fit       0.063252
 **** Fit       0.067323
 **** Fit       0.070164
 **** Fit       0.071835
 **** Fit       0.072374
 **** Fit       0.071809
 **** Fit       0.070165
 **** Fit       0.067473
 **** Fit       0.063779
 **** Fit       0.059147
 **** Fit       0.053673
 **** Fit       0.047499
 **** Fit       0.040823
 **** Fit       0.004725
 **** Fit      -0.002566
 **** Fit      -0.007167
 **** Fit      -0.009614
 **** Fit      -0.011414
 **** Fit      -0.013884
 **** Fit       0.014311
 **** Fit       0.026128
 **** Fit       0.036784
 **** Fit       0.045971
 **** Fit       0.053606
 **** Fit       0.059720
 **** Fit       0.064384
 **** Fit       0.067678
 **** Fit       0.069667
 **** Fit       0.070401
 **** Fit       0.069923
 **** Fit       0.068277
 **** Fit       0.065513
 **** Fit       0.061702
 **** Fit       0.056937
 **** Fit       0.051343
 **** Fit       0.045068
 **** Fit       0.038242
 **** Fit       0.034862
 **** Fit       0.027048
 **** Fit       0.019068
 **** Fit       0.011834
 **** Fit       0.006292
 **** Fit       0.002541
 **** Fit      -0.000214
 **** Fit      -0.002829
 **** Fit      -0.005418
 **** Fit       0.015186
 **** Fit       0.025793
 **** Fit       0.036014
 **** Fit       0.045130
 **** Fit       0.052787
 **** Fit       0.058857
 **** Fit       0.063332
 **** Fit       0.066251
 **** Fit       0.067666
 **** Fit       0.067635
 **** Fit       0.066222
 **** Fit       0.063507
 **** Fit       0.059596
 **** Fit       0.054623
 **** Fit       0.048748
 **** Fit       0.042127
 **** Fit       0.038321
 **** Fit       0.031037
 **** Fit       0.024011
 **** Fit       0.018038
 **** Fit       0.013556
 **** Fit       0.010333
 **** Fit       0.007981
 **** Fit       0.006689
 **** Fit       0.007353
 **** Fit       0.010901
 **** Fit       0.017420
 **** Fit       0.025984
 **** Fit       0.035240
 **** Fit       0.044018
 **** Fit       0.051562
 **** Fit       0.057487
 **** Fit       0.061638
 **** Fit       0.063988
 **** Fit       0.064575
 **** Fit       0.063478
 **** Fit       0.060814
 **** Fit       0.056745
 **** Fit       0.051479
 **** Fit       0.045252
 **** Fit       0.041045
 **** Fit       0.033999
 **** Fit       0.027627
 **** Fit       0.022713
 **** Fit       0.019503
 **** Fit       0.018120
 **** Fit       0.019179
 **** Fit       0.023348
 **** Fit       0.030325
 **** Fit       0.038718
 **** Fit       0.046881
 **** Fit       0.053595
 **** Fit       0.058199
 **** Fit       0.060437
 **** Fit       0.060297
 **** Fit       0.057936
 **** Fit       0.053644
 **** Fit       0.047834
 **** Fit       0.042930
 **** Fit       0.036092
 **** Fit       0.030739
 **** Fit       0.028095
 **** Fit       0.028999
 **** Fit       0.033850
 **** Fit       0.041365
 **** Fit       0.048891
 **** Fit       0.054136
 **** Fit       0.055965
 **** Fit       0.054235
 **** Fit       0.049513
 **** Fit       0.043919
 **** Fit       0.037791
 **** Fit       0.037179
 **** Fit       0.043132
 **** Fit       0.049414
 **** Fit       0.049623
 **** Fit       0.043987
 **** Fit       0.025287
 **** Fit       0.011873
 **** Fit       0.003357
 **** Fit       0.020797
 **** Fit       0.006130
 **** Fit      -0.003649
 **** Fit      -0.012386
 **** Fit       0.016082
 **** Fit      -0.000308
 **** Fit      -0.011858
 **** Fit      -0.022569
 **** Fit      -0.031228
 **** Fit      -0.037114
 **** Fit       0.040216
 **** Fit       0.011084
 **** Fit      -0.007468
 **** Fit       0.033659
 **** Fit       0.037482
 **** Fit       0.005543
 **** Fit       0.029014
 **** Fit       0.032908
 **** Fit       0.037003
 **** Fit       0.013387
 **** Fit       0.000020
 **** Fit       0.020466
 **** Fit       0.024818
 **** Fit       0.029015
 **** Fit       0.033266
 **** Fit       0.037726
 **** Fit       0.010891
 **** Fit       0.003997
 **** Fit       0.010513
 **** Fit       0.016127
 **** Fit       0.021064
 **** Fit       0.025592
 **** Fit       0.029969
 **** Fit       0.034399
 **** Fit       0.039020
 **** Fit      -0.006104
 **** Fit       0.002430
 **** Fit       0.009648
 **** Fit       0.015742
 **** Fit       0.020986
 **** Fit       0.025698
 **** Fit       0.030169
 **** Fit       0.034623
 **** Fit       0.039207
 **** Fit       0.025227
 **** Fit       0.008021
 **** Fit       0.014821
 **** Fit       0.020520
 **** Fit       0.025458
 **** Fit       0.029972
 **** Fit       0.034338
 **** Fit       0.038741
 **** Fit       0.043272
 **** Fit       0.030627
 **** Fit       0.023107
 **** Fit       0.027836
 **** Fit       0.032071
 **** Fit       0.036094
 **** Fit       0.040104
 **** Fit       0.044212
 **** Fit       0.048424
 **** Fit       0.047988
 **** Fit       0.037977
 **** Fit       0.041364
 **** Fit       0.044835
 **** Fit       0.048479
 **** Fit       0.052288
 **** Fit       0.056145
 **** Fit       0.054699
 **** Fit       0.057774
 **** Fit       0.061149
 **** Fit       0.064593
 **** Fit       0.067810
 **** Fit       0.035904
 **** Fit       0.040590
 **** Fit       0.038941
 **** Fit       0.033061
 **** Fit       0.042152
 **** Fit       0.042111
 **** Fit       0.041586
 **** Fit       0.039927
 **** Fit       0.036897
 **** Fit       0.030006
 **** Fit       0.042896
 **** Fit       0.043239
 **** Fit       0.043286
 **** Fit       0.042674
 **** Fit       0.041130
 **** Fit       0.038462
 **** Fit       0.034637
 **** Fit       0.026748
 **** Fit       0.042650
 **** Fit       0.043178
 **** Fit       0.043885
 **** Fit       0.044411
 **** Fit       0.044510
 **** Fit       0.043989
 **** Fit       0.042674
 **** Fit       0.040392
 **** Fit       0.036984
 **** Fit       0.032377
 **** Fit       0.023315
 **** Fit       0.041918
 **** Fit       0.042745
 **** Fit       0.043801
 **** Fit       0.044769
 **** Fit       0.045446
 **** Fit       0.045687
 **** Fit       0.045365
 **** Fit       0.044353
 **** Fit       0.042501
 **** Fit       0.039631
 **** Fit       0.035550
 **** Fit       0.030102
 **** Fit       0.019832
 **** Fit       0.041875
 **** Fit       0.043268
 **** Fit       0.044585
 **** Fit       0.045671
 **** Fit       0.046421
 **** Fit       0.046751
 **** Fit       0.046579
 **** Fit       0.045814
 **** Fit       0.044338
 **** Fit       0.041999
 **** Fit       0.038600
 **** Fit       0.033906
 **** Fit       0.027689
 **** Fit       0.016589
 **** Fit       0.041002
 **** Fit       0.042829
 **** Fit       0.044497
 **** Fit       0.045892
 **** Fit       0.046943
 **** Fit       0.047589
 **** Fit       0.047772
 **** Fit       0.047423
 **** Fit       0.046450
 **** Fit       0.044725
 **** Fit       0.042073
 **** Fit       0.038254
 **** Fit       0.032962
 **** Fit       0.025843
 **** Fit       0.040178
 **** Fit       0.042408
 **** Fit       0.044382
 **** Fit       0.046039
 **** Fit       0.047338
 **** Fit       0.048247
 **** Fit       0.048729
 **** Fit       0.048738
 **** Fit       0.048206
 **** Fit       0.047040
 **** Fit       0.045104
 **** Fit       0.042205
 **** Fit       0.038069
 **** Fit       0.032332
 **** Fit       0.024527
 **** Fit       0.041229
 **** Fit       0.043633
 **** Fit       0.045667
 **** Fit       0.047322
 **** Fit       0.048587
 **** Fit       0.049446
 **** Fit       0.049873
 **** Fit       0.049826
 **** Fit       0.049242
 **** Fit       0.048023
 **** Fit       0.046030
 **** Fit       0.043056
 **** Fit       0.038804
 **** Fit       0.032856
 **** Fit       0.024634
 **** Fit       0.043638
 **** Fit       0.046005
 **** Fit       0.047931
 **** Fit       0.049428
 **** Fit       0.050496
 **** Fit       0.051118
 **** Fit       0.051263
 **** Fit       0.050873
 **** Fit       0.049857
 **** Fit       0.048078
 **** Fit       0.045327
 **** Fit       0.041293
 **** Fit       0.035513
 **** Fit       0.027306
 **** Fit       0.046026
 **** Fit       0.048350
 **** Fit       0.050204
 **** Fit       0.051608
 **** Fit       0.052559
 **** Fit       0.053040
 **** Fit       0.053006
 **** Fit       0.052385
 **** Fit       0.051059
 **** Fit       0.048842
 **** Fit       0.045452
 **** Fit       0.040454
 **** Fit       0.049669
 **** Fit       0.051699
 **** Fit       0.053322
 **** Fit       0.054537
 **** Fit       0.055334
 **** Fit       0.055685
 **** Fit       0.055541
 **** Fit       0.054824
 **** Fit       0.053412
 **** Fit       0.051120
 **** Fit       0.047677
 **** Fit       0.056822
 **** Fit       0.058058
 **** Fit       0.058972
 **** Fit       0.059530
 **** Fit       0.059700
 **** Fit       0.059450
 **** Fit       0.058755
 **** Fit       0.057637
 **** Fit       0.063532
 **** Fit       0.064472
 **** Fit       0.065385
 **** Fit       0.066308
 **** Fit       0.067417
 **** Fit       0.013014
 **** Fit       0.012905
 **** Fit       0.004896
 **** Fit       0.004688
 **** Fit       0.012971
 **** Fit       0.020016
 **** Fit       0.020008
 **** Fit       0.012300
 **** Fit       0.003419
 **** Fit      -0.004264
 **** Fit      -0.008253
 **** Fit      -0.005418
 **** Fit       0.003344
 **** Fit       0.013061
 **** Fit       0.020831
 **** Fit       0.025978
 **** Fit       0.027990
 **** Fit       0.026159
 **** Fit       0.020506
 **** Fit       0.010850
 **** Fit       0.001990
 **** Fit      -0.006492
 **** Fit      -0.014205
 **** Fit       0.004030
 **** Fit       0.013443
 **** Fit       0.020867
 **** Fit       0.026676
 **** Fit       0.031061
 **** Fit       0.033797
 **** Fit       0.034291
 **** Fit       0.031967
 **** Fit       0.026795
 **** Fit       0.019430
 **** Fit       0.008213
 **** Fit      -0.001096
 **** Fit      -0.009879
 **** Fit      -0.018058
 **** Fit      -0.025871
 **** Fit      -0.000041
 **** Fit       0.009947
 **** Fit       0.017766
 **** Fit       0.024111
 **** Fit       0.029471
 **** Fit       0.034078
 **** Fit       0.037855
 **** Fit       0.040355
 **** Fit       0.033626
 **** Fit       0.026327
 **** Fit       0.017583
 **** Fit      -0.006154
 **** Fit      -0.015475
 **** Fit      -0.023770
 **** Fit      -0.031446
 **** Fit       0.002014
 **** Fit       0.010992
 **** Fit       0.018154
 **** Fit       0.024192
 **** Fit       0.029560
 **** Fit       0.034551
 **** Fit       0.039283
 **** Fit      -0.023180
 **** Fit      -0.031546
 **** Fit      -0.038659
 **** Fit      -0.045403
 **** Fit       0.004337
 **** Fit       0.011839
 **** Fit       0.018185
 **** Fit       0.023796
 **** Fit       0.028987
 **** Fit       0.034033
 **** Fit       0.039161
 **** Fit      -0.049921
 **** Fit       0.005159
 **** Fit       0.011847
 **** Fit       0.017866
 **** Fit       0.023386
 **** Fit       0.028629
 **** Fit       0.033881
 **** Fit       0.004775
 **** Fit       0.011069
 **** Fit       0.016967
 **** Fit       0.022460
 **** Fit       0.027719
 **** Fit       0.006356
 **** Fit       0.012779
 **** Fit       0.018677
 **** Fit       0.000459
 **** Fit       0.008142
 -----------------------------------------------------------------
 Leave Link  602 at Wed Sep 18 17:26:32 2019, MaxMem=  1342177280 cpu:             130.5 elap:               2.8

 Test job not archived.
 1\1\GINC-C493-124\SP\RB3LYP\SVP\C54H83Ca1N15O23\PENGZHI\18-Sep-2019\0\
 \#b3lyp/svp scf=(tight,noincore) Test #IOP(5/87=12) Density=Current Po
 p=(MK,readradii) iop(6/33=2) iop(6/42=6)\\Ng-31_loop3_33.0\\0,1\C,0,85
 .91,71.59,29.19\C,0,85.18,70.75,30.23\O,0,83.99,70.93,30.51\H,0,86.905
 ,71.177,29.023\H,0,85.351,71.578,28.254\H,0,85.998,72.616,29.548\N,0,8
 5.95,69.88,30.88\C,0,85.58,69.06,32.02\C,0,85.96,69.66,33.37\O,0,85.19
 ,69.54,34.31\C,0,85.97,67.6,31.79\C,0,87.4,67.4,31.32\O,0,88.21,68.35,
 31.45\O,0,87.67,66.34,30.72\H,0,86.95,69.85,30.8\H,0,84.49,68.97,32.01
 \H,0,85.33,67.28,30.96\H,0,85.78,67.07,32.72\N,0,86.96,70.55,33.45\C,0
 ,87.17,71.46,34.55\C,0,87.57,70.6,35.74\O,0,88.34,69.66,35.6\C,0,88.16
 ,72.54,34.12\C,0,87.51,73.63,33.28\C,0,88.52,74.64,32.74\C,0,87.92,75.
 87,32.06\N,0,87.19,76.73,33.\H,0,87.6,70.61,32.67\H,0,86.2,71.93,34.68
 \H,0,89.03,72.15,33.6\H,0,88.57,72.94,35.05\H,0,86.83,74.24,33.88\H,0,
 86.92,73.24,32.45\H,0,89.18,74.13,32.04\H,0,89.24,74.98,33.48\H,0,87.2
 6,75.46,31.29\H,0,88.78,76.43,31.7\H,0,86.82,77.53,32.5\H,0,86.39,76.2
 8,33.42\H,0,87.73,77.15,33.74\N,0,87.05,71.01,36.91\C,0,87.14,70.3,38.
 17\C,0,86.11,69.18,38.3\O,0,85.77,68.82,39.42\C,0,87.25,71.28,39.33\C,
 0,86.,72.14,39.53\O,0,85.2,72.29,38.58\O,0,85.82,72.78,40.58\H,0,86.65
 ,71.93,36.99\H,0,88.05,69.71,38.17\H,0,88.09,71.9,39.03\H,0,87.36,70.7
 3,40.26\N,0,85.59,68.61,37.21\C,0,84.81,67.39,37.11\C,0,85.54,66.26,36
 .41\O,0,86.77,66.35,36.43\H,0,85.96,68.97,36.35\H,0,83.96,67.68,36.49\
 H,0,84.43,67.14,38.11\N,0,84.89,65.3,35.75\C,0,83.47,65.06,35.63\C,0,8
 3.17,64.67,34.19\O,0,83.13,63.49,33.87\C,0,83.19,63.94,36.63\C,0,83.72
 ,64.26,38.02\N,0,84.86,63.68,38.41\O,0,83.11,64.97,38.82\H,0,85.48,64.
 67,35.21\H,0,82.92,65.96,35.93\H,0,83.74,63.04,36.34\H,0,82.13,63.67,3
 6.6\H,0,85.23,62.96,37.8\H,0,85.2,63.85,39.35\N,0,82.91,65.61,33.28\C,
 0,82.66,67.03,33.44\C,0,81.53,67.47,34.36\O,0,81.59,68.53,34.98\H,0,82
 .52,65.23,32.44\H,0,82.49,67.5,32.47\H,0,83.62,67.41,33.8\N,0,80.45,66
 .7,34.31\C,0,79.29,67.02,35.12\C,0,79.53,66.71,36.59\O,0,80.33,65.83,3
 6.92\C,0,77.95,66.5,34.61\C,0,77.48,67.22,33.36\C,0,77.44,68.61,33.25\
 C,0,77.14,66.41,32.27\C,0,77.25,69.16,31.98\C,0,76.71,66.92,31.04\C,0,
 76.87,68.32,30.92\O,0,76.72,68.93,29.71\H,0,80.29,66.19,33.45\H,0,79.3
 4,68.11,35.06\H,0,77.2,66.72,35.37\H,0,77.99,65.42,34.57\H,0,77.75,69.
 2,34.1\H,0,77.11,65.33,32.31\H,0,77.29,70.23,31.84\H,0,76.5,66.31,30.1
 8\H,0,76.41,68.35,29.01\N,0,78.91,67.44,37.51\C,0,79.32,67.54,38.9\C,0
 ,78.23,67.12,39.88\O,0,78.59,66.63,40.95\C,0,79.82,68.95,39.21\C,0,81.
 08,69.25,38.4\C,0,78.78,69.98,38.79\C,0,82.28,68.55,39.04\H,0,78.17,68
 .08,37.27\H,0,80.13,66.84,39.08\H,0,79.99,69.05,40.29\H,0,81.34,70.3,3
 8.34\H,0,80.98,69.01,37.34\H,0,78.55,69.84,37.74\H,0,77.82,69.85,39.3\
 H,0,79.07,71.02,38.91\H,0,82.34,67.55,38.61\H,0,83.2,69.06,38.74\H,0,8
 2.28,68.51,40.13\N,0,76.95,67.32,39.59\C,0,75.81,67.06,40.45\C,0,75.48
 ,68.25,41.34\O,0,74.65,69.08,40.96\C,0,74.65,66.58,39.59\O,0,74.87,65.
 37,38.91\H,0,76.72,67.65,38.66\H,0,76.1,66.29,41.17\H,0,74.29,67.29,38
 .84\H,0,73.82,66.44,40.29\H,0,74.31,65.38,38.13\N,0,76.01,68.26,42.56\
 C,0,75.87,69.32,43.54\C,0,77.15,69.8,44.21\O,0,78.26,69.3,44.09\C,0,74
 .89,68.69,44.53\H,0,76.59,67.47,42.79\H,0,75.39,70.15,43.02\H,0,73.97,
 68.37,44.05\H,0,75.36,67.87,45.08\H,0,74.63,69.47,45.24\N,0,77.08,70.7
 ,45.19\C,0,78.11,71.44,45.9\C,0,79.18,72.06,45.01\O,0,80.35,72.05,45.3
 8\C,0,78.74,70.5,46.93\H,0,76.16,71.07,45.38\H,0,77.6,72.2,46.48\H,0,7
 9.22,69.67,46.41\H,0,79.45,71.09,47.51\H,0,78.04,69.99,47.59\N,0,78.75
 ,72.42,43.8\C,0,79.72,72.95,42.85\C,0,79.2,74.16,42.09\O,0,79.98,74.92
 ,41.51\C,0,80.06,71.75,41.98\C,0,81.04,70.74,42.57\C,0,82.4,71.37,42.8
 5\O,0,82.8,72.45,42.37\O,0,83.15,70.78,43.66\H,0,77.82,72.21,43.46\H,0
 ,80.54,73.45,43.36\H,0,80.45,72.25,41.08\H,0,79.12,71.24,41.78\H,0,81.
 28,70.,41.81\H,0,80.59,70.25,43.44\N,0,77.88,74.35,41.99\C,0,77.27,75.
 31,41.09\H,0,76.356,75.699,41.539\H,0,77.964,76.131,40.91\H,0,77.03,74
 .822,40.145\H,0,77.28,73.58,42.25\Ca,0,85.3,72.13,43.19\O,0,84.87,74.7
 1,43.24\H,0,85.44,75.46,43.39\H,0,84.02,75.1,43.02\\Version=ES64L-G16R
 evA.03\State=1-A\HF=-5333.2972138\RMSD=2.412e-09\Dipole=-1.7270336,15.
 6686374,3.5456247\Quadrupole=-21.345537,57.4458193,-36.1002823,170.262
 8985,46.2656682,-75.8928332\PG=C01 [X(C54H83Ca1N15O23)]\\@


 TIMES HAVE CHANGED. IN THE BIBLE WHEN AN ASS
 SPOKE IT WAS CONSIDERED A MIRACLE.
 Job cpu time:       0 days 20 hours 55 minutes  8.5 seconds.
 Elapsed time:       0 days  0 hours 26 minutes 28.5 seconds.
 File lengths (MBytes):  RWF=   1517 Int=      0 D2E=      0 Chk=    171 Scr=      1
 Normal termination of Gaussian 16 at Wed Sep 18 17:26:33 2019.
