 Entering Gaussian System, Link 0=g16
 Initial command:
 /home1/apps/gaussian/16rA.03/g16/l1.exe "/scratch/01990/pengzhi/4354910/Gau-286720.inp" -scrdir="/scratch/01990/pengzhi/4354910/"
 Entering Link 1 = /home1/apps/gaussian/16rA.03/g16/l1.exe PID=    286721.
  
 Copyright (c) 1988,1990,1992,1993,1995,1998,2003,2009,2016,
            Gaussian, Inc.  All Rights Reserved.
  
 This is part of the Gaussian(R) 16 program.  It is based on
 the Gaussian(R) 09 system (copyright 2009, Gaussian, Inc.),
 the Gaussian(R) 03 system (copyright 2003, Gaussian, Inc.),
 the Gaussian(R) 98 system (copyright 1998, Gaussian, Inc.),
 the Gaussian(R) 94 system (copyright 1995, Gaussian, Inc.),
 the Gaussian 92(TM) system (copyright 1992, Gaussian, Inc.),
 the Gaussian 90(TM) system (copyright 1990, Gaussian, Inc.),
 the Gaussian 88(TM) system (copyright 1988, Gaussian, Inc.),
 the Gaussian 86(TM) system (copyright 1986, Carnegie Mellon
 University), and the Gaussian 82(TM) system (copyright 1983,
 Carnegie Mellon University). Gaussian is a federally registered
 trademark of Gaussian, Inc.
  
 This software contains proprietary and confidential information,
 including trade secrets, belonging to Gaussian, Inc.
  
 This software is provided under written license and may be
 used, copied, transmitted, or stored only in accord with that
 written license.
  
 The following legend is applicable only to US Government
 contracts under FAR:
  
                    RESTRICTED RIGHTS LEGEND
  
 Use, reproduction and disclosure by the US Government is
 subject to restrictions as set forth in subparagraphs (a)
 and (c) of the Commercial Computer Software - Restricted
 Rights clause in FAR 52.227-19.
  
 Gaussian, Inc.
 340 Quinnipiac St., Bldg. 40, Wallingford CT 06492
  
  
 ---------------------------------------------------------------
 Warning -- This program may not be used in any manner that
 competes with the business of Gaussian, Inc. or will provide
 assistance to any competitor of Gaussian, Inc.  The licensee
 of this program is prohibited from giving any competitor of
 Gaussian, Inc. access to this program.  By using this program,
 the user acknowledges that Gaussian, Inc. is engaged in the
 business of creating and licensing software in the field of
 computational chemistry and represents and warrants to the
 licensee that it is not a competitor of Gaussian, Inc. and that
 it will not use this program in any manner prohibited above.
 ---------------------------------------------------------------
  

 Cite this work as:
 Gaussian 16, Revision A.03,
 M. J. Frisch, G. W. Trucks, H. B. Schlegel, G. E. Scuseria, 
 M. A. Robb, J. R. Cheeseman, G. Scalmani, V. Barone, 
 G. A. Petersson, H. Nakatsuji, X. Li, M. Caricato, A. V. Marenich, 
 J. Bloino, B. G. Janesko, R. Gomperts, B. Mennucci, H. P. Hratchian, 
 J. V. Ortiz, A. F. Izmaylov, J. L. Sonnenberg, D. Williams-Young, 
 F. Ding, F. Lipparini, F. Egidi, J. Goings, B. Peng, A. Petrone, 
 T. Henderson, D. Ranasinghe, V. G. Zakrzewski, J. Gao, N. Rega, 
 G. Zheng, W. Liang, M. Hada, M. Ehara, K. Toyota, R. Fukuda, 
 J. Hasegawa, M. Ishida, T. Nakajima, Y. Honda, O. Kitao, H. Nakai, 
 T. Vreven, K. Throssell, J. A. Montgomery, Jr., J. E. Peralta, 
 F. Ogliaro, M. J. Bearpark, J. J. Heyd, E. N. Brothers, K. N. Kudin, 
 V. N. Staroverov, T. A. Keith, R. Kobayashi, J. Normand, 
 K. Raghavachari, A. P. Rendell, J. C. Burant, S. S. Iyengar, 
 J. Tomasi, M. Cossi, J. M. Millam, M. Klene, C. Adamo, R. Cammi, 
 J. W. Ochterski, R. L. Martin, K. Morokuma, O. Farkas, 
 J. B. Foresman, and D. J. Fox, Gaussian, Inc., Wallingford CT, 2016.
 
 ******************************************
 Gaussian 16:  ES64L-G16RevA.03 25-Dec-2016
                18-Sep-2019 
 ******************************************
 %chk=Ng-31_loop3_0.0.chk
 %nprocshared=48
 Will use up to   48 processors via shared memory.
 %mem=10GB
 %nosave
 ----------------------------------------------------------------------
 #b3lyp/svp scf=(tight,noincore) Test #IOP(5/87=12) Density=Current Pop
 =(MK,readradii) iop(6/33=2) iop(6/42=6)
 ----------------------------------------------------------------------
 1/30=1,38=1,172=1/1;
 2/12=2,17=6,18=5,40=1/2;
 3/5=18,7=101,11=2,25=1,30=1,74=-5/1,2,3;
 4//1;
 5/5=4,32=2,38=5,87=12/2;
 6/7=2,8=2,9=2,10=2,15=8,20=101,22=-1,28=1,33=2,42=6/1,2;
 99/5=1,9=1/99;
 ---------------
 Ng-31_loop3_0.0
 ---------------
 Symbolic Z-matrix:
 Charge =  0 Multiplicity = 1
 C                     103.23    52.17     19.96 
 C                     103.9     53.25     19.12 
 O                     103.35    54.1      18.43 
 H                     102.239   51.961    19.558 
 H                     103.832   51.262    19.932 
 H                     103.138   52.515    20.99 
 N                     105.23    53.34     19.2 
 C                     106.05    54.15     18.32 
 C                     106.35    53.48     16.99 
 O                     106.59    52.27     16.98 
 C                     107.28    54.61     19.1 
 C                     108.14    53.47     19.62 
 O                     107.62    52.4      20.01 
 O                     109.38    53.63     19.59 
 H                     105.76    52.79     19.86 
 H                     105.47    55.05     18.12 
 H                     107.02    55.26     19.94 
 H                     107.96    55.23     18.52 
 N                     106.3     54.19     15.86 
 C                     106.35    53.59     14.54 
 C                     105.03    53.02     14.03 
 O                     105.05    52.25     13.08 
 C                     106.94    54.62     13.58 
 C                     107.08    54.16     12.13 
 C                     107.82    55.24     11.34 
 C                     108.6     54.66     10.16 
 N                     109.6     55.72     9.95 
 H                     106.1     55.17     15.98 
 H                     107.02    52.74     14.57 
 H                     107.96    54.75     13.94 
 H                     106.31    55.51     13.63 
 H                     106.05    54.09     11.79 
 H                     107.71    53.27     12.08 
 H                     108.55    55.65     12.04 
 H                     107.24    56.1      11. 
 H                     107.91    54.43     9.35 
 H                     109.07    53.76     10.56 
 H                     110.04    56.11     10.77 
 H                     110.35    55.34     9.39 
 H                     109.26    56.58     9.55 
 N                     103.86    53.39     14.56 
 C                     102.61    52.98     13.95 
 C                     102.31    53.79     12.7 
 O                     101.49    53.45     11.85 
 C                     101.42    52.86     14.9 
 C                     100.97    54.11     15.65 
 O                     100.21    53.97     16.63 
 O                     101.39    55.25     15.36 
 H                     103.75    54.08     15.29 
 H                     102.76    51.99     13.52 
 H                     101.63    52.06     15.6 
 H                     100.61    52.57     14.24 
 N                     103.04    54.9      12.55 
 C                     102.89    55.75     11.39 
 C                     103.6     57.1      11.51 
 O                     103.83    57.6      12.61 
 H                     103.63    55.18     13.32 
 H                     101.82    55.89     11.2 
 H                     103.21    55.22     10.5 
 N                     103.86    57.73     10.37 
 C                     103.58    57.58     8.96 
 C                     102.68    58.73     8.53 
 O                     102.78    59.87     9.01 
 C                     104.84    57.63     8.1 
 C                     105.75    56.41     8.17 
 N                     106.75    56.28     7.29 
 O                     105.53    55.54     9.01 
 H                     104.07    58.69     10.58 
 H                     103.02    56.66     8.81 
 H                     105.36    58.53     8.42 
 H                     104.62    57.92     7.07 
 H                     106.84    57.06     6.66 
 H                     107.31    55.44     7.31 
 N                     101.83    58.6      7.51 
 C                     101.43    57.39     6.83 
 C                     100.71    56.33     7.65 
 O                     100.43    56.44     8.84 
 H                     101.44    59.49     7.24 
 H                     102.26    56.94     6.28 
 H                     100.82    57.67     5.98 
 N                     100.46    55.23     6.92 
 C                     99.93     53.97     7.4 
 C                     100.44    52.85     6.5 
 O                     99.77     52.08     5.82 
 C                     98.41     53.96     7.42 
 C                     97.75     54.91     8.39 
 C                     97.57     54.7      9.76 
 C                     97.22     56.07     7.81 
 C                     97.05     55.73     10.56 
 C                     96.64     57.09     8.57 
 C                     96.53     56.89     9.96 
 O                     95.82     57.76     10.73 
 H                     100.44    55.29     5.92 
 H                     100.38    53.71     8.36 
 H                     98.08     52.96     7.72 
 H                     97.99     54.1      6.42 
 H                     97.96     53.79     10.19 
 H                     97.37     56.28     6.76 
 H                     96.89     55.56     11.62 
 H                     96.24     58.01     8.17 
 H                     95.47     58.53     10.29 
 N                     101.77    52.72     6.42 
 C                     102.45    52.27     5.22 
 C                     102.79    50.78     5.12 
 O                     103.14    50.25     4.08 
 C                     103.71    53.06     4.9 
 C                     103.27    54.45     4.44 
 C                     104.75    53.17     6.01 
 C                     104.38    55.37     3.94 
 H                     102.29    53.32     7.04 
 H                     101.73    52.38     4.41 
 H                     104.21    52.68     4.01 
 H                     102.64    54.84     5.24 
 H                     102.66    54.32     3.54 
 H                     105.38    52.28     6.05 
 H                     105.49    53.94     5.82 
 H                     104.32    53.3      7.01 
 H                     104.8     54.8      3.11 
 H                     104.03    56.35     3.63 
 H                     105.14    55.48     4.72 
 N                     102.8     50.06     6.25 
 C                     103.28    48.7      6.37 
 C                     104.15    48.53     7.6 
 O                     105.29    48.07     7.58 
 C                     102.16    47.67     6.26 
 O                     101.4     47.44     7.43 
 H                     102.29    50.46     7.02 
 H                     103.9     48.57     5.48 
 H                     102.63    46.7      6.08 
 H                     101.49    47.94     5.45 
 H                     101.01    48.23     7.81 
 N                     103.59    48.91     8.75 
 C                     104.08    48.42     10.02 
 C                     103.26    47.36     10.75 
 O                     103.42    47.19     11.95 
 C                     104.3     49.66     10.88 
 H                     102.75    49.47     8.8 
 H                     105.07    47.97     9.94 
 H                     103.41    50.29     10.9 
 H                     104.5     49.47     11.94 
 H                     105.02    50.32     10.4 
 N                     102.29    46.76     10.05 
 C                     101.11    46.17     10.65 
 C                     100.38    47.15     11.55 
 O                     100.11    46.84     12.71 
 C                     101.45    44.82     11.27 
 H                     102.25    46.89     9.05 
 H                     100.37    45.92     9.9 
 H                     100.64    44.29     11.79 
 H                     101.76    44.16     10.47 
 H                     102.25    45.03     11.98 
 N                     100.16    48.39     11.11 
 C                     99.42     49.43     11.8 
 C                     97.91     49.21     11.76 
 O                     97.18     49.65     12.64 
 C                     99.83     50.81     11.3 
 C                     99.49     51.35     9.92 
 C                     100.29    50.5      8.94 
 O                     99.7      49.64     8.25 
 O                     101.52    50.69     8.86 
 H                     100.55    48.57     10.2 
 H                     99.69     49.36     12.86 
 H                     100.92    50.91     11.4 
 H                     99.4      51.53     11.99 
 H                     99.91     52.36     9.9 
 H                     98.41     51.32     9.74 
 N                     97.4      48.5      10.75 
 C                     95.98     48.23     10.66 
 H                     95.456    49.138    10.361 
 H                     95.804    47.449    9.92 
 H                     95.61     47.901    11.631 
 H                     97.99     48.1      10.03 
 Ca                    99.6      56.63     17.23 
 O                     101.908   56.43     18.27 
 H                     102.428   55.65     18.09 
 H                     102.538   57.07     18.61 
 
 Stoichiometry    C54H83CaN15O23
 Framework group  C1[X(C54H83CaN15O23)]
 Deg. of freedom   522
 Full point group                 C1      NOp   1
 Largest Abelian subgroup         C1      NOp   1
 Largest concise Abelian subgroup C1      NOp   1
                         Standard orientation:                         
 ---------------------------------------------------------------------
 Center     Atomic      Atomic             Coordinates (Angstroms)
 Number     Number       Type             X           Y           Z
 ---------------------------------------------------------------------
      1          6           0       -8.114728    3.165330    1.684421
      2          6           0       -7.804345    1.785285    1.118701
      3          8           0       -7.156357    0.893597    1.653587
      4          1           0       -7.357275    3.434052    2.420233
      5          1           0       -8.112924    3.897798    0.877488
      6          1           0       -9.094720    3.150882    2.161701
      7          7           0       -8.361792    1.473197   -0.054011
      8          6           0       -8.011771    0.307416   -0.842262
      9          6           0       -6.763555    0.503065   -1.685753
     10          8           0       -6.589198    1.592675   -2.237251
     11          6           0       -9.250028   -0.134866   -1.619441
     12          6           0       -9.791510    0.922860   -2.566865
     13          8           0       -9.745311    2.137450   -2.266802
     14          8           0      -10.231347    0.530643   -3.669956
     15          1           0       -9.037167    2.078077   -0.497845
     16          1           0       -7.811302   -0.486439   -0.123926
     17          1           0      -10.060406   -0.458435   -0.960435
     18          1           0       -9.085950   -1.010455   -2.243638
     19          7           0       -5.859800   -0.476055   -1.775480
     20          6           0       -4.547585   -0.296347   -2.367675
     21          6           0       -3.501852    0.342985   -1.459325
     22          8           0       -2.482186    0.793275   -1.962636
     23          6           0       -4.089235   -1.648423   -2.908420
     24          6           0       -2.718598   -1.654199   -3.582971
     25          6           0       -2.478417   -3.033208   -4.198395
     26          6           0       -1.553912   -2.969859   -5.414321
     27          7           0       -1.930633   -4.214210   -6.105242
     28          1           0       -6.101293   -1.325703   -1.291146
     29          1           0       -4.634541    0.385276   -3.204412
     30          1           0       -4.802194   -1.860258   -3.704482
     31          1           0       -4.097627   -2.352450   -2.074288
     32          1           0       -2.032772   -1.491210   -2.755639
     33          1           0       -2.710206   -0.950171   -4.417102
     34          1           0       -3.458160   -3.357148   -4.553596
     35          1           0       -2.141786   -3.829227   -3.531586
     36          1           0       -0.524751   -2.853922   -5.078932
     37          1           0       -1.898600   -2.098495   -5.973620
     38          1           0       -2.914336   -4.430702   -6.164910
     39          1           0       -1.603334   -4.157122   -7.059242
     40          1           0       -1.623234   -5.072423   -5.676083
     41          7           0       -3.652582    0.365786   -0.131372
     42          6           0       -2.572955    0.813116    0.727116
     43          6           0       -1.492596   -0.247081    0.859061
     44          8           0       -0.358695   -0.014634    1.272262
     45          6           0       -2.999499    1.419673    2.062462
     46          6           0       -3.784706    0.542180    3.032491
     47          8           0       -4.385142    1.095172    3.976566
     48          8           0       -3.901676   -0.691001    2.872235
     49          1           0       -4.423226   -0.054856    0.368896
     50          1           0       -2.028635    1.593507    0.195886
     51          1           0       -3.547847    2.331155    1.856027
     52          1           0       -2.053009    1.657206    2.535256
     53          7           0       -1.839879   -1.470603    0.446886
     54          6           0       -0.902532   -2.571057    0.478196
     55          6           0       -1.538959   -3.939755    0.227946
     56          8           0       -2.727618   -4.140618    0.472166
     57          1           0       -2.807769   -1.626099    0.205203
     58          1           0       -0.383018   -2.555367    1.442799
     59          1           0       -0.092202   -2.385798   -0.217825
     60          7           0       -0.718158   -4.904820   -0.170845
     61          6           0        0.699164   -5.111674   -0.364264
     62          6           0        1.170360   -6.145709    0.648724
     63          8           0        0.461894   -7.099951    1.005793
     64          6           0        1.033378   -5.640021   -1.756690
     65          6           0        0.902042   -4.644323   -2.902437
     66          7           0        1.382672   -4.960211   -4.110952
     67          8           0        0.390792   -3.546367   -2.692637
     68          1           0       -1.181361   -5.787227   -0.041999
     69          1           0        1.221883   -4.183987   -0.143671
     70          1           0        0.373454   -6.493086   -1.896619
     71          1           0        1.991824   -6.163884   -1.775357
     72          1           0        1.766110   -5.889441   -4.164883
     73          1           0        1.341319   -4.270138   -4.846948
     74          7           0        2.426840   -6.153347    1.097055
     75          6           0        3.437541   -5.133673    0.938159
     76          6           0        3.158824   -3.768707    1.549375
     77          8           0        2.146892   -3.481398    2.181867
     78          1           0        2.626785   -6.993428    1.618001
     79          1           0        3.742105   -5.022982   -0.105339
     80          1           0        4.370167   -5.523633    1.326927
     81          7           0        4.140016   -2.894874    1.268168
     82          6           0        4.146625   -1.474204    1.551990
     83          6           0        5.021095   -0.772832    0.518608
     84          8           0        6.035714   -0.116039    0.726867
     85          6           0        4.662761   -1.173179    2.949805
     86          6           0        3.811887   -1.666620    4.095025
     87          6           0        2.666385   -1.046135    4.601211
     88          6           0        4.288497   -2.822273    4.727645
     89          6           0        1.905330   -1.689420    5.590292
     90          6           0        3.587065   -3.456232    5.757446
     91          6           0        2.396712   -2.852636    6.207926
     92          8           0        1.762576   -3.318273    7.319210
     93          1           0        5.048387   -3.231600    1.012283
     94          1           0        3.165406   -1.041700    1.347420
     95          1           0        4.710231   -0.085711    3.068379
     96          1           0        5.694744   -1.509871    3.082662
     97          1           0        2.324363   -0.141798    4.121320
     98          1           0        5.152113   -3.346209    4.341953
     99          1           0        1.027838   -1.198368    5.998920
    100          1           0        3.903117   -4.359567    6.257943
    101          1           0        2.128567   -4.101353    7.721499
    102          7           0        4.655168   -0.923536   -0.760292
    103          6           0        5.606189   -0.969279   -1.854991
    104          6           0        5.885441    0.339198   -2.600381
    105          8           0        6.822323    0.476202   -3.367507
    106          6           0        5.294541   -2.039945   -2.889713
    107          6           0        5.582600   -3.394678   -2.242394
    108          6           0        3.893403   -2.023680   -3.491664
    109          6           0        5.461177   -4.610482   -3.156493
    110          1           0        3.782930   -1.409329   -0.894480
    111          1           0        6.575813   -1.167354   -1.399804
    112          1           0        6.010928   -2.029573   -3.710190
    113          1           0        4.991919   -3.415563   -1.326065
    114          1           0        6.645377   -3.413375   -1.979419
    115          1           0        3.819559   -1.294086   -4.299649
    116          1           0        3.649211   -2.940791   -4.016906
    117          1           0        3.103493   -1.780931   -2.771306
    118          1           0        6.189900   -4.389384   -3.937696
    119          1           0        5.665121   -5.554066   -2.659446
    120          1           0        4.459633   -4.635290   -3.597395
    121          7           0        4.997756    1.335245   -2.476665
    122          6           0        5.000175    2.557662   -3.251322
    123          6           0        3.606611    2.903243   -3.738411
    124          8           0        3.320388    3.115580   -4.915096
    125          6           0        5.705136    3.705477   -2.535117
    126          8           0        4.949633    4.397058   -1.560268
    127          1           0        4.390399    1.273861   -1.676447
    128          1           0        5.623030    2.310418   -4.114063
    129          1           0        5.904830    4.477886   -3.281914
    130          1           0        6.624286    3.347569   -2.082387
    131          1           0        4.576257    3.835645   -0.877622
    132          7           0        2.673670    2.978018   -2.787344
    133          6           0        1.442569    3.707300   -3.000975
    134          6           0        1.281111    5.065511   -2.324148
    135          8           0        0.163623    5.536135   -2.168472
    136          6           0        0.324258    2.744418   -2.616479
    137          1           0        2.806811    2.623750   -1.850077
    138          1           0        1.261644    3.921410   -4.054741
    139          1           0        0.487901    2.325222   -1.623053
    140          1           0       -0.675197    3.186549   -2.543607
    141          1           0        0.374713    1.852105   -3.237472
    142          7           0        2.384051    5.613231   -1.800291
    143          6           0        2.370634    6.560357   -0.703353
    144          6           0        1.602056    6.031994    0.493902
    145          8           0        0.700559    6.703770    0.994522
    146          6           0        1.963161    7.941748   -1.201575
    147          1           0        3.285006    5.214455   -2.018828
    148          1           0        3.366603    6.721548   -0.310081
    149          1           0        1.880896    8.740134   -0.451100
    150          1           0        2.721539    8.276677   -1.897553
    151          1           0        0.990968    7.795514   -1.672378
    152          7           0        1.825692    4.782581    0.904456
    153          6           0        1.240138    4.140033    2.066161
    154          6           0        1.850859    4.619567    3.380379
    155          8           0        1.211802    4.593212    4.425277
    156          6           0        1.269110    2.623437    1.919203
    157          6           0        2.537886    1.787680    1.976810
    158          6           0        3.328264    2.157926    0.727362
    159          8           0        4.342542    2.881444    0.834885
    160          8           0        2.931436    1.725181   -0.372937
    161          1           0        2.483511    4.281473    0.331077
    162          1           0        0.191446    4.456176    2.107369
    163          1           0        0.775385    2.352778    0.975234
    164          1           0        0.640909    2.223424    2.709617
    165          1           0        2.200991    0.753421    1.859714
    166          1           0        3.086786    1.967920    2.907359
    167          7           0        3.098609    5.096106    3.362236
    168          6           0        3.733796    5.591513    4.565777
    169          1           0        4.003462    4.751479    5.206138
    170          1           0        4.632490    6.148673    4.300335
    171          1           0        3.043930    6.246273    5.098090
    172          1           0        3.632262    5.156644    2.503138
    173         20           0       -5.267730   -1.120466    5.432480
    174          8           0       -6.985136   -1.071171    3.562574
    175          1           0       -6.842096   -0.486799    2.821461
    176          1           0       -7.648297   -1.694806    3.256962
 ---------------------------------------------------------------------
 Rotational constants (GHZ):           0.0185165           0.0133121           0.0121291
 Standard basis: SVP (5D, 7F)
 There are  1809 symmetry adapted cartesian basis functions of A   symmetry.
 There are  1717 symmetry adapted basis functions of A   symmetry.
  1717 basis functions,  2922 primitive gaussians,  1809 cartesian basis functions
   358 alpha electrons      358 beta electrons
       nuclear repulsion energy     20645.2431960807 Hartrees.
 NAtoms=  176 NActive=  176 NUniq=  176 SFac= 1.00D+00 NAtFMM=   60 NAOKFM=T Big=T
 Integral buffers will be    131072 words long.
 Raffenetti 2 integral format.
 Two-electron integral symmetry is turned on.
 One-electron integrals computed using PRISM.
 NBasis=  1717 RedAO= T EigKep=  3.10D-04  NBF=  1717
 NBsUse=  1717 1.00D-06 EigRej= -1.00D+00 NBFU=  1717
 ExpMin= 1.98D-02 ExpMax= 3.51D+04 ExpMxC= 5.28D+03 IAcc=3 IRadAn=         5 AccDes= 0.00D+00
 Harris functional with IExCor=  402 and IRadAn=       5 diagonalized for initial guess.
 HarFok:  IExCor=  402 AccDes= 0.00D+00 IRadAn=         5 IDoV= 1 UseB2=F ITyADJ=14
 ICtDFT=  3500011 ScaDFX=  1.000000  1.000000  1.000000  1.000000
 FoFCou: FMM=F IPFlag=           0 FMFlag=      100000 FMFlg1=        2001
         NFxFlg=           0 DoJE=T BraDBF=F KetDBF=T FulRan=T
         wScrn=  0.000000 ICntrl=       500 IOpCl=  0 I1Cent=   200000004 NGrid=           0
         NMat0=    1 NMatS0=      1 NMatT0=    0 NMatD0=    1 NMtDS0=    0 NMtDT0=    0
 Petite list used in FoFCou.
 Requested convergence on RMS density matrix=1.00D-08 within 128 cycles.
 Requested convergence on MAX density matrix=1.00D-06.
 Requested convergence on             energy=1.00D-06.
 No special actions if energy rises.
 EnCoef did     3 forward-backward iterations
 EnCoef did     2 forward-backward iterations
 EnCoef did     2 forward-backward iterations
 EnCoef did     2 forward-backward iterations
 EnCoef did     2 forward-backward iterations
 EnCoef did    20 forward-backward iterations
 EnCoef did    56 forward-backward iterations
 EnCoef did    22 forward-backward iterations
 Rare condition: small coef for last iteration: -0.222D-15
 EnCoef did   100 forward-backward iterations
 EnCoef did   100 forward-backward iterations
 EnCoef did   100 forward-backward iterations
 Rare condition: small coef for last iteration:  0.000D+00
 EnCoef did   100 forward-backward iterations
 Restarting incremental Fock formation.
 EnCoef did    21 forward-backward iterations
 Rare condition: small coef for last iteration:  0.000D+00
 EnCoef did   100 forward-backward iterations
 Rare condition: small coef for last iteration:  0.000D+00
 EnCoef did   100 forward-backward iterations
 Rare condition: small coef for last iteration:  0.787D-18
 EnCoef did   100 forward-backward iterations
 EnCoef did   100 forward-backward iterations
 Rare condition: small coef for last iteration: -0.490D-15
 EnCoef did   100 forward-backward iterations
 EnCoef did   100 forward-backward iterations
 Rare condition: small coef for last iteration: -0.122D-15
 EnCoef did   100 forward-backward iterations
 EnCoef did   100 forward-backward iterations
 Rare condition: small coef for last iteration: -0.617D-15
 EnCoef did   100 forward-backward iterations
 EnCoef did   100 forward-backward iterations
 Rare condition: small coef for last iteration: -0.384D-15
 EnCoef did   100 forward-backward iterations
 EnCoef did   100 forward-backward iterations
 EnCoef did     6 forward-backward iterations
 EnCoef did   100 forward-backward iterations
 Restarting incremental Fock formation.
 SCF Done:  E(RB3LYP) =  -5333.31846818     A.U. after   57 cycles
            NFock= 57  Conv=0.12D-08     -V/T= 2.0081
 SCF density gives NOpUse=  1 NOpAll=  1.
 Hyperfine terms turned off by default for NAtoms > 100.

 **********************************************************************

            Population analysis using the SCF density.

 **********************************************************************

 Orbital symmetries:
 BldTbl:  Degeneracy threshold= 1.00D-02
       Occupied  (A) (A) (A) (A) (A) (A) (A) (A) (A) (A) (A) (A)
                 (A) (A) (A) (A) (A) (A) (A) (A) (A) (A) (A) (A)
                 (A) (A) (A) (A) (A) (A) (A) (A) (A) (A) (A) (A)
                 (A) (A) (A) (A) (A) (A) (A) (A) (A) (A) (A) (A)
                 (A) (A) (A) (A) (A) (A) (A) (A) (A) (A) (A) (A)
                 (A) (A) (A) (A) (A) (A) (A) (A) (A) (A) (A) (A)
                 (A) (A) (A) (A) (A) (A) (A) (A) (A) (A) (A) (A)
                 (A) (A) (A) (A) (A) (A) (A) (A) (A) (A) (A) (A)
                 (A) (A) (A) (A) (A) (A) (A) (A) (A) (A) (A) (A)
                 (A) (A) (A) (A) (A) (A) (A) (A) (A) (A) (A) (A)
                 (A) (A) (A) (A) (A) (A) (A) (A) (A) (A) (A) (A)
                 (A) (A) (A) (A) (A) (A) (A) (A) (A) (A) (A) (A)
                 (A) (A) (A) (A) (A) (A) (A) (A) (A) (A) (A) (A)
                 (A) (A) (A) (A) (A) (A) (A) (A) (A) (A) (A) (A)
                 (A) (A) (A) (A) (A) (A) (A) (A) (A) (A) (A) (A)
                 (A) (A) (A) (A) (A) (A) (A) (A) (A) (A) (A) (A)
                 (A) (A) (A) (A) (A) (A) (A) (A) (A) (A) (A) (A)
                 (A) (A) (A) (A) (A) (A) (A) (A) (A) (A) (A) (A)
                 (A) (A) (A) (A) (A) (A) (A) (A) (A) (A) (A) (A)
                 (A) (A) (A) (A) (A) (A) (A) (A) (A) (A) (A) (A)
                 (A) (A) (A) (A) (A) (A) (A) (A) (A) (A) (A) (A)
                 (A) (A) (A) (A) (A) (A) (A) (A) (A) (A) (A) (A)
                 (A) (A) (A) (A) (A) (A) (A) (A) (A) (A) (A) (A)
                 (A) (A) (A) (A) (A) (A) (A) (A) (A) (A) (A) (A)
                 (A) (A) (A) (A) (A) (A) (A) (A) (A) (A) (A) (A)
                 (A) (A) (A) (A) (A) (A) (A) (A) (A) (A) (A) (A)
                 (A) (A) (A) (A) (A) (A) (A) (A) (A) (A) (A) (A)
                 (A) (A) (A) (A) (A) (A) (A) (A) (A) (A) (A) (A)
                 (A) (A) (A) (A) (A) (A) (A) (A) (A) (A) (A) (A)
                 (A) (A) (A) (A) (A) (A) (A) (A) (A) (A)
       Virtual   (A) (A) (A) (A) (A) (A) (A) (A) (A) (A) (A) (A)
                 (A) (A) (A) (A) (A) (A) (A) (A) (A) (A) (A) (A)
                 (A) (A) (A) (A) (A) (A) (A) (A) (A) (A) (A) (A)
                 (A) (A) (A) (A) (A) (A) (A) (A) (A) (A) (A) (A)
                 (A) (A) (A) (A) (A) (A) (A) (A) (A) (A) (A) (A)
                 (A) (A) (A) (A) (A) (A) (A) (A) (A) (A) (A) (A)
                 (A) (A) (A) (A) (A) (A) (A) (A) (A) (A) (A) (A)
                 (A) (A) (A) (A) (A) (A) (A) (A) (A) (A) (A) (A)
                 (A) (A) (A) (A) (A) (A) (A) (A) (A) (A) (A) (A)
                 (A) (A) (A) (A) (A) (A) (A) (A) (A) (A) (A) (A)
                 (A) (A) (A) (A) (A) (A) (A) (A) (A) (A) (A) (A)
                 (A) (A) (A) (A) (A) (A) (A) (A) (A) (A) (A) (A)
                 (A) (A) (A) (A) (A) (A) (A) (A) (A) (A) (A) (A)
                 (A) (A) (A) (A) (A) (A) (A) (A) (A) (A) (A) (A)
                 (A) (A) (A) (A) (A) (A) (A) (A) (A) (A) (A) (A)
                 (A) (A) (A) (A) (A) (A) (A) (A) (A) (A) (A) (A)
                 (A) (A) (A) (A) (A) (A) (A) (A) (A) (A) (A) (A)
                 (A) (A) (A) (A) (A) (A) (A) (A) (A) (A) (A) (A)
                 (A) (A) (A) (A) (A) (A) (A) (A) (A) (A) (A) (A)
                 (A) (A) (A) (A) (A) (A) (A) (A) (A) (A) (A) (A)
                 (A) (A) (A) (A) (A) (A) (A) (A) (A) (A) (A) (A)
                 (A) (A) (A) (A) (A) (A) (A) (A) (A) (A) (A) (A)
                 (A) (A) (A) (A) (A) (A) (A) (A) (A) (A) (A) (A)
                 (A) (A) (A) (A) (A) (A) (A) (A) (A) (A) (A) (A)
                 (A) (A) (A) (A) (A) (A) (A) (A) (A) (A) (A) (A)
                 (A) (A) (A) (A) (A) (A) (A) (A) (A) (A) (A) (A)
                 (A) (A) (A) (A) (A) (A) (A) (A) (A) (A) (A) (A)
                 (A) (A) (A) (A) (A) (A) (A) (A) (A) (A) (A) (A)
                 (A) (A) (A) (A) (A) (A) (A) (A) (A) (A) (A) (A)
                 (A) (A) (A) (A) (A) (A) (A) (A) (A) (A) (A) (A)
                 (A) (A) (A) (A) (A) (A) (A) (A) (A) (A) (A) (A)
                 (A) (A) (A) (A) (A) (A) (A) (A) (A) (A) (A) (A)
                 (A) (A) (A) (A) (A) (A) (A) (A) (A) (A) (A) (A)
                 (A) (A) (A) (A) (A) (A) (A) (A) (A) (A) (A) (A)
                 (A) (A) (A) (A) (A) (A) (A) (A) (A) (A) (A) (A)
                 (A) (A) (A) (A) (A) (A) (A) (A) (A) (A) (A) (A)
                 (A) (A) (A) (A) (A) (A) (A) (A) (A) (A) (A) (A)
                 (A) (A) (A) (A) (A) (A) (A) (A) (A) (A) (A) (A)
                 (A) (A) (A) (A) (A) (A) (A) (A) (A) (A) (A) (A)
                 (A) (A) (A) (A) (A) (A) (A) (A) (A) (A) (A) (A)
                 (A) (A) (A) (A) (A) (A) (A) (A) (A) (A) (A) (A)
                 (A) (A) (A) (A) (A) (A) (A) (A) (A) (A) (A) (A)
                 (A) (A) (A) (A) (A) (A) (A) (A) (A) (A) (A) (A)
                 (A) (A) (A) (A) (A) (A) (A) (A) (A) (A) (A) (A)
                 (A) (A) (A) (A) (A) (A) (A) (A) (A) (A) (A) (A)
                 (A) (A) (A) (A) (A) (A) (A) (A) (A) (A) (A) (A)
                 (A) (A) (A) (A) (A) (A) (A) (A) (A) (A) (A) (A)
                 (A) (A) (A) (A) (A) (A) (A) (A) (A) (A) (A) (A)
                 (A) (A) (A) (A) (A) (A) (A) (A) (A) (A) (A) (A)
                 (A) (A) (A) (A) (A) (A) (A) (A) (A) (A) (A) (A)
                 (A) (A) (A) (A) (A) (A) (A) (A) (A) (A) (A) (A)
                 (A) (A) (A) (A) (A) (A) (A) (A) (A) (A) (A) (A)
                 (A) (A) (A) (A) (A) (A) (A) (A) (A) (A) (A) (A)
                 (A) (A) (A) (A) (A) (A) (A) (A) (A) (A) (A) (A)
                 (A) (A) (A) (A) (A) (A) (A) (A) (A) (A) (A) (A)
                 (A) (A) (A) (A) (A) (A) (A) (A) (A) (A) (A) (A)
                 (A) (A) (A) (A) (A) (A) (A) (A) (A) (A) (A) (A)
                 (A) (A) (A) (A) (A) (A) (A) (A) (A) (A) (A) (A)
                 (A) (A) (A) (A) (A) (A) (A) (A) (A) (A) (A) (A)
                 (A) (A) (A) (A) (A) (A) (A) (A) (A) (A) (A) (A)
                 (A) (A) (A) (A) (A) (A) (A) (A) (A) (A) (A) (A)
                 (A) (A) (A) (A) (A) (A) (A) (A) (A) (A) (A) (A)
                 (A) (A) (A) (A) (A) (A) (A) (A) (A) (A) (A) (A)
                 (A) (A) (A) (A) (A) (A) (A) (A) (A) (A) (A) (A)
                 (A) (A) (A) (A) (A) (A) (A) (A) (A) (A) (A) (A)
                 (A) (A) (A) (A) (A) (A) (A) (A) (A) (A) (A) (A)
                 (A) (A) (A) (A) (A) (A) (A) (A) (A) (A) (A) (A)
                 (A) (A) (A) (A) (A) (A) (A) (A) (A) (A) (A) (A)
                 (A) (A) (A) (A) (A) (A) (A) (A) (A) (A) (A) (A)
                 (A) (A) (A) (A) (A) (A) (A) (A) (A) (A) (A) (A)
                 (A) (A) (A) (A) (A) (A) (A) (A) (A) (A) (A) (A)
                 (A) (A) (A) (A) (A) (A) (A) (A) (A) (A) (A) (A)
                 (A) (A) (A) (A) (A) (A) (A) (A) (A) (A) (A) (A)
                 (A) (A) (A) (A) (A) (A) (A) (A) (A) (A) (A) (A)
                 (A) (A) (A) (A) (A) (A) (A) (A) (A) (A) (A) (A)
                 (A) (A) (A) (A) (A) (A) (A) (A) (A) (A) (A) (A)
                 (A) (A) (A) (A) (A) (A) (A) (A) (A) (A) (A) (A)
                 (A) (A) (A) (A) (A) (A) (A) (A) (A) (A) (A) (A)
                 (A) (A) (A) (A) (A) (A) (A) (A) (A) (A) (A) (A)
                 (A) (A) (A) (A) (A) (A) (A) (A) (A) (A) (A) (A)
                 (A) (A) (A) (A) (A) (A) (A) (A) (A) (A) (A) (A)
                 (A) (A) (A) (A) (A) (A) (A) (A) (A) (A) (A) (A)
                 (A) (A) (A) (A) (A) (A) (A) (A) (A) (A) (A) (A)
                 (A) (A) (A) (A) (A) (A) (A) (A) (A) (A) (A) (A)
                 (A) (A) (A) (A) (A) (A) (A) (A) (A) (A) (A) (A)
                 (A) (A) (A) (A) (A) (A) (A) (A) (A) (A) (A) (A)
                 (A) (A) (A) (A) (A) (A) (A) (A) (A) (A) (A) (A)
                 (A) (A) (A) (A) (A) (A) (A) (A) (A) (A) (A) (A)
                 (A) (A) (A) (A) (A) (A) (A) (A) (A) (A) (A) (A)
                 (A) (A) (A) (A) (A) (A) (A) (A) (A) (A) (A) (A)
                 (A) (A) (A) (A) (A) (A) (A) (A) (A) (A) (A) (A)
                 (A) (A) (A) (A) (A) (A) (A) (A) (A) (A) (A) (A)
                 (A) (A) (A) (A) (A) (A) (A) (A) (A) (A) (A) (A)
                 (A) (A) (A) (A) (A) (A) (A) (A) (A) (A) (A) (A)
                 (A) (A) (A) (A) (A) (A) (A) (A) (A) (A) (A) (A)
                 (A) (A) (A) (A) (A) (A) (A) (A) (A) (A) (A) (A)
                 (A) (A) (A) (A) (A) (A) (A) (A) (A) (A) (A) (A)
                 (A) (A) (A) (A) (A) (A) (A) (A) (A) (A) (A) (A)
                 (A) (A) (A) (A) (A) (A) (A) (A) (A) (A) (A) (A)
                 (A) (A) (A) (A) (A) (A) (A) (A) (A) (A) (A) (A)
                 (A) (A) (A) (A) (A) (A) (A) (A) (A) (A) (A) (A)
                 (A) (A) (A) (A) (A) (A) (A) (A) (A) (A) (A) (A)
                 (A) (A) (A) (A) (A) (A) (A) (A) (A) (A) (A) (A)
                 (A) (A) (A) (A) (A) (A) (A) (A) (A) (A) (A) (A)
                 (A) (A) (A) (A) (A) (A) (A) (A) (A) (A) (A) (A)
                 (A) (A) (A) (A) (A) (A) (A) (A) (A) (A) (A) (A)
                 (A) (A) (A) (A) (A) (A) (A) (A) (A) (A) (A) (A)
                 (A) (A) (A) (A) (A) (A) (A) (A) (A) (A) (A) (A)
                 (A) (A) (A) (A) (A) (A) (A) (A) (A) (A) (A) (A)
                 (A) (A) (A) (A) (A) (A) (A) (A) (A) (A) (A) (A)
                 (A) (A) (A) (A) (A) (A) (A) (A) (A) (A) (A) (A)
                 (A) (A) (A) (A) (A) (A) (A) (A) (A) (A) (A) (A)
                 (A) (A) (A) (A) (A) (A) (A) (A) (A) (A) (A) (A)
                 (A) (A) (A)
 The electronic state is 1-A.
 Alpha  occ. eigenvalues -- -145.51813 -19.19167 -19.17166 -19.15629 -19.13390
 Alpha  occ. eigenvalues --  -19.13111 -19.11864 -19.09936 -19.09359 -19.09183
 Alpha  occ. eigenvalues --  -19.08630 -19.08395 -19.08215 -19.08009 -19.07897
 Alpha  occ. eigenvalues --  -19.05795 -19.04383 -19.04361 -19.04299 -19.03862
 Alpha  occ. eigenvalues --  -19.03792 -19.03257 -19.03148 -19.02458 -15.57807
 Alpha  occ. eigenvalues --  -14.59492 -14.43906 -14.39748 -14.38089 -14.37946
 Alpha  occ. eigenvalues --  -14.36379 -14.35355 -14.34488 -14.34068 -14.32677
 Alpha  occ. eigenvalues --  -14.30091 -14.30016 -14.29461 -14.28837 -14.28160
 Alpha  occ. eigenvalues --  -12.71396 -12.71363 -12.71319 -10.36330 -10.35161
 Alpha  occ. eigenvalues --  -10.32501 -10.31823 -10.30949 -10.29114 -10.28310
 Alpha  occ. eigenvalues --  -10.28138 -10.27723 -10.27561 -10.27301 -10.27198
 Alpha  occ. eigenvalues --  -10.27196 -10.26923 -10.26368 -10.24457 -10.24427
 Alpha  occ. eigenvalues --  -10.24287 -10.23865 -10.23101 -10.22872 -10.22822
 Alpha  occ. eigenvalues --  -10.22731 -10.22443 -10.22441 -10.22304 -10.22274
 Alpha  occ. eigenvalues --  -10.22182 -10.21990 -10.21619 -10.21556 -10.20611
 Alpha  occ. eigenvalues --  -10.20158 -10.19887 -10.19293 -10.18956 -10.18613
 Alpha  occ. eigenvalues --  -10.18206 -10.18143 -10.18002 -10.17947 -10.17929
 Alpha  occ. eigenvalues --  -10.17871 -10.17869 -10.17809 -10.17791 -10.17751
 Alpha  occ. eigenvalues --  -10.17586 -10.17001 -10.16742 -10.13799 -10.13421
 Alpha  occ. eigenvalues --  -10.11876 -10.11832  -1.94449  -1.21875  -1.21691
 Alpha  occ. eigenvalues --   -1.21298  -1.14995  -1.10042  -1.06847  -1.05406
 Alpha  occ. eigenvalues --   -1.05208  -1.04712  -1.04362  -1.03462  -1.03233
 Alpha  occ. eigenvalues --   -1.03044  -1.02490  -1.01451  -1.00829  -0.99444
 Alpha  occ. eigenvalues --   -0.98421  -0.98274  -0.97975  -0.97509  -0.97282
 Alpha  occ. eigenvalues --   -0.96880  -0.95946  -0.95904  -0.95860  -0.95475
 Alpha  occ. eigenvalues --   -0.95221  -0.92989  -0.92580  -0.91943  -0.91550
 Alpha  occ. eigenvalues --   -0.90236  -0.89853  -0.89516  -0.88148  -0.87921
 Alpha  occ. eigenvalues --   -0.87274  -0.87132  -0.86523  -0.85538  -0.85055
 Alpha  occ. eigenvalues --   -0.84264  -0.83952  -0.82887  -0.82815  -0.80150
 Alpha  occ. eigenvalues --   -0.78441  -0.76920  -0.76630  -0.76440  -0.75682
 Alpha  occ. eigenvalues --   -0.75131  -0.74518  -0.74027  -0.73345  -0.73199
 Alpha  occ. eigenvalues --   -0.73109  -0.72616  -0.72290  -0.71664  -0.71286
 Alpha  occ. eigenvalues --   -0.70232  -0.69076  -0.68212  -0.68045  -0.66544
 Alpha  occ. eigenvalues --   -0.66283  -0.66182  -0.65181  -0.64975  -0.64819
 Alpha  occ. eigenvalues --   -0.64508  -0.64012  -0.63680  -0.62545  -0.62331
 Alpha  occ. eigenvalues --   -0.61290  -0.61043  -0.60901  -0.60163  -0.59970
 Alpha  occ. eigenvalues --   -0.59591  -0.59445  -0.58907  -0.58694  -0.57998
 Alpha  occ. eigenvalues --   -0.57751  -0.57501  -0.57402  -0.57193  -0.56989
 Alpha  occ. eigenvalues --   -0.56210  -0.56101  -0.55153  -0.54786  -0.54619
 Alpha  occ. eigenvalues --   -0.54388  -0.54266  -0.54077  -0.53429  -0.53022
 Alpha  occ. eigenvalues --   -0.52885  -0.52569  -0.52253  -0.51862  -0.51761
 Alpha  occ. eigenvalues --   -0.51380  -0.51254  -0.50768  -0.50491  -0.49872
 Alpha  occ. eigenvalues --   -0.49531  -0.49364  -0.49328  -0.49287  -0.48718
 Alpha  occ. eigenvalues --   -0.48622  -0.48531  -0.48282  -0.47744  -0.47640
 Alpha  occ. eigenvalues --   -0.47517  -0.47368  -0.47137  -0.46936  -0.46844
 Alpha  occ. eigenvalues --   -0.46732  -0.46357  -0.46061  -0.45662  -0.45244
 Alpha  occ. eigenvalues --   -0.45142  -0.45042  -0.44981  -0.44684  -0.44486
 Alpha  occ. eigenvalues --   -0.44251  -0.43918  -0.43873  -0.43827  -0.43605
 Alpha  occ. eigenvalues --   -0.43538  -0.43411  -0.43153  -0.43075  -0.43005
 Alpha  occ. eigenvalues --   -0.42730  -0.42310  -0.42160  -0.42008  -0.41886
 Alpha  occ. eigenvalues --   -0.41822  -0.41730  -0.41618  -0.41197  -0.41019
 Alpha  occ. eigenvalues --   -0.40937  -0.40828  -0.40666  -0.40558  -0.40418
 Alpha  occ. eigenvalues --   -0.40197  -0.40111  -0.40007  -0.39889  -0.39643
 Alpha  occ. eigenvalues --   -0.39335  -0.39162  -0.39140  -0.38991  -0.38860
 Alpha  occ. eigenvalues --   -0.38714  -0.38518  -0.38459  -0.38429  -0.38223
 Alpha  occ. eigenvalues --   -0.38175  -0.37949  -0.37872  -0.37826  -0.37747
 Alpha  occ. eigenvalues --   -0.37585  -0.37248  -0.37016  -0.36841  -0.36595
 Alpha  occ. eigenvalues --   -0.36416  -0.36106  -0.36007  -0.35968  -0.35659
 Alpha  occ. eigenvalues --   -0.35540  -0.35502  -0.35382  -0.35272  -0.34871
 Alpha  occ. eigenvalues --   -0.34850  -0.34588  -0.34144  -0.34130  -0.34028
 Alpha  occ. eigenvalues --   -0.33863  -0.33803  -0.33484  -0.33215  -0.33031
 Alpha  occ. eigenvalues --   -0.32930  -0.32779  -0.32748  -0.32722  -0.32428
 Alpha  occ. eigenvalues --   -0.32211  -0.31812  -0.31654  -0.30808  -0.30626
 Alpha  occ. eigenvalues --   -0.30487  -0.30062  -0.29723  -0.29434  -0.28978
 Alpha  occ. eigenvalues --   -0.28711  -0.28601  -0.28519  -0.28239  -0.28102
 Alpha  occ. eigenvalues --   -0.27918  -0.27862  -0.27379  -0.26898  -0.26576
 Alpha  occ. eigenvalues --   -0.26161  -0.25730  -0.25461  -0.24845  -0.24750
 Alpha  occ. eigenvalues --   -0.24629  -0.24379  -0.24304  -0.23513  -0.23451
 Alpha  occ. eigenvalues --   -0.22891  -0.22794  -0.22146  -0.21785  -0.21430
 Alpha  occ. eigenvalues --   -0.21300  -0.21087  -0.20806  -0.20666  -0.20541
 Alpha  occ. eigenvalues --   -0.20493  -0.20046  -0.19015  -0.18521  -0.18277
 Alpha  occ. eigenvalues --   -0.18025  -0.17931  -0.17883
 Alpha virt. eigenvalues --   -0.17005  -0.11670  -0.06394  -0.05913  -0.05526
 Alpha virt. eigenvalues --   -0.04408  -0.03819  -0.03331  -0.02600  -0.02225
 Alpha virt. eigenvalues --   -0.01215  -0.01045  -0.00703  -0.00546   0.00488
 Alpha virt. eigenvalues --    0.00646   0.01192   0.01320   0.01443   0.01593
 Alpha virt. eigenvalues --    0.01893   0.02294   0.02556   0.02716   0.02967
 Alpha virt. eigenvalues --    0.03537   0.03857   0.04099   0.04597   0.04720
 Alpha virt. eigenvalues --    0.05024   0.05408   0.05604   0.05826   0.06121
 Alpha virt. eigenvalues --    0.06296   0.06838   0.07134   0.07362   0.07470
 Alpha virt. eigenvalues --    0.07583   0.07655   0.07920   0.08201   0.08364
 Alpha virt. eigenvalues --    0.08673   0.08803   0.08850   0.09125   0.09242
 Alpha virt. eigenvalues --    0.09436   0.09618   0.10004   0.10293   0.10393
 Alpha virt. eigenvalues --    0.10657   0.10816   0.11022   0.11359   0.11414
 Alpha virt. eigenvalues --    0.11544   0.11805   0.12200   0.12311   0.12637
 Alpha virt. eigenvalues --    0.12866   0.13138   0.13214   0.13387   0.13570
 Alpha virt. eigenvalues --    0.13729   0.14140   0.14299   0.14441   0.14583
 Alpha virt. eigenvalues --    0.14785   0.14841   0.15054   0.15304   0.15456
 Alpha virt. eigenvalues --    0.15541   0.15693   0.15863   0.16045   0.16209
 Alpha virt. eigenvalues --    0.16233   0.16560   0.16760   0.16901   0.17196
 Alpha virt. eigenvalues --    0.17301   0.17418   0.17532   0.17763   0.17873
 Alpha virt. eigenvalues --    0.18008   0.18265   0.18350   0.18494   0.18819
 Alpha virt. eigenvalues --    0.18856   0.19082   0.19143   0.19386   0.19612
 Alpha virt. eigenvalues --    0.19698   0.19902   0.20190   0.20382   0.20538
 Alpha virt. eigenvalues --    0.20671   0.20896   0.21064   0.21182   0.21385
 Alpha virt. eigenvalues --    0.21507   0.21841   0.21919   0.22346   0.22503
 Alpha virt. eigenvalues --    0.22719   0.22766   0.23273   0.23336   0.23405
 Alpha virt. eigenvalues --    0.23610   0.23755   0.23976   0.24140   0.24338
 Alpha virt. eigenvalues --    0.24815   0.24958   0.25200   0.25400   0.25846
 Alpha virt. eigenvalues --    0.26006   0.26343   0.26443   0.26615   0.26835
 Alpha virt. eigenvalues --    0.26911   0.27207   0.27664   0.27738   0.27961
 Alpha virt. eigenvalues --    0.28192   0.28527   0.28620   0.28723   0.29103
 Alpha virt. eigenvalues --    0.29478   0.29613   0.29793   0.29879   0.30090
 Alpha virt. eigenvalues --    0.30377   0.30604   0.31015   0.31304   0.31368
 Alpha virt. eigenvalues --    0.31498   0.31693   0.32065   0.32283   0.32659
 Alpha virt. eigenvalues --    0.32684   0.33018   0.33248   0.33407   0.33648
 Alpha virt. eigenvalues --    0.33814   0.34025   0.34211   0.34611   0.34724
 Alpha virt. eigenvalues --    0.35048   0.35200   0.35630   0.35792   0.36211
 Alpha virt. eigenvalues --    0.36410   0.36593   0.36993   0.37247   0.37423
 Alpha virt. eigenvalues --    0.37622   0.37907   0.38240   0.38513   0.38735
 Alpha virt. eigenvalues --    0.39050   0.39479   0.39629   0.39830   0.40332
 Alpha virt. eigenvalues --    0.40513   0.40828   0.41017   0.41409   0.41605
 Alpha virt. eigenvalues --    0.42047   0.42217   0.42630   0.43055   0.43062
 Alpha virt. eigenvalues --    0.43241   0.43479   0.43750   0.44002   0.44162
 Alpha virt. eigenvalues --    0.44246   0.44635   0.45042   0.45260   0.45381
 Alpha virt. eigenvalues --    0.45599   0.45750   0.45940   0.46063   0.46789
 Alpha virt. eigenvalues --    0.46870   0.47015   0.47324   0.47364   0.47525
 Alpha virt. eigenvalues --    0.47709   0.47875   0.47996   0.48161   0.48384
 Alpha virt. eigenvalues --    0.48451   0.48585   0.48838   0.49070   0.49202
 Alpha virt. eigenvalues --    0.49529   0.49636   0.49841   0.50038   0.50229
 Alpha virt. eigenvalues --    0.50397   0.50541   0.50820   0.51024   0.51143
 Alpha virt. eigenvalues --    0.51328   0.51521   0.51799   0.52050   0.52250
 Alpha virt. eigenvalues --    0.52336   0.52707   0.52964   0.53063   0.53157
 Alpha virt. eigenvalues --    0.53315   0.53432   0.53588   0.53637   0.53877
 Alpha virt. eigenvalues --    0.54106   0.54262   0.54357   0.54642   0.54883
 Alpha virt. eigenvalues --    0.54951   0.54986   0.55283   0.55338   0.55397
 Alpha virt. eigenvalues --    0.55718   0.56228   0.56416   0.56478   0.56810
 Alpha virt. eigenvalues --    0.56918   0.57040   0.57345   0.57407   0.57677
 Alpha virt. eigenvalues --    0.57876   0.57945   0.58259   0.58456   0.58687
 Alpha virt. eigenvalues --    0.58791   0.58936   0.59025   0.59154   0.59337
 Alpha virt. eigenvalues --    0.59531   0.59632   0.59748   0.60060   0.60156
 Alpha virt. eigenvalues --    0.60290   0.60535   0.60546   0.60860   0.60963
 Alpha virt. eigenvalues --    0.61091   0.61135   0.61507   0.61578   0.61695
 Alpha virt. eigenvalues --    0.61871   0.62011   0.62207   0.62335   0.62431
 Alpha virt. eigenvalues --    0.62614   0.62726   0.62860   0.63119   0.63408
 Alpha virt. eigenvalues --    0.63489   0.63618   0.63871   0.63915   0.64226
 Alpha virt. eigenvalues --    0.64425   0.64443   0.64556   0.64655   0.64759
 Alpha virt. eigenvalues --    0.64861   0.64912   0.64978   0.65293   0.65337
 Alpha virt. eigenvalues --    0.65599   0.65685   0.65720   0.65899   0.66043
 Alpha virt. eigenvalues --    0.66049   0.66142   0.66218   0.66383   0.66585
 Alpha virt. eigenvalues --    0.66630   0.66668   0.66821   0.66904   0.67081
 Alpha virt. eigenvalues --    0.67272   0.67395   0.67541   0.67674   0.67809
 Alpha virt. eigenvalues --    0.67911   0.68170   0.68246   0.68357   0.68441
 Alpha virt. eigenvalues --    0.68498   0.68551   0.68628   0.68669   0.68871
 Alpha virt. eigenvalues --    0.69010   0.69157   0.69335   0.69407   0.69511
 Alpha virt. eigenvalues --    0.69705   0.69769   0.69882   0.70020   0.70154
 Alpha virt. eigenvalues --    0.70262   0.70273   0.70426   0.70519   0.70781
 Alpha virt. eigenvalues --    0.70902   0.71056   0.71155   0.71270   0.71503
 Alpha virt. eigenvalues --    0.71583   0.71726   0.71748   0.72038   0.72116
 Alpha virt. eigenvalues --    0.72137   0.72291   0.72485   0.72549   0.72598
 Alpha virt. eigenvalues --    0.72943   0.73005   0.73108   0.73241   0.73340
 Alpha virt. eigenvalues --    0.73576   0.73626   0.73937   0.74137   0.74240
 Alpha virt. eigenvalues --    0.74401   0.74540   0.74664   0.74718   0.74791
 Alpha virt. eigenvalues --    0.75019   0.75100   0.75266   0.75391   0.75645
 Alpha virt. eigenvalues --    0.75975   0.76160   0.76176   0.76251   0.76522
 Alpha virt. eigenvalues --    0.76668   0.76934   0.77137   0.77303   0.77531
 Alpha virt. eigenvalues --    0.77791   0.78062   0.78188   0.78599   0.78708
 Alpha virt. eigenvalues --    0.78804   0.79103   0.79489   0.79793   0.79958
 Alpha virt. eigenvalues --    0.80119   0.80413   0.80616   0.80966   0.81161
 Alpha virt. eigenvalues --    0.81548   0.81637   0.81923   0.82175   0.82353
 Alpha virt. eigenvalues --    0.82655   0.83308   0.83405   0.83642   0.84107
 Alpha virt. eigenvalues --    0.84398   0.84626   0.84721   0.84909   0.85311
 Alpha virt. eigenvalues --    0.85496   0.85628   0.86327   0.86702   0.87039
 Alpha virt. eigenvalues --    0.87148   0.87396   0.87545   0.87668   0.87887
 Alpha virt. eigenvalues --    0.88369   0.88558   0.88966   0.89142   0.89368
 Alpha virt. eigenvalues --    0.89719   0.90152   0.90349   0.91144   0.91235
 Alpha virt. eigenvalues --    0.91300   0.91753   0.91885   0.91935   0.92055
 Alpha virt. eigenvalues --    0.92482   0.92591   0.92986   0.93420   0.93500
 Alpha virt. eigenvalues --    0.93856   0.94005   0.94289   0.94549   0.94806
 Alpha virt. eigenvalues --    0.95072   0.95235   0.95610   0.96116   0.96170
 Alpha virt. eigenvalues --    0.96358   0.96611   0.96917   0.97387   0.97651
 Alpha virt. eigenvalues --    0.98064   0.98241   0.98711   0.98821   0.99199
 Alpha virt. eigenvalues --    0.99445   0.99757   1.00073   1.00158   1.00452
 Alpha virt. eigenvalues --    1.00915   1.01229   1.01375   1.01465   1.01947
 Alpha virt. eigenvalues --    1.02391   1.02735   1.03157   1.03434   1.03701
 Alpha virt. eigenvalues --    1.04106   1.04264   1.04576   1.04685   1.05115
 Alpha virt. eigenvalues --    1.05429   1.05857   1.06167   1.06494   1.06701
 Alpha virt. eigenvalues --    1.06925   1.07837   1.08105   1.08595   1.08800
 Alpha virt. eigenvalues --    1.09159   1.09275   1.09445   1.09607   1.09818
 Alpha virt. eigenvalues --    1.10155   1.10375   1.10467   1.10876   1.11133
 Alpha virt. eigenvalues --    1.11243   1.11767   1.11917   1.12094   1.12538
 Alpha virt. eigenvalues --    1.12722   1.13153   1.13286   1.13554   1.13909
 Alpha virt. eigenvalues --    1.14372   1.14506   1.14754   1.14815   1.15255
 Alpha virt. eigenvalues --    1.15576   1.15799   1.16117   1.16381   1.16602
 Alpha virt. eigenvalues --    1.16656   1.16926   1.16993   1.17327   1.17851
 Alpha virt. eigenvalues --    1.18140   1.18294   1.18459   1.18875   1.19261
 Alpha virt. eigenvalues --    1.19350   1.19502   1.19556   1.19824   1.20021
 Alpha virt. eigenvalues --    1.20226   1.20399   1.20534   1.20764   1.20918
 Alpha virt. eigenvalues --    1.21271   1.21473   1.21826   1.22030   1.22087
 Alpha virt. eigenvalues --    1.22689   1.22773   1.23066   1.23226   1.23333
 Alpha virt. eigenvalues --    1.23903   1.24100   1.24204   1.24551   1.24826
 Alpha virt. eigenvalues --    1.25002   1.25340   1.25514   1.25838   1.26085
 Alpha virt. eigenvalues --    1.26348   1.26505   1.26847   1.27172   1.27212
 Alpha virt. eigenvalues --    1.27985   1.28208   1.28393   1.28472   1.28709
 Alpha virt. eigenvalues --    1.28956   1.29318   1.29647   1.29925   1.30276
 Alpha virt. eigenvalues --    1.30649   1.30699   1.31043   1.31282   1.31481
 Alpha virt. eigenvalues --    1.31833   1.32041   1.32552   1.32945   1.33006
 Alpha virt. eigenvalues --    1.33394   1.33557   1.33652   1.34030   1.34292
 Alpha virt. eigenvalues --    1.34702   1.34894   1.35238   1.35525   1.35598
 Alpha virt. eigenvalues --    1.36110   1.36311   1.36406   1.36800   1.37221
 Alpha virt. eigenvalues --    1.37308   1.37384   1.38171   1.38353   1.38485
 Alpha virt. eigenvalues --    1.38645   1.38845   1.39475   1.39635   1.40024
 Alpha virt. eigenvalues --    1.40330   1.40517   1.40546   1.41006   1.41106
 Alpha virt. eigenvalues --    1.41248   1.41655   1.41898   1.42668   1.42742
 Alpha virt. eigenvalues --    1.43013   1.43179   1.43999   1.44489   1.44572
 Alpha virt. eigenvalues --    1.44682   1.44912   1.45316   1.45970   1.46815
 Alpha virt. eigenvalues --    1.47167   1.47369   1.47543   1.47847   1.47961
 Alpha virt. eigenvalues --    1.48153   1.48344   1.49062   1.49386   1.49530
 Alpha virt. eigenvalues --    1.49977   1.50398   1.50620   1.50758   1.51006
 Alpha virt. eigenvalues --    1.51071   1.51390   1.51513   1.51650   1.52153
 Alpha virt. eigenvalues --    1.52478   1.52511   1.52764   1.53267   1.53446
 Alpha virt. eigenvalues --    1.53696   1.53726   1.54662   1.55048   1.55255
 Alpha virt. eigenvalues --    1.55526   1.55881   1.56079   1.56284   1.56588
 Alpha virt. eigenvalues --    1.57002   1.57044   1.57273   1.58338   1.58860
 Alpha virt. eigenvalues --    1.59036   1.59253   1.59367   1.59441   1.59875
 Alpha virt. eigenvalues --    1.60180   1.60330   1.60628   1.61374   1.61794
 Alpha virt. eigenvalues --    1.61870   1.62352   1.62616   1.63080   1.63295
 Alpha virt. eigenvalues --    1.63553   1.63775   1.64442   1.64667   1.64980
 Alpha virt. eigenvalues --    1.65186   1.65480   1.65677   1.65788   1.66352
 Alpha virt. eigenvalues --    1.66564   1.66704   1.66867   1.67515   1.67697
 Alpha virt. eigenvalues --    1.67883   1.68022   1.68260   1.68494   1.68803
 Alpha virt. eigenvalues --    1.69208   1.69461   1.69774   1.70221   1.70631
 Alpha virt. eigenvalues --    1.70688   1.70800   1.71066   1.71582   1.71683
 Alpha virt. eigenvalues --    1.71998   1.72242   1.72311   1.72766   1.72967
 Alpha virt. eigenvalues --    1.73177   1.73237   1.73529   1.73666   1.73834
 Alpha virt. eigenvalues --    1.74018   1.74081   1.74423   1.74650   1.74745
 Alpha virt. eigenvalues --    1.75022   1.75274   1.75537   1.75787   1.75862
 Alpha virt. eigenvalues --    1.75890   1.76068   1.76325   1.76455   1.76603
 Alpha virt. eigenvalues --    1.76843   1.76999   1.77176   1.77401   1.77526
 Alpha virt. eigenvalues --    1.77694   1.77752   1.78506   1.78629   1.78696
 Alpha virt. eigenvalues --    1.78905   1.79207   1.79238   1.79397   1.79715
 Alpha virt. eigenvalues --    1.79747   1.80038   1.80544   1.80598   1.80663
 Alpha virt. eigenvalues --    1.81050   1.81169   1.81350   1.81856   1.81968
 Alpha virt. eigenvalues --    1.81999   1.82189   1.82370   1.82704   1.82806
 Alpha virt. eigenvalues --    1.82865   1.83296   1.83494   1.83624   1.83734
 Alpha virt. eigenvalues --    1.83867   1.83925   1.84066   1.84126   1.84781
 Alpha virt. eigenvalues --    1.85108   1.85306   1.85727   1.85769   1.85824
 Alpha virt. eigenvalues --    1.86153   1.86395   1.86485   1.86686   1.87017
 Alpha virt. eigenvalues --    1.87255   1.87418   1.87620   1.87733   1.87945
 Alpha virt. eigenvalues --    1.88172   1.88371   1.88491   1.88653   1.89000
 Alpha virt. eigenvalues --    1.89232   1.89374   1.89592   1.89647   1.89767
 Alpha virt. eigenvalues --    1.90091   1.90184   1.90232   1.90329   1.90579
 Alpha virt. eigenvalues --    1.90629   1.90925   1.91174   1.91317   1.91460
 Alpha virt. eigenvalues --    1.91628   1.91899   1.91950   1.92053   1.92268
 Alpha virt. eigenvalues --    1.92390   1.92559   1.92894   1.93128   1.93334
 Alpha virt. eigenvalues --    1.93434   1.93790   1.94011   1.94464   1.94513
 Alpha virt. eigenvalues --    1.94778   1.95139   1.95273   1.95367   1.95540
 Alpha virt. eigenvalues --    1.95731   1.96036   1.96052   1.96227   1.96561
 Alpha virt. eigenvalues --    1.96602   1.96788   1.97072   1.97260   1.97297
 Alpha virt. eigenvalues --    1.97607   1.97885   1.98036   1.98506   1.98940
 Alpha virt. eigenvalues --    1.99039   1.99106   1.99416   1.99746   1.99952
 Alpha virt. eigenvalues --    2.00063   2.00242   2.00480   2.00660   2.00861
 Alpha virt. eigenvalues --    2.01161   2.01666   2.01730   2.01849   2.01922
 Alpha virt. eigenvalues --    2.02249   2.02408   2.02724   2.02884   2.03209
 Alpha virt. eigenvalues --    2.03646   2.03844   2.03940   2.04221   2.04318
 Alpha virt. eigenvalues --    2.04486   2.04534   2.04839   2.05065   2.05257
 Alpha virt. eigenvalues --    2.05547   2.05979   2.06192   2.06284   2.06809
 Alpha virt. eigenvalues --    2.06922   2.07243   2.07369   2.07695   2.07959
 Alpha virt. eigenvalues --    2.08198   2.08388   2.08638   2.08880   2.09376
 Alpha virt. eigenvalues --    2.09679   2.09919   2.10020   2.10442   2.10598
 Alpha virt. eigenvalues --    2.10776   2.11498   2.11818   2.12028   2.12236
 Alpha virt. eigenvalues --    2.12932   2.13110   2.13281   2.13613   2.13910
 Alpha virt. eigenvalues --    2.14233   2.14402   2.14902   2.15049   2.15379
 Alpha virt. eigenvalues --    2.15645   2.16058   2.16152   2.16919   2.17178
 Alpha virt. eigenvalues --    2.17430   2.17526   2.17758   2.18173   2.18303
 Alpha virt. eigenvalues --    2.18420   2.18690   2.18779   2.19191   2.19535
 Alpha virt. eigenvalues --    2.19915   2.20111   2.20318   2.21452   2.21570
 Alpha virt. eigenvalues --    2.21629   2.22008   2.22270   2.22843   2.23297
 Alpha virt. eigenvalues --    2.23559   2.23822   2.24113   2.24464   2.24627
 Alpha virt. eigenvalues --    2.25389   2.25469   2.25523   2.26277   2.26676
 Alpha virt. eigenvalues --    2.26953   2.27636   2.28004   2.28495   2.29161
 Alpha virt. eigenvalues --    2.29304   2.29690   2.29914   2.30114   2.30161
 Alpha virt. eigenvalues --    2.30235   2.30807   2.31117   2.31377   2.31619
 Alpha virt. eigenvalues --    2.31889   2.32547   2.32919   2.33145   2.33377
 Alpha virt. eigenvalues --    2.33550   2.33981   2.34349   2.34443   2.34651
 Alpha virt. eigenvalues --    2.34866   2.35019   2.35260   2.35594   2.35650
 Alpha virt. eigenvalues --    2.35817   2.36303   2.36637   2.37129   2.37338
 Alpha virt. eigenvalues --    2.37624   2.37664   2.38037   2.38384   2.38579
 Alpha virt. eigenvalues --    2.38628   2.38688   2.38988   2.39418   2.39847
 Alpha virt. eigenvalues --    2.39864   2.40457   2.40940   2.41029   2.41645
 Alpha virt. eigenvalues --    2.41671   2.41976   2.42066   2.43219   2.43325
 Alpha virt. eigenvalues --    2.43662   2.44048   2.44338   2.44743   2.45078
 Alpha virt. eigenvalues --    2.45734   2.46076   2.46342   2.46621   2.47098
 Alpha virt. eigenvalues --    2.47214   2.47683   2.47704   2.47919   2.48052
 Alpha virt. eigenvalues --    2.48075   2.48672   2.48898   2.49283   2.49439
 Alpha virt. eigenvalues --    2.50135   2.50500   2.50581   2.50708   2.51410
 Alpha virt. eigenvalues --    2.52532   2.52629   2.53222   2.53473   2.53560
 Alpha virt. eigenvalues --    2.54118   2.54647   2.54883   2.55153   2.55461
 Alpha virt. eigenvalues --    2.55971   2.56250   2.56499   2.56972   2.57207
 Alpha virt. eigenvalues --    2.57432   2.57556   2.57899   2.58190   2.58513
 Alpha virt. eigenvalues --    2.58868   2.59381   2.59873   2.60386   2.60428
 Alpha virt. eigenvalues --    2.60692   2.60933   2.61146   2.61377   2.61589
 Alpha virt. eigenvalues --    2.62120   2.62430   2.62529   2.62595   2.62801
 Alpha virt. eigenvalues --    2.63427   2.63591   2.64091   2.64328   2.64455
 Alpha virt. eigenvalues --    2.64854   2.65120   2.65209   2.66158   2.66365
 Alpha virt. eigenvalues --    2.67002   2.67150   2.67287   2.67296   2.67965
 Alpha virt. eigenvalues --    2.68132   2.68641   2.69139   2.69393   2.69738
 Alpha virt. eigenvalues --    2.69888   2.69944   2.70795   2.71175   2.71394
 Alpha virt. eigenvalues --    2.71581   2.71640   2.71708   2.72084   2.72390
 Alpha virt. eigenvalues --    2.72453   2.73355   2.73455   2.73731   2.73876
 Alpha virt. eigenvalues --    2.74096   2.74344   2.74841   2.74978   2.75221
 Alpha virt. eigenvalues --    2.75367   2.75894   2.76083   2.76313   2.76531
 Alpha virt. eigenvalues --    2.76619   2.76980   2.77294   2.77566   2.77778
 Alpha virt. eigenvalues --    2.77836   2.78042   2.78161   2.78811   2.78951
 Alpha virt. eigenvalues --    2.79409   2.79483   2.79693   2.80261   2.80560
 Alpha virt. eigenvalues --    2.80707   2.80903   2.81165   2.81589   2.81724
 Alpha virt. eigenvalues --    2.81863   2.82130   2.82680   2.82976   2.83096
 Alpha virt. eigenvalues --    2.83288   2.83836   2.84049   2.84430   2.84907
 Alpha virt. eigenvalues --    2.84982   2.85017   2.85264   2.85632   2.86679
 Alpha virt. eigenvalues --    2.87068   2.87201   2.87344   2.87798   2.88255
 Alpha virt. eigenvalues --    2.88442   2.88489   2.88911   2.89082   2.89220
 Alpha virt. eigenvalues --    2.89597   2.89690   2.89926   2.90364   2.90459
 Alpha virt. eigenvalues --    2.90921   2.90987   2.91205   2.91385   2.91902
 Alpha virt. eigenvalues --    2.92264   2.92926   2.93537   2.94187   2.94594
 Alpha virt. eigenvalues --    2.94641   2.94921   2.95158   2.95320   2.95878
 Alpha virt. eigenvalues --    2.96064   2.96737   2.97081   2.97168   2.97418
 Alpha virt. eigenvalues --    2.97620   2.97838   2.97997   2.98245   2.98381
 Alpha virt. eigenvalues --    2.98635   2.98826   2.99311   2.99722   3.00079
 Alpha virt. eigenvalues --    3.00141   3.00661   3.01028   3.01393   3.01441
 Alpha virt. eigenvalues --    3.01684   3.02086   3.02274   3.02607   3.02872
 Alpha virt. eigenvalues --    3.03036   3.03222   3.03513   3.04408   3.04519
 Alpha virt. eigenvalues --    3.04737   3.05049   3.05347   3.05744   3.06078
 Alpha virt. eigenvalues --    3.07325   3.08338   3.08372   3.08838   3.08970
 Alpha virt. eigenvalues --    3.09923   3.10383   3.11342   3.12237   3.12761
 Alpha virt. eigenvalues --    3.12874   3.13078   3.13216   3.13539   3.13819
 Alpha virt. eigenvalues --    3.14222   3.14503   3.14600   3.14870   3.14997
 Alpha virt. eigenvalues --    3.15396   3.15898   3.16430   3.17014   3.17799
 Alpha virt. eigenvalues --    3.17849   3.18118   3.18386   3.18638   3.18926
 Alpha virt. eigenvalues --    3.19869   3.20396   3.20412   3.20566   3.21094
 Alpha virt. eigenvalues --    3.21700   3.21848   3.22612   3.23282   3.23442
 Alpha virt. eigenvalues --    3.24267   3.24424   3.24633   3.25282   3.25752
 Alpha virt. eigenvalues --    3.26006   3.26562   3.27010   3.27926   3.28207
 Alpha virt. eigenvalues --    3.28423   3.29109   3.29647   3.29958   3.31532
 Alpha virt. eigenvalues --    3.31664   3.33344   3.34187   3.35353   3.35657
 Alpha virt. eigenvalues --    3.36730   3.36939   3.39487   3.39643   3.41564
 Alpha virt. eigenvalues --    3.43522   3.45185   3.45593   3.46667   3.47299
 Alpha virt. eigenvalues --    3.48410   3.49133   3.49340   3.53086   3.55916
 Alpha virt. eigenvalues --    3.56634   3.58381   3.60618   3.60856   3.61920
 Alpha virt. eigenvalues --    3.61989   3.62594   3.62995   3.63806   3.64093
 Alpha virt. eigenvalues --    3.64264   3.64447   3.64642   3.65589   3.66570
 Alpha virt. eigenvalues --    3.67226   3.67678   3.68365   3.68528   3.69620
 Alpha virt. eigenvalues --    3.70024   3.71678   3.72059   3.72231   3.72570
 Alpha virt. eigenvalues --    3.73078   3.73656   3.74158   3.74183   3.75341
 Alpha virt. eigenvalues --    3.78478   3.81113   3.82159   3.92285
          Condensed to atoms (all electrons):
 Mulliken charges:
               1
     1  C    0.048593
     2  C    0.051941
     3  O   -0.349120
     4  H    0.040156
     5  H    0.057311
     6  H    0.037516
     7  N   -0.109479
     8  C    0.123429
     9  C    0.072710
    10  O   -0.247793
    11  C    0.045766
    12  C    0.098189
    13  O   -0.310080
    14  O   -0.286859
    15  H    0.121291
    16  H   -0.057311
    17  H    0.010674
    18  H   -0.023465
    19  N   -0.136119
    20  C    0.195356
    21  C    0.066637
    22  O   -0.263499
    23  C   -0.064252
    24  C    0.075133
    25  C   -0.086174
    26  C    0.059261
    27  N    0.086690
    28  H    0.109085
    29  H    0.030577
    30  H    0.008407
    31  H    0.012989
    32  H    0.066484
    33  H    0.016368
    34  H   -0.024667
    35  H    0.035421
    36  H    0.104387
    37  H    0.077585
    38  H    0.175469
    39  H    0.184077
    40  H    0.171468
    41  N   -0.144710
    42  C    0.122378
    43  C    0.051869
    44  O   -0.270748
    45  C    0.100848
    46  C    0.083310
    47  O   -0.411272
    48  O   -0.409716
    49  H    0.117895
    50  H    0.050095
    51  H    0.042342
    52  H    0.053756
    53  N   -0.146297
    54  C    0.158427
    55  C    0.030171
    56  O   -0.282424
    57  H    0.105319
    58  H    0.059016
    59  H    0.024093
    60  N   -0.108343
    61  C    0.104126
    62  C    0.057616
    63  O   -0.283493
    64  C    0.055688
    65  C    0.036392
    66  N   -0.043723
    67  O   -0.252996
    68  H    0.114326
    69  H    0.031119
    70  H    0.017179
    71  H    0.025616
    72  H    0.132277
    73  H    0.133810
    74  N   -0.095015
    75  C    0.131864
    76  C    0.098081
    77  O   -0.239674
    78  H    0.135637
    79  H    0.022340
    80  H    0.028033
    81  N   -0.157237
    82  C    0.076015
    83  C    0.043358
    84  O   -0.235855
    85  C    0.169518
    86  C   -0.007011
    87  C    0.021723
    88  C   -0.008626
    89  C   -0.004942
    90  C   -0.031227
    91  C    0.144748
    92  O   -0.210724
    93  H    0.128424
    94  H    0.050990
    95  H    0.030468
    96  H   -0.010057
    97  H   -0.023044
    98  H   -0.054021
    99  H   -0.029166
   100  H   -0.061766
   101  H    0.166423
   102  N   -0.103475
   103  C    0.166814
   104  C    0.064710
   105  O   -0.286518
   106  C   -0.103212
   107  C   -0.009797
   108  C    0.065695
   109  C    0.057554
   110  H    0.111356
   111  H    0.002104
   112  H    0.002161
   113  H   -0.064364
   114  H    0.002347
   115  H    0.025823
   116  H   -0.047381
   117  H    0.016088
   118  H    0.018089
   119  H    0.002507
   120  H   -0.031902
   121  N   -0.164589
   122  C    0.096770
   123  C    0.062326
   124  O   -0.281220
   125  C    0.301252
   126  O   -0.357987
   127  H    0.146625
   128  H   -0.005213
   129  H   -0.006653
   130  H    0.004250
   131  H    0.158687
   132  N   -0.177557
   133  C    0.113737
   134  C    0.059606
   135  O   -0.265260
   136  C    0.049583
   137  H    0.126812
   138  H    0.018879
   139  H   -0.000741
   140  H    0.029148
   141  H   -0.029795
   142  N   -0.155893
   143  C    0.097846
   144  C    0.023591
   145  O   -0.265516
   146  C    0.078512
   147  H    0.119102
   148  H    0.001245
   149  H   -0.000393
   150  H   -0.019014
   151  H    0.035882
   152  N   -0.153820
   153  C    0.200954
   154  C    0.045401
   155  O   -0.288434
   156  C   -0.058410
   157  C    0.106859
   158  C    0.059995
   159  O   -0.369724
   160  O   -0.414741
   161  H    0.118527
   162  H    0.007830
   163  H    0.043485
   164  H   -0.001797
   165  H    0.017480
   166  H    0.005317
   167  N   -0.160969
   168  C    0.146007
   169  H    0.012185
   170  H    0.003139
   171  H    0.025401
   172  H    0.120451
   173  Ca   1.168836
   174  O   -0.359717
   175  H    0.200956
   176  H    0.184810
 Sum of Mulliken charges =  -0.00000
 Mulliken charges with hydrogens summed into heavy atoms:
               1
     1  C    0.183575
     2  C    0.051941
     3  O   -0.349120
     7  N    0.011812
     8  C    0.066118
     9  C    0.072710
    10  O   -0.247793
    11  C    0.032975
    12  C    0.098189
    13  O   -0.310080
    14  O   -0.286859
    19  N   -0.027034
    20  C    0.225933
    21  C    0.066637
    22  O   -0.263499
    23  C   -0.042856
    24  C    0.157985
    25  C   -0.075421
    26  C    0.241233
    27  N    0.617704
    41  N   -0.026815
    42  C    0.172473
    43  C    0.051869
    44  O   -0.270748
    45  C    0.196947
    46  C    0.083310
    47  O   -0.411272
    48  O   -0.409716
    53  N   -0.040978
    54  C    0.241535
    55  C    0.030171
    56  O   -0.282424
    60  N    0.005982
    61  C    0.135245
    62  C    0.057616
    63  O   -0.283493
    64  C    0.098483
    65  C    0.036392
    66  N    0.222364
    67  O   -0.252996
    74  N    0.040623
    75  C    0.182238
    76  C    0.098081
    77  O   -0.239674
    81  N   -0.028812
    82  C    0.127005
    83  C    0.043358
    84  O   -0.235855
    85  C    0.189928
    86  C   -0.007011
    87  C   -0.001321
    88  C   -0.062647
    89  C   -0.034108
    90  C   -0.092992
    91  C    0.144748
    92  O   -0.044300
   102  N    0.007881
   103  C    0.168919
   104  C    0.064710
   105  O   -0.286518
   106  C   -0.101051
   107  C   -0.071814
   108  C    0.060225
   109  C    0.046247
   121  N   -0.017964
   122  C    0.091557
   123  C    0.062326
   124  O   -0.281220
   125  C    0.298849
   126  O   -0.199300
   132  N   -0.050745
   133  C    0.132616
   134  C    0.059606
   135  O   -0.265260
   136  C    0.048196
   142  N   -0.036792
   143  C    0.099091
   144  C    0.023591
   145  O   -0.265516
   146  C    0.094987
   152  N   -0.035294
   153  C    0.208784
   154  C    0.045401
   155  O   -0.288434
   156  C   -0.016723
   157  C    0.129656
   158  C    0.059995
   159  O   -0.369724
   160  O   -0.414741
   167  N   -0.040517
   168  C    0.186733
   173  Ca   1.168836
   174  O    0.026049
 DipInt: DoE/N= T F RetVal/Mat= T F Init=T NMatP=  1 IDeriv=0 Min/MaxMlt=  0  4
 Entering OneElI...
 OneElI was handed  1333951383 working-precision words.
 Multipole integrals L=0 to 4 MinM= 0 MaxM= 0.
 Requested accuracy = 0.1000D-12
 ShPair: Thresh= 1.00D-13 NBox=     0 BxSize= 0.00D+00 RnKept= 2.88D+01
         NSMCal=               327645 NSMKep=              155311
 PrmmSu-InSpLW:  IPartL=    0 NPrtUS=    1 NPrtUL=    1 DoSpLW=F IThBeg=    0 IThEnd=    0 NThAct=    1.
 PrsmSu:  NPrtUS=   1 ThrOK=F IAlg=1 NPAlg=1 LenDen=           0 ISkipM=0 DoSpLW=F IThBeg=    0 IThEnd=    0.
 Prism:   IPart=     0 DynPar=F LinDyn=F Incr=         512.
 PRISM was handed  1324130793 working-precision words and155311 shell-pairs
 IPart=  0 NShTot=      155311 NBatch=         352 AvBLen=       441.2
 PrsmSu-ThDecC:  IPartSL=    0    0 NPrtUSL=    1    1 IThBeg=    0 IThEnd=    0 CPU=   -1 GPU=   -1 NThAct=    1.
 PrSmSu:  NxtVal=            513.
 Electronic moments (au):
       -716.00000000         -2.69018659        -19.32080216          0.04058785
     -50053.50586372     -30179.55361136     -22889.02568744         26.29967684
        -75.19791560         83.74018140     263096.45874232     -28786.50420332
     -40699.05574923     -82335.94016878     -35936.29553729      42398.65093110
      -8107.79992901      30196.60694962       6546.14640382      11065.67892930
   -8514891.99304796   -3048290.56241507   -1824635.55927683     670988.15976532
    -279158.63810507    -239894.20835440     -91006.39725860    -101826.00029066
      62602.52942184    -958704.71262127   -1378907.25318858    -820941.42125076
     122344.56652812     -43563.07201354     -35428.58339599
 Electronic spatial extent (au):  <R**2>=         103122.0852
 DipInt: DoE/N= F T RetVal/Mat= T F Init=T NMatP=  1 IDeriv=0 Min/MaxMlt=  0  4
 Nuclear    moments (au):
        716.00000000          0.00000000          0.00000000          0.00000000
      49547.69030857      29782.38093230      22604.79283799         -0.00000000
         -0.00000000         -0.00000000    -262029.16008752      27457.21777268
      40485.87357387      82583.66008686      34772.71355826     -40251.25847960
       7125.28529893     -31938.56331998      -7188.47144289     -11277.22716319
    8292840.39762987    2941390.06672930    1769780.75445450    -662158.04892562
     250350.78718174     239181.17911758      97651.44266241      96686.48703205
     -54600.06581159     916236.97778977    1337483.86570146     799095.22899339
    -119668.30828524      45577.96085288      40365.50830744
 Total      moments (au):
         -0.00000000         -2.69018659        -19.32080216          0.04058785
       -505.81555515       -397.17267906       -284.23284946         26.29967684
        -75.19791560         83.74018140       1067.29865479      -1329.28643064
       -213.18217535        247.71991808      -1163.58197904       2147.39245150
       -982.51463008      -1741.95637036       -642.32503908       -211.54823389
    -222051.59541810    -106900.49568577     -54854.80482234       8830.11083970
     -28807.85092333       -713.02923681       6645.04540380      -5139.51325861
       8002.46361025     -42467.73483151     -41423.38748712     -21846.19225737
       2676.25824287       2014.88883935       4936.92491145
 Traceless Quadrup. (au):
       -110.07519393         -1.43231784        111.50751177         26.29967684
        -75.19791560         83.74018140
 Charge=             -0.0000 electrons
 Dipole moment (field-independent basis, Debye):
    X=             -6.8378    Y=            -49.1086    Z=              0.1032  Tot=             49.5824
 Quadrupole moment (field-independent basis, Debye-Ang):
   XX=           -680.3392   YY=           -534.2109   ZZ=           -382.3029
   XY=             35.3740   XZ=           -101.1438   YZ=            112.6334
 Traceless Quadrupole moment (field-independent basis, Debye-Ang):
   XX=           -148.0549   YY=             -1.9265   ZZ=            149.9814
   XY=             35.3740   XZ=           -101.1438   YZ=            112.6334
 Octapole moment (field-independent basis, Debye-Ang**2):
  XXX=            759.6621  YYY=           -946.1349  ZZZ=           -151.7349  XYY=            176.3175
  XXY=           -828.1928  XXZ=           1528.4312  XZZ=           -699.3161  YZZ=          -1239.8574
  YYZ=           -457.1822  XYZ=           -150.5719
 Hexadecapole moment (field-independent basis, Debye-Ang**3):
 XXXX=         -83635.2786 YYYY=         -40263.8527 ZZZZ=         -20660.9499 XXXY=           3325.8432
 XXXZ=         -10850.4180 YYYX=           -268.5610 YYYZ=           2502.8427 ZZZX=          -1935.7871
 ZZZY=           3014.1115 XXYY=         -15995.3853 XXZZ=         -15602.0340 YYZZ=          -8228.3236
 XXYZ=           1008.0072 YYXZ=            758.9038 ZZXY=           1859.4827
 N-N= 2.064524319608D+04 E-N=-5.377084140754D+04  KE= 5.290568058599D+03
 Leave Link  601 at Wed Sep 18 13:02:41 2019, MaxMem=  1342177280 cpu:              43.2 elap:               1.2
 FitSet:  NAtFit=   176 NAtPot=   176 NAtFrz=     0 MDM=   180 TotChg=   0.00000
 Merz-Kollman atomic radii used.
 Read replacement radii for each type of atom:
 Rad(20) =   1.700000000000D+00
 Atom Element Radius
    1     6    1.50
    2     6    1.50
    3     8    1.40
    4     1    1.20
    5     1    1.20
    6     1    1.20
    7     7    1.50
    8     6    1.50
    9     6    1.50
   10     8    1.40
   11     6    1.50
   12     6    1.50
   13     8    1.40
   14     8    1.40
   15     1    1.20
   16     1    1.20
   17     1    1.20
   18     1    1.20
   19     7    1.50
   20     6    1.50
   21     6    1.50
   22     8    1.40
   23     6    1.50
   24     6    1.50
   25     6    1.50
   26     6    1.50
   27     7    1.50
   28     1    1.20
   29     1    1.20
   30     1    1.20
   31     1    1.20
   32     1    1.20
   33     1    1.20
   34     1    1.20
   35     1    1.20
   36     1    1.20
   37     1    1.20
   38     1    1.20
   39     1    1.20
   40     1    1.20
   41     7    1.50
   42     6    1.50
   43     6    1.50
   44     8    1.40
   45     6    1.50
   46     6    1.50
   47     8    1.40
   48     8    1.40
   49     1    1.20
   50     1    1.20
   51     1    1.20
   52     1    1.20
   53     7    1.50
   54     6    1.50
   55     6    1.50
   56     8    1.40
   57     1    1.20
   58     1    1.20
   59     1    1.20
   60     7    1.50
   61     6    1.50
   62     6    1.50
   63     8    1.40
   64     6    1.50
   65     6    1.50
   66     7    1.50
   67     8    1.40
   68     1    1.20
   69     1    1.20
   70     1    1.20
   71     1    1.20
   72     1    1.20
   73     1    1.20
   74     7    1.50
   75     6    1.50
   76     6    1.50
   77     8    1.40
   78     1    1.20
   79     1    1.20
   80     1    1.20
   81     7    1.50
   82     6    1.50
   83     6    1.50
   84     8    1.40
   85     6    1.50
   86     6    1.50
   87     6    1.50
   88     6    1.50
[...]
 **** Fit       0.077935
 **** Fit       0.076941
 **** Fit       0.075639
 **** Fit       0.074048
 **** Fit       0.072209
 **** Fit       0.070200
 **** Fit       0.068128
 **** Fit       0.066101
 **** Fit       0.061378
 **** Fit       0.059444
 **** Fit       0.057615
 **** Fit       0.055986
 **** Fit       0.054724
 **** Fit       0.054023
 **** Fit       0.054043
 **** Fit       0.054852
 **** Fit       0.056399
 **** Fit       0.058523
 **** Fit       0.061004
 **** Fit       0.063617
 **** Fit       0.066183
 **** Fit       0.068588
 **** Fit       0.070779
 **** Fit       0.072745
 **** Fit       0.074492
 **** Fit       0.076021
 **** Fit       0.077315
 **** Fit       0.078345
 **** Fit       0.079082
 **** Fit       0.079503
 **** Fit       0.079605
 **** Fit       0.079391
 **** Fit       0.078874
 **** Fit       0.078065
 **** Fit       0.076971
 **** Fit       0.075596
 **** Fit       0.073947
 **** Fit       0.072046
 **** Fit       0.069946
 **** Fit       0.067736
 **** Fit       0.065527
 **** Fit       0.063401
 **** Fit       0.058195
 **** Fit       0.056053
 **** Fit       0.053901
 **** Fit       0.051812
 **** Fit       0.049955
 **** Fit       0.048557
 **** Fit       0.047849
 **** Fit       0.048001
 **** Fit       0.049067
 **** Fit       0.050963
 **** Fit       0.053489
 **** Fit       0.056389
 **** Fit       0.059412
 **** Fit       0.062361
 **** Fit       0.065113
 **** Fit       0.067617
 **** Fit       0.069875
 **** Fit       0.071917
 **** Fit       0.073771
 **** Fit       0.075445
 **** Fit       0.076917
 **** Fit       0.078150
 **** Fit       0.079101
 **** Fit       0.079740
 **** Fit       0.080055
 **** Fit       0.080052
 **** Fit       0.079743
 **** Fit       0.079144
 **** Fit       0.078266
 **** Fit       0.077116
 **** Fit       0.075692
 **** Fit       0.073992
 **** Fit       0.072022
 **** Fit       0.069811
 **** Fit       0.067428
 **** Fit       0.064987
 **** Fit       0.062609
 **** Fit       0.060355
 **** Fit       0.054648
 **** Fit       0.052316
 **** Fit       0.049845
 **** Fit       0.047282
 **** Fit       0.044787
 **** Fit       0.042599
 **** Fit       0.041002
 **** Fit       0.040264
 **** Fit       0.040567
 **** Fit       0.041947
 **** Fit       0.044276
 **** Fit       0.047300
 **** Fit       0.050714
 **** Fit       0.054231
 **** Fit       0.057630
 **** Fit       0.060776
 **** Fit       0.063616
 **** Fit       0.066163
 **** Fit       0.068466
 **** Fit       0.070588
 **** Fit       0.072572
 **** Fit       0.074425
 **** Fit       0.076117
 **** Fit       0.077592
 **** Fit       0.078790
 **** Fit       0.079670
 **** Fit       0.080212
 **** Fit       0.080420
 **** Fit       0.080311
 **** Fit       0.079905
 **** Fit       0.079222
 **** Fit       0.078272
 **** Fit       0.077061
 **** Fit       0.075586
 **** Fit       0.073840
 **** Fit       0.071817
 **** Fit       0.069528
 **** Fit       0.067015
 **** Fit       0.064374
 **** Fit       0.061743
 **** Fit       0.059247
 **** Fit       0.056913
 **** Fit       0.050748
 **** Fit       0.048240
 **** Fit       0.045457
 **** Fit       0.042420
 **** Fit       0.039262
 **** Fit       0.036209
 **** Fit       0.033566
 **** Fit       0.031682
 **** Fit       0.030883
 **** Fit       0.031373
 **** Fit       0.033159
 **** Fit       0.036051
 **** Fit       0.039716
 **** Fit       0.043782
 **** Fit       0.047912
 **** Fit       0.051858
 **** Fit       0.055469
 **** Fit       0.058690
 **** Fit       0.061538
 **** Fit       0.064084
 **** Fit       0.066422
 **** Fit       0.068640
 **** Fit       0.070791
 **** Fit       0.072877
 **** Fit       0.074848
 **** Fit       0.076624
 **** Fit       0.078119
 **** Fit       0.079275
 **** Fit       0.080064
 **** Fit       0.080491
 **** Fit       0.080578
 **** Fit       0.080353
 **** Fit       0.079842
 **** Fit       0.079065
 **** Fit       0.078035
 **** Fit       0.076754
 **** Fit       0.075220
 **** Fit       0.073425
 **** Fit       0.071359
 **** Fit       0.069018
 **** Fit       0.066423
 **** Fit       0.063637
 **** Fit       0.060785
 **** Fit       0.058024
 **** Fit       0.055465
 **** Fit       0.053092
 **** Fit       0.046453
 **** Fit       0.043664
 **** Fit       0.040445
 **** Fit       0.036786
 **** Fit       0.032792
 **** Fit       0.028678
 **** Fit       0.024784
 **** Fit       0.021580
 **** Fit       0.019592
 **** Fit       0.023795
 **** Fit       0.028099
 **** Fit       0.033080
 **** Fit       0.038242
 **** Fit       0.043206
 **** Fit       0.047734
 **** Fit       0.051720
 **** Fit       0.055166
 **** Fit       0.058152
 **** Fit       0.060810
 **** Fit       0.063293
 **** Fit       0.065733
 **** Fit       0.068207
 **** Fit       0.070706
 **** Fit       0.073141
 **** Fit       0.075376
 **** Fit       0.077279
 **** Fit       0.078761
 **** Fit       0.079790
 **** Fit       0.080378
 **** Fit       0.080568
 **** Fit       0.080404
 **** Fit       0.079926
 **** Fit       0.079162
 **** Fit       0.078131
 **** Fit       0.076840
 **** Fit       0.075290
 **** Fit       0.073474
 **** Fit       0.071384
 **** Fit       0.069006
 **** Fit       0.066340
 **** Fit       0.063413
 **** Fit       0.060307
 **** Fit       0.057171
 **** Fit       0.054187
 **** Fit       0.051470
 **** Fit       0.048967
 **** Fit       0.041611
 **** Fit       0.038575
 **** Fit       0.034983
 **** Fit       0.030763
 **** Fit       0.025936
 **** Fit       0.020628
 **** Fit       0.025880
 **** Fit       0.032226
 **** Fit       0.038005
 **** Fit       0.043039
 **** Fit       0.047298
 **** Fit       0.050863
 **** Fit       0.053889
 **** Fit       0.056585
 **** Fit       0.059179
 **** Fit       0.061867
 **** Fit       0.064755
 **** Fit       0.067814
 **** Fit       0.070886
 **** Fit       0.073744
 **** Fit       0.076177
 **** Fit       0.078056
 **** Fit       0.079346
 **** Fit       0.080089
 **** Fit       0.080358
 **** Fit       0.080228
 **** Fit       0.079758
 **** Fit       0.078986
 **** Fit       0.077937
 **** Fit       0.076621
 **** Fit       0.075041
 **** Fit       0.073195
 **** Fit       0.071076
 **** Fit       0.068674
 **** Fit       0.065981
 **** Fit       0.062999
 **** Fit       0.059766
 **** Fit       0.056378
 **** Fit       0.052999
 **** Fit       0.049818
 **** Fit       0.046944
 **** Fit       0.044297
 **** Fit       0.035975
 **** Fit       0.032711
 **** Fit       0.028823
 **** Fit       0.024116
 **** Fit       0.018435
 **** Fit       0.027924
 **** Fit       0.034189
 **** Fit       0.039330
 **** Fit       0.043465
 **** Fit       0.046804
 **** Fit       0.049631
 **** Fit       0.052286
 **** Fit       0.055115
 **** Fit       0.058371
 **** Fit       0.062116
 **** Fit       0.066165
 **** Fit       0.070148
 **** Fit       0.073662
 **** Fit       0.076424
 **** Fit       0.078339
 **** Fit       0.079473
 **** Fit       0.079962
 **** Fit       0.079947
 **** Fit       0.079535
 **** Fit       0.078793
 **** Fit       0.077756
 **** Fit       0.076439
 **** Fit       0.074847
 **** Fit       0.072978
 **** Fit       0.070830
 **** Fit       0.068398
 **** Fit       0.065677
 **** Fit       0.062661
 **** Fit       0.059356
 **** Fit       0.055803
 **** Fit       0.052102
 **** Fit       0.048419
 **** Fit       0.044942
 **** Fit       0.041788
 **** Fit       0.038887
 **** Fit       0.029284
 **** Fit       0.025956
 **** Fit       0.022080
 **** Fit       0.023663
 **** Fit       0.029928
 **** Fit       0.034766
 **** Fit       0.038449
 **** Fit       0.041327
 **** Fit       0.078969
 **** Fit       0.079622
 **** Fit       0.079615
 **** Fit       0.079152
 **** Fit       0.078351
 **** Fit       0.077264
 **** Fit       0.075906
 **** Fit       0.074273
 **** Fit       0.072359
 **** Fit       0.070159
 **** Fit       0.067670
 **** Fit       0.064894
 **** Fit       0.061831
 **** Fit       0.058481
 **** Fit       0.054855
 **** Fit       0.050989
 **** Fit       0.046975
 **** Fit       0.042964
 **** Fit       0.039137
 **** Fit       0.035622
 **** Fit       0.032403
 **** Fit       0.021315
 **** Fit       0.018057
 **** Fit       0.016633
 **** Fit       0.023182
 **** Fit       0.027882
 **** Fit       0.079557
 **** Fit       0.078615
 **** Fit       0.077410
 **** Fit       0.075991
 **** Fit       0.074340
 **** Fit       0.072424
 **** Fit       0.070210
 **** Fit       0.067679
 **** Fit       0.064829
 **** Fit       0.061667
 **** Fit       0.058204
 **** Fit       0.054450
 **** Fit       0.050411
 **** Fit       0.046110
 **** Fit       0.041610
 **** Fit       0.037041
 **** Fit       0.032590
 **** Fit       0.028444
 **** Fit       0.024704
 **** Fit       0.078478
 **** Fit       0.076417
 **** Fit       0.074403
 **** Fit       0.072311
 **** Fit       0.070019
 **** Fit       0.067437
 **** Fit       0.064513
 **** Fit       0.061230
 **** Fit       0.057601
 **** Fit       0.053656
 **** Fit       0.049417
 **** Fit       0.044894
 **** Fit       0.040088
 **** Fit       0.035022
 **** Fit       0.029787
 **** Fit       0.024570
 **** Fit       0.019638
 **** Fit       0.073531
 **** Fit       0.070642
 **** Fit       0.067828
 **** Fit       0.064822
 **** Fit       0.061467
 **** Fit       0.057692
 **** Fit       0.053497
 **** Fit       0.048925
 **** Fit       0.044031
 **** Fit       0.038841
 **** Fit       0.033337
 **** Fit       0.027477
 **** Fit       0.065367
 **** Fit       0.061779
 **** Fit       0.057929
 **** Fit       0.053612
 **** Fit       0.048766
 **** Fit       0.043427
 **** Fit       0.037684
 **** Fit       0.031604
 **** Fit       0.025163
 **** Fit       0.056463
 **** Fit       0.051678
 **** Fit       0.046262
 **** Fit       0.040094
 **** Fit       0.033232
 **** Fit       0.025813
 **** Fit       0.044373
 **** Fit       0.037688
 **** Fit       0.029889
 **** Fit       0.036092
 **** Fit       0.028048
 **** Fit       0.048956
 **** Fit       0.050626
 **** Fit       0.053803
 **** Fit       0.058199
 **** Fit       0.063559
 **** Fit       0.069716
 **** Fit       0.038350
 **** Fit       0.037422
 **** Fit       0.037912
 **** Fit       0.039675
 **** Fit       0.042582
 **** Fit       0.046478
 **** Fit       0.051160
 **** Fit       0.056389
 **** Fit       0.061928
 **** Fit       0.067627
 **** Fit       0.073525
 **** Fit       0.026951
 **** Fit       0.026797
 **** Fit       0.027328
 **** Fit       0.028600
 **** Fit       0.030658
 **** Fit       0.033527
 **** Fit       0.037188
 **** Fit       0.041556
 **** Fit       0.046473
 **** Fit       0.013170
 **** Fit       0.015287
 **** Fit       0.017199
 **** Fit       0.019203
 **** Fit       0.021478
 **** Fit       0.024181
 **** Fit       0.027441
 **** Fit       0.031330
 **** Fit       0.035840
 **** Fit       0.040877
 **** Fit       0.011671
 **** Fit       0.014923
 **** Fit       0.018240
 **** Fit       0.021880
 **** Fit       0.026039
 **** Fit       0.030798
 **** Fit       0.036129
 **** Fit       0.012883
 **** Fit       0.016921
 **** Fit       0.021305
 **** Fit       0.026232
 **** Fit       0.018883
 **** Fit       0.024320
 **** Fit       0.056931
 **** Fit       0.019030
 **** Fit       0.045641
 **** Fit       0.040931
 **** Fit       0.039651
 **** Fit       0.033205
 **** Fit       0.025401
 **** Fit       0.032383
 **** Fit       0.024255
 **** Fit       0.028642
 **** Fit       0.019949
 **** Fit       0.034619
 **** Fit       0.027505
 **** Fit       0.019554
 **** Fit       0.035710
 **** Fit       0.029722
 **** Fit       0.023339
 **** Fit       0.033169
 **** Fit       0.056163
 **** Fit       0.060079
 **** Fit       0.064354
 **** Fit       0.069269
 **** Fit       0.075368
 **** Fit       0.047488
 **** Fit       0.051120
 **** Fit       0.054673
 **** Fit       0.058215
 **** Fit       0.061869
 **** Fit       0.065848
 **** Fit       0.070513
 **** Fit       0.076494
 **** Fit       0.043953
 **** Fit       0.047414
 **** Fit       0.050666
 **** Fit       0.053750
 **** Fit       0.056724
 **** Fit       0.059672
 **** Fit       0.062728
 **** Fit       0.066102
 **** Fit       0.070141
 **** Fit       0.075434
 **** Fit       0.037495
 **** Fit       0.041232
 **** Fit       0.044661
 **** Fit       0.047814
 **** Fit       0.050718
 **** Fit       0.053404
 **** Fit       0.055914
 **** Fit       0.058309
 **** Fit       0.060684
 **** Fit       0.063185
 **** Fit       0.066056
 **** Fit       0.069697
 **** Fit       0.031410
 **** Fit       0.035437
 **** Fit       0.039098
 **** Fit       0.042433
 **** Fit       0.045465
 **** Fit       0.048209
 **** Fit       0.050680
 **** Fit       0.052893
 **** Fit       0.054868
 **** Fit       0.056635
 **** Fit       0.058239
 **** Fit       0.059755
 **** Fit       0.061303
 **** Fit       0.063081
 **** Fit       0.027418
 **** Fit       0.031670
 **** Fit       0.035501
 **** Fit       0.038970
 **** Fit       0.042102
 **** Fit       0.044912
 **** Fit       0.047409
 **** Fit       0.049594
 **** Fit       0.051466
 **** Fit       0.053023
 **** Fit       0.054261
 **** Fit       0.055174
 **** Fit       0.055766
 **** Fit       0.056045
 **** Fit       0.056036
 **** Fit       0.027458
 **** Fit       0.031764
 **** Fit       0.035597
 **** Fit       0.039013
 **** Fit       0.042045
 **** Fit       0.044705
 **** Fit       0.046995
 **** Fit       0.048905
 **** Fit       0.050415
 **** Fit       0.051494
 **** Fit       0.052101
 **** Fit       0.052181
 **** Fit       0.051665
 **** Fit       0.050471
 **** Fit       0.048486
 **** Fit       0.025062
 **** Fit       0.029879
 **** Fit       0.034035
 **** Fit       0.037651
 **** Fit       0.040792
 **** Fit       0.043488
 **** Fit       0.045739
 **** Fit       0.047525
 **** Fit       0.048803
 **** Fit       0.049512
 **** Fit       0.049567
 **** Fit       0.048858
 **** Fit       0.047250
 **** Fit       0.044581
 **** Fit       0.022731
 **** Fit       0.028167
 **** Fit       0.032657
 **** Fit       0.036441
 **** Fit       0.039651
 **** Fit       0.042344
 **** Fit       0.044524
 **** Fit       0.046158
 **** Fit       0.047182
 **** Fit       0.047505
 **** Fit       0.047007
 **** Fit       0.045543
 **** Fit       0.042957
 **** Fit       0.039101
 **** Fit       0.026225
 **** Fit       0.031394
 **** Fit       0.035554
 **** Fit       0.038956
 **** Fit       0.041699
 **** Fit       0.043783
 **** Fit       0.045142
 **** Fit       0.045668
 **** Fit       0.045220
 **** Fit       0.043643
 **** Fit       0.040806
 **** Fit       0.036673
 **** Fit       0.034995
 **** Fit       0.038504
 **** Fit       0.041207
 **** Fit       0.043076
 **** Fit       0.044003
 **** Fit       0.043852
 **** Fit       0.042498
 **** Fit       0.039914
 **** Fit       0.040016
 **** Fit       0.041988
 **** Fit       0.042744
 **** Fit       0.042184
 **** Fit       0.040377
 -----------------------------------------------------------------
 Leave Link  602 at Wed Sep 18 13:02:44 2019, MaxMem=  1342177280 cpu:             121.6 elap:               2.6

 Test job not archived.
 1\1\GINC-C506-121\SP\RB3LYP\SVP\C54H83Ca1N15O23\PENGZHI\18-Sep-2019\0\
 \#b3lyp/svp scf=(tight,noincore) Test #IOP(5/87=12) Density=Current Po
 p=(MK,readradii) iop(6/33=2) iop(6/42=6)\\Ng-31_loop3_0.0\\0,1\C,0,103
 .23,52.17,19.96\C,0,103.9,53.25,19.12\O,0,103.35,54.1,18.43\H,0,102.23
 9,51.961,19.558\H,0,103.832,51.262,19.932\H,0,103.138,52.515,20.99\N,0
 ,105.23,53.34,19.2\C,0,106.05,54.15,18.32\C,0,106.35,53.48,16.99\O,0,1
 06.59,52.27,16.98\C,0,107.28,54.61,19.1\C,0,108.14,53.47,19.62\O,0,107
 .62,52.4,20.01\O,0,109.38,53.63,19.59\H,0,105.76,52.79,19.86\H,0,105.4
 7,55.05,18.12\H,0,107.02,55.26,19.94\H,0,107.96,55.23,18.52\N,0,106.3,
 54.19,15.86\C,0,106.35,53.59,14.54\C,0,105.03,53.02,14.03\O,0,105.05,5
 2.25,13.08\C,0,106.94,54.62,13.58\C,0,107.08,54.16,12.13\C,0,107.82,55
 .24,11.34\C,0,108.6,54.66,10.16\N,0,109.6,55.72,9.95\H,0,106.1,55.17,1
 5.98\H,0,107.02,52.74,14.57\H,0,107.96,54.75,13.94\H,0,106.31,55.51,13
 .63\H,0,106.05,54.09,11.79\H,0,107.71,53.27,12.08\H,0,108.55,55.65,12.
 04\H,0,107.24,56.1,11.\H,0,107.91,54.43,9.35\H,0,109.07,53.76,10.56\H,
 0,110.04,56.11,10.77\H,0,110.35,55.34,9.39\H,0,109.26,56.58,9.55\N,0,1
 03.86,53.39,14.56\C,0,102.61,52.98,13.95\C,0,102.31,53.79,12.7\O,0,101
 .49,53.45,11.85\C,0,101.42,52.86,14.9\C,0,100.97,54.11,15.65\O,0,100.2
 1,53.97,16.63\O,0,101.39,55.25,15.36\H,0,103.75,54.08,15.29\H,0,102.76
 ,51.99,13.52\H,0,101.63,52.06,15.6\H,0,100.61,52.57,14.24\N,0,103.04,5
 4.9,12.55\C,0,102.89,55.75,11.39\C,0,103.6,57.1,11.51\O,0,103.83,57.6,
 12.61\H,0,103.63,55.18,13.32\H,0,101.82,55.89,11.2\H,0,103.21,55.22,10
 .5\N,0,103.86,57.73,10.37\C,0,103.58,57.58,8.96\C,0,102.68,58.73,8.53\
 O,0,102.78,59.87,9.01\C,0,104.84,57.63,8.1\C,0,105.75,56.41,8.17\N,0,1
 06.75,56.28,7.29\O,0,105.53,55.54,9.01\H,0,104.07,58.69,10.58\H,0,103.
 02,56.66,8.81\H,0,105.36,58.53,8.42\H,0,104.62,57.92,7.07\H,0,106.84,5
 7.06,6.66\H,0,107.31,55.44,7.31\N,0,101.83,58.6,7.51\C,0,101.43,57.39,
 6.83\C,0,100.71,56.33,7.65\O,0,100.43,56.44,8.84\H,0,101.44,59.49,7.24
 \H,0,102.26,56.94,6.28\H,0,100.82,57.67,5.98\N,0,100.46,55.23,6.92\C,0
 ,99.93,53.97,7.4\C,0,100.44,52.85,6.5\O,0,99.77,52.08,5.82\C,0,98.41,5
 3.96,7.42\C,0,97.75,54.91,8.39\C,0,97.57,54.7,9.76\C,0,97.22,56.07,7.8
 1\C,0,97.05,55.73,10.56\C,0,96.64,57.09,8.57\C,0,96.53,56.89,9.96\O,0,
 95.82,57.76,10.73\H,0,100.44,55.29,5.92\H,0,100.38,53.71,8.36\H,0,98.0
 8,52.96,7.72\H,0,97.99,54.1,6.42\H,0,97.96,53.79,10.19\H,0,97.37,56.28
 ,6.76\H,0,96.89,55.56,11.62\H,0,96.24,58.01,8.17\H,0,95.47,58.53,10.29
 \N,0,101.77,52.72,6.42\C,0,102.45,52.27,5.22\C,0,102.79,50.78,5.12\O,0
 ,103.14,50.25,4.08\C,0,103.71,53.06,4.9\C,0,103.27,54.45,4.44\C,0,104.
 75,53.17,6.01\C,0,104.38,55.37,3.94\H,0,102.29,53.32,7.04\H,0,101.73,5
 2.38,4.41\H,0,104.21,52.68,4.01\H,0,102.64,54.84,5.24\H,0,102.66,54.32
 ,3.54\H,0,105.38,52.28,6.05\H,0,105.49,53.94,5.82\H,0,104.32,53.3,7.01
 \H,0,104.8,54.8,3.11\H,0,104.03,56.35,3.63\H,0,105.14,55.48,4.72\N,0,1
 02.8,50.06,6.25\C,0,103.28,48.7,6.37\C,0,104.15,48.53,7.6\O,0,105.29,4
 8.07,7.58\C,0,102.16,47.67,6.26\O,0,101.4,47.44,7.43\H,0,102.29,50.46,
 7.02\H,0,103.9,48.57,5.48\H,0,102.63,46.7,6.08\H,0,101.49,47.94,5.45\H
 ,0,101.01,48.23,7.81\N,0,103.59,48.91,8.75\C,0,104.08,48.42,10.02\C,0,
 103.26,47.36,10.75\O,0,103.42,47.19,11.95\C,0,104.3,49.66,10.88\H,0,10
 2.75,49.47,8.8\H,0,105.07,47.97,9.94\H,0,103.41,50.29,10.9\H,0,104.5,4
 9.47,11.94\H,0,105.02,50.32,10.4\N,0,102.29,46.76,10.05\C,0,101.11,46.
 17,10.65\C,0,100.38,47.15,11.55\O,0,100.11,46.84,12.71\C,0,101.45,44.8
 2,11.27\H,0,102.25,46.89,9.05\H,0,100.37,45.92,9.9\H,0,100.64,44.29,11
 .79\H,0,101.76,44.16,10.47\H,0,102.25,45.03,11.98\N,0,100.16,48.39,11.
 11\C,0,99.42,49.43,11.8\C,0,97.91,49.21,11.76\O,0,97.18,49.65,12.64\C,
 0,99.83,50.81,11.3\C,0,99.49,51.35,9.92\C,0,100.29,50.5,8.94\O,0,99.7,
 49.64,8.25\O,0,101.52,50.69,8.86\H,0,100.55,48.57,10.2\H,0,99.69,49.36
 ,12.86\H,0,100.92,50.91,11.4\H,0,99.4,51.53,11.99\H,0,99.91,52.36,9.9\
 H,0,98.41,51.32,9.74\N,0,97.4,48.5,10.75\C,0,95.98,48.23,10.66\H,0,95.
 456,49.138,10.361\H,0,95.804,47.449,9.92\H,0,95.61,47.901,11.631\H,0,9
 7.99,48.1,10.03\Ca,0,99.6,56.63,17.23\O,0,101.908,56.43,18.27\H,0,102.
 428,55.65,18.09\H,0,102.538,57.07,18.61\\Version=ES64L-G16RevA.03\Stat
 e=1-A\HF=-5333.3184682\RMSD=1.160e-09\Dipole=4.5395701,18.7299656,-3.0
 187476\Quadrupole=64.3742475,-21.8610373,-42.5132102,34.6143797,-144.7
 707999,16.2382068\PG=C01 [X(C54H83Ca1N15O23)]\\@


 GETTING A SIMPLE ANSWER FROM A PROFESSOR IS LIKE
 GETTING A THIMBLE OF WATER FROM A FIRE HYDRANT.
     -- PROF. LEN SHAPIRO, NDSU
 Job cpu time:       0 days 23 hours 59 minutes  3.1 seconds.
 Elapsed time:       0 days  0 hours 30 minutes 19.9 seconds.
 File lengths (MBytes):  RWF=   1517 Int=      0 D2E=      0 Chk=    171 Scr=      1
 Normal termination of Gaussian 16 at Wed Sep 18 13:02:45 2019.
