 Entering Gaussian System, Link 0=g16
 Initial command:
 /home1/apps/gaussian/16rA.03/g16/l1.exe "/scratch/01990/pengzhi/4362006/Gau-180680.inp" -scrdir="/scratch/01990/pengzhi/4362006/"
 Entering Link 1 = /home1/apps/gaussian/16rA.03/g16/l1.exe PID=    180681.
  
 Copyright (c) 1988,1990,1992,1993,1995,1998,2003,2009,2016,
            Gaussian, Inc.  All Rights Reserved.
  
 This is part of the Gaussian(R) 16 program.  It is based on
 the Gaussian(R) 09 system (copyright 2009, Gaussian, Inc.),
 the Gaussian(R) 03 system (copyright 2003, Gaussian, Inc.),
 the Gaussian(R) 98 system (copyright 1998, Gaussian, Inc.),
 the Gaussian(R) 94 system (copyright 1995, Gaussian, Inc.),
 the Gaussian 92(TM) system (copyright 1992, Gaussian, Inc.),
 the Gaussian 90(TM) system (copyright 1990, Gaussian, Inc.),
 the Gaussian 88(TM) system (copyright 1988, Gaussian, Inc.),
 the Gaussian 86(TM) system (copyright 1986, Carnegie Mellon
 University), and the Gaussian 82(TM) system (copyright 1983,
 Carnegie Mellon University). Gaussian is a federally registered
 trademark of Gaussian, Inc.
  
 This software contains proprietary and confidential information,
 including trade secrets, belonging to Gaussian, Inc.
  
 This software is provided under written license and may be
 used, copied, transmitted, or stored only in accord with that
 written license.
  
 The following legend is applicable only to US Government
 contracts under FAR:
  
                    RESTRICTED RIGHTS LEGEND
  
 Use, reproduction and disclosure by the US Government is
 subject to restrictions as set forth in subparagraphs (a)
 and (c) of the Commercial Computer Software - Restricted
 Rights clause in FAR 52.227-19.
  
 Gaussian, Inc.
 340 Quinnipiac St., Bldg. 40, Wallingford CT 06492
  
  
 ---------------------------------------------------------------
 Warning -- This program may not be used in any manner that
 competes with the business of Gaussian, Inc. or will provide
 assistance to any competitor of Gaussian, Inc.  The licensee
 of this program is prohibited from giving any competitor of
 Gaussian, Inc. access to this program.  By using this program,
 the user acknowledges that Gaussian, Inc. is engaged in the
 business of creating and licensing software in the field of
 computational chemistry and represents and warrants to the
 licensee that it is not a competitor of Gaussian, Inc. and that
 it will not use this program in any manner prohibited above.
 ---------------------------------------------------------------
  

 Cite this work as:
 Gaussian 16, Revision A.03,
 M. J. Frisch, G. W. Trucks, H. B. Schlegel, G. E. Scuseria, 
 M. A. Robb, J. R. Cheeseman, G. Scalmani, V. Barone, 
 G. A. Petersson, H. Nakatsuji, X. Li, M. Caricato, A. V. Marenich, 
 J. Bloino, B. G. Janesko, R. Gomperts, B. Mennucci, H. P. Hratchian, 
 J. V. Ortiz, A. F. Izmaylov, J. L. Sonnenberg, D. Williams-Young, 
 F. Ding, F. Lipparini, F. Egidi, J. Goings, B. Peng, A. Petrone, 
 T. Henderson, D. Ranasinghe, V. G. Zakrzewski, J. Gao, N. Rega, 
 G. Zheng, W. Liang, M. Hada, M. Ehara, K. Toyota, R. Fukuda, 
 J. Hasegawa, M. Ishida, T. Nakajima, Y. Honda, O. Kitao, H. Nakai, 
 T. Vreven, K. Throssell, J. A. Montgomery, Jr., J. E. Peralta, 
 F. Ogliaro, M. J. Bearpark, J. J. Heyd, E. N. Brothers, K. N. Kudin, 
 V. N. Staroverov, T. A. Keith, R. Kobayashi, J. Normand, 
 K. Raghavachari, A. P. Rendell, J. C. Burant, S. S. Iyengar, 
 J. Tomasi, M. Cossi, J. M. Millam, M. Klene, C. Adamo, R. Cammi, 
 J. W. Ochterski, R. L. Martin, K. Morokuma, O. Farkas, 
 J. B. Foresman, and D. J. Fox, Gaussian, Inc., Wallingford CT, 2016.
 
 ******************************************
 Gaussian 16:  ES64L-G16RevA.03 25-Dec-2016
                19-Sep-2019 
 ******************************************
 %chk=Ng-31_loop3_24.0.chk
 %nprocshared=48
 Will use up to   48 processors via shared memory.
 %mem=10GB
 %nosave
 ----------------------------------------------------------------------
 #b3lyp/svp scf=(tight,noincore,xqc) Test #IOP(5/87=12) Density=Current
  Pop=(MK,readradii) iop(6/33=2) iop(6/42=6)
 ----------------------------------------------------------------------
 1/30=1,38=1,172=1/1;
 2/12=2,17=6,18=5,40=1/2;
 3/5=18,7=101,11=2,25=1,30=1,74=-5/1,2,3;
 4//1;
 5/5=4,8=3,13=1,32=2,38=5,87=12/2,8;
 6/7=2,8=2,9=2,10=2,15=8,20=101,22=-1,28=1,33=2,42=6/1,2;
 99/5=1,9=1/99;
 ----------------
 Ng-31_loop3_24.0
 ----------------
 Symbolic Z-matrix:
 Charge =  0 Multiplicity = 1
 C                     62.44     58.07     33.93 
 C                     62.74     56.85     34.79 
 O                     61.9      55.96     34.89 
 H                     61.583    58.603    34.343 
 H                     63.307    58.73     33.92 
 H                     62.213    57.751    32.913 
 N                     63.94     56.68     35.35 
 C                     64.25     55.63     36.3 
 C                     63.54     55.9      37.62 
 O                     63.13     54.91     38.23 
 C                     65.75     55.39     36.45 
 C                     66.58     56.65     36.67 
 O                     67.21     56.86     37.73 
 O                     66.6      57.52     35.78 
 H                     64.67     57.37     35.25 
 H                     63.86     54.69     35.92 
 H                     66.13     54.9      35.55 
 H                     65.82     54.76     37.33 
 N                     63.39     57.14     38.07 
 C                     62.54     57.42     39.21 
 C                     63.14     56.96     40.52 
 O                     64.3      57.27     40.77 
 C                     62.35     58.93     39.22 
 C                     61.51     59.53     38.1 
 C                     61.45     61.05     38.2 
 C                     60.7      61.49     36.95 
 N                     60.2      62.86     37.13 
 H                     63.72     57.95     37.55 
 H                     61.55     56.96     39.16 
 H                     63.31     59.44     39.27 
 H                     61.87     59.2      40.17 
 H                     60.5      59.13     38.25 
 H                     61.95     59.2      37.16 
 H                     62.45     61.49     38.28 
 H                     60.84     61.35     39.04 
 H                     59.8      60.9      36.8 
 H                     61.31     61.35     36.05 
 H                     59.4      62.91     37.74 
 H                     60.94     63.48     37.43 
 H                     59.92     63.36     36.29 
 N                     62.37     56.3      41.39 
 C                     62.97     55.54     42.48 
 C                     63.46     54.17     42.03 
 O                     63.77     53.32     42.86 
 C                     61.98     55.48     43.64 
 C                     60.49     55.18     43.5 
 O                     59.96     54.15     43.98 
 O                     59.75     56.       42.93 
 H                     61.38     56.19     41.23 
 H                     63.79     56.14     42.88 
 H                     62.1      56.4      44.2 
 H                     62.42     54.81     44.38 
 N                     63.61     53.92     40.73 
 C                     64.31     52.79     40.14 
 C                     65.75     52.59     40.59 
 O                     66.31     53.55     41.12 
 H                     63.35     54.64     40.08 
 H                     64.33     52.98     39.07 
 H                     63.74     51.9      40.38 
 N                     66.38     51.42     40.47 
 C                     66.02     50.23     39.73 
 C                     67.23     49.8      38.91 
 O                     68.22     49.42     39.53 
 C                     65.65     49.08     40.66 
 C                     65.19     47.8      39.98 
 N                     63.99     47.3      40.28 
 O                     65.83     47.23     39.1 
 H                     67.36     51.49     40.71 
 H                     65.1      50.26     39.14 
 H                     64.88     49.39     41.37 
 H                     66.54     48.85     41.25 
 H                     63.47     47.78     41.01 
 H                     63.52     46.54     39.81 
 N                     67.34     49.87     37.58 
 C                     66.53     50.66     36.68 
 C                     65.2      50.06     36.23 
 O                     64.49     50.66     35.43 
 H                     68.14     49.39     37.18 
 H                     67.09     50.88     35.77 
 H                     66.44     51.62     37.19 
 N                     64.83     48.86     36.68 
 C                     63.48     48.34     36.6 
 C                     62.51     49.14     37.45 
 O                     62.8      49.49     38.59 
 C                     63.3      46.84     36.79 
 C                     63.62     46.08     35.52 
 C                     62.64     45.24     34.98 
 C                     64.83     46.29     34.84 
 C                     62.82     44.59     33.76 
 C                     65.06     45.63     33.63 
 C                     64.08     44.74     33.15 
 O                     64.38     43.92     32.1 
 H                     65.57     48.39     37.19 
 H                     63.22     48.5      35.55 
 H                     62.32     46.46     37.07 
 H                     63.9      46.43     37.61 
 H                     61.7      45.12     35.5 
 H                     65.6      46.83     35.38 
 H                     62.15     43.87     33.31 
 H                     66.05     45.56     33.2 
 H                     65.19     44.09     31.63 
 N                     61.3      49.37     36.93 
 C                     60.3      50.08     37.7 
 C                     59.46     49.14     38.56 
 O                     59.09     48.06     38.11 
 C                     59.31     50.91     36.89 
 C                     60.15     51.88     36.05 
 C                     58.3      50.24     35.98 
 C                     59.44     52.92     35.18 
 H                     61.16     49.06     35.98 
 H                     60.78     50.85     38.3 
 H                     58.81     51.48     37.67 
 H                     60.78     51.33     35.36 
 H                     60.73     52.55     36.68 
 H                     57.71     49.44     36.44 
 H                     57.77     50.99     35.39 
 H                     58.85     49.7      35.21 
 H                     58.98     52.5      34.29 
 H                     58.79     53.5      35.83 
 H                     60.18     53.6      34.77 
 N                     59.36     49.53     39.83 
 C                     58.6      48.8      40.83 
 C                     57.11     48.98     40.57 
 O                     56.61     49.37     39.51 
 C                     58.99     47.33     40.9 
 O                     60.34     47.11     41.24 
 H                     59.77     50.42     40.07 
 H                     58.75     49.34     41.77 
 H                     58.62     46.75     40.05 
 H                     58.54     46.91     41.8 
 H                     60.63     46.31     40.8 
 N                     56.36     48.49     41.56 
 C                     54.91     48.48     41.55 
 C                     54.31     49.86     41.78 
 O                     54.71     50.69     42.6 
 C                     54.38     47.49     42.59 
 H                     56.85     48.28     42.42 
 H                     54.49     48.25     40.58 
 H                     54.89     47.65     43.54 
 H                     53.3      47.61     42.7 
 H                     54.47     46.46     42.25 
 N                     53.2      50.01     41.06 
 C                     52.28     51.13     41.02 
 C                     52.92     52.4      40.47 
 O                     52.93     53.49     41.05 
 C                     51.41     51.25     42.27 
 H                     53.1      49.22     40.43 
 H                     51.57     50.86     40.25 
 H                     51.33     50.27     42.74 
 H                     52.01     51.81     42.99 
 H                     50.43     51.66     42.04 
 N                     53.61     52.28     39.34 
 C                     54.57     53.16     38.72 
 C                     54.42     53.37     37.22 
 O                     54.57     54.49     36.76 
 C                     56.01     52.77     39.06 
 C                     57.       53.93     38.96 
 C                     56.96     54.81     40.21 
 O                     57.56     54.38     41.22 
 O                     56.4      55.92     40.18 
 H                     53.34     51.42     38.88 
 H                     54.26     54.14     39.1 
 H                     56.33     51.98     38.39 
 H                     56.05     52.4      40.09 
 H                     56.86     54.54     38.07 
 H                     57.93     53.38     38.86 
 N                     54.1      52.33     36.44 
 C                     53.46     52.42     35.14 
 H                     52.565    53.037    35.218 
 H                     54.149    52.87     34.425 
 H                     53.184    51.422    34.8 
 H                     54.09     51.42     36.88 
 Ca                    57.3      54.76     43.69 
 O                     56.47     53.45     45.77 
 H                     56.89     53.16     46.58 
 H                     55.64     52.97     45.74 
 
 Stoichiometry    C54H83CaN15O23
 Framework group  C1[X(C54H83CaN15O23)]
 Deg. of freedom   522
 Full point group                 C1      NOp   1
 Largest Abelian subgroup         C1      NOp   1
 Largest concise Abelian subgroup C1      NOp   1
                         Standard orientation:                         
 ---------------------------------------------------------------------
 Center     Atomic      Atomic             Coordinates (Angstroms)
 Number     Number       Type             X           Y           Z
 ---------------------------------------------------------------------
      1          6           0       -2.191728    5.635568    4.896091
      2          6           0       -2.388861    4.571827    3.824833
      3          8           0       -1.743054    3.529102    3.882783
      4          1           0       -1.163003    5.995887    4.864444
      5          1           0       -2.872683    6.466391    4.713275
      6          1           0       -2.395627    5.206172    5.876715
      7          7           0       -3.327713    4.706020    2.885126
      8          6           0       -3.471811    3.816105    1.750055
      9          6           0       -2.309564    4.014261    0.786045
     10          8           0       -1.899364    3.002666    0.212711
     11          6           0       -4.842219    3.919566    1.085693
     12          6           0       -5.300095    5.342158    0.783237
     13          8           0       -5.471513    5.756191   -0.384578
     14          8           0       -5.471140    6.132837    1.729266
     15          1           0       -3.908654    5.530058    2.835428
     16          1           0       -3.416271    2.790034    2.102467
     17          1           0       -5.594438    3.463948    1.734599
     18          1           0       -4.713883    3.381477    0.152853
     19          7           0       -1.789759    5.219498    0.586531
     20          6           0       -0.559762    5.384605   -0.162032
     21          6           0       -0.737913    5.156850   -1.646650
     22          8           0       -1.661060    5.728504   -2.216922
     23          6           0       -0.107690    6.813986    0.100268
     24          6           0        0.382804    7.138696    1.505252
     25          6           0        0.748554    8.612281    1.642274
     26          6           0        1.081927    8.791966    3.117121
     27          7           0        1.852941   10.029082    3.302546
     28          1           0       -2.127655    6.044552    1.076951
     29          1           0        0.249635    4.717601    0.144861
     30          1           0       -0.880433    7.523131   -0.189871
     31          1           0        0.714014    7.037033   -0.593168
     32          1           0        1.291238    6.539387    1.640072
     33          1           0       -0.409515    6.849199    2.194107
     34          1           0       -0.063200    9.264039    1.301293
     35          1           0        1.656858    8.828703    1.098358
     36          1           0        1.750109    8.011191    3.469999
     37          1           0        0.181713    8.727225    3.739315
     38          1           0        2.810369    9.945018    3.001107
     39          1           0        1.389640   10.814426    2.865984
     40          1           0        1.908067   10.397568    4.248685
     41          7           0        0.153846    4.405814   -2.299421
     42          6           0       -0.155461    3.870982   -3.620021
     43          6           0       -1.011464    2.613275   -3.549803
     44          8           0       -1.161146    1.909891   -4.544965
     45          6           0        1.148569    3.675926   -4.388629
     46          6           0        2.415325    3.049593   -3.811796
     47          8           0        2.883258    1.964039   -4.229899
     48          8           0        3.045631    3.647791   -2.923104
     49          1           0        0.988354    4.072061   -1.841158
     50          1           0       -0.661065    4.661108   -4.179007
     51          1           0        1.400446    4.635960   -4.823707
     52          1           0        0.880611    3.169980   -5.317239
     53          7           0       -1.648206    2.313915   -2.418457
     54          6           0       -2.702602    1.326084   -2.252808
     55          6           0       -3.905938    1.475871   -3.172398
     56          8           0       -4.061836    2.568690   -3.717872
     57          1           0       -1.505288    2.913904   -1.625937
     58          1           0       -3.059774    1.442454   -1.232864
     59          1           0       -2.256215    0.351747   -2.414071
     60          7           0       -4.739277    0.465894   -3.428701
     61          6           0       -4.882245   -0.821584   -2.784294
     62          6           0       -6.358833   -1.032452   -2.473451
     63          8           0       -7.121757   -1.144383   -3.429651
     64          6           0       -4.426220   -1.958412   -3.692018
     65          6           0       -4.472635   -3.351213   -3.083453
     66          7           0       -3.355316   -4.079057   -3.040534
     67          8           0       -5.471449   -3.826692   -2.549422
     68          1           0       -5.543940    0.763980   -3.964017
     69          1           0       -4.236702   -1.033105   -1.927595
     70          1           0       -3.414334   -1.775988   -4.060676
     71          1           0       -5.080455   -1.948145   -4.566644
     72          1           0       -2.535486   -3.675279   -3.486115
     73          1           0       -3.224965   -4.953455   -2.552849
     74          7           0       -6.911218   -1.031029   -1.256583
     75          6           0       -6.337104   -0.499798   -0.040694
     76          6           0       -5.380013   -1.404476    0.731921
     77          8           0       -4.897425   -1.029613    1.795258
     78          1           0       -7.873386   -1.351283   -1.211083
     79          1           0       -7.129535   -0.225628    0.657148
     80          1           0       -5.902324    0.450005   -0.354767
     81          7           0       -5.100495   -2.622717    0.265917
     82          6           0       -3.981438   -3.428636    0.710335
     83          6           0       -2.647947   -2.803195    0.344241
     84          8           0       -2.453445   -2.321501   -0.767667
     85          6           0       -4.021728   -4.915275    0.383562
     86          6           0       -4.896818   -5.672066    1.360487
     87          6           0       -4.336467   -6.740267    2.069397
     88          6           0       -6.208486   -5.250296    1.629254
     89          6           0       -5.045438   -7.417065    3.060661
     90          6           0       -6.961757   -5.925251    2.593421
     91          6           0       -6.389545   -7.038039    3.239313
     92          8           0       -7.180386   -7.842601    4.008825
     93          1           0       -5.688247   -2.884254   -0.518140
     94          1           0       -4.079625   -3.401129    1.799051
     95          1           0       -3.091903   -5.479709    0.389828
     96          1           0       -4.361735   -5.127766   -0.636116
     97          1           0       -3.312543   -7.026487    1.874313
     98          1           0       -6.630164   -4.519933    0.947448
     99          1           0       -4.716962   -8.294742    3.600650
    100          1           0       -8.034722   -5.806978    2.661663
    101          1           0       -8.058269   -7.532623    4.206652
    102          7           0       -1.675064   -2.878425    1.258156
    103          6           0       -0.358219   -2.352601    0.964170
    104          6           0        0.543628   -3.392177    0.304810
    105          8           0        0.530967   -4.554963    0.696686
    106          6           0        0.420049   -1.815516    2.160388
    107          6           0       -0.469379   -0.745369    2.805215
    108          6           0        0.909753   -2.749978    3.248538
    109          6           0        0.068598    0.053096    3.995020
    110          1           0       -1.933953   -3.275530    2.148933
    111          1           0       -0.450603   -1.457422    0.353088
    112          1           0        1.255256   -1.316347    1.674013
    113          1           0       -1.389094   -1.190598    3.167700
    114          1           0       -0.661384    0.076290    2.119496
    115          1           0        1.467595   -3.626049    2.900670
    116          1           0        1.327298   -2.175530    4.077493
    117          1           0        0.037503   -3.208362    3.713366
    118          1           0        0.104916   -0.516748    4.919173
    119          1           0        0.998191    0.520446    3.680630
    120          1           0       -0.631488    0.848436    4.230420
    121          7           0        1.149324   -2.947665   -0.795436
    122          6           0        2.064539   -3.755808   -1.582701
    123          6           0        3.376499   -3.923006   -0.827118
    124          8           0        3.537214   -3.724560    0.381390
    125          6           0        1.463735   -5.097205   -1.979677
    126          8           0        0.301152   -4.994004   -2.769772
    127          1           0        1.017490   -1.975463   -1.030471
    128          1           0        2.352463   -3.133282   -2.435498
    129          1           0        1.402234   -5.800480   -1.144559
    130          1           0        2.115261   -5.542800   -2.731913
    131          1           0       -0.264082   -5.739675   -2.564381
    132          7           0        4.322562   -4.495992   -1.575015
    133          6           0        5.650488   -4.822404   -1.092554
    134          6           0        6.532704   -3.593936   -0.919753
    135          8           0        6.601502   -2.642774   -1.701967
    136          6           0        6.321020   -5.830826   -2.028541
    137          1           0        4.133925   -4.535011   -2.568340
    138          1           0        5.656584   -5.204006   -0.080357
    139          1           0        6.212499   -5.499125   -3.061206
    140          1           0        7.374181   -5.941856   -1.761290
    141          1           0        5.932844   -6.837186   -1.883078
    142          7           0        7.329364   -3.738898    0.137280
    143          6           0        8.364467   -2.851710    0.631100
    144          6           0        7.814506   -1.513298    1.111928
    145          8           0        8.205337   -0.410364    0.717736
    146          6           0        9.622204   -2.839233   -0.235931
    147          1           0        7.058258   -4.572782    0.649276
    148          1           0        8.699719   -3.321815    1.545708
    149          1           0        9.681958   -3.778724   -0.785009
    150          1           0        9.423253   -2.114172   -1.027577
    151          1           0       10.517418   -2.669319    0.356624
    152          7           0        6.764133   -1.556818    1.925698
    153          6           0        5.824786   -0.533139    2.313137
    154          6           0        5.477554   -0.463669    3.793408
    155          8           0        5.382320    0.628059    4.329654
    156          6           0        4.548616   -0.575834    1.470007
    157          6           0        3.813862    0.762447    1.400425
    158          6           0        4.446290    1.695724    0.367213
    159          8           0        4.168932    1.476718   -0.832833
    160          8           0        5.152060    2.652312    0.732491
    161          1           0        6.695941   -2.484307    2.324715
    162          1           0        6.420128    0.379325    2.195343
    163          1           0        3.877381   -1.320916    1.881950
    164          1           0        4.804019   -0.857100    0.442847
    165          1           0        3.742773    1.265127    2.362745
    166          1           0        2.824115    0.422831    1.113263
    167          7           0        5.311062   -1.599121    4.482922
    168          6           0        5.462369   -1.739626    5.919956
    169          1           0        6.424413   -1.328653    6.225522
    170          1           0        4.661066   -1.200123    6.425223
    171          1           0        5.416523   -2.794593    6.189629
    172          1           0        5.308685   -2.457252    3.948689
    173         20           0        5.338523    1.958459   -3.003750
    174          8           0        6.589634    0.644037   -4.858046
    175          1           0        6.433408    0.508466   -5.792826
    176          1           0        7.255265   -0.006207   -4.624981
 ---------------------------------------------------------------------
 Rotational constants (GHZ):           0.0161764           0.0139847           0.0102283
 Standard basis: SVP (5D, 7F)
 There are  1809 symmetry adapted cartesian basis functions of A   symmetry.
 There are  1717 symmetry adapted basis functions of A   symmetry.
  1717 basis functions,  2922 primitive gaussians,  1809 cartesian basis functions
   358 alpha electrons      358 beta electrons
       nuclear repulsion energy     20014.1885131464 Hartrees.
 NAtoms=  176 NActive=  176 NUniq=  176 SFac= 1.00D+00 NAtFMM=   60 NAOKFM=T Big=T
 Integral buffers will be    131072 words long.
 Raffenetti 2 integral format.
 Two-electron integral symmetry is turned on.
 One-electron integrals computed using PRISM.
 NBasis=  1717 RedAO= T EigKep=  3.15D-04  NBF=  1717
 NBsUse=  1717 1.00D-06 EigRej= -1.00D+00 NBFU=  1717
 ExpMin= 1.98D-02 ExpMax= 3.51D+04 ExpMxC= 5.28D+03 IAcc=3 IRadAn=         5 AccDes= 0.00D+00
 Harris functional with IExCor=  402 and IRadAn=       5 diagonalized for initial guess.
 HarFok:  IExCor=  402 AccDes= 0.00D+00 IRadAn=         5 IDoV= 1 UseB2=F ITyADJ=14
 ICtDFT=  3500011 ScaDFX=  1.000000  1.000000  1.000000  1.000000
 FoFCou: FMM=F IPFlag=           0 FMFlag=      100000 FMFlg1=        2001
         NFxFlg=           0 DoJE=T BraDBF=F KetDBF=T FulRan=T
         wScrn=  0.000000 ICntrl=       500 IOpCl=  0 I1Cent=   200000004 NGrid=           0
         NMat0=    1 NMatS0=      1 NMatT0=    0 NMatD0=    1 NMtDS0=    0 NMtDT0=    0
 Petite list used in FoFCou.
 Requested convergence on RMS density matrix=1.00D-08 within  32 cycles.
 Requested convergence on MAX density matrix=1.00D-06.
 Requested convergence on             energy=1.00D-06.
 No special actions if energy rises.
 EnCoef did     2 forward-backward iterations
 EnCoef did     2 forward-backward iterations
 EnCoef did     3 forward-backward iterations
 EnCoef did     6 forward-backward iterations
 EnCoef did     8 forward-backward iterations
 EnCoef did   100 forward-backward iterations
 EnCoef did   100 forward-backward iterations
 EnCoef did     8 forward-backward iterations
 EnCoef did     3 forward-backward iterations
 Rare condition: small coef for last iteration:  0.000D+00
 EnCoef did    29 forward-backward iterations
 Rare condition: small coef for last iteration:  0.000D+00
 Restarting incremental Fock formation.
 EnCoef did   100 forward-backward iterations
 EnCoef did   100 forward-backward iterations
 Rare condition: small coef for last iteration:  0.107D-15
 EnCoef did   100 forward-backward iterations
 Rare condition: small coef for last iteration:  0.000D+00
 EnCoef did   100 forward-backward iterations
 EnCoef did   100 forward-backward iterations
 Rare condition: small coef for last iteration:  0.855D-16
 EnCoef did   100 forward-backward iterations
 Rare condition: small coef for last iteration:  0.000D+00
 EnCoef did   100 forward-backward iterations
 EnCoef did   100 forward-backward iterations
 Rare condition: small coef for last iteration:  0.114D-14
 EnCoef did   100 forward-backward iterations
 Rare condition: small coef for last iteration:  0.000D+00
 EnCoef did   100 forward-backward iterations
 Rare condition: small coef for last iteration:  0.000D+00
 EnCoef did   100 forward-backward iterations
 Rare condition: small coef for last iteration:  0.000D+00
 EnCoef did   100 forward-backward iterations
 >>>>>>>>>> Convergence criterion not met.
 SCF Done:  E(RB3LYP) =  -5333.27167641     A.U. after   33 cycles
            NFock= 32  Conv=0.25D-04     -V/T= 2.0082
 Gradient too large for Newton-Raphson -- use scaled steepest descent instead.
     Minimum is close to point  2 DX= -2.42D-02 DF= -2.92D-04 DXR=  8.76D-02 DFR=  7.73D-03 which will be used.
 Gradient too large for Newton-Raphson -- use scaled steepest descent instead.
 Gradient too large for Newton-Raphson -- use scaled steepest descent instead.
     Accept linear search using points  2 and  3.
 Gradient too large for Newton-Raphson -- use scaled steepest descent instead.
 LinEq1:  Iter=  0 NonCon=     1 RMS=1.44D-04 Max=9.94D-02 NDo=     1
 AX will form     1 AO Fock derivatives at one time.
 LinEq1:  Iter=  1 NonCon=     1 RMS=1.13D-04 Max=1.97D-02 NDo=     1
 LinEq1:  Iter=  2 NonCon=     1 RMS=2.40D-04 Max=1.25D-01 NDo=     1
 LinEq1:  Iter=  3 NonCon=     1 RMS=6.42D-05 Max=9.55D-03 NDo=     1
 LinEq1:  Iter=  4 NonCon=     1 RMS=4.56D-05 Max=2.02D-02 NDo=     1
 LinEq1:  Iter=  5 NonCon=     1 RMS=5.18D-05 Max=2.15D-02 NDo=     1
 LinEq1:  Iter=  6 NonCon=     1 RMS=3.75D-05 Max=7.38D-03 NDo=     1
 LinEq1:  Iter=  7 NonCon=     1 RMS=2.73D-05 Max=4.06D-03 NDo=     1
 LinEq1:  Iter=  8 NonCon=     1 RMS=1.40D-05 Max=1.82D-03 NDo=     1
 LinEq1:  Iter=  9 NonCon=     1 RMS=1.22D-05 Max=2.00D-03 NDo=     1
 LinEq1:  Iter= 10 NonCon=     1 RMS=9.51D-06 Max=1.64D-03 NDo=     1
 LinEq1:  Iter= 11 NonCon=     1 RMS=4.89D-06 Max=8.89D-04 NDo=     1
 LinEq1:  Iter= 12 NonCon=     1 RMS=3.77D-06 Max=4.87D-04 NDo=     1
 LinEq1:  Iter= 13 NonCon=     1 RMS=2.92D-06 Max=3.25D-04 NDo=     1
 LinEq1:  Iter= 14 NonCon=     1 RMS=1.81D-06 Max=1.50D-04 NDo=     1
 LinEq1:  Iter= 15 NonCon=     1 RMS=1.10D-06 Max=1.50D-04 NDo=     1
 LinEq1:  Iter= 16 NonCon=     1 RMS=9.02D-07 Max=1.07D-04 NDo=     1
 LinEq1:  Iter= 17 NonCon=     1 RMS=6.17D-07 Max=4.99D-05 NDo=     1
 LinEq1:  Iter= 18 NonCon=     1 RMS=3.38D-07 Max=3.58D-05 NDo=     1
 LinEq1:  Iter= 19 NonCon=     1 RMS=2.26D-07 Max=2.34D-05 NDo=     1
 LinEq1:  Iter= 20 NonCon=     1 RMS=1.77D-07 Max=1.94D-05 NDo=     1
 LinEq1:  Iter= 21 NonCon=     1 RMS=9.33D-08 Max=9.02D-06 NDo=     1
 LinEq1:  Iter= 22 NonCon=     1 RMS=6.58D-08 Max=6.18D-06 NDo=     1
 LinEq1:  Iter= 23 NonCon=     1 RMS=5.26D-08 Max=5.50D-06 NDo=     1
 LinEq1:  Iter= 24 NonCon=     1 RMS=3.36D-08 Max=5.07D-06 NDo=     1
 LinEq1:  Iter= 25 NonCon=     1 RMS=1.99D-08 Max=3.07D-06 NDo=     1
 LinEq1:  Iter= 26 NonCon=     1 RMS=1.48D-08 Max=2.81D-06 NDo=     1
 LinEq1:  Iter= 27 NonCon=     1 RMS=1.09D-08 Max=2.07D-06 NDo=     1
 LinEq1:  Iter= 28 NonCon=     1 RMS=7.24D-09 Max=1.52D-06 NDo=     1
 LinEq1:  Iter= 29 NonCon=     1 RMS=4.82D-09 Max=1.01D-06 NDo=     1
 LinEq1:  Iter= 30 NonCon=     0 RMS=3.73D-09 Max=6.98D-07 NDo=     1
 Linear equations converged to 7.989D-08 7.989D-07 after    30 iterations.
     Minimum is close to point  2 DX=  8.23D-02 DF= -7.56D-07 DXR=  7.61D-02 DFR=  5.82D-03 which will be used.
 LinEq1:  Iter=  0 NonCon=     1 RMS=2.66D-05 Max=1.86D-02 NDo=     1
 LinEq1:  Iter=  1 NonCon=     1 RMS=3.13D-05 Max=2.10D-02 NDo=     1
 LinEq1:  Iter=  2 NonCon=     1 RMS=1.29D-05 Max=3.99D-03 NDo=     1
 LinEq1:  Iter=  3 NonCon=     1 RMS=1.93D-05 Max=9.31D-03 NDo=     1
 LinEq1:  Iter=  4 NonCon=     1 RMS=1.02D-05 Max=1.21D-03 NDo=     1
 LinEq1:  Iter=  5 NonCon=     1 RMS=7.34D-06 Max=1.48D-03 NDo=     1
 LinEq1:  Iter=  6 NonCon=     1 RMS=3.79D-06 Max=4.63D-04 NDo=     1
 LinEq1:  Iter=  7 NonCon=     1 RMS=3.51D-06 Max=5.20D-04 NDo=     1
 LinEq1:  Iter=  8 NonCon=     1 RMS=2.13D-06 Max=2.00D-04 NDo=     1
 LinEq1:  Iter=  9 NonCon=     1 RMS=1.25D-06 Max=1.34D-04 NDo=     1
 LinEq1:  Iter= 10 NonCon=     1 RMS=9.73D-07 Max=1.22D-04 NDo=     1
 LinEq1:  Iter= 11 NonCon=     1 RMS=6.74D-07 Max=1.57D-04 NDo=     1
 LinEq1:  Iter= 12 NonCon=     1 RMS=4.38D-07 Max=1.24D-04 NDo=     1
 LinEq1:  Iter= 13 NonCon=     1 RMS=2.94D-07 Max=8.52D-05 NDo=     1
 LinEq1:  Iter= 14 NonCon=     1 RMS=2.59D-07 Max=7.28D-05 NDo=     1
 LinEq1:  Iter= 15 NonCon=     1 RMS=1.82D-07 Max=4.71D-05 NDo=     1
 LinEq1:  Iter= 16 NonCon=     1 RMS=1.04D-07 Max=1.63D-05 NDo=     1
 LinEq1:  Iter= 17 NonCon=     1 RMS=7.38D-08 Max=1.21D-05 NDo=     1
 LinEq1:  Iter= 18 NonCon=     1 RMS=6.17D-08 Max=7.09D-06 NDo=     1
 LinEq1:  Iter= 19 NonCon=     1 RMS=3.12D-08 Max=5.90D-06 NDo=     1
 LinEq1:  Iter= 20 NonCon=     1 RMS=2.43D-08 Max=5.00D-06 NDo=     1
 LinEq1:  Iter= 21 NonCon=     1 RMS=1.59D-08 Max=1.66D-06 NDo=     1
 LinEq1:  Iter= 22 NonCon=     1 RMS=1.08D-08 Max=1.93D-06 NDo=     1
 LinEq1:  Iter= 23 NonCon=     1 RMS=7.59D-09 Max=1.61D-06 NDo=     1
 LinEq1:  Iter= 24 NonCon=     1 RMS=4.82D-09 Max=5.37D-07 NDo=     1
 LinEq1:  Iter= 25 NonCon=     1 RMS=2.97D-09 Max=2.34D-07 NDo=     1
 LinEq1:  Iter= 26 NonCon=     1 RMS=2.20D-09 Max=2.69D-07 NDo=     1
 LinEq1:  Iter= 27 NonCon=     1 RMS=1.64D-09 Max=1.62D-07 NDo=     1
 LinEq1:  Iter= 28 NonCon=     1 RMS=9.21D-10 Max=1.02D-07 NDo=     1
 LinEq1:  Iter= 29 NonCon=     1 RMS=5.19D-10 Max=6.18D-08 NDo=     1
 LinEq1:  Iter= 30 NonCon=     0 RMS=4.40D-10 Max=4.49D-08 NDo=     1
 Linear equations converged to 4.904D-09 4.904D-08 after    30 iterations.
 LinEq1:  Iter=  0 NonCon=     1 RMS=1.02D-05 Max=6.91D-03 NDo=     1
 LinEq1:  Iter=  1 NonCon=     1 RMS=4.84D-06 Max=2.75D-03 NDo=     1
 LinEq1:  Iter=  2 NonCon=     1 RMS=1.53D-06 Max=2.24D-04 NDo=     1
 LinEq1:  Iter=  3 NonCon=     1 RMS=1.11D-06 Max=1.67D-04 NDo=     1
 LinEq1:  Iter=  4 NonCon=     1 RMS=8.31D-07 Max=1.35D-04 NDo=     1
 LinEq1:  Iter=  5 NonCon=     1 RMS=6.28D-07 Max=1.50D-04 NDo=     1
 LinEq1:  Iter=  6 NonCon=     1 RMS=7.49D-07 Max=1.79D-04 NDo=     1
 LinEq1:  Iter=  7 NonCon=     1 RMS=6.43D-07 Max=1.36D-04 NDo=     1
 LinEq1:  Iter=  8 NonCon=     1 RMS=5.67D-07 Max=1.94D-04 NDo=     1
 LinEq1:  Iter=  9 NonCon=     1 RMS=4.14D-07 Max=8.10D-05 NDo=     1
 LinEq1:  Iter= 10 NonCon=     1 RMS=3.50D-07 Max=7.51D-05 NDo=     1
 LinEq1:  Iter= 11 NonCon=     1 RMS=2.02D-07 Max=2.55D-05 NDo=     1
 LinEq1:  Iter= 12 NonCon=     1 RMS=1.68D-07 Max=3.00D-05 NDo=     1
 LinEq1:  Iter= 13 NonCon=     1 RMS=1.33D-07 Max=2.56D-05 NDo=     1
 LinEq1:  Iter= 14 NonCon=     1 RMS=8.61D-08 Max=1.76D-05 NDo=     1
 LinEq1:  Iter= 15 NonCon=     1 RMS=5.24D-08 Max=1.09D-05 NDo=     1
 LinEq1:  Iter= 16 NonCon=     1 RMS=3.79D-08 Max=8.38D-06 NDo=     1
 LinEq1:  Iter= 17 NonCon=     1 RMS=2.50D-08 Max=5.18D-06 NDo=     1
 LinEq1:  Iter= 18 NonCon=     1 RMS=1.92D-08 Max=4.47D-06 NDo=     1
 LinEq1:  Iter= 19 NonCon=     1 RMS=1.39D-08 Max=2.88D-06 NDo=     1
 LinEq1:  Iter= 20 NonCon=     1 RMS=9.58D-09 Max=1.85D-06 NDo=     1
 LinEq1:  Iter= 21 NonCon=     1 RMS=6.35D-09 Max=8.97D-07 NDo=     1
 LinEq1:  Iter= 22 NonCon=     1 RMS=4.24D-09 Max=4.68D-07 NDo=     1
 LinEq1:  Iter= 23 NonCon=     1 RMS=3.25D-09 Max=3.28D-07 NDo=     1
 LinEq1:  Iter= 24 NonCon=     1 RMS=1.87D-09 Max=1.77D-07 NDo=     1
 LinEq1:  Iter= 25 NonCon=     1 RMS=1.36D-09 Max=1.95D-07 NDo=     1
 LinEq1:  Iter= 26 NonCon=     1 RMS=1.08D-09 Max=1.56D-07 NDo=     1
 LinEq1:  Iter= 27 NonCon=     1 RMS=7.58D-10 Max=1.31D-07 NDo=     1
 LinEq1:  Iter= 28 NonCon=     1 RMS=4.68D-10 Max=7.85D-08 NDo=     1
 LinEq1:  Iter= 29 NonCon=     1 RMS=3.04D-10 Max=4.01D-08 NDo=     1
 LinEq1:  Iter= 30 NonCon=     0 RMS=2.40D-10 Max=2.56D-08 NDo=     1
 Linear equations converged to 3.824D-09 3.824D-08 after    30 iterations.
 SCF Done:  E(RB3LYP) =  -5333.31737500     a.u. after    8 cycles
            Convg  =    0.5151D-06                   106 Fock formations.
              S**2 =  0.0000                  -V/T =  2.0081
 SCF density gives NOpUse=  1 NOpAll=  1.
 Hyperfine terms turned off by default for NAtoms > 100.

 **********************************************************************

            Population analysis using the SCF density.

 **********************************************************************

 Orbital symmetries:
 BldTbl:  Degeneracy threshold= 1.00D-02
       Occupied  (A) (A) (A) (A) (A) (A) (A) (A) (A) (A) (A) (A)
                 (A) (A) (A) (A) (A) (A) (A) (A) (A) (A) (A) (A)
                 (A) (A) (A) (A) (A) (A) (A) (A) (A) (A) (A) (A)
                 (A) (A) (A) (A) (A) (A) (A) (A) (A) (A) (A) (A)
                 (A) (A) (A) (A) (A) (A) (A) (A) (A) (A) (A) (A)
                 (A) (A) (A) (A) (A) (A) (A) (A) (A) (A) (A) (A)
                 (A) (A) (A) (A) (A) (A) (A) (A) (A) (A) (A) (A)
                 (A) (A) (A) (A) (A) (A) (A) (A) (A) (A) (A) (A)
                 (A) (A) (A) (A) (A) (A) (A) (A) (A) (A) (A) (A)
                 (A) (A) (A) (A) (A) (A) (A) (A) (A) (A) (A) (A)
                 (A) (A) (A) (A) (A) (A) (A) (A) (A) (A) (A) (A)
                 (A) (A) (A) (A) (A) (A) (A) (A) (A) (A) (A) (A)
                 (A) (A) (A) (A) (A) (A) (A) (A) (A) (A) (A) (A)
                 (A) (A) (A) (A) (A) (A) (A) (A) (A) (A) (A) (A)
                 (A) (A) (A) (A) (A) (A) (A) (A) (A) (A) (A) (A)
                 (A) (A) (A) (A) (A) (A) (A) (A) (A) (A) (A) (A)
                 (A) (A) (A) (A) (A) (A) (A) (A) (A) (A) (A) (A)
                 (A) (A) (A) (A) (A) (A) (A) (A) (A) (A) (A) (A)
                 (A) (A) (A) (A) (A) (A) (A) (A) (A) (A) (A) (A)
                 (A) (A) (A) (A) (A) (A) (A) (A) (A) (A) (A) (A)
                 (A) (A) (A) (A) (A) (A) (A) (A) (A) (A) (A) (A)
                 (A) (A) (A) (A) (A) (A) (A) (A) (A) (A) (A) (A)
                 (A) (A) (A) (A) (A) (A) (A) (A) (A) (A) (A) (A)
                 (A) (A) (A) (A) (A) (A) (A) (A) (A) (A) (A) (A)
                 (A) (A) (A) (A) (A) (A) (A) (A) (A) (A) (A) (A)
                 (A) (A) (A) (A) (A) (A) (A) (A) (A) (A) (A) (A)
                 (A) (A) (A) (A) (A) (A) (A) (A) (A) (A) (A) (A)
                 (A) (A) (A) (A) (A) (A) (A) (A) (A) (A) (A) (A)
                 (A) (A) (A) (A) (A) (A) (A) (A) (A) (A) (A) (A)
                 (A) (A) (A) (A) (A) (A) (A) (A) (A) (A)
       Virtual   (A) (A) (A) (A) (A) (A) (A) (A) (A) (A) (A) (A)
                 (A) (A) (A) (A) (A) (A) (A) (A) (A) (A) (A) (A)
                 (A) (A) (A) (A) (A) (A) (A) (A) (A) (A) (A) (A)
                 (A) (A) (A) (A) (A) (A) (A) (A) (A) (A) (A) (A)
                 (A) (A) (A) (A) (A) (A) (A) (A) (A) (A) (A) (A)
                 (A) (A) (A) (A) (A) (A) (A) (A) (A) (A) (A) (A)
                 (A) (A) (A) (A) (A) (A) (A) (A) (A) (A) (A) (A)
                 (A) (A) (A) (A) (A) (A) (A) (A) (A) (A) (A) (A)
                 (A) (A) (A) (A) (A) (A) (A) (A) (A) (A) (A) (A)
                 (A) (A) (A) (A) (A) (A) (A) (A) (A) (A) (A) (A)
                 (A) (A) (A) (A) (A) (A) (A) (A) (A) (A) (A) (A)
                 (A) (A) (A) (A) (A) (A) (A) (A) (A) (A) (A) (A)
                 (A) (A) (A) (A) (A) (A) (A) (A) (A) (A) (A) (A)
                 (A) (A) (A) (A) (A) (A) (A) (A) (A) (A) (A) (A)
                 (A) (A) (A) (A) (A) (A) (A) (A) (A) (A) (A) (A)
                 (A) (A) (A) (A) (A) (A) (A) (A) (A) (A) (A) (A)
                 (A) (A) (A) (A) (A) (A) (A) (A) (A) (A) (A) (A)
                 (A) (A) (A) (A) (A) (A) (A) (A) (A) (A) (A) (A)
                 (A) (A) (A) (A) (A) (A) (A) (A) (A) (A) (A) (A)
                 (A) (A) (A) (A) (A) (A) (A) (A) (A) (A) (A) (A)
                 (A) (A) (A) (A) (A) (A) (A) (A) (A) (A) (A) (A)
                 (A) (A) (A) (A) (A) (A) (A) (A) (A) (A) (A) (A)
                 (A) (A) (A) (A) (A) (A) (A) (A) (A) (A) (A) (A)
                 (A) (A) (A) (A) (A) (A) (A) (A) (A) (A) (A) (A)
                 (A) (A) (A) (A) (A) (A) (A) (A) (A) (A) (A) (A)
                 (A) (A) (A) (A) (A) (A) (A) (A) (A) (A) (A) (A)
                 (A) (A) (A) (A) (A) (A) (A) (A) (A) (A) (A) (A)
                 (A) (A) (A) (A) (A) (A) (A) (A) (A) (A) (A) (A)
                 (A) (A) (A) (A) (A) (A) (A) (A) (A) (A) (A) (A)
                 (A) (A) (A) (A) (A) (A) (A) (A) (A) (A) (A) (A)
                 (A) (A) (A) (A) (A) (A) (A) (A) (A) (A) (A) (A)
                 (A) (A) (A) (A) (A) (A) (A) (A) (A) (A) (A) (A)
                 (A) (A) (A) (A) (A) (A) (A) (A) (A) (A) (A) (A)
                 (A) (A) (A) (A) (A) (A) (A) (A) (A) (A) (A) (A)
                 (A) (A) (A) (A) (A) (A) (A) (A) (A) (A) (A) (A)
                 (A) (A) (A) (A) (A) (A) (A) (A) (A) (A) (A) (A)
                 (A) (A) (A) (A) (A) (A) (A) (A) (A) (A) (A) (A)
                 (A) (A) (A) (A) (A) (A) (A) (A) (A) (A) (A) (A)
                 (A) (A) (A) (A) (A) (A) (A) (A) (A) (A) (A) (A)
                 (A) (A) (A) (A) (A) (A) (A) (A) (A) (A) (A) (A)
                 (A) (A) (A) (A) (A) (A) (A) (A) (A) (A) (A) (A)
                 (A) (A) (A) (A) (A) (A) (A) (A) (A) (A) (A) (A)
                 (A) (A) (A) (A) (A) (A) (A) (A) (A) (A) (A) (A)
                 (A) (A) (A) (A) (A) (A) (A) (A) (A) (A) (A) (A)
                 (A) (A) (A) (A) (A) (A) (A) (A) (A) (A) (A) (A)
                 (A) (A) (A) (A) (A) (A) (A) (A) (A) (A) (A) (A)
                 (A) (A) (A) (A) (A) (A) (A) (A) (A) (A) (A) (A)
                 (A) (A) (A) (A) (A) (A) (A) (A) (A) (A) (A) (A)
                 (A) (A) (A) (A) (A) (A) (A) (A) (A) (A) (A) (A)
                 (A) (A) (A) (A) (A) (A) (A) (A) (A) (A) (A) (A)
                 (A) (A) (A) (A) (A) (A) (A) (A) (A) (A) (A) (A)
                 (A) (A) (A) (A) (A) (A) (A) (A) (A) (A) (A) (A)
                 (A) (A) (A) (A) (A) (A) (A) (A) (A) (A) (A) (A)
                 (A) (A) (A) (A) (A) (A) (A) (A) (A) (A) (A) (A)
                 (A) (A) (A) (A) (A) (A) (A) (A) (A) (A) (A) (A)
                 (A) (A) (A) (A) (A) (A) (A) (A) (A) (A) (A) (A)
                 (A) (A) (A) (A) (A) (A) (A) (A) (A) (A) (A) (A)
                 (A) (A) (A) (A) (A) (A) (A) (A) (A) (A) (A) (A)
                 (A) (A) (A) (A) (A) (A) (A) (A) (A) (A) (A) (A)
                 (A) (A) (A) (A) (A) (A) (A) (A) (A) (A) (A) (A)
                 (A) (A) (A) (A) (A) (A) (A) (A) (A) (A) (A) (A)
                 (A) (A) (A) (A) (A) (A) (A) (A) (A) (A) (A) (A)
                 (A) (A) (A) (A) (A) (A) (A) (A) (A) (A) (A) (A)
                 (A) (A) (A) (A) (A) (A) (A) (A) (A) (A) (A) (A)
                 (A) (A) (A) (A) (A) (A) (A) (A) (A) (A) (A) (A)
                 (A) (A) (A) (A) (A) (A) (A) (A) (A) (A) (A) (A)
                 (A) (A) (A) (A) (A) (A) (A) (A) (A) (A) (A) (A)
                 (A) (A) (A) (A) (A) (A) (A) (A) (A) (A) (A) (A)
                 (A) (A) (A) (A) (A) (A) (A) (A) (A) (A) (A) (A)
                 (A) (A) (A) (A) (A) (A) (A) (A) (A) (A) (A) (A)
                 (A) (A) (A) (A) (A) (A) (A) (A) (A) (A) (A) (A)
                 (A) (A) (A) (A) (A) (A) (A) (A) (A) (A) (A) (A)
                 (A) (A) (A) (A) (A) (A) (A) (A) (A) (A) (A) (A)
                 (A) (A) (A) (A) (A) (A) (A) (A) (A) (A) (A) (A)
                 (A) (A) (A) (A) (A) (A) (A) (A) (A) (A) (A) (A)
                 (A) (A) (A) (A) (A) (A) (A) (A) (A) (A) (A) (A)
                 (A) (A) (A) (A) (A) (A) (A) (A) (A) (A) (A) (A)
                 (A) (A) (A) (A) (A) (A) (A) (A) (A) (A) (A) (A)
                 (A) (A) (A) (A) (A) (A) (A) (A) (A) (A) (A) (A)
                 (A) (A) (A) (A) (A) (A) (A) (A) (A) (A) (A) (A)
                 (A) (A) (A) (A) (A) (A) (A) (A) (A) (A) (A) (A)
                 (A) (A) (A) (A) (A) (A) (A) (A) (A) (A) (A) (A)
                 (A) (A) (A) (A) (A) (A) (A) (A) (A) (A) (A) (A)
                 (A) (A) (A) (A) (A) (A) (A) (A) (A) (A) (A) (A)
                 (A) (A) (A) (A) (A) (A) (A) (A) (A) (A) (A) (A)
                 (A) (A) (A) (A) (A) (A) (A) (A) (A) (A) (A) (A)
                 (A) (A) (A) (A) (A) (A) (A) (A) (A) (A) (A) (A)
                 (A) (A) (A) (A) (A) (A) (A) (A) (A) (A) (A) (A)
                 (A) (A) (A) (A) (A) (A) (A) (A) (A) (A) (A) (A)
                 (A) (A) (A) (A) (A) (A) (A) (A) (A) (A) (A) (A)
                 (A) (A) (A) (A) (A) (A) (A) (A) (A) (A) (A) (A)
                 (A) (A) (A) (A) (A) (A) (A) (A) (A) (A) (A) (A)
                 (A) (A) (A) (A) (A) (A) (A) (A) (A) (A) (A) (A)
                 (A) (A) (A) (A) (A) (A) (A) (A) (A) (A) (A) (A)
                 (A) (A) (A) (A) (A) (A) (A) (A) (A) (A) (A) (A)
                 (A) (A) (A) (A) (A) (A) (A) (A) (A) (A) (A) (A)
                 (A) (A) (A) (A) (A) (A) (A) (A) (A) (A) (A) (A)
                 (A) (A) (A) (A) (A) (A) (A) (A) (A) (A) (A) (A)
                 (A) (A) (A) (A) (A) (A) (A) (A) (A) (A) (A) (A)
                 (A) (A) (A) (A) (A) (A) (A) (A) (A) (A) (A) (A)
                 (A) (A) (A) (A) (A) (A) (A) (A) (A) (A) (A) (A)
                 (A) (A) (A) (A) (A) (A) (A) (A) (A) (A) (A) (A)
                 (A) (A) (A) (A) (A) (A) (A) (A) (A) (A) (A) (A)
                 (A) (A) (A) (A) (A) (A) (A) (A) (A) (A) (A) (A)
                 (A) (A) (A) (A) (A) (A) (A) (A) (A) (A) (A) (A)
                 (A) (A) (A) (A) (A) (A) (A) (A) (A) (A) (A) (A)
                 (A) (A) (A) (A) (A) (A) (A) (A) (A) (A) (A) (A)
                 (A) (A) (A) (A) (A) (A) (A) (A) (A) (A) (A) (A)
                 (A) (A) (A) (A) (A) (A) (A) (A) (A) (A) (A) (A)
                 (A) (A) (A) (A) (A) (A) (A) (A) (A) (A) (A) (A)
                 (A) (A) (A) (A) (A) (A) (A) (A) (A) (A) (A) (A)
                 (A) (A) (A) (A) (A) (A) (A) (A) (A) (A) (A) (A)
                 (A) (A) (A) (A) (A) (A) (A) (A) (A) (A) (A) (A)
                 (A) (A) (A)
 The electronic state is 1-A.
 Alpha  occ. eigenvalues -- -145.47038 -19.25275 -19.14546 -19.13801 -19.12372
 Alpha  occ. eigenvalues --  -19.11661 -19.09686 -19.08349 -19.08329 -19.08097
 Alpha  occ. eigenvalues --  -19.07149 -19.06924 -19.06669 -19.06550 -19.05283
 Alpha  occ. eigenvalues --  -19.05181 -19.04879 -19.04731 -19.04611 -19.03226
 Alpha  occ. eigenvalues --  -19.02857 -19.02441 -18.96780 -18.95894 -15.52951
 Alpha  occ. eigenvalues --  -14.56483 -14.38661 -14.38052 -14.35643 -14.35197
 Alpha  occ. eigenvalues --  -14.34957 -14.33908 -14.33457 -14.33368 -14.33028
 Alpha  occ. eigenvalues --  -14.32835 -14.31373 -14.31357 -14.29746 -14.28198
 Alpha  occ. eigenvalues --  -12.66567 -12.66517 -12.66459 -10.33473 -10.30600
 Alpha  occ. eigenvalues --  -10.29946 -10.28956 -10.27096 -10.26653 -10.26617
 Alpha  occ. eigenvalues --  -10.26477 -10.26451 -10.26319 -10.26284 -10.25838
 Alpha  occ. eigenvalues --  -10.25726 -10.24920 -10.24884 -10.24471 -10.24184
 Alpha  occ. eigenvalues --  -10.24154 -10.24152 -10.23774 -10.22848 -10.22696
 Alpha  occ. eigenvalues --  -10.22620 -10.22504 -10.22468 -10.21857 -10.21801
 Alpha  occ. eigenvalues --  -10.21618 -10.21513 -10.21345 -10.21246 -10.20832
 Alpha  occ. eigenvalues --  -10.20436 -10.19810 -10.19210 -10.18224 -10.17906
 Alpha  occ. eigenvalues --  -10.17801 -10.17779 -10.17697 -10.17535 -10.17489
 Alpha  occ. eigenvalues --  -10.17483 -10.17287 -10.17075 -10.16839 -10.16718
 Alpha  occ. eigenvalues --  -10.16014 -10.15282 -10.14800 -10.14307 -10.14098
 Alpha  occ. eigenvalues --  -10.13428 -10.11749  -1.89560  -1.17113  -1.16681
 Alpha  occ. eigenvalues --   -1.16335  -1.12064  -1.10911  -1.05318  -1.04126
 Alpha  occ. eigenvalues --   -1.03276  -1.02754  -1.02275  -1.01653  -1.01646
 Alpha  occ. eigenvalues --   -1.00921  -1.00621  -1.00309  -1.00176  -1.00124
 Alpha  occ. eigenvalues --   -0.99722  -0.98595  -0.98044  -0.97915  -0.97023
 Alpha  occ. eigenvalues --   -0.95688  -0.95681  -0.94567  -0.92458  -0.91895
 Alpha  occ. eigenvalues --   -0.91548  -0.90974  -0.90421  -0.90338  -0.90313
 Alpha  occ. eigenvalues --   -0.89094  -0.88980  -0.88218  -0.88062  -0.87974
 Alpha  occ. eigenvalues --   -0.87962  -0.87392  -0.86711  -0.84619  -0.83692
 Alpha  occ. eigenvalues --   -0.82812  -0.80580  -0.80395  -0.80024  -0.79236
 Alpha  occ. eigenvalues --   -0.77503  -0.77371  -0.76502  -0.75464  -0.75393
 Alpha  occ. eigenvalues --   -0.73440  -0.73220  -0.72906  -0.72567  -0.72077
 Alpha  occ. eigenvalues --   -0.71964  -0.71065  -0.70130  -0.70101  -0.69602
 Alpha  occ. eigenvalues --   -0.69270  -0.68989  -0.68339  -0.68057  -0.66912
 Alpha  occ. eigenvalues --   -0.66563  -0.65851  -0.65360  -0.64185  -0.64177
 Alpha  occ. eigenvalues --   -0.62767  -0.62450  -0.62137  -0.61311  -0.61230
 Alpha  occ. eigenvalues --   -0.60363  -0.60325  -0.59389  -0.59288  -0.58909
 Alpha  occ. eigenvalues --   -0.58474  -0.58265  -0.57926  -0.57691  -0.57653
 Alpha  occ. eigenvalues --   -0.57519  -0.57378  -0.56563  -0.55731  -0.55582
 Alpha  occ. eigenvalues --   -0.55300  -0.55092  -0.55075  -0.54484  -0.54337
 Alpha  occ. eigenvalues --   -0.53669  -0.53491  -0.53168  -0.52700  -0.52501
 Alpha  occ. eigenvalues --   -0.51888  -0.51594  -0.51258  -0.51161  -0.50732
 Alpha  occ. eigenvalues --   -0.50262  -0.50171  -0.49840  -0.49815  -0.49337
 Alpha  occ. eigenvalues --   -0.49063  -0.48644  -0.48257  -0.48173  -0.47824
 Alpha  occ. eigenvalues --   -0.47515  -0.47377  -0.47345  -0.47064  -0.46747
 Alpha  occ. eigenvalues --   -0.46656  -0.46442  -0.46204  -0.46065  -0.45872
 Alpha  occ. eigenvalues --   -0.45555  -0.44643  -0.44571  -0.44487  -0.44361
 Alpha  occ. eigenvalues --   -0.44115  -0.43930  -0.43819  -0.43689  -0.43632
 Alpha  occ. eigenvalues --   -0.43486  -0.43219  -0.43125  -0.42954  -0.42835
 Alpha  occ. eigenvalues --   -0.42723  -0.42663  -0.42386  -0.42353  -0.42027
 Alpha  occ. eigenvalues --   -0.41977  -0.41929  -0.41807  -0.41516  -0.41456
 Alpha  occ. eigenvalues --   -0.41247  -0.40974  -0.40955  -0.40734  -0.40510
 Alpha  occ. eigenvalues --   -0.40126  -0.40039  -0.39988  -0.39816  -0.39702
 Alpha  occ. eigenvalues --   -0.39597  -0.39383  -0.39347  -0.39308  -0.39280
 Alpha  occ. eigenvalues --   -0.39214  -0.38899  -0.38789  -0.38616  -0.38408
 Alpha  occ. eigenvalues --   -0.38331  -0.38217  -0.38051  -0.37959  -0.37902
 Alpha  occ. eigenvalues --   -0.37595  -0.37391  -0.37353  -0.37282  -0.36850
 Alpha  occ. eigenvalues --   -0.36706  -0.36620  -0.36501  -0.36442  -0.36172
 Alpha  occ. eigenvalues --   -0.35553  -0.35536  -0.35368  -0.35097  -0.34994
 Alpha  occ. eigenvalues --   -0.34899  -0.34867  -0.34577  -0.34462  -0.34345
 Alpha  occ. eigenvalues --   -0.34126  -0.33994  -0.33662  -0.33498  -0.33188
 Alpha  occ. eigenvalues --   -0.33145  -0.32964  -0.32803  -0.32505  -0.32477
 Alpha  occ. eigenvalues --   -0.32346  -0.32224  -0.31725  -0.31555  -0.31422
 Alpha  occ. eigenvalues --   -0.31312  -0.31017  -0.30840  -0.30192  -0.29997
 Alpha  occ. eigenvalues --   -0.29824  -0.29695  -0.28407  -0.28072  -0.27694
 Alpha  occ. eigenvalues --   -0.27477  -0.27101  -0.26903  -0.26790  -0.26059
 Alpha  occ. eigenvalues --   -0.25494  -0.25282  -0.25206  -0.25140  -0.24814
 Alpha  occ. eigenvalues --   -0.24783  -0.24651  -0.24312  -0.24097  -0.23877
 Alpha  occ. eigenvalues --   -0.23629  -0.23132  -0.23090  -0.23047  -0.22914
 Alpha  occ. eigenvalues --   -0.22682  -0.22551  -0.21751  -0.21313  -0.21160
 Alpha  occ. eigenvalues --   -0.20972  -0.20818  -0.20701  -0.20565  -0.20336
 Alpha  occ. eigenvalues --   -0.19973  -0.19878  -0.18855  -0.18273  -0.18078
 Alpha  occ. eigenvalues --   -0.14339  -0.13755  -0.10760
 Alpha virt. eigenvalues --   -0.09908  -0.09620  -0.03735  -0.02937  -0.02861
 Alpha virt. eigenvalues --   -0.01931  -0.00718  -0.00525  -0.00281   0.00209
 Alpha virt. eigenvalues --    0.00837   0.01324   0.01491   0.01769   0.02418
 Alpha virt. eigenvalues --    0.02681   0.02920   0.02959   0.03144   0.03610
 Alpha virt. eigenvalues --    0.03682   0.03908   0.04097   0.04364   0.04492
 Alpha virt. eigenvalues --    0.04557   0.04619   0.04853   0.05378   0.05538
 Alpha virt. eigenvalues --    0.05681   0.05804   0.06115   0.06363   0.06505
 Alpha virt. eigenvalues --    0.06806   0.07017   0.07077   0.07335   0.07758
 Alpha virt. eigenvalues --    0.07821   0.07984   0.08075   0.08337   0.08616
 Alpha virt. eigenvalues --    0.08863   0.08999   0.09287   0.09359   0.09726
 Alpha virt. eigenvalues --    0.10062   0.10107   0.10525   0.10857   0.11206
 Alpha virt. eigenvalues --    0.11254   0.11435   0.11576   0.11806   0.11950
 Alpha virt. eigenvalues --    0.12174   0.12386   0.12840   0.12949   0.13063
 Alpha virt. eigenvalues --    0.13102   0.13290   0.13304   0.13404   0.13726
 Alpha virt. eigenvalues --    0.13847   0.13914   0.13930   0.14123   0.14335
 Alpha virt. eigenvalues --    0.14458   0.14825   0.14933   0.14996   0.15319
 Alpha virt. eigenvalues --    0.15612   0.15783   0.15897   0.15957   0.16058
 Alpha virt. eigenvalues --    0.16322   0.16532   0.16676   0.16784   0.17001
 Alpha virt. eigenvalues --    0.17115   0.17278   0.17564   0.17898   0.18108
 Alpha virt. eigenvalues --    0.18264   0.18380   0.18547   0.18679   0.18934
 Alpha virt. eigenvalues --    0.18995   0.19263   0.19293   0.19850   0.19868
 Alpha virt. eigenvalues --    0.20162   0.20331   0.20413   0.20533   0.20774
 Alpha virt. eigenvalues --    0.21063   0.21135   0.21307   0.21428   0.21498
 Alpha virt. eigenvalues --    0.21789   0.22172   0.22419   0.22476   0.22869
 Alpha virt. eigenvalues --    0.23118   0.23315   0.23374   0.23620   0.23836
 Alpha virt. eigenvalues --    0.24040   0.24214   0.24426   0.24505   0.24918
 Alpha virt. eigenvalues --    0.25226   0.25344   0.25399   0.25613   0.26048
 Alpha virt. eigenvalues --    0.26246   0.26544   0.26923   0.27085   0.27253
 Alpha virt. eigenvalues --    0.27524   0.27788   0.28219   0.28350   0.28546
 Alpha virt. eigenvalues --    0.28814   0.28981   0.29125   0.29447   0.29526
 Alpha virt. eigenvalues --    0.29704   0.29994   0.30210   0.30505   0.30663
 Alpha virt. eigenvalues --    0.30932   0.30981   0.31318   0.31639   0.31740
 Alpha virt. eigenvalues --    0.32178   0.32394   0.32599   0.32646   0.32686
 Alpha virt. eigenvalues --    0.33291   0.33383   0.33635   0.34083   0.34231
 Alpha virt. eigenvalues --    0.34319   0.34536   0.34658   0.35152   0.35416
 Alpha virt. eigenvalues --    0.35724   0.36365   0.36545   0.36953   0.37222
 Alpha virt. eigenvalues --    0.37484   0.37719   0.38069   0.38182   0.38498
 Alpha virt. eigenvalues --    0.39010   0.39214   0.39893   0.40126   0.40711
 Alpha virt. eigenvalues --    0.40757   0.40929   0.41330   0.41502   0.41689
 Alpha virt. eigenvalues --    0.41754   0.41843   0.42017   0.42354   0.42554
 Alpha virt. eigenvalues --    0.42721   0.42786   0.42906   0.43076   0.43128
 Alpha virt. eigenvalues --    0.43468   0.43808   0.43992   0.44146   0.44420
 Alpha virt. eigenvalues --    0.44496   0.44701   0.44756   0.45081   0.45171
 Alpha virt. eigenvalues --    0.45596   0.45789   0.46207   0.46323   0.46642
 Alpha virt. eigenvalues --    0.46948   0.47159   0.47176   0.47587   0.47736
 Alpha virt. eigenvalues --    0.47770   0.48055   0.48203   0.48475   0.48651
 Alpha virt. eigenvalues --    0.48788   0.48945   0.49141   0.49263   0.49554
 Alpha virt. eigenvalues --    0.49653   0.49885   0.50123   0.50223   0.50462
 Alpha virt. eigenvalues --    0.50567   0.50760   0.50807   0.50937   0.51048
 Alpha virt. eigenvalues --    0.51616   0.51714   0.52036   0.52299   0.52471
 Alpha virt. eigenvalues --    0.52768   0.53029   0.53086   0.53244   0.53375
 Alpha virt. eigenvalues --    0.53509   0.53561   0.53611   0.54150   0.54214
 Alpha virt. eigenvalues --    0.54381   0.54688   0.55060   0.55218   0.55522
 Alpha virt. eigenvalues --    0.55557   0.55701   0.55823   0.56148   0.56195
 Alpha virt. eigenvalues --    0.56287   0.56595   0.56682   0.56820   0.57035
 Alpha virt. eigenvalues --    0.57274   0.57405   0.57779   0.57931   0.57977
 Alpha virt. eigenvalues --    0.58396   0.58769   0.58922   0.59101   0.59593
 Alpha virt. eigenvalues --    0.59690   0.59796   0.59990   0.60160   0.60357
 Alpha virt. eigenvalues --    0.60420   0.60514   0.60607   0.60957   0.61045
 Alpha virt. eigenvalues --    0.61108   0.61377   0.61512   0.61594   0.61611
 Alpha virt. eigenvalues --    0.61704   0.61887   0.62094   0.62212   0.62286
 Alpha virt. eigenvalues --    0.62433   0.62588   0.62620   0.62809   0.62977
 Alpha virt. eigenvalues --    0.63191   0.63387   0.63437   0.63506   0.63702
 Alpha virt. eigenvalues --    0.63776   0.63962   0.64070   0.64114   0.64199
 Alpha virt. eigenvalues --    0.64266   0.64476   0.64518   0.64704   0.64784
 Alpha virt. eigenvalues --    0.64892   0.64977   0.65229   0.65282   0.65526
 Alpha virt. eigenvalues --    0.65718   0.65796   0.65869   0.66004   0.66133
 Alpha virt. eigenvalues --    0.66281   0.66422   0.66535   0.66580   0.66662
 Alpha virt. eigenvalues --    0.66747   0.66793   0.66827   0.66889   0.67019
 Alpha virt. eigenvalues --    0.67193   0.67298   0.67444   0.67539   0.67670
 Alpha virt. eigenvalues --    0.67778   0.68039   0.68151   0.68337   0.68509
 Alpha virt. eigenvalues --    0.68561   0.68782   0.68854   0.68918   0.69001
 Alpha virt. eigenvalues --    0.69077   0.69369   0.69477   0.69549   0.69562
 Alpha virt. eigenvalues --    0.69848   0.69955   0.70034   0.70147   0.70276
 Alpha virt. eigenvalues --    0.70342   0.70553   0.70579   0.70789   0.70871
 Alpha virt. eigenvalues --    0.71095   0.71252   0.71358   0.71374   0.71446
 Alpha virt. eigenvalues --    0.71669   0.71717   0.72038   0.72119   0.72179
 Alpha virt. eigenvalues --    0.72451   0.72536   0.72584   0.72696   0.72808
 Alpha virt. eigenvalues --    0.73109   0.73202   0.73277   0.73426   0.73578
 Alpha virt. eigenvalues --    0.73722   0.73889   0.74027   0.74122   0.74422
 Alpha virt. eigenvalues --    0.74473   0.74907   0.75019   0.75151   0.75302
 Alpha virt. eigenvalues --    0.75367   0.75517   0.75664   0.75923   0.76101
 Alpha virt. eigenvalues --    0.76196   0.76336   0.76515   0.76925   0.77273
 Alpha virt. eigenvalues --    0.77434   0.77533   0.77863   0.78073   0.78484
 Alpha virt. eigenvalues --    0.78569   0.78683   0.79124   0.79176   0.79345
 Alpha virt. eigenvalues --    0.79512   0.79720   0.80132   0.80412   0.80443
 Alpha virt. eigenvalues --    0.80528   0.80763   0.81076   0.81377   0.81480
 Alpha virt. eigenvalues --    0.81846   0.82093   0.82142   0.82541   0.82663
 Alpha virt. eigenvalues --    0.83042   0.83111   0.83403   0.83515   0.83723
 Alpha virt. eigenvalues --    0.84069   0.84447   0.84547   0.84813   0.85005
 Alpha virt. eigenvalues --    0.85277   0.85385   0.85673   0.85891   0.86061
 Alpha virt. eigenvalues --    0.86618   0.86912   0.86948   0.87625   0.87756
 Alpha virt. eigenvalues --    0.88159   0.88542   0.88706   0.88913   0.89131
 Alpha virt. eigenvalues --    0.89619   0.89776   0.89987   0.90022   0.90468
 Alpha virt. eigenvalues --    0.90638   0.90768   0.91059   0.91161   0.91353
 Alpha virt. eigenvalues --    0.91923   0.92157   0.92271   0.92589   0.92948
 Alpha virt. eigenvalues --    0.93114   0.93428   0.93579   0.93913   0.94148
 Alpha virt. eigenvalues --    0.94695   0.94830   0.95524   0.95552   0.95811
 Alpha virt. eigenvalues --    0.96220   0.96413   0.96724   0.96880   0.97198
 Alpha virt. eigenvalues --    0.97334   0.97789   0.98087   0.98250   0.98467
 Alpha virt. eigenvalues --    0.98737   0.99072   0.99646   0.99731   1.00005
 Alpha virt. eigenvalues --    1.00206   1.00593   1.00845   1.01200   1.01763
 Alpha virt. eigenvalues --    1.01986   1.02180   1.02479   1.02837   1.03041
 Alpha virt. eigenvalues --    1.03223   1.03547   1.03675   1.03983   1.04568
 Alpha virt. eigenvalues --    1.05025   1.05104   1.05348   1.05488   1.05634
 Alpha virt. eigenvalues --    1.05782   1.06195   1.06749   1.06837   1.07239
 Alpha virt. eigenvalues --    1.07393   1.07720   1.07990   1.08600   1.08654
 Alpha virt. eigenvalues --    1.08975   1.09276   1.09508   1.09656   1.09899
 Alpha virt. eigenvalues --    1.10094   1.10604   1.10828   1.11151   1.11372
 Alpha virt. eigenvalues --    1.11758   1.11831   1.12169   1.12277   1.12713
 Alpha virt. eigenvalues --    1.13031   1.13242   1.13533   1.13923   1.14338
 Alpha virt. eigenvalues --    1.14424   1.14690   1.14824   1.14938   1.15232
 Alpha virt. eigenvalues --    1.15292   1.15761   1.16044   1.16335   1.16863
 Alpha virt. eigenvalues --    1.17313   1.17549   1.17631   1.17800   1.18366
 Alpha virt. eigenvalues --    1.18455   1.18662   1.18832   1.19032   1.19371
 Alpha virt. eigenvalues --    1.19478   1.19902   1.20187   1.20523   1.20742
 Alpha virt. eigenvalues --    1.20781   1.20942   1.21578   1.21966   1.22353
 Alpha virt. eigenvalues --    1.22614   1.22807   1.22903   1.23191   1.23381
 Alpha virt. eigenvalues --    1.23446   1.23748   1.23835   1.24039   1.24124
 Alpha virt. eigenvalues --    1.24292   1.24399   1.24831   1.25133   1.25271
 Alpha virt. eigenvalues --    1.25959   1.26148   1.26195   1.26511   1.26868
 Alpha virt. eigenvalues --    1.27225   1.27265   1.27610   1.27642   1.28141
 Alpha virt. eigenvalues --    1.28301   1.28608   1.28867   1.29332   1.29446
 Alpha virt. eigenvalues --    1.29780   1.30164   1.30263   1.30653   1.30702
 Alpha virt. eigenvalues --    1.30966   1.31411   1.31722   1.31828   1.32274
 Alpha virt. eigenvalues --    1.32753   1.32923   1.33041   1.33551   1.33687
 Alpha virt. eigenvalues --    1.33780   1.33995   1.34357   1.34858   1.35005
 Alpha virt. eigenvalues --    1.35677   1.35988   1.36532   1.37002   1.37083
 Alpha virt. eigenvalues --    1.37552   1.37845   1.38060   1.38395   1.38904
 Alpha virt. eigenvalues --    1.38932   1.39223   1.39605   1.39703   1.39913
 Alpha virt. eigenvalues --    1.40365   1.40526   1.41321   1.41733   1.41933
 Alpha virt. eigenvalues --    1.42049   1.42503   1.42671   1.43111   1.43457
 Alpha virt. eigenvalues --    1.43594   1.44314   1.44663   1.44805   1.45121
 Alpha virt. eigenvalues --    1.45231   1.45442   1.45636   1.45832   1.45879
 Alpha virt. eigenvalues --    1.46192   1.46573   1.46800   1.47194   1.47476
 Alpha virt. eigenvalues --    1.47702   1.48278   1.48508   1.48906   1.49162
 Alpha virt. eigenvalues --    1.49649   1.49828   1.50011   1.50129   1.50862
 Alpha virt. eigenvalues --    1.51182   1.51447   1.51478   1.51623   1.51768
 Alpha virt. eigenvalues --    1.51986   1.52679   1.52844   1.53057   1.53418
 Alpha virt. eigenvalues --    1.53452   1.54009   1.54280   1.54789   1.55000
 Alpha virt. eigenvalues --    1.55686   1.55953   1.56205   1.56413   1.56727
 Alpha virt. eigenvalues --    1.57012   1.57096   1.57683   1.57935   1.58178
 Alpha virt. eigenvalues --    1.58430   1.58608   1.58854   1.59169   1.59182
 Alpha virt. eigenvalues --    1.59965   1.60099   1.60372   1.60430   1.60811
 Alpha virt. eigenvalues --    1.61344   1.62026   1.62487   1.62556   1.63525
 Alpha virt. eigenvalues --    1.63889   1.64441   1.64982   1.65225   1.65375
 Alpha virt. eigenvalues --    1.65623   1.65894   1.66115   1.66661   1.66968
 Alpha virt. eigenvalues --    1.67023   1.67353   1.67440   1.68036   1.68092
 Alpha virt. eigenvalues --    1.68580   1.68619   1.69098   1.69613   1.69855
 Alpha virt. eigenvalues --    1.70176   1.70231   1.70459   1.70965   1.71095
 Alpha virt. eigenvalues --    1.71261   1.71533   1.71791   1.71928   1.72161
 Alpha virt. eigenvalues --    1.72486   1.72638   1.72850   1.72947   1.73156
 Alpha virt. eigenvalues --    1.73407   1.73647   1.73869   1.74242   1.74315
 Alpha virt. eigenvalues --    1.74784   1.74861   1.74925   1.75189   1.75404
 Alpha virt. eigenvalues --    1.75559   1.75655   1.75788   1.76042   1.76378
 Alpha virt. eigenvalues --    1.76428   1.76855   1.76916   1.77151   1.77179
 Alpha virt. eigenvalues --    1.77303   1.77565   1.77837   1.77901   1.77946
 Alpha virt. eigenvalues --    1.78202   1.78352   1.78424   1.78735   1.79248
 Alpha virt. eigenvalues --    1.79469   1.79535   1.79627   1.79714   1.79898
 Alpha virt. eigenvalues --    1.79966   1.80272   1.80436   1.80682   1.80918
 Alpha virt. eigenvalues --    1.81021   1.81152   1.81349   1.81577   1.81815
 Alpha virt. eigenvalues --    1.82082   1.82295   1.82349   1.82548   1.82596
 Alpha virt. eigenvalues --    1.82768   1.83172   1.83217   1.83325   1.83462
 Alpha virt. eigenvalues --    1.83934   1.84131   1.84318   1.84473   1.84712
 Alpha virt. eigenvalues --    1.84776   1.85025   1.85040   1.85159   1.85479
 Alpha virt. eigenvalues --    1.85622   1.85855   1.86048   1.86258   1.86435
 Alpha virt. eigenvalues --    1.86549   1.86794   1.87127   1.87277   1.87439
 Alpha virt. eigenvalues --    1.87615   1.87958   1.88192   1.88564   1.88754
 Alpha virt. eigenvalues --    1.88917   1.89064   1.89137   1.89249   1.89464
 Alpha virt. eigenvalues --    1.89637   1.90024   1.90112   1.90331   1.90501
 Alpha virt. eigenvalues --    1.90573   1.90607   1.90927   1.91070   1.91375
 Alpha virt. eigenvalues --    1.91655   1.91722   1.91821   1.91873   1.91954
 Alpha virt. eigenvalues --    1.92227   1.92635   1.92799   1.93178   1.93387
 Alpha virt. eigenvalues --    1.93733   1.93927   1.94282   1.94390   1.94710
 Alpha virt. eigenvalues --    1.94815   1.95101   1.95253   1.95649   1.95832
 Alpha virt. eigenvalues --    1.95888   1.96203   1.96570   1.96774   1.96939
 Alpha virt. eigenvalues --    1.97100   1.97309   1.97510   1.97978   1.98231
 Alpha virt. eigenvalues --    1.98440   1.98572   1.98696   1.98755   1.99056
 Alpha virt. eigenvalues --    1.99091   1.99237   1.99564   1.99729   1.99839
 Alpha virt. eigenvalues --    2.00294   2.00499   2.00659   2.00900   2.01031
 Alpha virt. eigenvalues --    2.01170   2.01503   2.01604   2.01713   2.02116
 Alpha virt. eigenvalues --    2.02128   2.02358   2.03105   2.03193   2.03616
 Alpha virt. eigenvalues --    2.03679   2.03817   2.04145   2.04675   2.04772
 Alpha virt. eigenvalues --    2.04925   2.05047   2.05082   2.05255   2.05861
 Alpha virt. eigenvalues --    2.06101   2.06238   2.06550   2.07234   2.07360
 Alpha virt. eigenvalues --    2.07781   2.07958   2.08013   2.08516   2.08623
 Alpha virt. eigenvalues --    2.08842   2.08917   2.09013   2.09168   2.09309
 Alpha virt. eigenvalues --    2.09523   2.09597   2.10260   2.10508   2.11036
 Alpha virt. eigenvalues --    2.11340   2.11397   2.11629   2.11835   2.12069
 Alpha virt. eigenvalues --    2.12204   2.12309   2.12534   2.12879   2.13029
 Alpha virt. eigenvalues --    2.13115   2.13373   2.13758   2.14046   2.14363
 Alpha virt. eigenvalues --    2.14719   2.15067   2.15541   2.15675   2.15952
 Alpha virt. eigenvalues --    2.16168   2.16822   2.17414   2.17500   2.17529
 Alpha virt. eigenvalues --    2.18094   2.18261   2.18449   2.18842   2.19335
 Alpha virt. eigenvalues --    2.19520   2.19964   2.20092   2.20173   2.20830
 Alpha virt. eigenvalues --    2.20987   2.21147   2.21629   2.22349   2.22590
 Alpha virt. eigenvalues --    2.23356   2.23649   2.23826   2.24134   2.24605
 Alpha virt. eigenvalues --    2.24827   2.25060   2.25246   2.25728   2.25922
 Alpha virt. eigenvalues --    2.26766   2.27075   2.27346   2.27712   2.27964
 Alpha virt. eigenvalues --    2.28173   2.28187   2.28834   2.29297   2.29397
 Alpha virt. eigenvalues --    2.29936   2.30046   2.30569   2.31081   2.31383
 Alpha virt. eigenvalues --    2.31554   2.31824   2.32242   2.32531   2.33093
 Alpha virt. eigenvalues --    2.33147   2.33719   2.33804   2.33929   2.34276
 Alpha virt. eigenvalues --    2.34678   2.34998   2.35328   2.35388   2.35607
 Alpha virt. eigenvalues --    2.35662   2.35870   2.35923   2.36611   2.36897
 Alpha virt. eigenvalues --    2.37310   2.37472   2.38063   2.38108   2.38502
 Alpha virt. eigenvalues --    2.38634   2.39427   2.39555   2.39719   2.40116
 Alpha virt. eigenvalues --    2.40545   2.40684   2.40756   2.41381   2.41811
 Alpha virt. eigenvalues --    2.41844   2.41973   2.42243   2.42329   2.42996
 Alpha virt. eigenvalues --    2.43245   2.43809   2.44084   2.44482   2.44682
 Alpha virt. eigenvalues --    2.44765   2.45393   2.45865   2.46389   2.47053
 Alpha virt. eigenvalues --    2.47193   2.47858   2.48102   2.48329   2.48606
 Alpha virt. eigenvalues --    2.49152   2.49344   2.50044   2.50315   2.50739
 Alpha virt. eigenvalues --    2.50915   2.51116   2.51732   2.52076   2.52144
 Alpha virt. eigenvalues --    2.52764   2.53026   2.53391   2.53668   2.53903
 Alpha virt. eigenvalues --    2.54111   2.54731   2.55001   2.55426   2.55731
 Alpha virt. eigenvalues --    2.55830   2.56595   2.57106   2.57288   2.57920
 Alpha virt. eigenvalues --    2.58068   2.58725   2.58810   2.59546   2.59598
 Alpha virt. eigenvalues --    2.59937   2.60444   2.60569   2.60789   2.60858
 Alpha virt. eigenvalues --    2.61346   2.61711   2.61793   2.62118   2.62392
 Alpha virt. eigenvalues --    2.62588   2.62978   2.63204   2.63581   2.63888
 Alpha virt. eigenvalues --    2.63936   2.64333   2.64486   2.64564   2.65203
 Alpha virt. eigenvalues --    2.65959   2.66079   2.66255   2.67015   2.67287
 Alpha virt. eigenvalues --    2.67558   2.68350   2.68457   2.68754   2.68868
 Alpha virt. eigenvalues --    2.69084   2.69432   2.69804   2.69902   2.70115
 Alpha virt. eigenvalues --    2.70419   2.70994   2.71050   2.71193   2.71672
 Alpha virt. eigenvalues --    2.71799   2.71939   2.72240   2.72410   2.73312
 Alpha virt. eigenvalues --    2.73371   2.73382   2.74003   2.74425   2.74605
 Alpha virt. eigenvalues --    2.75101   2.75235   2.75360   2.75399   2.75869
 Alpha virt. eigenvalues --    2.76128   2.76323   2.76530   2.77199   2.77245
 Alpha virt. eigenvalues --    2.77543   2.77788   2.77840   2.78626   2.78918
 Alpha virt. eigenvalues --    2.79059   2.79518   2.79711   2.80001   2.80076
 Alpha virt. eigenvalues --    2.80281   2.80816   2.81093   2.81212   2.81516
 Alpha virt. eigenvalues --    2.81556   2.81919   2.82082   2.82139   2.82281
 Alpha virt. eigenvalues --    2.82585   2.82731   2.82957   2.83108   2.83186
 Alpha virt. eigenvalues --    2.83465   2.83807   2.83897   2.84038   2.84161
 Alpha virt. eigenvalues --    2.84724   2.85589   2.85683   2.86069   2.86331
 Alpha virt. eigenvalues --    2.86679   2.87332   2.87577   2.87967   2.88078
 Alpha virt. eigenvalues --    2.88306   2.89028   2.89290   2.89541   2.89726
 Alpha virt. eigenvalues --    2.90380   2.90453   2.90812   2.91000   2.91410
 Alpha virt. eigenvalues --    2.91616   2.91911   2.91982   2.92053   2.92336
 Alpha virt. eigenvalues --    2.92551   2.92838   2.93505   2.93664   2.93680
 Alpha virt. eigenvalues --    2.94045   2.94994   2.95131   2.95592   2.95796
 Alpha virt. eigenvalues --    2.95940   2.96067   2.96226   2.96677   2.97076
 Alpha virt. eigenvalues --    2.97244   2.97688   2.98008   2.98201   2.98406
 Alpha virt. eigenvalues --    2.98694   2.98814   2.99320   2.99751   2.99833
 Alpha virt. eigenvalues --    3.00039   3.00385   3.00683   3.00871   3.01255
 Alpha virt. eigenvalues --    3.01546   3.01637   3.01935   3.02467   3.02939
 Alpha virt. eigenvalues --    3.03333   3.03457   3.03923   3.04586   3.05128
 Alpha virt. eigenvalues --    3.05774   3.05887   3.06052   3.06106   3.06743
 Alpha virt. eigenvalues --    3.06866   3.07255   3.08016   3.08383   3.09775
 Alpha virt. eigenvalues --    3.10572   3.10860   3.10965   3.11506   3.12364
 Alpha virt. eigenvalues --    3.13210   3.13527   3.14172   3.14684   3.15861
 Alpha virt. eigenvalues --    3.15941   3.16222   3.16558   3.17116   3.17340
 Alpha virt. eigenvalues --    3.17549   3.17692   3.17902   3.18094   3.19041
 Alpha virt. eigenvalues --    3.19227   3.19415   3.19543   3.19768   3.20057
 Alpha virt. eigenvalues --    3.20157   3.20445   3.20690   3.20844   3.21226
 Alpha virt. eigenvalues --    3.21552   3.22181   3.22451   3.22580   3.22664
 Alpha virt. eigenvalues --    3.23701   3.23891   3.24027   3.24674   3.24972
 Alpha virt. eigenvalues --    3.25422   3.25770   3.25798   3.26002   3.26448
 Alpha virt. eigenvalues --    3.27819   3.29393   3.29431   3.30142   3.30548
 Alpha virt. eigenvalues --    3.31257   3.31700   3.33520   3.34798   3.35093
 Alpha virt. eigenvalues --    3.36145   3.37088   3.37954   3.38923   3.39103
 Alpha virt. eigenvalues --    3.40327   3.40636   3.45214   3.48050   3.49823
 Alpha virt. eigenvalues --    3.52827   3.53609   3.55198   3.56184   3.56348
 Alpha virt. eigenvalues --    3.56859   3.56916   3.57855   3.58982   3.59362
 Alpha virt. eigenvalues --    3.60150   3.61434   3.62640   3.63583   3.64759
 Alpha virt. eigenvalues --    3.64946   3.65812   3.66232   3.66654   3.67717
 Alpha virt. eigenvalues --    3.68902   3.69114   3.69275   3.69379   3.71370
 Alpha virt. eigenvalues --    3.71495   3.71894   3.72435   3.73061   3.73231
 Alpha virt. eigenvalues --    3.73411   3.73584   3.75224   3.75521   3.76147
 Alpha virt. eigenvalues --    3.76547   3.77969   3.80400   3.81776
          Condensed to atoms (all electrons):
 Mulliken charges:
               1
     1  C    0.073492
     2  C   -0.010036
     3  O   -0.298530
     4  H   -0.004898
     5  H   -0.001533
     6  H    0.039978
     7  N   -0.132371
     8  C    0.106831
     9  C    0.107770
    10  O   -0.309645
    11  C    0.112460
    12  C    0.000777
    13  O   -0.317927
    14  O   -0.388222
    15  H    0.099038
    16  H    0.013618
    17  H    0.005421
    18  H   -0.005636
    19  N   -0.088366
    20  C    0.177938
    21  C    0.035639
    22  O   -0.247872
    23  C   -0.034568
    24  C    0.007491
    25  C   -0.012160
    26  C    0.043422
    27  N    0.119055
    28  H    0.129683
    29  H   -0.012591
    30  H    0.023915
    31  H   -0.001564
    32  H    0.030472
    33  H    0.016896
    34  H    0.045893
    35  H    0.006345
    36  H    0.059979
    37  H    0.085690
    38  H    0.150969
    39  H    0.147130
    40  H    0.135308
    41  N   -0.166203
    42  C    0.121969
    43  C    0.074449
    44  O   -0.289049
    45  C    0.118902
    46  C    0.090367
    47  O   -0.432460
    48  O   -0.412853
    49  H    0.128665
    50  H    0.036893
    51  H   -0.019635
    52  H    0.000539
    53  N   -0.111054
    54  C    0.191387
    55  C    0.002276
    56  O   -0.253650
    57  H    0.122658
    58  H    0.037049
    59  H    0.012815
    60  N   -0.078882
    61  C    0.008586
    62  C    0.070010
    63  O   -0.275904
    64  C    0.163799
    65  C    0.003937
    66  N   -0.026666
    67  O   -0.303532
    68  H    0.130635
    69  H    0.033388
    70  H   -0.005013
    71  H    0.026550
    72  H    0.118791
    73  H    0.111833
    74  N   -0.137801
    75  C    0.176542
    76  C    0.022831
    77  O   -0.279641
    78  H    0.130149
    79  H    0.039811
    80  H    0.061379
    81  N   -0.147787
    82  C    0.120206
    83  C    0.088489
    84  O   -0.293899
    85  C    0.180792
    86  C   -0.084550
    87  C   -0.013134
    88  C    0.019064
    89  C   -0.003961
    90  C   -0.009119
    91  C    0.132751
    92  O   -0.212388
    93  H    0.149023
    94  H    0.007750
    95  H   -0.019751
    96  H    0.015566
    97  H   -0.030293
    98  H   -0.032487
    99  H   -0.026167
   100  H   -0.037365
   101  H    0.169229
   102  N   -0.108294
   103  C    0.125204
   104  C    0.118727
   105  O   -0.305086
   106  C   -0.097586
   107  C   -0.006233
   108  C    0.096259
   109  C    0.029044
   110  H    0.128515
   111  H    0.003074
   112  H   -0.018130
   113  H   -0.010181
   114  H    0.020724
   115  H    0.022594
   116  H    0.006177
   117  H   -0.035169
   118  H   -0.011632
   119  H    0.007041
   120  H    0.029586
   121  N   -0.103678
   122  C    0.085470
   123  C    0.077117
   124  O   -0.264090
   125  C    0.254074
   126  O   -0.312544
   127  H    0.139561
   128  H    0.012520
   129  H    0.032977
   130  H   -0.042848
   131  H    0.168616
   132  N   -0.112135
   133  C    0.075903
   134  C    0.072528
   135  O   -0.301565
   136  C    0.068152
   137  H    0.122183
   138  H   -0.016561
   139  H    0.023853
   140  H    0.009001
   141  H    0.035340
   142  N   -0.130825
   143  C    0.048425
   144  C    0.054306
   145  O   -0.270062
   146  C    0.095151
   147  H    0.118569
   148  H    0.001133
   149  H   -0.004696
   150  H    0.023435
   151  H    0.030543
   152  N   -0.107937
   153  C    0.102159
   154  C    0.035933
   155  O   -0.246240
   156  C    0.025786
   157  C    0.109001
   158  C    0.078158
   159  O   -0.482368
   160  O   -0.347856
   161  H    0.072299
   162  H    0.039082
   163  H    0.001189
   164  H   -0.000583
   165  H    0.012644
   166  H   -0.010630
   167  N   -0.157515
   168  C    0.134311
   169  H    0.023408
   170  H    0.043304
   171  H    0.011737
   172  H    0.106834
   173  Ca   1.360858
   174  O   -0.335199
   175  H    0.214461
   176  H    0.207552
 Sum of Mulliken charges =  -0.00000
 Mulliken charges with hydrogens summed into heavy atoms:
               1
     1  C    0.107039
     2  C   -0.010036
     3  O   -0.298530
     7  N   -0.033333
     8  C    0.120449
     9  C    0.107770
    10  O   -0.309645
    11  C    0.112246
    12  C    0.000777
    13  O   -0.317927
    14  O   -0.388222
    19  N    0.041317
    20  C    0.165347
    21  C    0.035639
    22  O   -0.247872
    23  C   -0.012218
    24  C    0.054859
    25  C    0.040077
    26  C    0.189091
    27  N    0.552461
    41  N   -0.037538
    42  C    0.158862
    43  C    0.074449
    44  O   -0.289049
    45  C    0.099806
    46  C    0.090367
    47  O   -0.432460
    48  O   -0.412853
    53  N    0.011604
    54  C    0.241250
    55  C    0.002276
    56  O   -0.253650
    60  N    0.051753
    61  C    0.041974
    62  C    0.070010
    63  O   -0.275904
    64  C    0.185337
    65  C    0.003937
    66  N    0.203958
    67  O   -0.303532
    74  N   -0.007652
    75  C    0.277731
    76  C    0.022831
    77  O   -0.279641
    81  N    0.001236
    82  C    0.127956
    83  C    0.088489
    84  O   -0.293899
    85  C    0.176607
    86  C   -0.084550
    87  C   -0.043426
    88  C   -0.013423
    89  C   -0.030128
    90  C   -0.046483
    91  C    0.132751
    92  O   -0.043159
   102  N    0.020221
   103  C    0.128278
   104  C    0.118727
   105  O   -0.305086
   106  C   -0.115717
   107  C    0.004310
   108  C    0.089861
   109  C    0.054039
   121  N    0.035883
   122  C    0.097990
   123  C    0.077117
   124  O   -0.264090
   125  C    0.244202
   126  O   -0.143928
[...]
 **** Fit       0.016020
 **** Fit       0.019108
 **** Fit       0.021943
 **** Fit       0.024432
 **** Fit       0.026488
 **** Fit       0.028034
 **** Fit       0.029003
 **** Fit       0.029337
 **** Fit       0.016393
 **** Fit       0.020075
 **** Fit       0.023545
 **** Fit       0.026696
 **** Fit       0.029415
 **** Fit       0.031588
 **** Fit       0.033110
 **** Fit       0.033878
 **** Fit       0.017361
 **** Fit       0.022236
 **** Fit       0.026711
 **** Fit       0.008102
 **** Fit       0.013584
 **** Fit       0.018968
 **** Fit       0.024141
 **** Fit       0.028937
 **** Fit       0.033177
 **** Fit       0.036694
 **** Fit       0.039334
 **** Fit       0.040953
 **** Fit       0.007282
 **** Fit       0.013235
 **** Fit       0.019258
 **** Fit       0.025171
 **** Fit       0.030761
 **** Fit       0.035823
 **** Fit       0.040171
 **** Fit       0.043638
 **** Fit       0.046066
 **** Fit       0.008188
 **** Fit       0.015320
 **** Fit       0.022640
 **** Fit       0.029820
 **** Fit       0.036569
 **** Fit       0.042643
 **** Fit       0.006843
 **** Fit       0.015861
 **** Fit       0.025203
 **** Fit       0.034378
 **** Fit       0.043012
 **** Fit       0.028943
 **** Fit       0.007884
 **** Fit       0.011385
 **** Fit       0.012391
 **** Fit       0.011221
 **** Fit       0.022059
 **** Fit       0.025432
 **** Fit       0.026936
 **** Fit       0.026781
 **** Fit       0.025164
 **** Fit       0.022240
 **** Fit       0.018115
 **** Fit       0.012851
 **** Fit       0.006464
 **** Fit      -0.001088
 **** Fit       0.034845
 **** Fit       0.037517
 **** Fit       0.038897
 **** Fit       0.039079
 **** Fit       0.038157
 **** Fit       0.036199
 **** Fit       0.033243
 **** Fit       0.029290
 **** Fit       0.024298
 **** Fit       0.018169
 **** Fit       0.010736
 **** Fit       0.001754
 **** Fit      -0.009099
 **** Fit       0.030844
 **** Fit       0.046022
 **** Fit       0.047882
 **** Fit       0.048856
 **** Fit       0.048951
 **** Fit       0.048179
 **** Fit       0.046545
 **** Fit       0.044035
 **** Fit       0.040606
 **** Fit       0.036180
 **** Fit       0.030621
 **** Fit       0.023724
 **** Fit       0.015184
 **** Fit       0.004572
 **** Fit       0.039796
 **** Fit       0.043299
 **** Fit       0.055451
 **** Fit       0.056480
 **** Fit       0.056981
 **** Fit       0.056886
 **** Fit       0.056140
 **** Fit       0.054690
 **** Fit       0.052483
 **** Fit       0.049450
 **** Fit       0.045490
 **** Fit       0.040461
 **** Fit       0.034153
 **** Fit       0.026263
 **** Fit       0.016351
 **** Fit       0.004526
 **** Fit       0.042774
 **** Fit       0.046977
 **** Fit       0.049859
 **** Fit       0.052112
 **** Fit       0.053972
 **** Fit       0.063085
 **** Fit       0.063360
 **** Fit       0.063411
 **** Fit       0.063089
 **** Fit       0.062275
 **** Fit       0.060868
 **** Fit       0.058779
 **** Fit       0.055914
 **** Fit       0.052158
 **** Fit       0.047358
 **** Fit       0.041301
 **** Fit       0.033682
 **** Fit       0.024062
 **** Fit      -0.012071
 **** Fit      -0.000598
 **** Fit       0.008046
 **** Fit       0.013159
 **** Fit       0.062153
 **** Fit       0.062451
 **** Fit       0.062743
 **** Fit       0.068902
 **** Fit       0.068525
 **** Fit       0.068214
 **** Fit       0.067727
 **** Fit       0.066879
 **** Fit       0.065530
 **** Fit       0.063562
 **** Fit       0.060868
 **** Fit       0.057328
 **** Fit       0.052794
 **** Fit       0.047067
 **** Fit       0.039871
 **** Fit       0.030816
 **** Fit       0.019333
 **** Fit      -0.005910
 **** Fit       0.005877
 **** Fit       0.014455
 **** Fit       0.019466
 **** Fit       0.071010
 **** Fit       0.069638
 **** Fit       0.072834
 **** Fit       0.071943
 **** Fit       0.071403
 **** Fit       0.070821
 **** Fit       0.069928
 **** Fit       0.068538
 **** Fit       0.066507
 **** Fit       0.063711
 **** Fit       0.060017
 **** Fit       0.055264
 **** Fit       0.049243
 **** Fit       0.041665
 **** Fit       0.032128
 **** Fit       0.020056
 **** Fit       0.002014
 **** Fit       0.013419
 **** Fit       0.021276
 **** Fit       0.025719
 **** Fit       0.073583
 **** Fit       0.073049
 **** Fit       0.072543
 **** Fit       0.071721
 **** Fit       0.070365
 **** Fit       0.068324
 **** Fit       0.065468
 **** Fit       0.061667
 **** Fit       0.056762
 **** Fit       0.050553
 **** Fit       0.042771
 **** Fit       0.033057
 **** Fit       0.009389
 **** Fit       0.020034
 **** Fit       0.027348
 **** Fit       0.031966
 **** Fit       0.073242
 **** Fit       0.073002
 **** Fit       0.072324
 **** Fit       0.070990
 **** Fit       0.068857
 **** Fit       0.065803
 **** Fit       0.061704
 **** Fit       0.056409
 **** Fit       0.049727
 **** Fit       0.041420
 **** Fit       0.031197
 **** Fit       0.012707
 **** Fit       0.023737
 **** Fit       0.072461
 **** Fit       0.072018
 **** Fit       0.070744
 **** Fit       0.068533
 **** Fit       0.065296
 **** Fit       0.060931
 **** Fit       0.055311
 **** Fit       0.048290
 **** Fit       0.039704
 **** Fit       0.029420
 **** Fit       0.016901
 **** Fit       0.071276
 **** Fit       0.070888
 **** Fit       0.069362
 **** Fit       0.066655
 **** Fit       0.062706
 **** Fit       0.057436
 **** Fit       0.050749
 **** Fit       0.042562
 **** Fit       0.032867
 **** Fit       0.021860
 **** Fit       0.069274
 **** Fit       0.067255
 **** Fit       0.063830
 **** Fit       0.058979
 **** Fit       0.052664
 **** Fit       0.044871
 **** Fit       0.035677
 **** Fit       0.025363
 **** Fit       0.067256
 **** Fit       0.064414
 **** Fit       0.060020
 **** Fit       0.054086
 **** Fit       0.046648
 **** Fit       0.037820
 **** Fit       0.027856
 **** Fit       0.064285
 **** Fit       0.059889
 **** Fit       0.053800
 **** Fit       0.046077
 **** Fit       0.036860
 **** Fit       0.026337
 **** Fit       0.059876
 **** Fit       0.053430
 **** Fit       0.045252
 **** Fit       0.035462
 **** Fit       0.051498
 **** Fit       0.041835
 **** Fit       0.030663
 **** Fit       0.049440
 **** Fit       0.038448
 **** Fit       0.068721
 **** Fit       0.073567
 **** Fit       0.064910
 **** Fit       0.067268
 **** Fit       0.071820
 **** Fit       0.031982
 **** Fit       0.062163
 **** Fit       0.063066
 **** Fit       0.065746
 **** Fit       0.070499
 **** Fit       0.033012
 **** Fit       0.033876
 **** Fit       0.034209
 **** Fit       0.060032
 **** Fit       0.059900
 **** Fit       0.061188
 **** Fit       0.064067
 **** Fit       0.068702
 **** Fit       0.026448
 **** Fit       0.031071
 **** Fit       0.034502
 **** Fit       0.037128
 **** Fit       0.039387
 **** Fit       0.041857
 **** Fit       0.058428
 **** Fit       0.057664
 **** Fit       0.058077
 **** Fit       0.059767
 **** Fit       0.062804
 **** Fit       0.067200
 **** Fit       0.018639
 **** Fit       0.025866
 **** Fit       0.031499
 **** Fit       0.036025
 **** Fit       0.039805
 **** Fit       0.043190
 **** Fit       0.046570
 **** Fit       0.059340
 **** Fit       0.057330
 **** Fit       0.056203
 **** Fit       0.056076
 **** Fit       0.057010
 **** Fit       0.059010
 **** Fit       0.062002
 **** Fit       0.065800
 **** Fit       0.017219
 **** Fit       0.024963
 **** Fit       0.031311
 **** Fit       0.036612
 **** Fit       0.041157
 **** Fit       0.045211
 **** Fit       0.049040
 **** Fit       0.052900
 **** Fit       0.061532
 **** Fit       0.058918
 **** Fit       0.056861
 **** Fit       0.055530
 **** Fit       0.055023
 **** Fit       0.055374
 **** Fit       0.056544
 **** Fit       0.058412
 **** Fit       0.060739
 **** Fit       0.063146
 **** Fit       0.019480
 **** Fit       0.026505
 **** Fit       0.032704
 **** Fit       0.038120
 **** Fit       0.042887
 **** Fit       0.047163
 **** Fit       0.051112
 **** Fit       0.054894
 **** Fit       0.058617
 **** Fit       0.061486
 **** Fit       0.058957
 **** Fit       0.056909
 **** Fit       0.055512
 **** Fit       0.054851
 **** Fit       0.054927
 **** Fit       0.055650
 **** Fit       0.056819
 **** Fit       0.058108
 **** Fit       0.059053
 **** Fit       0.059065
 **** Fit       0.057482
 **** Fit       0.062038
 **** Fit       0.059592
 **** Fit       0.057585
 **** Fit       0.056190
 **** Fit       0.055471
 **** Fit       0.055381
 **** Fit       0.055746
 **** Fit       0.056259
 **** Fit       0.056489
 **** Fit       0.055914
 **** Fit       0.054012
 **** Fit       0.067079
 **** Fit       0.064650
 **** Fit       0.016712
 **** Fit       0.022362
 **** Fit       0.028350
 **** Fit       0.034077
 **** Fit       0.039352
 **** Fit       0.044178
 **** Fit       0.048647
 **** Fit       0.052893
 **** Fit       0.057051
 **** Fit       0.061195
 **** Fit       0.052435
 **** Fit       0.046935
 **** Fit       0.039601
 **** Fit       0.031541
 **** Fit       0.024614
 **** Fit       0.020637
 **** Fit       0.020276
 **** Fit       0.022848
 **** Fit       0.027116
 **** Fit       0.032048
 **** Fit       0.037034
 **** Fit       0.041788
 **** Fit       0.046218
 **** Fit       0.050332
 **** Fit       0.054187
 **** Fit       0.057830
 **** Fit       0.061243
 **** Fit       0.064302
 **** Fit       0.066776
 **** Fit       0.062143
 **** Fit       0.060424
 **** Fit       0.058797
 **** Fit       0.057476
 **** Fit       0.056550
 **** Fit       0.055952
 **** Fit       0.055450
 **** Fit       0.054673
 **** Fit       0.053175
 **** Fit       0.050548
 **** Fit       0.046581
 **** Fit       0.041448
 **** Fit       0.035839
 **** Fit       0.030905
 **** Fit       0.027822
 **** Fit       0.027195
 **** Fit       0.028810
 **** Fit       0.031958
 **** Fit       0.035895
 **** Fit       0.040081
 **** Fit       0.044203
 **** Fit       0.048107
 **** Fit       0.051737
 **** Fit       0.055081
 **** Fit       0.058113
 **** Fit       0.060762
 **** Fit       0.062890
 **** Fit       0.064326
 **** Fit       0.064931
 **** Fit       0.064672
 **** Fit       0.063661
 **** Fit       0.060201
 **** Fit       0.058830
 **** Fit       0.057460
 **** Fit       0.056256
 **** Fit       0.055235
 **** Fit       0.054250
 **** Fit       0.053009
 **** Fit       0.051157
 **** Fit       0.048417
 **** Fit       0.044762
 **** Fit       0.040570
 **** Fit       0.036641
 **** Fit       0.033939
 **** Fit       0.033121
 **** Fit       0.034223
 **** Fit       0.036776
 **** Fit       0.040159
 **** Fit       0.043860
 **** Fit       0.047541
 **** Fit       0.051013
 **** Fit       0.054172
 **** Fit       0.056939
 **** Fit       0.059216
 **** Fit       0.060873
 **** Fit       0.061789
 **** Fit       0.061913
 **** Fit       0.061318
 **** Fit       0.058520
 **** Fit       0.057400
 **** Fit       0.056174
 **** Fit       0.054953
 **** Fit       0.053688
 **** Fit       0.052182
 **** Fit       0.050183
 **** Fit       0.047543
 **** Fit       0.044402
 **** Fit       0.041287
 **** Fit       0.038974
 **** Fit       0.038119
 **** Fit       0.038908
 **** Fit       0.041034
 **** Fit       0.043969
 **** Fit       0.047218
 **** Fit       0.050427
 **** Fit       0.053365
 **** Fit       0.055872
 **** Fit       0.057810
 **** Fit       0.059057
 **** Fit       0.059545
 **** Fit       0.059313
 **** Fit       0.056917
 **** Fit       0.055920
 **** Fit       0.054664
 **** Fit       0.053212
 **** Fit       0.051458
 **** Fit       0.049260
 **** Fit       0.046690
 **** Fit       0.044217
 **** Fit       0.042598
 **** Fit       0.042435
 **** Fit       0.043782
 **** Fit       0.046200
 **** Fit       0.049093
 **** Fit       0.051954
 **** Fit       0.054421
 **** Fit       0.056243
 **** Fit       0.057260
 **** Fit       0.057442
 **** Fit       0.055253
 **** Fit       0.054198
 **** Fit       0.052580
 **** Fit       0.050495
 **** Fit       0.048145
 **** Fit       0.046280
 **** Fit       0.045906
 **** Fit       0.047325
 **** Fit       0.049869
 **** Fit       0.052540
 **** Fit       0.054549
 **** Fit       0.055463
 **** Fit       0.053415
 **** Fit       0.051956
 **** Fit       0.049707
 **** Fit       0.048832
 **** Fit       0.050610
 **** Fit       0.052916
 **** Fit       0.051305
 **** Fit       0.049045
 **** Fit       0.048665
 **** Fit       0.058278
 **** Fit       0.041116
 **** Fit       0.050112
 **** Fit       0.056454
 **** Fit       0.065688
 **** Fit       0.045090
 **** Fit       0.052047
 **** Fit       0.056338
 **** Fit       0.062444
 **** Fit       0.045121
 **** Fit       0.048633
 **** Fit       0.053857
 **** Fit       0.056688
 **** Fit       0.060590
 **** Fit       0.066258
 **** Fit       0.042089
 **** Fit       0.046334
 **** Fit       0.049260
 **** Fit       0.051558
 **** Fit       0.055375
 **** Fit       0.057311
 **** Fit       0.059935
 **** Fit       0.063698
 **** Fit       0.043667
 **** Fit       0.047468
 **** Fit       0.050196
 **** Fit       0.052171
 **** Fit       0.053775
 **** Fit       0.056624
 **** Fit       0.057864
 **** Fit       0.059505
 **** Fit       0.061808
 **** Fit       0.042777
 **** Fit       0.046251
 **** Fit       0.049189
 **** Fit       0.051485
 **** Fit       0.053201
 **** Fit       0.054496
 **** Fit       0.055569
 **** Fit       0.057693
 **** Fit       0.058440
 **** Fit       0.059403
 **** Fit       0.060732
 **** Fit       0.042494
 **** Fit       0.043291
 **** Fit       0.044789
 **** Fit       0.046794
 **** Fit       0.048991
 **** Fit       0.051090
 **** Fit       0.052905
 **** Fit       0.054363
 **** Fit       0.055480
 **** Fit       0.056334
 **** Fit       0.057032
 **** Fit       0.058705
 **** Fit       0.059119
 **** Fit       0.059639
 **** Fit       0.048590
 **** Fit       0.049297
 **** Fit       0.050272
 **** Fit       0.051508
 **** Fit       0.052889
 **** Fit       0.054260
 **** Fit       0.055488
 **** Fit       0.056500
 **** Fit       0.057282
 **** Fit       0.057866
 **** Fit       0.058315
 **** Fit       0.059808
 **** Fit       0.059997
 **** Fit       0.060227
 **** Fit       0.053815
 **** Fit       0.054402
 **** Fit       0.055127
 **** Fit       0.055970
 **** Fit       0.056852
 **** Fit       0.057682
 **** Fit       0.058387
 **** Fit       0.058934
 **** Fit       0.059328
 **** Fit       0.059603
 **** Fit       0.061180
 **** Fit       0.061265
 **** Fit       0.058500
 **** Fit       0.058673
 **** Fit       0.059011
 **** Fit       0.059451
 **** Fit       0.059917
 **** Fit       0.060343
 **** Fit       0.060683
 **** Fit       0.060924
 **** Fit       0.061080
 **** Fit       0.063052
 **** Fit       0.062729
 **** Fit       0.062481
 **** Fit       0.062473
 **** Fit       0.062584
 **** Fit       0.062726
 **** Fit       0.062851
 **** Fit       0.062952
 **** Fit       0.065725
 **** Fit       0.066340
 **** Fit       0.065767
 **** Fit       0.065512
 **** Fit       0.065442
 **** Fit       0.065507
 -----------------------------------------------------------------
 Leave Link  602 at Thu Sep 19 18:16:34 2019, MaxMem=  1342177280 cpu:             119.8 elap:               2.5

 Test job not archived.
 1\1\GINC-C505-004\SP\RB3LYP\SVP\C54H83Ca1N15O23\PENGZHI\19-Sep-2019\0\
 \#b3lyp/svp scf=(tight,noincore,xqc) Test #IOP(5/87=12) Density=Curren
 t Pop=(MK,readradii) iop(6/33=2) iop(6/42=6)\\Ng-31_loop3_24.0\\0,1\C,
 0,62.44,58.07,33.93\C,0,62.74,56.85,34.79\O,0,61.9,55.96,34.89\H,0,61.
 583,58.603,34.343\H,0,63.307,58.73,33.92\H,0,62.213,57.751,32.913\N,0,
 63.94,56.68,35.35\C,0,64.25,55.63,36.3\C,0,63.54,55.9,37.62\O,0,63.13,
 54.91,38.23\C,0,65.75,55.39,36.45\C,0,66.58,56.65,36.67\O,0,67.21,56.8
 6,37.73\O,0,66.6,57.52,35.78\H,0,64.67,57.37,35.25\H,0,63.86,54.69,35.
 92\H,0,66.13,54.9,35.55\H,0,65.82,54.76,37.33\N,0,63.39,57.14,38.07\C,
 0,62.54,57.42,39.21\C,0,63.14,56.96,40.52\O,0,64.3,57.27,40.77\C,0,62.
 35,58.93,39.22\C,0,61.51,59.53,38.1\C,0,61.45,61.05,38.2\C,0,60.7,61.4
 9,36.95\N,0,60.2,62.86,37.13\H,0,63.72,57.95,37.55\H,0,61.55,56.96,39.
 16\H,0,63.31,59.44,39.27\H,0,61.87,59.2,40.17\H,0,60.5,59.13,38.25\H,0
 ,61.95,59.2,37.16\H,0,62.45,61.49,38.28\H,0,60.84,61.35,39.04\H,0,59.8
 ,60.9,36.8\H,0,61.31,61.35,36.05\H,0,59.4,62.91,37.74\H,0,60.94,63.48,
 37.43\H,0,59.92,63.36,36.29\N,0,62.37,56.3,41.39\C,0,62.97,55.54,42.48
 \C,0,63.46,54.17,42.03\O,0,63.77,53.32,42.86\C,0,61.98,55.48,43.64\C,0
 ,60.49,55.18,43.5\O,0,59.96,54.15,43.98\O,0,59.75,56.,42.93\H,0,61.38,
 56.19,41.23\H,0,63.79,56.14,42.88\H,0,62.1,56.4,44.2\H,0,62.42,54.81,4
 4.38\N,0,63.61,53.92,40.73\C,0,64.31,52.79,40.14\C,0,65.75,52.59,40.59
 \O,0,66.31,53.55,41.12\H,0,63.35,54.64,40.08\H,0,64.33,52.98,39.07\H,0
 ,63.74,51.9,40.38\N,0,66.38,51.42,40.47\C,0,66.02,50.23,39.73\C,0,67.2
 3,49.8,38.91\O,0,68.22,49.42,39.53\C,0,65.65,49.08,40.66\C,0,65.19,47.
 8,39.98\N,0,63.99,47.3,40.28\O,0,65.83,47.23,39.1\H,0,67.36,51.49,40.7
 1\H,0,65.1,50.26,39.14\H,0,64.88,49.39,41.37\H,0,66.54,48.85,41.25\H,0
 ,63.47,47.78,41.01\H,0,63.52,46.54,39.81\N,0,67.34,49.87,37.58\C,0,66.
 53,50.66,36.68\C,0,65.2,50.06,36.23\O,0,64.49,50.66,35.43\H,0,68.14,49
 .39,37.18\H,0,67.09,50.88,35.77\H,0,66.44,51.62,37.19\N,0,64.83,48.86,
 36.68\C,0,63.48,48.34,36.6\C,0,62.51,49.14,37.45\O,0,62.8,49.49,38.59\
 C,0,63.3,46.84,36.79\C,0,63.62,46.08,35.52\C,0,62.64,45.24,34.98\C,0,6
 4.83,46.29,34.84\C,0,62.82,44.59,33.76\C,0,65.06,45.63,33.63\C,0,64.08
 ,44.74,33.15\O,0,64.38,43.92,32.1\H,0,65.57,48.39,37.19\H,0,63.22,48.5
 ,35.55\H,0,62.32,46.46,37.07\H,0,63.9,46.43,37.61\H,0,61.7,45.12,35.5\
 H,0,65.6,46.83,35.38\H,0,62.15,43.87,33.31\H,0,66.05,45.56,33.2\H,0,65
 .19,44.09,31.63\N,0,61.3,49.37,36.93\C,0,60.3,50.08,37.7\C,0,59.46,49.
 14,38.56\O,0,59.09,48.06,38.11\C,0,59.31,50.91,36.89\C,0,60.15,51.88,3
 6.05\C,0,58.3,50.24,35.98\C,0,59.44,52.92,35.18\H,0,61.16,49.06,35.98\
 H,0,60.78,50.85,38.3\H,0,58.81,51.48,37.67\H,0,60.78,51.33,35.36\H,0,6
 0.73,52.55,36.68\H,0,57.71,49.44,36.44\H,0,57.77,50.99,35.39\H,0,58.85
 ,49.7,35.21\H,0,58.98,52.5,34.29\H,0,58.79,53.5,35.83\H,0,60.18,53.6,3
 4.77\N,0,59.36,49.53,39.83\C,0,58.6,48.8,40.83\C,0,57.11,48.98,40.57\O
 ,0,56.61,49.37,39.51\C,0,58.99,47.33,40.9\O,0,60.34,47.11,41.24\H,0,59
 .77,50.42,40.07\H,0,58.75,49.34,41.77\H,0,58.62,46.75,40.05\H,0,58.54,
 46.91,41.8\H,0,60.63,46.31,40.8\N,0,56.36,48.49,41.56\C,0,54.91,48.48,
 41.55\C,0,54.31,49.86,41.78\O,0,54.71,50.69,42.6\C,0,54.38,47.49,42.59
 \H,0,56.85,48.28,42.42\H,0,54.49,48.25,40.58\H,0,54.89,47.65,43.54\H,0
 ,53.3,47.61,42.7\H,0,54.47,46.46,42.25\N,0,53.2,50.01,41.06\C,0,52.28,
 51.13,41.02\C,0,52.92,52.4,40.47\O,0,52.93,53.49,41.05\C,0,51.41,51.25
 ,42.27\H,0,53.1,49.22,40.43\H,0,51.57,50.86,40.25\H,0,51.33,50.27,42.7
 4\H,0,52.01,51.81,42.99\H,0,50.43,51.66,42.04\N,0,53.61,52.28,39.34\C,
 0,54.57,53.16,38.72\C,0,54.42,53.37,37.22\O,0,54.57,54.49,36.76\C,0,56
 .01,52.77,39.06\C,0,57.,53.93,38.96\C,0,56.96,54.81,40.21\O,0,57.56,54
 .38,41.22\O,0,56.4,55.92,40.18\H,0,53.34,51.42,38.88\H,0,54.26,54.14,3
 9.1\H,0,56.33,51.98,38.39\H,0,56.05,52.4,40.09\H,0,56.86,54.54,38.07\H
 ,0,57.93,53.38,38.86\N,0,54.1,52.33,36.44\C,0,53.46,52.42,35.14\H,0,52
 .565,53.037,35.218\H,0,54.149,52.87,34.425\H,0,53.184,51.422,34.8\H,0,
 54.09,51.42,36.88\Ca,0,57.3,54.76,43.69\O,0,56.47,53.45,45.77\H,0,56.8
 9,53.16,46.58\H,0,55.64,52.97,45.74\\Version=ES64L-G16RevA.03\State=1-
 A\HF=-5333.317375\RMSD=5.222e-10\Dipole=-14.7496003,4.9354328,3.077367
 6\Quadrupole=-147.7178561,167.3431099,-19.6252538,-42.0499421,-68.5993
 194,-29.6878242\PG=C01 [X(C54H83Ca1N15O23)]\\@


 IT'S WHAT A FELLER THINKS HE KNOWS THAT HURTS HIM...
                    ------
           KIN HUBBARD
 Job cpu time:       1 days 18 hours 14 minutes 38.8 seconds.
 Elapsed time:       0 days  0 hours 53 minutes 48.8 seconds.
 File lengths (MBytes):  RWF=   1658 Int=      0 D2E=      0 Chk=    171 Scr=      1
 Normal termination of Gaussian 16 at Thu Sep 19 18:16:36 2019.
