 Entering Gaussian System, Link 0=g16
 Initial command:
 /home1/apps/gaussian/16rA.03/g16/l1.exe "/scratch/01990/pengzhi/4362002/Gau-448121.inp" -scrdir="/scratch/01990/pengzhi/4362002/"
 Entering Link 1 = /home1/apps/gaussian/16rA.03/g16/l1.exe PID=    448123.
  
 Copyright (c) 1988,1990,1992,1993,1995,1998,2003,2009,2016,
            Gaussian, Inc.  All Rights Reserved.
  
 This is part of the Gaussian(R) 16 program.  It is based on
 the Gaussian(R) 09 system (copyright 2009, Gaussian, Inc.),
 the Gaussian(R) 03 system (copyright 2003, Gaussian, Inc.),
 the Gaussian(R) 98 system (copyright 1998, Gaussian, Inc.),
 the Gaussian(R) 94 system (copyright 1995, Gaussian, Inc.),
 the Gaussian 92(TM) system (copyright 1992, Gaussian, Inc.),
 the Gaussian 90(TM) system (copyright 1990, Gaussian, Inc.),
 the Gaussian 88(TM) system (copyright 1988, Gaussian, Inc.),
 the Gaussian 86(TM) system (copyright 1986, Carnegie Mellon
 University), and the Gaussian 82(TM) system (copyright 1983,
 Carnegie Mellon University). Gaussian is a federally registered
 trademark of Gaussian, Inc.
  
 This software contains proprietary and confidential information,
 including trade secrets, belonging to Gaussian, Inc.
  
 This software is provided under written license and may be
 used, copied, transmitted, or stored only in accord with that
 written license.
  
 The following legend is applicable only to US Government
 contracts under FAR:
  
                    RESTRICTED RIGHTS LEGEND
  
 Use, reproduction and disclosure by the US Government is
 subject to restrictions as set forth in subparagraphs (a)
 and (c) of the Commercial Computer Software - Restricted
 Rights clause in FAR 52.227-19.
  
 Gaussian, Inc.
 340 Quinnipiac St., Bldg. 40, Wallingford CT 06492
  
  
 ---------------------------------------------------------------
 Warning -- This program may not be used in any manner that
 competes with the business of Gaussian, Inc. or will provide
 assistance to any competitor of Gaussian, Inc.  The licensee
 of this program is prohibited from giving any competitor of
 Gaussian, Inc. access to this program.  By using this program,
 the user acknowledges that Gaussian, Inc. is engaged in the
 business of creating and licensing software in the field of
 computational chemistry and represents and warrants to the
 licensee that it is not a competitor of Gaussian, Inc. and that
 it will not use this program in any manner prohibited above.
 ---------------------------------------------------------------
  

 Cite this work as:
 Gaussian 16, Revision A.03,
 M. J. Frisch, G. W. Trucks, H. B. Schlegel, G. E. Scuseria, 
 M. A. Robb, J. R. Cheeseman, G. Scalmani, V. Barone, 
 G. A. Petersson, H. Nakatsuji, X. Li, M. Caricato, A. V. Marenich, 
 J. Bloino, B. G. Janesko, R. Gomperts, B. Mennucci, H. P. Hratchian, 
 J. V. Ortiz, A. F. Izmaylov, J. L. Sonnenberg, D. Williams-Young, 
 F. Ding, F. Lipparini, F. Egidi, J. Goings, B. Peng, A. Petrone, 
 T. Henderson, D. Ranasinghe, V. G. Zakrzewski, J. Gao, N. Rega, 
 G. Zheng, W. Liang, M. Hada, M. Ehara, K. Toyota, R. Fukuda, 
 J. Hasegawa, M. Ishida, T. Nakajima, Y. Honda, O. Kitao, H. Nakai, 
 T. Vreven, K. Throssell, J. A. Montgomery, Jr., J. E. Peralta, 
 F. Ogliaro, M. J. Bearpark, J. J. Heyd, E. N. Brothers, K. N. Kudin, 
 V. N. Staroverov, T. A. Keith, R. Kobayashi, J. Normand, 
 K. Raghavachari, A. P. Rendell, J. C. Burant, S. S. Iyengar, 
 J. Tomasi, M. Cossi, J. M. Millam, M. Klene, C. Adamo, R. Cammi, 
 J. W. Ochterski, R. L. Martin, K. Morokuma, O. Farkas, 
 J. B. Foresman, and D. J. Fox, Gaussian, Inc., Wallingford CT, 2016.
 
 ******************************************
 Gaussian 16:  ES64L-G16RevA.03 25-Dec-2016
                19-Sep-2019 
 ******************************************
 %chk=Ng-31_loop3_13.0.chk
 %nprocshared=48
 Will use up to   48 processors via shared memory.
 %mem=10GB
 %nosave
 ----------------------------------------------------------------------
 #b3lyp/svp scf=(tight,noincore,xqc) Test #IOP(5/87=12) Density=Current
  Pop=(MK,readradii) iop(6/33=2) iop(6/42=6)
 ----------------------------------------------------------------------
 1/30=1,38=1,172=1/1;
 2/12=2,17=6,18=5,40=1/2;
 3/5=18,7=101,11=2,25=1,30=1,74=-5/1,2,3;
 4//1;
 5/5=4,8=3,13=1,32=2,38=5,87=12/2,8;
 6/7=2,8=2,9=2,10=2,15=8,20=101,22=-1,28=1,33=2,42=6/1,2;
 99/5=1,9=1/99;
 ----------------
 Ng-31_loop3_13.0
 ----------------
 Symbolic Z-matrix:
 Charge =  0 Multiplicity = 1
 C                     87.53     73.99     28.25 
 C                     87.45     73.14     29.52 
 O                     86.41     73.15     30.17 
 H                     88.562    74.301    28.086 
 H                     87.188    73.403    27.397 
 H                     86.899    74.872    28.362 
 N                     88.4      72.27     29.85 
 C                     88.3      71.39     31. 
 C                     88.42     72.1      32.34 
 O                     87.82     71.6      33.28 
 C                     89.2      70.16     30.88 
 C                     90.65     70.36     30.46 
 O                     91.11     71.52     30.41 
 O                     91.39     69.45     30.03 
 H                     89.23     72.27     29.27 
 H                     87.3      70.95     30.98 
 H                     88.72     69.42     30.24 
 H                     89.25     69.68     31.85 
 N                     89.08     73.25     32.48 
 C                     89.23     73.88     33.78 
 C                     90.1      73.14     34.78 
 O                     91.21     72.71     34.45 
 C                     89.69     75.33     33.59 
 C                     89.24     76.01     32.3 
 C                     89.62     77.49     32.32 
 C                     88.9      78.21     31.18 
 N                     89.55     79.49     30.87 
 H                     89.67     73.56     31.72 
 H                     88.24     73.92     34.24 
 H                     90.74     75.43     33.83 
 H                     89.27     75.86     34.44 
 H                     88.16     75.94     32.27 
 H                     89.65     75.58     31.38 
 H                     90.68     77.52     32.09 
 H                     89.53     77.94     33.31 
 H                     87.91     78.37     31.59 
 H                     88.82     77.64     30.25 
 H                     90.54     79.28     30.96 
 H                     89.37     79.92     29.98 
 H                     89.47     80.16     31.62 
 N                     89.63     72.95     36.01 
 C                     90.14     72.06     37.03 
 C                     89.66     70.62     36.95 
 O                     90.12     69.74     37.67 
 C                     90.11     72.65     38.44 
 C                     88.69     72.94     38.91 
 O                     88.16     74.01     38.53 
 O                     88.03     72.17     39.64 
 H                     88.74     73.41     36.18 
 H                     91.22     72.01     36.91 
 H                     90.67     73.58     38.56 
 H                     90.61     71.99     39.14 
 N                     88.83     70.4      35.93 
 C                     88.18     69.14     35.6 
 C                     88.83     68.46     34.4 
 O                     90.04     68.55     34.23 
 H                     88.49     71.16     35.36 
 H                     87.15     69.3      35.31 
 H                     88.11     68.5      36.47 
 N                     88.14     67.64     33.6 
 C                     86.84     67.       33.74 
 C                     86.07     66.92     32.43 
 O                     85.93     65.84     31.86 
 C                     87.16     65.61     34.27 
 C                     87.8      65.59     35.65 
 N                     89.08     65.2      35.69 
 O                     87.16     65.74     36.68 
 H                     88.63     67.3      32.79 
 H                     86.31     67.39     34.6 
 H                     87.78     65.04     33.56 
 H                     86.23     65.06     34.41 
 H                     89.6      65.05     34.83 
 H                     89.35     65.       36.64 
 N                     85.41     67.99     31.99 
 C                     85.44     69.35     32.48 
 C                     84.36     69.73     33.48 
 O                     84.47     70.86     33.95 
 H                     84.91     67.68     31.16 
 H                     85.4      70.08     31.66 
 H                     86.37     69.42     33.05 
 N                     83.49     68.82     33.94 
 C                     82.39     69.23     34.78 
 C                     82.81     69.19     36.24 
 O                     83.81     68.54     36.54 
 C                     81.2      68.3      34.55 
 C                     80.43     68.36     33.26 
 C                     79.84     69.52     32.74 
 C                     80.17     67.16     32.58 
 C                     79.07     69.57     31.57 
 C                     79.43     67.2      31.39 
 C                     78.86     68.37     30.85 
 O                     78.05     68.42     29.75 
 H                     83.61     67.88     33.59 
 H                     82.1      70.26     34.54 
 H                     80.47     68.58     35.32 
 H                     81.41     67.27     34.81 
 H                     79.93     70.45     33.28 
 H                     80.45     66.18     32.94 
 H                     78.58     70.49     31.31 
 H                     79.23     66.28     30.87 
 H                     77.62     67.57     29.65 
 N                     82.08     69.91     37.1 
 C                     82.51     70.1      38.47 
 C                     81.77     69.23     39.48 
 O                     82.16     69.35     40.64 
 C                     82.51     71.56     38.92 
 C                     83.49     72.37     38.08 
 C                     81.11     72.17     38.87 
 C                     84.93     71.85     38.01 
 H                     81.15     70.23     36.88 
 H                     83.51     69.67     38.5 
 H                     82.95     71.59     39.92 
 H                     83.57     73.34     38.57 
 H                     83.11     72.49     37.07 
 H                     80.56     71.86     37.98 
 H                     80.54     71.8      39.73 
 H                     81.19     73.26     38.91 
 H                     85.19     71.45     38.98 
 H                     84.98     71.11     37.2 
 H                     85.68     72.6      37.74 
 N                     80.66     68.58     39.14 
 C                     79.78     67.86     40.04 
 C                     79.04     68.88     40.91 
 O                     78.45     69.86     40.46 
 C                     78.75     66.99     39.33 
 O                     79.61     66.06     38.71 
 H                     80.35     68.58     38.18 
 H                     80.34     67.13     40.61 
 H                     78.11     67.53     38.62 
 H                     78.07     66.56     40.06 
 H                     79.1      65.24     38.69 
 N                     78.97     68.58     42.2 
 C                     78.33     69.35     43.25 
 C                     79.23     70.32     43.99 
 O                     80.44     70.27     43.82 
 C                     77.71     68.41     44.29 
 H                     79.57     67.84     42.54 
 H                     77.49     69.89     42.82 
 H                     77.17     67.67     43.69 
 H                     78.46     67.9      44.89 
 H                     77.04     69.01     44.91 
 N                     78.66     71.13     44.89 
 C                     79.32     72.15     45.67 
 C                     80.29     73.17     45.09 
 O                     81.04     73.79     45.84 
 C                     79.67     71.55     47.03 
 H                     77.66     71.08     45. 
 H                     78.49     72.83     45.89 
 H                     80.74     71.36     46.96 
 H                     79.59     72.26     47.86 
 H                     79.09     70.65     47.26 
 N                     80.37     73.29     43.76 
 C                     81.16     74.31     43.09 
 C                     80.43     75.15     42.05 
 O                     81.04     75.75     41.17 
 C                     82.4      73.68     42.49 
 C                     83.53     73.26     43.43 
 C                     84.57     72.43     42.71 
 O                     85.1      72.79     41.64 
 O                     84.95     71.33     43.16 
 H                     79.89     72.63     43.16 
 H                     81.61     74.98     43.82 
 H                     82.84     74.36     41.76 
 H                     82.2      72.88     41.78 
 H                     83.13     72.67     44.26 
 H                     83.95     74.15     43.9 
 N                     79.1      75.3      42.13 
 C                     78.15     75.88     41.21 
 H                     77.277    76.229    41.762 
 H                     78.612    76.72     40.692 
 H                     77.842    75.129    40.483 
 H                     78.79     74.89     43. 
 Ca                    87.29     71.26     41.84 
 O                     87.66     69.33     43.61 
 H                     87.06     69.45     44.34 
 H                     87.6      68.39     43.41 
 
 Stoichiometry    C54H83CaN15O23
 Framework group  C1[X(C54H83CaN15O23)]
 Deg. of freedom   522
 Full point group                 C1      NOp   1
 Largest Abelian subgroup         C1      NOp   1
 Largest concise Abelian subgroup C1      NOp   1
                         Standard orientation:                         
 ---------------------------------------------------------------------
 Center     Atomic      Atomic             Coordinates (Angstroms)
 Number     Number       Type             X           Y           Z
 ---------------------------------------------------------------------
      1          6           0        8.754566    0.527647    4.090593
      2          6           0        7.672296    0.504327    3.008952
      3          8           0        6.524474    0.805601    3.318693
      4          1           0        9.522010   -0.209023    3.851870
      5          1           0        9.204884    1.519871    4.133579
      6          1           0        8.309249    0.287333    5.056290
      7          7           0        7.961461    0.332375    1.722439
      8          6           0        6.961270    0.398230    0.672590
      9          6           0        5.993475   -0.775357    0.659725
     10          8           0        4.867482   -0.551664    0.240559
     11          6           0        7.565773    0.703873   -0.697978
     12          6           0        8.787074   -0.088068   -1.145363
     13          8           0        9.142480   -1.080223   -0.475278
     14          8           0        9.550038    0.258754   -2.071754
     15          1           0        8.926337    0.116463    1.504047
     16          1           0        6.355229    1.287185    0.863569
     17          1           0        7.758473    1.773375   -0.779424
     18          1           0        6.811981    0.511487   -1.452024
     19          7           0        6.319531   -1.972652    1.147447
     20          6           0        5.399231   -3.093719    1.072244
     21          6           0        5.112368   -3.624959   -0.320593
     22          8           0        6.035954   -3.854519   -1.108115
     23          6           0        5.874660   -4.203457    2.017045
     24          6           0        6.645143   -3.744826    3.251960
     25          6           0        6.906284   -4.927457    4.183834
     26          6           0        7.394804   -4.405442    5.534852
     27          7           0        8.075713   -5.462159    6.294268
     28          1           0        7.290792   -2.156026    1.359171
     29          1           0        4.433446   -2.749620    1.449279
     30          1           0        6.326092   -5.011483    1.457222
     31          1           0        4.961454   -4.702027    2.328944
     32          1           0        6.009837   -3.039599    3.772768
     33          1           0        7.610884   -3.270312    3.048048
     34          1           0        7.734398   -5.469403    3.738950
     35          1           0        6.080290   -5.640013    4.210244
     36          1           0        6.472394   -4.113833    6.022626
     37          1           0        8.066087   -3.543548    5.482701
     38          1           0        8.600010   -5.963665    5.582999
     39          1           0        8.685431   -5.198762    7.048102
     40          1           0        7.452968   -6.205182    6.573385
     41          7           0        3.845050   -3.817372   -0.676655
     42          6           0        3.318700   -4.047112   -2.004351
     43          6           0        3.045559   -2.801204   -2.831096
     44          8           0        2.727043   -2.862319   -4.013979
     45          6           0        2.200427   -5.088162   -2.057094
     46          6           0        0.972902   -4.651441   -1.267248
     47          8           0        0.985064   -4.834315   -0.027648
     48          8           0       -0.031397   -4.117764   -1.784907
     49          1           0        3.183113   -3.661180    0.078357
     50          1           0        4.069256   -4.603109   -2.561874
     51          1           0        2.474702   -6.075397   -1.678888
     52          1           0        1.928922   -5.304100   -3.084351
     53          7           0        3.342866   -1.670812   -2.189596
     54          6           0        3.170178   -0.317312   -2.696760
     55          6           0        4.496232    0.308824   -3.114413
     56          8           0        5.369858   -0.390201   -3.613653
     57          1           0        3.611687   -1.677353   -1.217078
     58          1           0        2.778625    0.336807   -1.929026
     59          1           0        2.417748   -0.287318   -3.474159
     60          7           0        4.685617    1.632442   -3.088556
     61          6           0        3.763998    2.751240   -2.953991
     62          6           0        4.332146    3.896560   -2.128854
     63          8           0        4.665603    4.946084   -2.674937
     64          6           0        3.495214    3.191637   -4.385495
     65          6           0        2.789374    2.154113   -5.245572
     66          7           0        3.524148    1.618345   -6.227997
     67          8           0        1.587810    1.942874   -5.177580
     68          1           0        5.615565    1.948393   -3.305748
     69          1           0        2.771612    2.403083   -2.696004
     70          1           0        4.417798    3.528422   -4.884310
     71          1           0        2.801443    4.031618   -4.374808
     72          1           0        4.517888    1.819133   -6.296299
     73          1           0        2.928714    1.125133   -6.874217
     74          7           0        4.312820    3.820466   -0.799217
     75          6           0        3.984580    2.696523    0.049083
     76          6           0        2.546298    2.616014    0.534537
     77          8           0        2.275455    1.600856    1.171716
     78          1           0        4.657374    4.719077   -0.469399
     79          1           0        4.633233    2.650634    0.934545
     80          1           0        4.100358    1.819823   -0.593329
     81          7           0        1.624068    3.495351    0.118777
     82          6           0        0.301451    3.485027    0.696945
     83          6           0       -0.602279    2.553177   -0.093326
     84          8           0       -0.252089    2.225257   -1.225729
     85          6           0       -0.268789    4.902295    0.688165
     86          6           0        0.287835    5.948486    1.613505
     87          6           0        0.377327    5.811711    3.005404
     88          6           0        0.631825    7.199668    1.078514
     89          6           0        0.838466    6.806248    3.878642
     90          6           0        1.126765    8.192325    1.935816
     91          6           0        1.244595    8.046871    3.332368
     92          8           0        1.625884    9.031476    4.200569
     93          1           0        1.945526    4.193492   -0.536788
     94          1           0        0.347320    3.116441    1.728759
     95          1           0       -1.314856    4.787583    0.999268
     96          1           0       -0.379182    5.309057   -0.309311
     97          1           0        0.032602    4.902449    3.473387
     98          1           0        0.486248    7.484243    0.045933
     99          1           0        0.775135    6.637250    4.937665
    100          1           0        1.389028    9.151318    1.525510
    101          1           0        1.417302    9.880162    3.808619
    102          7           0       -1.706092    2.113789    0.522656
    103          6           0       -2.525231    1.072528   -0.062740
    104          6           0       -3.803366    1.582519   -0.719155
    105          8           0       -4.482449    0.711487   -1.259757
    106          6           0       -2.836896   -0.078018    0.892878
    107          6           0       -1.549467   -0.775452    1.315031
    108          6           0       -3.629914    0.393792    2.110711
    109          6           0       -0.634153   -1.270651    0.189918
    110          1           0       -2.087379    2.572001    1.335282
    111          1           0       -1.954080    0.734634   -0.926114
    112          1           0       -3.361453   -0.844060    0.316233
    113          1           0       -1.859379   -1.680105    1.837483
    114          1           0       -0.975833   -0.136306    1.979363
    115          1           0       -3.268187    1.351332    2.488825
    116          1           0       -4.670181    0.555171    1.805422
    117          1           0       -3.579201   -0.369876    2.891954
    118          1           0       -1.257730   -1.639763   -0.612210
    119          1           0        0.015761   -0.435935   -0.105142
    120          1           0        0.059433   -2.067879    0.474987
    121          7           0       -4.229025    2.826233   -0.513750
    122          6           0       -5.500426    3.377324   -0.941112
    123          6           0       -6.608957    2.747392   -0.093029
    124          8           0       -6.580561    2.691771    1.134611
    125          6           0       -5.590783    4.892724   -0.809596
    126          8           0       -4.604752    5.272450   -1.743647
    127          1           0       -3.656187    3.476000    0.003319
    128          1           0       -5.634497    3.233105   -2.005360
    129          1           0       -5.400223    5.273914    0.202175
    130          1           0       -6.596712    5.221117   -1.055492
    131          1           0       -4.924517    6.111124   -2.100407
    132          7           0       -7.683964    2.356987   -0.764553
    133          6           0       -8.882178    1.739917   -0.227423
    134          6           0       -8.891591    0.223867   -0.225351
    135          8           0       -8.022303   -0.385703   -0.832197
    136          6           0      -10.113284    2.208348   -1.011356
    137          1           0       -7.611596    2.306481   -1.772229
    138          1           0       -9.035347    2.105301    0.785066
    139          1           0       -9.988805    3.294390   -1.076300
    140          1           0      -10.148761    1.795400   -2.016749
    141          1           0      -10.993970    1.925833   -0.430083
    142          7           0       -9.927017   -0.388077    0.361519
    143          6           0      -10.112590   -1.811869    0.512440
    144          6           0       -9.030949   -2.763263    1.004986
    145          8           0       -9.150379   -3.970793    0.812607
    146          6           0      -10.996939   -2.295661   -0.634718
    147          1           0      -10.624080    0.188803    0.804140
    148          1           0      -10.770870   -1.856322    1.386735
    149          1           0      -10.296460   -2.780407   -1.313135
    150          1           0      -11.681894   -3.102938   -0.354466
    151          1           0      -11.560043   -1.484924   -1.108975
    152          7           0       -7.923712   -2.244479    1.547747
    153          6           0       -6.880177   -3.044676    2.167522
    154          6           0       -6.473334   -2.641724    3.578978
    155          8           0       -5.385746   -2.964317    4.047580
    156          6           0       -5.669570   -3.093605    1.258382
    157          6           0       -5.740779   -3.955807   -0.001951
    158          6           0       -4.562848   -3.699273   -0.916045
    159          8           0       -3.380665   -3.728762   -0.519845
    160          8           0       -4.722699   -3.441368   -2.126348
    161          1           0       -7.760257   -1.245443    1.512986
    162          1           0       -7.164676   -4.095038    2.177506
    163          1           0       -4.801879   -3.438185    1.821654
    164          1           0       -5.252895   -2.119386    1.010634
    165          1           0       -6.660664   -3.741029   -0.553931
    166          1           0       -5.830496   -5.003037    0.289014
    167          7           0       -7.341134   -1.980741    4.358609
    168          6           0       -7.171341   -1.338112    5.640599
    169          1           0       -8.129351   -1.305933    6.160037
    170          1           0       -6.453452   -1.900627    6.236904
    171          1           0       -6.805358   -0.322380    5.493156
    172          1           0       -8.232422   -1.954156    3.883215
    173         20           0       -2.254592   -4.157809   -2.912517
    174          8           0       -3.493171   -4.002057   -5.244118
    175          1           0       -4.433395   -4.072945   -5.109017
    176          1           0       -3.400170   -3.268806   -5.861283
 ---------------------------------------------------------------------
 Rotational constants (GHZ):           0.0200382           0.0100267           0.0087491
 Standard basis: SVP (5D, 7F)
 There are  1809 symmetry adapted cartesian basis functions of A   symmetry.
 There are  1717 symmetry adapted basis functions of A   symmetry.
  1717 basis functions,  2922 primitive gaussians,  1809 cartesian basis functions
   358 alpha electrons      358 beta electrons
       nuclear repulsion energy     19505.3749349437 Hartrees.
 NAtoms=  176 NActive=  176 NUniq=  176 SFac= 1.00D+00 NAtFMM=   60 NAOKFM=T Big=T
 Integral buffers will be    131072 words long.
 Raffenetti 2 integral format.
 Two-electron integral symmetry is turned on.
 One-electron integrals computed using PRISM.
 NBasis=  1717 RedAO= T EigKep=  2.73D-04  NBF=  1717
 NBsUse=  1717 1.00D-06 EigRej= -1.00D+00 NBFU=  1717
 ExpMin= 1.98D-02 ExpMax= 3.51D+04 ExpMxC= 5.28D+03 IAcc=3 IRadAn=         5 AccDes= 0.00D+00
 Harris functional with IExCor=  402 and IRadAn=       5 diagonalized for initial guess.
 HarFok:  IExCor=  402 AccDes= 0.00D+00 IRadAn=         5 IDoV= 1 UseB2=F ITyADJ=14
 ICtDFT=  3500011 ScaDFX=  1.000000  1.000000  1.000000  1.000000
 FoFCou: FMM=F IPFlag=           0 FMFlag=      100000 FMFlg1=        2001
         NFxFlg=           0 DoJE=T BraDBF=F KetDBF=T FulRan=T
         wScrn=  0.000000 ICntrl=       500 IOpCl=  0 I1Cent=   200000004 NGrid=           0
         NMat0=    1 NMatS0=      1 NMatT0=    0 NMatD0=    1 NMtDS0=    0 NMtDT0=    0
 Petite list used in FoFCou.
 Requested convergence on RMS density matrix=1.00D-08 within  32 cycles.
 Requested convergence on MAX density matrix=1.00D-06.
 Requested convergence on             energy=1.00D-06.
 No special actions if energy rises.
 EnCoef did     2 forward-backward iterations
 EnCoef did     2 forward-backward iterations
 EnCoef did     3 forward-backward iterations
 EnCoef did     8 forward-backward iterations
 EnCoef did   100 forward-backward iterations
 EnCoef did   100 forward-backward iterations
 Rare condition: small coef for last iteration:  0.000D+00
 EnCoef did   100 forward-backward iterations
 EnCoef did   100 forward-backward iterations
 Rare condition: small coef for last iteration:  0.598D-15
 EnCoef did   100 forward-backward iterations
 Rare condition: small coef for last iteration:  0.000D+00
 Restarting incremental Fock formation.
 EnCoef did   100 forward-backward iterations
 Rare condition: small coef for last iteration:  0.000D+00
 EnCoef did   100 forward-backward iterations
 EnCoef did   100 forward-backward iterations
 Rare condition: small coef for last iteration: -0.144D-15
 EnCoef did   100 forward-backward iterations
 Rare condition: small coef for last iteration:  0.000D+00
 EnCoef did   100 forward-backward iterations
 EnCoef did   100 forward-backward iterations
 Rare condition: small coef for last iteration: -0.266D-15
 EnCoef did   100 forward-backward iterations
 EnCoef did   100 forward-backward iterations
 Rare condition: small coef for last iteration:  0.401D-15
 EnCoef did   100 forward-backward iterations
 Rare condition: small coef for last iteration:  0.000D+00
 EnCoef did   100 forward-backward iterations
 EnCoef did   100 forward-backward iterations
 Rare condition: small coef for last iteration:  0.469D-15
 EnCoef did   100 forward-backward iterations
 Rare condition: small coef for last iteration:  0.000D+00
 >>>>>>>>>> Convergence criterion not met.
 SCF Done:  E(RB3LYP) =  -5333.28386821     A.U. after   33 cycles
            NFock= 32  Conv=0.12D-03     -V/T= 2.0082
 Gradient too large for Newton-Raphson -- use scaled steepest descent instead.
     Accept linear search using points  1 and  2.
 Gradient too large for Newton-Raphson -- use scaled steepest descent instead.
     Minimum is close to point  2 DX= -5.76D-04 DF= -1.93D-08 DXR=  1.92D-03 DFR=  3.70D-06 which will be used.
 Gradient too large for Newton-Raphson -- use scaled steepest descent instead.
     Accept linear search using points  2 and  3.
 LinEq1:  Iter=  0 NonCon=     1 RMS=2.58D-04 Max=1.80D-01 NDo=     1
 AX will form     1 AO Fock derivatives at one time.
 LinEq1:  Iter=  1 NonCon=     1 RMS=1.52D-04 Max=1.52D-02 NDo=     1
 LinEq1:  Iter=  2 NonCon=     1 RMS=1.33D-04 Max=6.43D-02 NDo=     1
 LinEq1:  Iter=  3 NonCon=     1 RMS=1.11D-04 Max=2.22D-02 NDo=     1
 LinEq1:  Iter=  4 NonCon=     1 RMS=5.14D-05 Max=5.92D-03 NDo=     1
 LinEq1:  Iter=  5 NonCon=     1 RMS=4.14D-05 Max=3.21D-03 NDo=     1
 LinEq1:  Iter=  6 NonCon=     1 RMS=2.88D-05 Max=2.75D-03 NDo=     1
 LinEq1:  Iter=  7 NonCon=     1 RMS=1.69D-05 Max=2.40D-03 NDo=     1
 LinEq1:  Iter=  8 NonCon=     1 RMS=1.14D-05 Max=1.45D-03 NDo=     1
 LinEq1:  Iter=  9 NonCon=     1 RMS=8.30D-06 Max=1.44D-03 NDo=     1
 LinEq1:  Iter= 10 NonCon=     1 RMS=4.17D-06 Max=5.61D-04 NDo=     1
 LinEq1:  Iter= 11 NonCon=     1 RMS=2.28D-06 Max=4.25D-04 NDo=     1
 LinEq1:  Iter= 12 NonCon=     1 RMS=1.88D-06 Max=3.51D-04 NDo=     1
 LinEq1:  Iter= 13 NonCon=     1 RMS=1.28D-06 Max=2.80D-04 NDo=     1
 LinEq1:  Iter= 14 NonCon=     1 RMS=9.53D-07 Max=2.19D-04 NDo=     1
 LinEq1:  Iter= 15 NonCon=     1 RMS=4.95D-07 Max=1.15D-04 NDo=     1
 LinEq1:  Iter= 16 NonCon=     1 RMS=3.85D-07 Max=8.18D-05 NDo=     1
 LinEq1:  Iter= 17 NonCon=     1 RMS=2.45D-07 Max=4.95D-05 NDo=     1
 LinEq1:  Iter= 18 NonCon=     1 RMS=1.51D-07 Max=2.73D-05 NDo=     1
 LinEq1:  Iter= 19 NonCon=     1 RMS=1.16D-07 Max=2.11D-05 NDo=     1
 LinEq1:  Iter= 20 NonCon=     1 RMS=6.99D-08 Max=1.12D-05 NDo=     1
 LinEq1:  Iter= 21 NonCon=     1 RMS=4.09D-08 Max=5.59D-06 NDo=     1
 LinEq1:  Iter= 22 NonCon=     1 RMS=3.36D-08 Max=3.77D-06 NDo=     1
 LinEq1:  Iter= 23 NonCon=     1 RMS=1.88D-08 Max=1.82D-06 NDo=     1
 LinEq1:  Iter= 24 NonCon=     1 RMS=1.40D-08 Max=1.95D-06 NDo=     1
 LinEq1:  Iter= 25 NonCon=     1 RMS=9.48D-09 Max=1.49D-06 NDo=     1
 LinEq1:  Iter= 26 NonCon=     0 RMS=6.38D-09 Max=9.32D-07 NDo=     1
 Linear equations converged to 9.864D-08 9.864D-07 after    26 iterations.
 LinEq1:  Iter=  0 NonCon=     1 RMS=2.81D-05 Max=1.95D-02 NDo=     1
 LinEq1:  Iter=  1 NonCon=     1 RMS=2.53D-05 Max=3.05D-03 NDo=     1
 LinEq1:  Iter=  2 NonCon=     1 RMS=5.00D-05 Max=2.87D-02 NDo=     1
 LinEq1:  Iter=  3 NonCon=     1 RMS=2.30D-05 Max=3.35D-03 NDo=     1
 LinEq1:  Iter=  4 NonCon=     1 RMS=1.61D-05 Max=3.42D-03 NDo=     1
 LinEq1:  Iter=  5 NonCon=     1 RMS=1.15D-05 Max=1.52D-03 NDo=     1
 LinEq1:  Iter=  6 NonCon=     1 RMS=9.42D-06 Max=1.65D-03 NDo=     1
 LinEq1:  Iter=  7 NonCon=     1 RMS=4.58D-06 Max=5.43D-04 NDo=     1
 LinEq1:  Iter=  8 NonCon=     1 RMS=3.64D-06 Max=3.81D-04 NDo=     1
 LinEq1:  Iter=  9 NonCon=     1 RMS=2.60D-06 Max=3.12D-04 NDo=     1
 LinEq1:  Iter= 10 NonCon=     1 RMS=1.39D-06 Max=2.94D-04 NDo=     1
 LinEq1:  Iter= 11 NonCon=     1 RMS=8.64D-07 Max=1.76D-04 NDo=     1
 LinEq1:  Iter= 12 NonCon=     1 RMS=5.79D-07 Max=1.57D-04 NDo=     1
 LinEq1:  Iter= 13 NonCon=     1 RMS=5.21D-07 Max=1.67D-04 NDo=     1
 LinEq1:  Iter= 14 NonCon=     1 RMS=3.27D-07 Max=1.02D-04 NDo=     1
 LinEq1:  Iter= 15 NonCon=     1 RMS=2.01D-07 Max=4.49D-05 NDo=     1
 LinEq1:  Iter= 16 NonCon=     1 RMS=1.36D-07 Max=2.45D-05 NDo=     1
 LinEq1:  Iter= 17 NonCon=     1 RMS=9.45D-08 Max=9.18D-06 NDo=     1
 LinEq1:  Iter= 18 NonCon=     1 RMS=5.32D-08 Max=8.40D-06 NDo=     1
 LinEq1:  Iter= 19 NonCon=     1 RMS=4.31D-08 Max=9.04D-06 NDo=     1
 LinEq1:  Iter= 20 NonCon=     1 RMS=2.25D-08 Max=3.01D-06 NDo=     1
 LinEq1:  Iter= 21 NonCon=     1 RMS=1.45D-08 Max=2.60D-06 NDo=     1
 LinEq1:  Iter= 22 NonCon=     1 RMS=1.02D-08 Max=1.68D-06 NDo=     1
 LinEq1:  Iter= 23 NonCon=     1 RMS=6.60D-09 Max=1.09D-06 NDo=     1
 LinEq1:  Iter= 24 NonCon=     1 RMS=4.47D-09 Max=7.45D-07 NDo=     1
 LinEq1:  Iter= 25 NonCon=     1 RMS=2.99D-09 Max=5.21D-07 NDo=     1
 LinEq1:  Iter= 26 NonCon=     1 RMS=2.04D-09 Max=2.61D-07 NDo=     1
 LinEq1:  Iter= 27 NonCon=     0 RMS=1.22D-09 Max=1.82D-07 NDo=     1
 Linear equations converged to 2.150D-08 2.150D-07 after    27 iterations.
     Minimum is close to point  2 DX=  1.02D-03 DF= -3.64D-12 DXR=  1.02D-03 DFR=  1.24D-06 which will be used.
 SCF Done:  E(RB3LYP) =  -5333.32845326     a.u. after    6 cycles
            Convg  =    0.1451D-05                    66 Fock formations.
              S**2 =  0.0000                  -V/T =  2.0081
 SCF density gives NOpUse=  1 NOpAll=  1.
 Hyperfine terms turned off by default for NAtoms > 100.

 **********************************************************************

            Population analysis using the SCF density.

 **********************************************************************

 Orbital symmetries:
 BldTbl:  Degeneracy threshold= 1.00D-02
       Occupied  (A) (A) (A) (A) (A) (A) (A) (A) (A) (A) (A) (A)
                 (A) (A) (A) (A) (A) (A) (A) (A) (A) (A) (A) (A)
                 (A) (A) (A) (A) (A) (A) (A) (A) (A) (A) (A) (A)
                 (A) (A) (A) (A) (A) (A) (A) (A) (A) (A) (A) (A)
                 (A) (A) (A) (A) (A) (A) (A) (A) (A) (A) (A) (A)
                 (A) (A) (A) (A) (A) (A) (A) (A) (A) (A) (A) (A)
                 (A) (A) (A) (A) (A) (A) (A) (A) (A) (A) (A) (A)
                 (A) (A) (A) (A) (A) (A) (A) (A) (A) (A) (A) (A)
                 (A) (A) (A) (A) (A) (A) (A) (A) (A) (A) (A) (A)
                 (A) (A) (A) (A) (A) (A) (A) (A) (A) (A) (A) (A)
                 (A) (A) (A) (A) (A) (A) (A) (A) (A) (A) (A) (A)
                 (A) (A) (A) (A) (A) (A) (A) (A) (A) (A) (A) (A)
                 (A) (A) (A) (A) (A) (A) (A) (A) (A) (A) (A) (A)
                 (A) (A) (A) (A) (A) (A) (A) (A) (A) (A) (A) (A)
                 (A) (A) (A) (A) (A) (A) (A) (A) (A) (A) (A) (A)
                 (A) (A) (A) (A) (A) (A) (A) (A) (A) (A) (A) (A)
                 (A) (A) (A) (A) (A) (A) (A) (A) (A) (A) (A) (A)
                 (A) (A) (A) (A) (A) (A) (A) (A) (A) (A) (A) (A)
                 (A) (A) (A) (A) (A) (A) (A) (A) (A) (A) (A) (A)
                 (A) (A) (A) (A) (A) (A) (A) (A) (A) (A) (A) (A)
                 (A) (A) (A) (A) (A) (A) (A) (A) (A) (A) (A) (A)
                 (A) (A) (A) (A) (A) (A) (A) (A) (A) (A) (A) (A)
                 (A) (A) (A) (A) (A) (A) (A) (A) (A) (A) (A) (A)
                 (A) (A) (A) (A) (A) (A) (A) (A) (A) (A) (A) (A)
                 (A) (A) (A) (A) (A) (A) (A) (A) (A) (A) (A) (A)
                 (A) (A) (A) (A) (A) (A) (A) (A) (A) (A) (A) (A)
                 (A) (A) (A) (A) (A) (A) (A) (A) (A) (A) (A) (A)
                 (A) (A) (A) (A) (A) (A) (A) (A) (A) (A) (A) (A)
                 (A) (A) (A) (A) (A) (A) (A) (A) (A) (A) (A) (A)
                 (A) (A) (A) (A) (A) (A) (A) (A) (A) (A)
       Virtual   (A) (A) (A) (A) (A) (A) (A) (A) (A) (A) (A) (A)
                 (A) (A) (A) (A) (A) (A) (A) (A) (A) (A) (A) (A)
                 (A) (A) (A) (A) (A) (A) (A) (A) (A) (A) (A) (A)
                 (A) (A) (A) (A) (A) (A) (A) (A) (A) (A) (A) (A)
                 (A) (A) (A) (A) (A) (A) (A) (A) (A) (A) (A) (A)
                 (A) (A) (A) (A) (A) (A) (A) (A) (A) (A) (A) (A)
                 (A) (A) (A) (A) (A) (A) (A) (A) (A) (A) (A) (A)
                 (A) (A) (A) (A) (A) (A) (A) (A) (A) (A) (A) (A)
                 (A) (A) (A) (A) (A) (A) (A) (A) (A) (A) (A) (A)
                 (A) (A) (A) (A) (A) (A) (A) (A) (A) (A) (A) (A)
                 (A) (A) (A) (A) (A) (A) (A) (A) (A) (A) (A) (A)
                 (A) (A) (A) (A) (A) (A) (A) (A) (A) (A) (A) (A)
                 (A) (A) (A) (A) (A) (A) (A) (A) (A) (A) (A) (A)
                 (A) (A) (A) (A) (A) (A) (A) (A) (A) (A) (A) (A)
                 (A) (A) (A) (A) (A) (A) (A) (A) (A) (A) (A) (A)
                 (A) (A) (A) (A) (A) (A) (A) (A) (A) (A) (A) (A)
                 (A) (A) (A) (A) (A) (A) (A) (A) (A) (A) (A) (A)
                 (A) (A) (A) (A) (A) (A) (A) (A) (A) (A) (A) (A)
                 (A) (A) (A) (A) (A) (A) (A) (A) (A) (A) (A) (A)
                 (A) (A) (A) (A) (A) (A) (A) (A) (A) (A) (A) (A)
                 (A) (A) (A) (A) (A) (A) (A) (A) (A) (A) (A) (A)
                 (A) (A) (A) (A) (A) (A) (A) (A) (A) (A) (A) (A)
                 (A) (A) (A) (A) (A) (A) (A) (A) (A) (A) (A) (A)
                 (A) (A) (A) (A) (A) (A) (A) (A) (A) (A) (A) (A)
                 (A) (A) (A) (A) (A) (A) (A) (A) (A) (A) (A) (A)
                 (A) (A) (A) (A) (A) (A) (A) (A) (A) (A) (A) (A)
                 (A) (A) (A) (A) (A) (A) (A) (A) (A) (A) (A) (A)
                 (A) (A) (A) (A) (A) (A) (A) (A) (A) (A) (A) (A)
                 (A) (A) (A) (A) (A) (A) (A) (A) (A) (A) (A) (A)
                 (A) (A) (A) (A) (A) (A) (A) (A) (A) (A) (A) (A)
                 (A) (A) (A) (A) (A) (A) (A) (A) (A) (A) (A) (A)
                 (A) (A) (A) (A) (A) (A) (A) (A) (A) (A) (A) (A)
                 (A) (A) (A) (A) (A) (A) (A) (A) (A) (A) (A) (A)
                 (A) (A) (A) (A) (A) (A) (A) (A) (A) (A) (A) (A)
                 (A) (A) (A) (A) (A) (A) (A) (A) (A) (A) (A) (A)
                 (A) (A) (A) (A) (A) (A) (A) (A) (A) (A) (A) (A)
                 (A) (A) (A) (A) (A) (A) (A) (A) (A) (A) (A) (A)
                 (A) (A) (A) (A) (A) (A) (A) (A) (A) (A) (A) (A)
                 (A) (A) (A) (A) (A) (A) (A) (A) (A) (A) (A) (A)
                 (A) (A) (A) (A) (A) (A) (A) (A) (A) (A) (A) (A)
                 (A) (A) (A) (A) (A) (A) (A) (A) (A) (A) (A) (A)
                 (A) (A) (A) (A) (A) (A) (A) (A) (A) (A) (A) (A)
                 (A) (A) (A) (A) (A) (A) (A) (A) (A) (A) (A) (A)
                 (A) (A) (A) (A) (A) (A) (A) (A) (A) (A) (A) (A)
                 (A) (A) (A) (A) (A) (A) (A) (A) (A) (A) (A) (A)
                 (A) (A) (A) (A) (A) (A) (A) (A) (A) (A) (A) (A)
                 (A) (A) (A) (A) (A) (A) (A) (A) (A) (A) (A) (A)
                 (A) (A) (A) (A) (A) (A) (A) (A) (A) (A) (A) (A)
                 (A) (A) (A) (A) (A) (A) (A) (A) (A) (A) (A) (A)
                 (A) (A) (A) (A) (A) (A) (A) (A) (A) (A) (A) (A)
                 (A) (A) (A) (A) (A) (A) (A) (A) (A) (A) (A) (A)
                 (A) (A) (A) (A) (A) (A) (A) (A) (A) (A) (A) (A)
                 (A) (A) (A) (A) (A) (A) (A) (A) (A) (A) (A) (A)
                 (A) (A) (A) (A) (A) (A) (A) (A) (A) (A) (A) (A)
                 (A) (A) (A) (A) (A) (A) (A) (A) (A) (A) (A) (A)
                 (A) (A) (A) (A) (A) (A) (A) (A) (A) (A) (A) (A)
                 (A) (A) (A) (A) (A) (A) (A) (A) (A) (A) (A) (A)
                 (A) (A) (A) (A) (A) (A) (A) (A) (A) (A) (A) (A)
                 (A) (A) (A) (A) (A) (A) (A) (A) (A) (A) (A) (A)
                 (A) (A) (A) (A) (A) (A) (A) (A) (A) (A) (A) (A)
                 (A) (A) (A) (A) (A) (A) (A) (A) (A) (A) (A) (A)
                 (A) (A) (A) (A) (A) (A) (A) (A) (A) (A) (A) (A)
                 (A) (A) (A) (A) (A) (A) (A) (A) (A) (A) (A) (A)
                 (A) (A) (A) (A) (A) (A) (A) (A) (A) (A) (A) (A)
                 (A) (A) (A) (A) (A) (A) (A) (A) (A) (A) (A) (A)
                 (A) (A) (A) (A) (A) (A) (A) (A) (A) (A) (A) (A)
                 (A) (A) (A) (A) (A) (A) (A) (A) (A) (A) (A) (A)
                 (A) (A) (A) (A) (A) (A) (A) (A) (A) (A) (A) (A)
                 (A) (A) (A) (A) (A) (A) (A) (A) (A) (A) (A) (A)
                 (A) (A) (A) (A) (A) (A) (A) (A) (A) (A) (A) (A)
                 (A) (A) (A) (A) (A) (A) (A) (A) (A) (A) (A) (A)
                 (A) (A) (A) (A) (A) (A) (A) (A) (A) (A) (A) (A)
                 (A) (A) (A) (A) (A) (A) (A) (A) (A) (A) (A) (A)
                 (A) (A) (A) (A) (A) (A) (A) (A) (A) (A) (A) (A)
                 (A) (A) (A) (A) (A) (A) (A) (A) (A) (A) (A) (A)
                 (A) (A) (A) (A) (A) (A) (A) (A) (A) (A) (A) (A)
                 (A) (A) (A) (A) (A) (A) (A) (A) (A) (A) (A) (A)
                 (A) (A) (A) (A) (A) (A) (A) (A) (A) (A) (A) (A)
                 (A) (A) (A) (A) (A) (A) (A) (A) (A) (A) (A) (A)
                 (A) (A) (A) (A) (A) (A) (A) (A) (A) (A) (A) (A)
                 (A) (A) (A) (A) (A) (A) (A) (A) (A) (A) (A) (A)
                 (A) (A) (A) (A) (A) (A) (A) (A) (A) (A) (A) (A)
                 (A) (A) (A) (A) (A) (A) (A) (A) (A) (A) (A) (A)
                 (A) (A) (A) (A) (A) (A) (A) (A) (A) (A) (A) (A)
                 (A) (A) (A) (A) (A) (A) (A) (A) (A) (A) (A) (A)
                 (A) (A) (A) (A) (A) (A) (A) (A) (A) (A) (A) (A)
                 (A) (A) (A) (A) (A) (A) (A) (A) (A) (A) (A) (A)
                 (A) (A) (A) (A) (A) (A) (A) (A) (A) (A) (A) (A)
                 (A) (A) (A) (A) (A) (A) (A) (A) (A) (A) (A) (A)
                 (A) (A) (A) (A) (A) (A) (A) (A) (A) (A) (A) (A)
                 (A) (A) (A) (A) (A) (A) (A) (A) (A) (A) (A) (A)
                 (A) (A) (A) (A) (A) (A) (A) (A) (A) (A) (A) (A)
                 (A) (A) (A) (A) (A) (A) (A) (A) (A) (A) (A) (A)
                 (A) (A) (A) (A) (A) (A) (A) (A) (A) (A) (A) (A)
                 (A) (A) (A) (A) (A) (A) (A) (A) (A) (A) (A) (A)
                 (A) (A) (A) (A) (A) (A) (A) (A) (A) (A) (A) (A)
                 (A) (A) (A) (A) (A) (A) (A) (A) (A) (A) (A) (A)
                 (A) (A) (A) (A) (A) (A) (A) (A) (A) (A) (A) (A)
                 (A) (A) (A) (A) (A) (A) (A) (A) (A) (A) (A) (A)
                 (A) (A) (A) (A) (A) (A) (A) (A) (A) (A) (A) (A)
                 (A) (A) (A) (A) (A) (A) (A) (A) (A) (A) (A) (A)
                 (A) (A) (A) (A) (A) (A) (A) (A) (A) (A) (A) (A)
                 (A) (A) (A) (A) (A) (A) (A) (A) (A) (A) (A) (A)
                 (A) (A) (A) (A) (A) (A) (A) (A) (A) (A) (A) (A)
                 (A) (A) (A) (A) (A) (A) (A) (A) (A) (A) (A) (A)
                 (A) (A) (A) (A) (A) (A) (A) (A) (A) (A) (A) (A)
                 (A) (A) (A) (A) (A) (A) (A) (A) (A) (A) (A) (A)
                 (A) (A) (A) (A) (A) (A) (A) (A) (A) (A) (A) (A)
                 (A) (A) (A) (A) (A) (A) (A) (A) (A) (A) (A) (A)
                 (A) (A) (A) (A) (A) (A) (A) (A) (A) (A) (A) (A)
                 (A) (A) (A) (A) (A) (A) (A) (A) (A) (A) (A) (A)
                 (A) (A) (A) (A) (A) (A) (A) (A) (A) (A) (A) (A)
                 (A) (A) (A) (A) (A) (A) (A) (A) (A) (A) (A) (A)
                 (A) (A) (A)
 The electronic state is 1-A.
 Alpha  occ. eigenvalues -- -145.45550 -19.22392 -19.16303 -19.15036 -19.10254
 Alpha  occ. eigenvalues --  -19.09683 -19.09524 -19.08126 -19.08100 -19.07508
 Alpha  occ. eigenvalues --  -19.07002 -19.06543 -19.06373 -19.06342 -19.05255
 Alpha  occ. eigenvalues --  -19.05063 -19.05034 -19.04962 -19.04623 -19.04295
 Alpha  occ. eigenvalues --  -19.04284 -19.01467 -18.96487 -18.95613 -15.51469
 Alpha  occ. eigenvalues --  -14.56095 -14.37360 -14.36113 -14.35478 -14.34829
 Alpha  occ. eigenvalues --  -14.34462 -14.34350 -14.34237 -14.33592 -14.32266
 Alpha  occ. eigenvalues --  -14.32193 -14.32019 -14.31736 -14.30977 -14.29997
 Alpha  occ. eigenvalues --  -12.65119 -12.65018 -12.64968 -10.33396 -10.29041
 Alpha  occ. eigenvalues --  -10.28931 -10.28351 -10.26924 -10.26840 -10.26597
 Alpha  occ. eigenvalues --  -10.26315 -10.25896 -10.25522 -10.25418 -10.25191
 Alpha  occ. eigenvalues --  -10.24970 -10.24729 -10.24699 -10.24511 -10.24423
 Alpha  occ. eigenvalues --  -10.24195 -10.24123 -10.23886 -10.23624 -10.23238
 Alpha  occ. eigenvalues --  -10.22709 -10.22429 -10.22363 -10.22290 -10.21976
 Alpha  occ. eigenvalues --  -10.21664 -10.21392 -10.21333 -10.20843 -10.19782
 Alpha  occ. eigenvalues --  -10.19742 -10.19740 -10.19399 -10.19268 -10.19227
 Alpha  occ. eigenvalues --  -10.18935 -10.18807 -10.18674 -10.18572 -10.18503
 Alpha  occ. eigenvalues --  -10.18182 -10.17906 -10.16503 -10.16013 -10.15313
 Alpha  occ. eigenvalues --  -10.15300 -10.15071 -10.15002 -10.14808 -10.12773
 Alpha  occ. eigenvalues --  -10.12004 -10.11489  -1.88079  -1.15923  -1.15149
 Alpha  occ. eigenvalues --   -1.14867  -1.11928  -1.08160  -1.04876  -1.04189
 Alpha  occ. eigenvalues --   -1.03777  -1.02720  -1.02396  -1.01676  -1.01320
 Alpha  occ. eigenvalues --   -1.00900  -1.00669  -1.00209  -1.00034  -0.99566
 Alpha  occ. eigenvalues --   -0.99436  -0.98717  -0.98320  -0.98069  -0.97761
 Alpha  occ. eigenvalues --   -0.96757  -0.94191  -0.92688  -0.92036  -0.91617
 Alpha  occ. eigenvalues --   -0.91277  -0.90939  -0.90568  -0.90187  -0.89890
 Alpha  occ. eigenvalues --   -0.89386  -0.88951  -0.88888  -0.88599  -0.87587
 Alpha  occ. eigenvalues --   -0.87170  -0.86991  -0.86866  -0.85979  -0.84749
 Alpha  occ. eigenvalues --   -0.80935  -0.80051  -0.79933  -0.78981  -0.78085
 Alpha  occ. eigenvalues --   -0.77352  -0.76693  -0.75832  -0.75583  -0.75236
 Alpha  occ. eigenvalues --   -0.74121  -0.73799  -0.73315  -0.73210  -0.72494
 Alpha  occ. eigenvalues --   -0.71811  -0.70762  -0.69715  -0.69390  -0.69343
 Alpha  occ. eigenvalues --   -0.69215  -0.69078  -0.67696  -0.67552  -0.66898
 Alpha  occ. eigenvalues --   -0.66209  -0.66178  -0.65089  -0.63994  -0.63051
 Alpha  occ. eigenvalues --   -0.62438  -0.62263  -0.61425  -0.61181  -0.60560
 Alpha  occ. eigenvalues --   -0.60416  -0.59625  -0.59191  -0.59132  -0.58944
 Alpha  occ. eigenvalues --   -0.58868  -0.58639  -0.57752  -0.57673  -0.57181
 Alpha  occ. eigenvalues --   -0.56894  -0.56652  -0.56301  -0.55959  -0.55449
 Alpha  occ. eigenvalues --   -0.54983  -0.54763  -0.54738  -0.54537  -0.54491
 Alpha  occ. eigenvalues --   -0.54432  -0.53669  -0.53444  -0.52734  -0.52352
 Alpha  occ. eigenvalues --   -0.51751  -0.51485  -0.51459  -0.50405  -0.50040
 Alpha  occ. eigenvalues --   -0.49896  -0.49584  -0.49273  -0.49071  -0.49010
 Alpha  occ. eigenvalues --   -0.48968  -0.48760  -0.48643  -0.48228  -0.47864
 Alpha  occ. eigenvalues --   -0.47800  -0.47503  -0.47339  -0.47032  -0.46952
 Alpha  occ. eigenvalues --   -0.46413  -0.46201  -0.45715  -0.45430  -0.44950
 Alpha  occ. eigenvalues --   -0.44614  -0.44453  -0.44433  -0.44082  -0.43990
 Alpha  occ. eigenvalues --   -0.43860  -0.43734  -0.43642  -0.43413  -0.43232
 Alpha  occ. eigenvalues --   -0.43177  -0.43043  -0.42891  -0.42618  -0.42612
 Alpha  occ. eigenvalues --   -0.42509  -0.42016  -0.41884  -0.41781  -0.41739
 Alpha  occ. eigenvalues --   -0.41687  -0.41399  -0.41327  -0.41232  -0.41188
 Alpha  occ. eigenvalues --   -0.40964  -0.40817  -0.40689  -0.40269  -0.40144
 Alpha  occ. eigenvalues --   -0.40007  -0.39970  -0.39699  -0.39676  -0.39525
 Alpha  occ. eigenvalues --   -0.39476  -0.39374  -0.39138  -0.39103  -0.39004
 Alpha  occ. eigenvalues --   -0.38901  -0.38553  -0.38447  -0.38184  -0.38109
 Alpha  occ. eigenvalues --   -0.38094  -0.38016  -0.37849  -0.37822  -0.37659
 Alpha  occ. eigenvalues --   -0.37227  -0.37088  -0.37034  -0.36943  -0.36789
 Alpha  occ. eigenvalues --   -0.36729  -0.36636  -0.36547  -0.36366  -0.36159
 Alpha  occ. eigenvalues --   -0.36142  -0.36069  -0.35742  -0.35401  -0.35298
 Alpha  occ. eigenvalues --   -0.35118  -0.34813  -0.34765  -0.34524  -0.34470
 Alpha  occ. eigenvalues --   -0.34310  -0.34130  -0.33937  -0.33725  -0.33662
 Alpha  occ. eigenvalues --   -0.33405  -0.33075  -0.32685  -0.32586  -0.32446
 Alpha  occ. eigenvalues --   -0.32356  -0.32255  -0.32200  -0.32142  -0.31595
 Alpha  occ. eigenvalues --   -0.30931  -0.30572  -0.30134  -0.29851  -0.29231
 Alpha  occ. eigenvalues --   -0.28218  -0.27676  -0.27451  -0.27222  -0.27119
 Alpha  occ. eigenvalues --   -0.26740  -0.26254  -0.26143  -0.26069  -0.25964
 Alpha  occ. eigenvalues --   -0.25566  -0.25523  -0.25425  -0.24767  -0.24624
 Alpha  occ. eigenvalues --   -0.24388  -0.24371  -0.24220  -0.24180  -0.24101
 Alpha  occ. eigenvalues --   -0.23952  -0.23614  -0.23292  -0.22754  -0.22565
 Alpha  occ. eigenvalues --   -0.22459  -0.22323  -0.22184  -0.21770  -0.21565
 Alpha  occ. eigenvalues --   -0.21230  -0.21179  -0.20946  -0.20801  -0.20703
 Alpha  occ. eigenvalues --   -0.20304  -0.19750  -0.19707  -0.19424  -0.17220
 Alpha  occ. eigenvalues --   -0.14409  -0.13235  -0.10262
 Alpha virt. eigenvalues --   -0.09139  -0.07274  -0.03265  -0.03149  -0.01388
 Alpha virt. eigenvalues --   -0.00425  -0.00371  -0.00066   0.00166   0.01028
 Alpha virt. eigenvalues --    0.01610   0.01653   0.02323   0.02389   0.02898
 Alpha virt. eigenvalues --    0.02983   0.03104   0.03321   0.03635   0.03860
 Alpha virt. eigenvalues --    0.04209   0.04456   0.04704   0.04785   0.04906
 Alpha virt. eigenvalues --    0.05314   0.05378   0.05684   0.05877   0.06114
 Alpha virt. eigenvalues --    0.06450   0.06857   0.06900   0.07017   0.07053
 Alpha virt. eigenvalues --    0.07290   0.07411   0.07491   0.07655   0.07795
 Alpha virt. eigenvalues --    0.07960   0.08078   0.08223   0.08377   0.08434
 Alpha virt. eigenvalues --    0.08526   0.08670   0.09057   0.09617   0.09747
 Alpha virt. eigenvalues --    0.10375   0.10555   0.10815   0.11004   0.11123
 Alpha virt. eigenvalues --    0.11313   0.11468   0.11649   0.11949   0.12132
 Alpha virt. eigenvalues --    0.12311   0.12610   0.12667   0.12675   0.12958
 Alpha virt. eigenvalues --    0.13325   0.13404   0.13521   0.13669   0.13813
 Alpha virt. eigenvalues --    0.13873   0.13946   0.14083   0.14232   0.14464
 Alpha virt. eigenvalues --    0.14627   0.14728   0.14890   0.14990   0.15156
 Alpha virt. eigenvalues --    0.15200   0.15332   0.15633   0.15732   0.15853
 Alpha virt. eigenvalues --    0.16144   0.16208   0.16491   0.16563   0.16904
 Alpha virt. eigenvalues --    0.17034   0.17220   0.17436   0.17528   0.17646
 Alpha virt. eigenvalues --    0.17829   0.17995   0.18186   0.18290   0.18481
 Alpha virt. eigenvalues --    0.18782   0.18975   0.19005   0.19172   0.19393
 Alpha virt. eigenvalues --    0.19661   0.20045   0.20195   0.20312   0.20969
 Alpha virt. eigenvalues --    0.21153   0.21221   0.21419   0.21803   0.22062
 Alpha virt. eigenvalues --    0.22277   0.22401   0.22449   0.22658   0.22812
 Alpha virt. eigenvalues --    0.23095   0.23246   0.23264   0.23751   0.23904
 Alpha virt. eigenvalues --    0.24105   0.24536   0.24669   0.24868   0.25124
 Alpha virt. eigenvalues --    0.25418   0.25591   0.25800   0.26047   0.26105
 Alpha virt. eigenvalues --    0.26622   0.26716   0.26981   0.27148   0.27506
 Alpha virt. eigenvalues --    0.27642   0.27861   0.27938   0.28193   0.28567
 Alpha virt. eigenvalues --    0.28862   0.29235   0.29501   0.29764   0.29923
 Alpha virt. eigenvalues --    0.30142   0.30221   0.30327   0.30556   0.30968
 Alpha virt. eigenvalues --    0.31047   0.31269   0.31392   0.31599   0.31610
 Alpha virt. eigenvalues --    0.31897   0.31949   0.32333   0.32402   0.32885
 Alpha virt. eigenvalues --    0.33142   0.33396   0.33597   0.34094   0.34365
 Alpha virt. eigenvalues --    0.34420   0.34931   0.35026   0.35757   0.35935
 Alpha virt. eigenvalues --    0.36071   0.36446   0.36528   0.36996   0.37059
 Alpha virt. eigenvalues --    0.37202   0.37836   0.37907   0.38436   0.38717
 Alpha virt. eigenvalues --    0.38893   0.39311   0.39662   0.39736   0.39860
 Alpha virt. eigenvalues --    0.40048   0.40233   0.40445   0.40541   0.41044
 Alpha virt. eigenvalues --    0.41182   0.41511   0.41578   0.41967   0.42060
 Alpha virt. eigenvalues --    0.42478   0.42620   0.42841   0.43016   0.43633
 Alpha virt. eigenvalues --    0.43905   0.44187   0.44403   0.44736   0.44975
 Alpha virt. eigenvalues --    0.45097   0.45227   0.45405   0.45808   0.45829
 Alpha virt. eigenvalues --    0.46043   0.46130   0.46215   0.46610   0.46681
 Alpha virt. eigenvalues --    0.47004   0.47184   0.47341   0.47587   0.47838
 Alpha virt. eigenvalues --    0.48042   0.48161   0.48405   0.48527   0.48575
 Alpha virt. eigenvalues --    0.49039   0.49180   0.49210   0.49297   0.49773
 Alpha virt. eigenvalues --    0.49954   0.50103   0.50236   0.50559   0.50662
 Alpha virt. eigenvalues --    0.50847   0.50961   0.51378   0.51602   0.51752
 Alpha virt. eigenvalues --    0.51961   0.52087   0.52234   0.52769   0.52846
 Alpha virt. eigenvalues --    0.52926   0.52947   0.53604   0.53644   0.53703
 Alpha virt. eigenvalues --    0.53777   0.54136   0.54598   0.54731   0.55001
 Alpha virt. eigenvalues --    0.55040   0.55780   0.56034   0.56211   0.56432
 Alpha virt. eigenvalues --    0.56582   0.56615   0.56697   0.56928   0.57018
 Alpha virt. eigenvalues --    0.57238   0.57308   0.57512   0.57602   0.57721
 Alpha virt. eigenvalues --    0.57763   0.58133   0.58224   0.58385   0.58944
 Alpha virt. eigenvalues --    0.59024   0.59133   0.59245   0.59372   0.59713
 Alpha virt. eigenvalues --    0.59833   0.60053   0.60185   0.60277   0.60419
 Alpha virt. eigenvalues --    0.60727   0.60875   0.60915   0.61082   0.61190
 Alpha virt. eigenvalues --    0.61442   0.61492   0.61632   0.61871   0.61967
 Alpha virt. eigenvalues --    0.61993   0.62196   0.62299   0.62367   0.62641
 Alpha virt. eigenvalues --    0.62721   0.62894   0.63061   0.63279   0.63392
 Alpha virt. eigenvalues --    0.63488   0.63543   0.63706   0.63948   0.64098
 Alpha virt. eigenvalues --    0.64115   0.64300   0.64411   0.64593   0.64659
 Alpha virt. eigenvalues --    0.64982   0.65116   0.65126   0.65179   0.65495
 Alpha virt. eigenvalues --    0.65560   0.65651   0.65804   0.65919   0.65958
 Alpha virt. eigenvalues --    0.65993   0.66143   0.66326   0.66394   0.66490
 Alpha virt. eigenvalues --    0.66535   0.66643   0.66740   0.66846   0.66905
 Alpha virt. eigenvalues --    0.66986   0.67050   0.67182   0.67380   0.67387
 Alpha virt. eigenvalues --    0.67414   0.67686   0.67751   0.67878   0.67952
 Alpha virt. eigenvalues --    0.68202   0.68345   0.68464   0.68513   0.68626
 Alpha virt. eigenvalues --    0.68705   0.68762   0.68920   0.68977   0.69186
 Alpha virt. eigenvalues --    0.69244   0.69450   0.69501   0.69605   0.69736
 Alpha virt. eigenvalues --    0.69824   0.69933   0.70078   0.70191   0.70317
 Alpha virt. eigenvalues --    0.70376   0.70529   0.70600   0.70671   0.70801
 Alpha virt. eigenvalues --    0.70816   0.71000   0.71167   0.71317   0.71399
 Alpha virt. eigenvalues --    0.71494   0.71616   0.71780   0.71944   0.72203
 Alpha virt. eigenvalues --    0.72309   0.72362   0.72659   0.72721   0.72774
 Alpha virt. eigenvalues --    0.72872   0.72951   0.73045   0.73156   0.73422
 Alpha virt. eigenvalues --    0.73458   0.73709   0.73837   0.74003   0.74180
 Alpha virt. eigenvalues --    0.74380   0.74638   0.74733   0.74952   0.75063
 Alpha virt. eigenvalues --    0.75141   0.75326   0.75542   0.75650   0.76046
 Alpha virt. eigenvalues --    0.76234   0.76359   0.76690   0.76749   0.77012
 Alpha virt. eigenvalues --    0.77053   0.77334   0.77581   0.77950   0.77968
 Alpha virt. eigenvalues --    0.78079   0.78320   0.78942   0.79153   0.79399
 Alpha virt. eigenvalues --    0.79591   0.79782   0.79825   0.79968   0.80432
 Alpha virt. eigenvalues --    0.80612   0.81022   0.81247   0.81366   0.81630
 Alpha virt. eigenvalues --    0.82026   0.82213   0.82276   0.82506   0.82840
 Alpha virt. eigenvalues --    0.82946   0.83211   0.83342   0.83526   0.83805
 Alpha virt. eigenvalues --    0.84178   0.84446   0.84502   0.84861   0.85244
 Alpha virt. eigenvalues --    0.85412   0.85563   0.85633   0.86036   0.86230
 Alpha virt. eigenvalues --    0.86373   0.86712   0.87018   0.87560   0.87683
 Alpha virt. eigenvalues --    0.88137   0.88330   0.88508   0.88782   0.89352
 Alpha virt. eigenvalues --    0.89632   0.89834   0.89965   0.90254   0.90367
 Alpha virt. eigenvalues --    0.90706   0.90823   0.91081   0.91350   0.91524
 Alpha virt. eigenvalues --    0.92224   0.92441   0.92603   0.93212   0.93446
 Alpha virt. eigenvalues --    0.93657   0.93780   0.94207   0.94290   0.94656
 Alpha virt. eigenvalues --    0.94856   0.95325   0.95582   0.95998   0.96241
 Alpha virt. eigenvalues --    0.96293   0.96883   0.97164   0.97239   0.97413
 Alpha virt. eigenvalues --    0.97454   0.98084   0.98461   0.98604   0.98804
 Alpha virt. eigenvalues --    0.99079   0.99554   1.00040   1.00249   1.00323
 Alpha virt. eigenvalues --    1.00660   1.00937   1.01278   1.01457   1.01531
 Alpha virt. eigenvalues --    1.01800   1.01987   1.02472   1.02937   1.03296
 Alpha virt. eigenvalues --    1.03376   1.03679   1.03887   1.04285   1.04608
 Alpha virt. eigenvalues --    1.04755   1.05228   1.05402   1.05639   1.05742
 Alpha virt. eigenvalues --    1.05959   1.06410   1.06699   1.06772   1.07055
 Alpha virt. eigenvalues --    1.07215   1.07698   1.07797   1.07998   1.08393
 Alpha virt. eigenvalues --    1.08528   1.08699   1.08819   1.09131   1.10018
 Alpha virt. eigenvalues --    1.10396   1.10706   1.10828   1.11069   1.11410
 Alpha virt. eigenvalues --    1.11692   1.11797   1.12330   1.12502   1.12893
 Alpha virt. eigenvalues --    1.13012   1.13291   1.13509   1.13744   1.13966
 Alpha virt. eigenvalues --    1.14419   1.14779   1.14893   1.15160   1.15527
 Alpha virt. eigenvalues --    1.15946   1.16308   1.16559   1.16797   1.17091
 Alpha virt. eigenvalues --    1.17658   1.18029   1.18238   1.18380   1.18652
 Alpha virt. eigenvalues --    1.18921   1.19367   1.19623   1.20018   1.20109
 Alpha virt. eigenvalues --    1.20451   1.20482   1.20733   1.21058   1.21305
 Alpha virt. eigenvalues --    1.21592   1.21913   1.22004   1.22332   1.22680
 Alpha virt. eigenvalues --    1.22822   1.23043   1.23275   1.23488   1.23850
 Alpha virt. eigenvalues --    1.24046   1.24230   1.24510   1.24819   1.25093
 Alpha virt. eigenvalues --    1.25223   1.25325   1.25605   1.25906   1.26056
 Alpha virt. eigenvalues --    1.26532   1.26645   1.26910   1.26990   1.27117
 Alpha virt. eigenvalues --    1.27278   1.27619   1.27714   1.28275   1.28381
 Alpha virt. eigenvalues --    1.28760   1.28974   1.29432   1.29487   1.29907
 Alpha virt. eigenvalues --    1.30237   1.30469   1.30496   1.30815   1.31055
 Alpha virt. eigenvalues --    1.31510   1.31562   1.31844   1.32126   1.32417
 Alpha virt. eigenvalues --    1.32587   1.32821   1.33016   1.33155   1.33402
 Alpha virt. eigenvalues --    1.33448   1.33806   1.34017   1.34169   1.34537
 Alpha virt. eigenvalues --    1.35304   1.35626   1.36013   1.36194   1.36917
 Alpha virt. eigenvalues --    1.37053   1.37475   1.37956   1.38032   1.38772
 Alpha virt. eigenvalues --    1.38927   1.39060   1.39323   1.39832   1.40001
 Alpha virt. eigenvalues --    1.40322   1.40898   1.41337   1.41582   1.41844
 Alpha virt. eigenvalues --    1.42077   1.42165   1.42407   1.42789   1.42904
 Alpha virt. eigenvalues --    1.43079   1.43688   1.43894   1.44436   1.44679
 Alpha virt. eigenvalues --    1.44802   1.45101   1.45214   1.45548   1.45633
 Alpha virt. eigenvalues --    1.45759   1.46079   1.46396   1.46690   1.46889
 Alpha virt. eigenvalues --    1.47424   1.47476   1.47688   1.47970   1.48314
 Alpha virt. eigenvalues --    1.48986   1.49078   1.49243   1.49324   1.49931
 Alpha virt. eigenvalues --    1.50018   1.50270   1.50802   1.50965   1.51332
 Alpha virt. eigenvalues --    1.51622   1.51772   1.52166   1.52200   1.52260
 Alpha virt. eigenvalues --    1.52902   1.53145   1.53372   1.53565   1.54459
 Alpha virt. eigenvalues --    1.54688   1.55218   1.55494   1.55595   1.56217
 Alpha virt. eigenvalues --    1.56438   1.56724   1.57058   1.57500   1.57972
 Alpha virt. eigenvalues --    1.58258   1.58668   1.58849   1.59099   1.59269
 Alpha virt. eigenvalues --    1.59768   1.60314   1.60660   1.60760   1.61402
 Alpha virt. eigenvalues --    1.61647   1.61958   1.62194   1.62685   1.62983
 Alpha virt. eigenvalues --    1.63528   1.64037   1.64196   1.64813   1.64957
 Alpha virt. eigenvalues --    1.65166   1.65487   1.66111   1.66226   1.66662
 Alpha virt. eigenvalues --    1.66816   1.66885   1.67860   1.68114   1.68257
 Alpha virt. eigenvalues --    1.68438   1.68791   1.69271   1.69412   1.69807
 Alpha virt. eigenvalues --    1.70190   1.70362   1.70830   1.70904   1.71219
 Alpha virt. eigenvalues --    1.71379   1.71448   1.71966   1.72347   1.72401
 Alpha virt. eigenvalues --    1.72640   1.72805   1.73136   1.73280   1.73878
 Alpha virt. eigenvalues --    1.74245   1.74338   1.74759   1.75058   1.75170
 Alpha virt. eigenvalues --    1.75243   1.75367   1.75606   1.75736   1.75807
 Alpha virt. eigenvalues --    1.76045   1.76281   1.76430   1.76816   1.76919
 Alpha virt. eigenvalues --    1.76986   1.77229   1.77341   1.77446   1.77644
 Alpha virt. eigenvalues --    1.77703   1.77849   1.78002   1.78171   1.78379
 Alpha virt. eigenvalues --    1.78468   1.78577   1.78743   1.78783   1.78878
 Alpha virt. eigenvalues --    1.79090   1.79101   1.79491   1.79644   1.79908
 Alpha virt. eigenvalues --    1.80100   1.80240   1.80424   1.80611   1.80684
 Alpha virt. eigenvalues --    1.80835   1.81125   1.81376   1.81566   1.81690
 Alpha virt. eigenvalues --    1.81893   1.81998   1.82295   1.82391   1.82753
 Alpha virt. eigenvalues --    1.82843   1.83010   1.83058   1.83329   1.83485
 Alpha virt. eigenvalues --    1.83561   1.83701   1.83927   1.83965   1.84278
 Alpha virt. eigenvalues --    1.84367   1.84648   1.85127   1.85215   1.85302
 Alpha virt. eigenvalues --    1.85511   1.85611   1.86145   1.86349   1.86374
 Alpha virt. eigenvalues --    1.86575   1.86756   1.86804   1.87103   1.87231
 Alpha virt. eigenvalues --    1.87397   1.87553   1.87857   1.88013   1.88149
 Alpha virt. eigenvalues --    1.88351   1.88464   1.88669   1.88805   1.89139
 Alpha virt. eigenvalues --    1.89366   1.89594   1.89769   1.90161   1.90551
 Alpha virt. eigenvalues --    1.90729   1.90858   1.91152   1.91225   1.91455
 Alpha virt. eigenvalues --    1.91927   1.92063   1.92109   1.92532   1.92677
 Alpha virt. eigenvalues --    1.92716   1.92820   1.92929   1.93285   1.93603
 Alpha virt. eigenvalues --    1.94027   1.94084   1.94351   1.94497   1.94608
 Alpha virt. eigenvalues --    1.94720   1.95051   1.95182   1.95318   1.95559
 Alpha virt. eigenvalues --    1.95932   1.96018   1.96578   1.96877   1.97121
 Alpha virt. eigenvalues --    1.97441   1.97562   1.97844   1.98186   1.98390
 Alpha virt. eigenvalues --    1.98433   1.98620   1.98983   1.99139   1.99385
 Alpha virt. eigenvalues --    1.99528   1.99667   1.99884   2.00019   2.00140
 Alpha virt. eigenvalues --    2.00563   2.00824   2.01160   2.01384   2.01639
 Alpha virt. eigenvalues --    2.01797   2.01978   2.02450   2.02525   2.02812
 Alpha virt. eigenvalues --    2.02924   2.03121   2.03600   2.03676   2.03912
 Alpha virt. eigenvalues --    2.04067   2.04187   2.04440   2.04736   2.04899
 Alpha virt. eigenvalues --    2.05261   2.05354   2.05527   2.05778   2.05931
 Alpha virt. eigenvalues --    2.06329   2.06582   2.06899   2.07116   2.07327
 Alpha virt. eigenvalues --    2.07430   2.07674   2.08115   2.08323   2.08597
 Alpha virt. eigenvalues --    2.08722   2.08910   2.09478   2.09770   2.10172
 Alpha virt. eigenvalues --    2.10504   2.10917   2.11164   2.11426   2.11547
 Alpha virt. eigenvalues --    2.11830   2.12083   2.12259   2.12311   2.12574
 Alpha virt. eigenvalues --    2.12770   2.12873   2.13133   2.13818   2.14019
 Alpha virt. eigenvalues --    2.14476   2.14562   2.14660   2.15082   2.15253
 Alpha virt. eigenvalues --    2.15845   2.16192   2.16250   2.16379   2.16630
 Alpha virt. eigenvalues --    2.16742   2.17144   2.17254   2.17623   2.17927
 Alpha virt. eigenvalues --    2.18481   2.18600   2.18903   2.19204   2.19237
 Alpha virt. eigenvalues --    2.19597   2.19777   2.20154   2.20374   2.20851
 Alpha virt. eigenvalues --    2.21038   2.21606   2.21954   2.22341   2.22535
 Alpha virt. eigenvalues --    2.22988   2.23556   2.23895   2.24220   2.24439
 Alpha virt. eigenvalues --    2.24893   2.25193   2.25285   2.25539   2.25671
 Alpha virt. eigenvalues --    2.26019   2.26717   2.27115   2.27219   2.27557
 Alpha virt. eigenvalues --    2.28186   2.28265   2.28628   2.28932   2.29072
 Alpha virt. eigenvalues --    2.29236   2.29545   2.30064   2.30443   2.30981
 Alpha virt. eigenvalues --    2.31181   2.31405   2.31775   2.32034   2.32398
 Alpha virt. eigenvalues --    2.32838   2.33361   2.33442   2.33683   2.34055
 Alpha virt. eigenvalues --    2.34360   2.34887   2.35597   2.35967   2.36177
 Alpha virt. eigenvalues --    2.36506   2.36575   2.36694   2.37159   2.37549
 Alpha virt. eigenvalues --    2.37898   2.38082   2.38671   2.38916   2.39016
 Alpha virt. eigenvalues --    2.39626   2.39682   2.39866   2.40053   2.40768
 Alpha virt. eigenvalues --    2.41080   2.41498   2.41833   2.42047   2.42465
 Alpha virt. eigenvalues --    2.43059   2.43419   2.43792   2.44118   2.44226
 Alpha virt. eigenvalues --    2.44284   2.44878   2.45371   2.45683   2.45751
 Alpha virt. eigenvalues --    2.46252   2.46522   2.47377   2.47931   2.47961
 Alpha virt. eigenvalues --    2.48109   2.48685   2.49106   2.49184   2.49484
 Alpha virt. eigenvalues --    2.49933   2.50021   2.50444   2.50713   2.51260
 Alpha virt. eigenvalues --    2.51589   2.52013   2.52366   2.52685   2.53223
 Alpha virt. eigenvalues --    2.53471   2.53530   2.53893   2.54379   2.54657
 Alpha virt. eigenvalues --    2.55174   2.55460   2.55585   2.55797   2.55878
 Alpha virt. eigenvalues --    2.56004   2.56446   2.56572   2.57110   2.57152
 Alpha virt. eigenvalues --    2.57361   2.57762   2.58133   2.58650   2.58783
 Alpha virt. eigenvalues --    2.58978   2.59638   2.60344   2.60413   2.60602
 Alpha virt. eigenvalues --    2.60731   2.60898   2.61643   2.61918   2.62379
 Alpha virt. eigenvalues --    2.62545   2.62916   2.62956   2.63305   2.63659
 Alpha virt. eigenvalues --    2.65271   2.65282   2.65534   2.65610   2.66048
 Alpha virt. eigenvalues --    2.66189   2.66312   2.66443   2.66557   2.67065
 Alpha virt. eigenvalues --    2.67308   2.67617   2.67718   2.68017   2.68428
 Alpha virt. eigenvalues --    2.68685   2.69244   2.69446   2.69902   2.70391
 Alpha virt. eigenvalues --    2.70466   2.70566   2.70847   2.71251   2.71461
 Alpha virt. eigenvalues --    2.71775   2.71850   2.72401   2.72515   2.72712
 Alpha virt. eigenvalues --    2.72994   2.73002   2.74226   2.74408   2.74624
 Alpha virt. eigenvalues --    2.74781   2.75010   2.75802   2.76191   2.76299
 Alpha virt. eigenvalues --    2.76385   2.76454   2.76775   2.76927   2.77508
 Alpha virt. eigenvalues --    2.78139   2.78358   2.78474   2.78803   2.79045
 Alpha virt. eigenvalues --    2.79370   2.79603   2.79908   2.79955   2.80284
 Alpha virt. eigenvalues --    2.80427   2.80645   2.80839   2.80912   2.81093
 Alpha virt. eigenvalues --    2.81225   2.81601   2.81693   2.82026   2.82236
 Alpha virt. eigenvalues --    2.82377   2.82941   2.83173   2.83216   2.83287
 Alpha virt. eigenvalues --    2.83565   2.84042   2.84403   2.84836   2.84931
 Alpha virt. eigenvalues --    2.85054   2.85098   2.85610   2.85685   2.86646
 Alpha virt. eigenvalues --    2.86735   2.86827   2.87401   2.87494   2.87790
 Alpha virt. eigenvalues --    2.88017   2.88304   2.88357   2.88409   2.88742
 Alpha virt. eigenvalues --    2.89878   2.90002   2.90274   2.90645   2.90666
 Alpha virt. eigenvalues --    2.91444   2.91598   2.91754   2.92363   2.92624
 Alpha virt. eigenvalues --    2.92803   2.92860   2.93225   2.93466   2.93864
 Alpha virt. eigenvalues --    2.94162   2.94536   2.94956   2.95193   2.95876
 Alpha virt. eigenvalues --    2.96005   2.96506   2.96790   2.96965   2.97071
 Alpha virt. eigenvalues --    2.97217   2.97789   2.98038   2.98337   2.98514
 Alpha virt. eigenvalues --    2.98624   2.99034   2.99234   2.99650   2.99876
 Alpha virt. eigenvalues --    3.00276   3.00324   3.00938   3.01458   3.01615
 Alpha virt. eigenvalues --    3.01886   3.02491   3.02721   3.02916   3.03638
 Alpha virt. eigenvalues --    3.03853   3.03964   3.04745   3.05249   3.05356
 Alpha virt. eigenvalues --    3.05419   3.06609   3.07073   3.07429   3.08045
 Alpha virt. eigenvalues --    3.08363   3.08782   3.09390   3.09480   3.10065
 Alpha virt. eigenvalues --    3.10267   3.10990   3.11877   3.13054   3.13118
 Alpha virt. eigenvalues --    3.13414   3.13524   3.13840   3.13925   3.14715
 Alpha virt. eigenvalues --    3.15322   3.15596   3.15957   3.16434   3.17660
 Alpha virt. eigenvalues --    3.17900   3.18703   3.18728   3.18909   3.19122
 Alpha virt. eigenvalues --    3.19325   3.19545   3.19700   3.19897   3.20156
 Alpha virt. eigenvalues --    3.20242   3.20437   3.20476   3.20720   3.21592
 Alpha virt. eigenvalues --    3.21702   3.21864   3.21887   3.22525   3.23336
 Alpha virt. eigenvalues --    3.23480   3.24311   3.24513   3.24973   3.25381
 Alpha virt. eigenvalues --    3.25854   3.26128   3.26184   3.26298   3.26600
 Alpha virt. eigenvalues --    3.27681   3.27731   3.28514   3.28989   3.29909
 Alpha virt. eigenvalues --    3.31210   3.32082   3.34401   3.34771   3.34972
 Alpha virt. eigenvalues --    3.35999   3.37471   3.40162   3.41125   3.41244
 Alpha virt. eigenvalues --    3.42579   3.42898   3.45180   3.50587   3.51293
 Alpha virt. eigenvalues --    3.52275   3.55152   3.55431   3.56418   3.56620
 Alpha virt. eigenvalues --    3.56798   3.57197   3.57395   3.57929   3.58324
 Alpha virt. eigenvalues --    3.58861   3.59037   3.60216   3.61303   3.62119
 Alpha virt. eigenvalues --    3.63557   3.66987   3.67207   3.67680   3.68036
 Alpha virt. eigenvalues --    3.68532   3.69296   3.69988   3.70843   3.70867
 Alpha virt. eigenvalues --    3.70959   3.71028   3.71374   3.72105   3.72196
 Alpha virt. eigenvalues --    3.72721   3.73199   3.73369   3.74552   3.75825
 Alpha virt. eigenvalues --    3.76251   3.77090   3.79338   3.79582
          Condensed to atoms (all electrons):
 Mulliken charges:
               1
     1  C    0.069003
     2  C   -0.028783
     3  O   -0.304823
     4  H   -0.007158
     5  H    0.045893
     6  H    0.003107
     7  N   -0.121311
     8  C    0.186945
     9  C    0.100602
    10  O   -0.302348
    11  C    0.020579
    12  C    0.036245
    13  O   -0.381108
    14  O   -0.336432
    15  H    0.112361
    16  H   -0.014256
    17  H   -0.016964
    18  H    0.027818
    19  N   -0.105817
    20  C    0.150126
    21  C    0.034356
    22  O   -0.259565
    23  C    0.032441
    24  C    0.018683
    25  C   -0.069337
    26  C    0.053078
    27  N    0.135551
    28  H    0.116627
    29  H   -0.007916
    30  H    0.004106
    31  H   -0.002961
    32  H    0.032932
    33  H    0.025623
    34  H    0.014626
    35  H    0.037195
    36  H    0.075248
    37  H    0.076323
    38  H    0.136572
    39  H    0.139334
    40  H    0.132369
    41  N   -0.135270
    42  C    0.101291
    43  C    0.093328
    44  O   -0.285381
    45  C    0.114732
    46  C    0.099206
    47  O   -0.358519
    48  O   -0.487704
    49  H    0.123669
    50  H    0.034472
    51  H   -0.009468
    52  H   -0.034606
    53  N   -0.131281
    54  C    0.204206
    55  C    0.010717
    56  O   -0.241147
    57  H    0.130760
    58  H    0.010810
    59  H    0.040581
    60  N   -0.132502
    61  C   -0.021814
    62  C    0.084941
    63  O   -0.263108
    64  C    0.133246
    65  C   -0.023728
    66  N   -0.038721
    67  O   -0.266632
    68  H    0.124209
    69  H    0.051228
    70  H   -0.008217
    71  H    0.011564
    72  H    0.131219
    73  H    0.123201
    74  N   -0.154070
    75  C    0.201800
    76  C    0.001473
    77  O   -0.275947
    78  H    0.123406
    79  H    0.082459
    80  H    0.063509
    81  N   -0.096109
    82  C    0.110784
    83  C    0.101222
    84  O   -0.257119
    85  C    0.126061
    86  C    0.038362
    87  C   -0.009834
    88  C   -0.021690
    89  C   -0.019410
    90  C   -0.051743
    91  C    0.173613
    92  O   -0.203680
    93  H    0.117322
    94  H    0.016202
    95  H   -0.019646
    96  H   -0.007813
    97  H   -0.032695
    98  H   -0.027949
    99  H   -0.026760
   100  H   -0.048123
   101  H    0.175509
   102  N   -0.166783
   103  C    0.116979
   104  C    0.073451
   105  O   -0.281100
   106  C   -0.092580
   107  C    0.016766
   108  C    0.060193
   109  C    0.019870
   110  H    0.116357
   111  H    0.029257
   112  H    0.035675
   113  H    0.012340
   114  H   -0.020978
   115  H   -0.038465
   116  H    0.020906
   117  H    0.023697
   118  H   -0.016259
   119  H    0.019973
   120  H    0.023566
   121  N   -0.087854
   122  C    0.072351
   123  C    0.087662
   124  O   -0.291911
   125  C    0.226658
   126  O   -0.291359
   127  H    0.104803
   128  H   -0.003728
   129  H    0.004259
   130  H   -0.003138
   131  H    0.164052
   132  N   -0.098458
   133  C    0.070951
   134  C    0.055025
   135  O   -0.232840
   136  C    0.036812
   137  H    0.120898
   138  H    0.010538
   139  H    0.024223
   140  H    0.024345
   141  H    0.007038
   142  N   -0.132172
   143  C    0.056487
   144  C    0.075715
   145  O   -0.266850
   146  C    0.069522
   147  H    0.116097
   148  H    0.008424
   149  H    0.036304
   150  H    0.017654
   151  H    0.001480
   152  N   -0.138184
   153  C    0.149607
   154  C    0.026004
   155  O   -0.265250
   156  C   -0.042922
   157  C    0.138888
   158  C    0.055006
   159  O   -0.406053
   160  O   -0.435168
   161  H    0.133414
   162  H    0.030033
   163  H    0.037368
   164  H   -0.001904
   165  H    0.002515
   166  H   -0.002736
   167  N   -0.140496
   168  C    0.138396
   169  H    0.013617
   170  H    0.042516
   171  H    0.030204
   172  H    0.092351
   173  Ca   1.392638
   174  O   -0.322138
   175  H    0.206350
   176  H    0.206716
 Sum of Mulliken charges =  -0.00000
 Mulliken charges with hydrogens summed into heavy atoms:
               1
     1  C    0.110844
     2  C   -0.028783
     3  O   -0.304823
     7  N   -0.008950
     8  C    0.172689
     9  C    0.100602
    10  O   -0.302348
    11  C    0.031433
    12  C    0.036245
    13  O   -0.381108
    14  O   -0.336432
    19  N    0.010810
    20  C    0.142210
    21  C    0.034356
    22  O   -0.259565
    23  C    0.033586
    24  C    0.077238
    25  C   -0.017516
    26  C    0.204648
    27  N    0.543825
    41  N   -0.011601
    42  C    0.135763
    43  C    0.093328
    44  O   -0.285381
    45  C    0.070658
    46  C    0.099206
    47  O   -0.358519
    48  O   -0.487704
    53  N   -0.000522
    54  C    0.255597
    55  C    0.010717
    56  O   -0.241147
    60  N   -0.008293
    61  C    0.029414
    62  C    0.084941
    63  O   -0.263108
    64  C    0.136593
    65  C   -0.023728
    66  N    0.215700
    67  O   -0.266632
    74  N   -0.030664
    75  C    0.347769
    76  C    0.001473
    77  O   -0.275947
    81  N    0.021213
    82  C    0.126986
    83  C    0.101222
    84  O   -0.257119
    85  C    0.098601
    86  C    0.038362
    87  C   -0.042528
    88  C   -0.049639
    89  C   -0.046170
    90  C   -0.099867
    91  C    0.173613
    92  O   -0.028171
   102  N   -0.050426
   103  C    0.146236
   104  C    0.073451
   105  O   -0.281100
   106  C   -0.056905
   107  C    0.008128
   108  C    0.066331
   109  C    0.047149
   121  N    0.016949
   122  C    0.068624
   123  C    0.087662
   124  O   -0.291911
   125  C    0.227778
   126  O   -0.127307
   132  N    0.022440
   133  C    0.081490
   134  C    0.055025
   135  O   -0.232840
   136  C    0.092418
   142  N   -0.016076
   143  C    0.064910
   144  C    0.075715
   145  O   -0.266850
   146  C    0.124959
   152  N   -0.004770
   153  C    0.179640
   154  C    0.026004
   155  O   -0.265250
   156  C   -0.007458
   157  C    0.138666
   158  C    0.055006
   159  O   -0.406053
   160  O   -0.435168
   167  N   -0.048145
   168  C    0.224733
   173  Ca   1.392638
   174  O    0.090928
 DipInt: DoE/N= T F RetVal/Mat= T F Init=T NMatP=  1 IDeriv=0 Min/MaxMlt=  0  4
 Entering OneElI...
 OneElI was handed  1333951383 working-precision words.
 Multipole integrals L=0 to 4 MinM= 0 MaxM= 0.
 Requested accuracy = 0.1000D-12
 ShPair: Thresh= 1.00D-13 NBox=     0 BxSize= 0.00D+00 RnKept= 3.02D+01
         NSMCal=               327645 NSMKep=              132814
 PrmmSu-InSpLW:  IPartL=    0 NPrtUS=    1 NPrtUL=    1 DoSpLW=F IThBeg=    0 IThEnd=    0 NThAct=    1.
 PrsmSu:  NPrtUS=   1 ThrOK=F IAlg=1 NPAlg=1 LenDen=           0 ISkipM=0 DoSpLW=F IThBeg=    0 IThEnd=    0.
 Prism:   IPart=     0 DynPar=F LinDyn=F Incr=         512.
 PRISM was handed  1324967197 working-precision words and132814 shell-pairs
 IPart=  0 NShTot=      132814 NBatch=         311 AvBLen=       427.1
 PrsmSu-ThDecC:  IPartSL=    0    0 NPrtUSL=    1    1 IThBeg=    0 IThEnd=    0 CPU=   -1 GPU=   -1 NThAct=    1.
 PrSmSu:  NxtVal=            513.
 Electronic moments (au):
       -716.00000000         -5.86077051         -2.69870956          7.75992868
     -79929.14625971     -31395.55193385     -17689.69959168       -122.52802667
        194.01146330        -64.67137307     173155.00324670     -95344.07257792
     -10185.49492515     -24471.87081018     116473.46501038     -91179.74839113
     -56553.43062316      15307.72429146     -47402.44303497      25091.88300766
  -17389831.23368559   -3539238.64928731   -1307555.71927443      60423.31477353
    -461910.66093771      27775.60369010    -587026.17722232     -91455.37414560
     219494.63981020   -2127139.88060324   -1870836.16460583    -952484.86784316
     859126.98749880    -409572.56064978      86052.91945757
 Electronic spatial extent (au):  <R**2>=         129014.3978
 DipInt: DoE/N= F T RetVal/Mat= T F Init=T NMatP=  1 IDeriv=0 Min/MaxMlt=  0  4
 Nuclear    moments (au):
        716.00000000         -0.00000000          0.00000000          0.00000000
      79566.84092506      31099.19875707      17399.81925525          0.00000000
          0.00000000         -0.00000000    -175765.83858079      95097.72167113
      10894.17187467      25362.19046449    -117369.20168706      94119.07602508
      57553.18220075     -16657.85799853      48045.06884687     -26756.67407817
[...]
 **** Fit      -0.019687
 **** Fit      -0.027394
 **** Fit      -0.001445
 **** Fit      -0.002520
 **** Fit      -0.006222
 **** Fit      -0.012959
 **** Fit       0.007407
 **** Fit       0.009607
 **** Fit       0.010190
 **** Fit       0.008918
 **** Fit       0.005565
 **** Fit      -0.000116
 **** Fit      -0.008394
 **** Fit       0.014817
 **** Fit       0.017887
 **** Fit       0.019616
 **** Fit       0.019904
 **** Fit       0.018646
 **** Fit       0.015726
 **** Fit       0.011011
 **** Fit       0.004377
 **** Fit       0.021238
 **** Fit       0.024903
 **** Fit       0.027179
 **** Fit       0.028099
 **** Fit       0.027648
 **** Fit       0.025779
 **** Fit       0.022425
 **** Fit       0.017517
 **** Fit       0.011025
 **** Fit       0.026271
 **** Fit       0.030435
 **** Fit       0.033168
 **** Fit       0.034605
 **** Fit       0.034803
 **** Fit       0.033767
 **** Fit       0.031473
 **** Fit       0.027886
 **** Fit       0.022979
 **** Fit       0.016779
 **** Fit       0.021380
 **** Fit       0.028445
 **** Fit       0.033521
 **** Fit       0.037044
 **** Fit       0.039259
 **** Fit       0.040293
 **** Fit       0.040201
 **** Fit       0.038994
 **** Fit       0.036658
 **** Fit       0.033169
 **** Fit       0.028517
 **** Fit       0.022730
 **** Fit      -0.026198
 **** Fit      -0.020479
 **** Fit      -0.015758
 **** Fit      -0.012130
 **** Fit      -0.010300
 **** Fit      -0.011189
 **** Fit      -0.015266
 **** Fit       0.030123
 **** Fit       0.035700
 **** Fit       0.039714
 **** Fit       0.042465
 **** Fit       0.044120
 **** Fit       0.044759
 **** Fit       0.044413
 **** Fit       0.043082
 **** Fit       0.040750
 **** Fit       0.037397
 **** Fit       0.033010
 **** Fit       0.027603
 **** Fit       0.021233
 **** Fit      -0.025279
 **** Fit      -0.018324
 **** Fit      -0.012888
 **** Fit      -0.008535
 **** Fit      -0.005318
 **** Fit      -0.003726
 **** Fit      -0.004331
 **** Fit      -0.007340
 **** Fit      -0.012377
 **** Fit      -0.018703
 **** Fit       0.033789
 **** Fit       0.038931
 **** Fit       0.042726
 **** Fit       0.045425
 **** Fit       0.047160
 **** Fit       0.047985
 **** Fit       0.047913
 **** Fit       0.046931
 **** Fit       0.045013
 **** Fit       0.042133
 **** Fit       0.038266
 **** Fit       0.033401
 **** Fit       0.027546
 **** Fit       0.020751
 **** Fit      -0.017372
 **** Fit      -0.010579
 **** Fit      -0.005268
 **** Fit      -0.001032
 **** Fit       0.002111
 **** Fit       0.003843
 **** Fit       0.003839
 **** Fit       0.002033
 **** Fit      -0.001302
 **** Fit      -0.005733
 **** Fit       0.038669
 **** Fit       0.042395
 **** Fit       0.045352
 **** Fit       0.047624
 **** Fit       0.049219
 **** Fit       0.050107
 **** Fit       0.050243
 **** Fit       0.049577
 **** Fit       0.048060
 **** Fit       0.045649
 **** Fit       0.042307
 **** Fit       0.038008
 **** Fit       0.032737
 **** Fit       0.026503
 **** Fit      -0.016158
 **** Fit      -0.007959
 **** Fit      -0.001563
 **** Fit       0.003571
 **** Fit       0.007714
 **** Fit       0.010808
 **** Fit       0.012636
 **** Fit       0.013048
 **** Fit       0.012100
 **** Fit       0.010040
 **** Fit       0.007200
 **** Fit       0.047278
 **** Fit       0.048651
 **** Fit       0.049940
 **** Fit       0.050908
 **** Fit       0.051369
 **** Fit       0.051185
 **** Fit       0.050249
 **** Fit       0.048483
 **** Fit       0.045826
 **** Fit       0.042235
 **** Fit       0.037679
 **** Fit       0.032141
 **** Fit       0.025635
 **** Fit      -0.005173
 **** Fit       0.002041
 **** Fit       0.007985
 **** Fit       0.012979
 **** Fit       0.017154
 **** Fit       0.020442
 **** Fit       0.022722
 **** Fit       0.023957
 **** Fit       0.050482
 **** Fit       0.051058
 **** Fit       0.051282
 **** Fit       0.050925
 **** Fit       0.049836
 **** Fit       0.047916
 **** Fit       0.045098
 **** Fit       0.041339
 **** Fit       0.036611
 **** Fit       0.030897
 **** Fit       0.024188
 **** Fit      -0.006815
 **** Fit       0.000861
 **** Fit       0.008054
 **** Fit       0.014409
 **** Fit       0.020033
 **** Fit       0.025061
 **** Fit       0.029508
 **** Fit       0.049809
 **** Fit       0.049818
 **** Fit       0.049081
 **** Fit       0.047450
 **** Fit       0.044841
 **** Fit       0.041209
 **** Fit       0.036530
 **** Fit       0.030794
 **** Fit       0.023985
 **** Fit       0.016075
 **** Fit       0.002941
 **** Fit      -0.000807
 **** Fit      -0.000858
 **** Fit       0.002589
 **** Fit       0.008231
 **** Fit       0.014655
 **** Fit       0.021058
 **** Fit       0.027244
 **** Fit       0.033296
 **** Fit       0.047328
 **** Fit       0.047206
 **** Fit       0.046064
 **** Fit       0.043820
 **** Fit       0.040452
 **** Fit       0.035974
 **** Fit       0.030432
 **** Fit       0.023918
 **** Fit       0.016671
 **** Fit       0.009286
 **** Fit       0.014824
 **** Fit       0.012577
 **** Fit       0.013217
 **** Fit       0.016532
 **** Fit       0.021652
 **** Fit       0.027735
 **** Fit       0.034404
 **** Fit       0.044195
 **** Fit       0.043832
 **** Fit       0.042172
 **** Fit       0.039272
 **** Fit       0.035246
 **** Fit       0.030290
 **** Fit       0.024750
 **** Fit       0.019262
 **** Fit       0.024444
 **** Fit       0.023513
 **** Fit       0.025111
 **** Fit       0.029093
 **** Fit       0.034969
 **** Fit       0.040378
 **** Fit       0.038349
 **** Fit       0.035147
 **** Fit       0.031245
 **** Fit       0.027353
 **** Fit       0.031965
 **** Fit       0.032479
 **** Fit       0.035495
 **** Fit       0.033317
 **** Fit       0.009466
 **** Fit       0.002799
 **** Fit       0.044586
 **** Fit       0.013428
 **** Fit       0.010183
 **** Fit       0.008279
 **** Fit       0.041437
 **** Fit       0.044516
 **** Fit       0.048636
 **** Fit       0.037720
 **** Fit       0.039203
 **** Fit       0.041524
 **** Fit       0.044657
 **** Fit       0.034392
 **** Fit       0.033891
 **** Fit       0.034104
 **** Fit       0.035026
 **** Fit       0.036612
 **** Fit       0.038765
 **** Fit       0.041334
 **** Fit       0.044093
 **** Fit       0.035587
 **** Fit       0.032510
 **** Fit       0.031042
 **** Fit       0.030207
 **** Fit       0.030013
 **** Fit       0.030425
 **** Fit       0.031361
 **** Fit       0.032697
 **** Fit       0.034258
 **** Fit       0.035820
 **** Fit       0.037136
 **** Fit       0.037968
 **** Fit       0.030361
 **** Fit       0.030849
 **** Fit       0.031955
 **** Fit       0.031247
 **** Fit       0.029186
 **** Fit       0.027659
 **** Fit       0.026701
 **** Fit       0.026298
 **** Fit       0.026397
 **** Fit       0.026903
 **** Fit       0.027686
 **** Fit       0.028587
 **** Fit       0.029430
 **** Fit       0.030059
 **** Fit       0.030379
 **** Fit       0.030410
 **** Fit       0.030312
 **** Fit       0.027897
 **** Fit       0.029388
 **** Fit       0.029698
 **** Fit       0.027364
 **** Fit       0.025531
 **** Fit       0.024248
 **** Fit       0.023512
 **** Fit       0.023273
 **** Fit       0.023443
 **** Fit       0.023901
 **** Fit       0.024512
 **** Fit       0.025150
 **** Fit       0.025740
 **** Fit       0.026294
 **** Fit       0.026941
 **** Fit       0.027246
 **** Fit       0.032458
 **** Fit       0.029536
 **** Fit       0.026884
 **** Fit       0.024685
 **** Fit       0.023039
 **** Fit       0.021974
 **** Fit       0.021462
 **** Fit       0.021429
 **** Fit       0.021772
 **** Fit       0.022384
 **** Fit       0.023191
 **** Fit       0.024193
 **** Fit       0.025487
 **** Fit       0.027682
 **** Fit       0.040528
 **** Fit       0.035844
 **** Fit       0.032968
 **** Fit       0.029980
 **** Fit       0.027153
 **** Fit       0.024718
 **** Fit       0.022833
 **** Fit       0.021569
 **** Fit       0.020931
 **** Fit       0.020869
 **** Fit       0.021308
 **** Fit       0.022185
 **** Fit       0.023485
 **** Fit       0.025275
 **** Fit       0.038159
 **** Fit       0.035320
 **** Fit       0.032266
 **** Fit       0.029190
 **** Fit       0.026376
 **** Fit       0.024083
 **** Fit       0.022487
 **** Fit       0.021662
 **** Fit       0.021608
 **** Fit       0.022285
 **** Fit       0.023669
 **** Fit       0.025789
 **** Fit       0.036988
 **** Fit       0.033606
 **** Fit       0.030226
 **** Fit       0.027190
 **** Fit       0.024885
 **** Fit       0.023595
 **** Fit       0.023451
 **** Fit       0.024478
 **** Fit       0.026676
 **** Fit       0.032108
 **** Fit       0.028741
 **** Fit       0.026601
 **** Fit       0.026250
 **** Fit       0.027895
 **** Fit       0.031004
 **** Fit       0.029807
 **** Fit       0.009462
 **** Fit       0.016018
 **** Fit       0.022958
 **** Fit       0.030686
 **** Fit       0.039860
 **** Fit      -0.000734
 **** Fit       0.003125
 **** Fit       0.007256
 **** Fit       0.011518
 **** Fit       0.015875
 **** Fit       0.020363
 **** Fit       0.025088
 **** Fit       0.030240
 **** Fit       0.036126
 **** Fit       0.008227
 **** Fit       0.006134
 **** Fit       0.005579
 **** Fit       0.006220
 **** Fit       0.007746
 **** Fit       0.009878
 **** Fit       0.012381
 **** Fit       0.015092
 **** Fit       0.017921
 **** Fit       0.020831
 **** Fit       0.023828
 **** Fit       0.026949
 **** Fit       0.030271
 **** Fit       0.033917
 **** Fit       0.038074
 **** Fit       0.020377
 **** Fit       0.017466
 **** Fit       0.015988
 **** Fit       0.015612
 **** Fit       0.016060
 **** Fit       0.017095
 **** Fit       0.018521
 **** Fit       0.020187
 **** Fit       0.021994
 **** Fit       0.023883
 **** Fit       0.025827
 **** Fit       0.027818
 **** Fit       0.029867
 **** Fit       0.032005
 **** Fit       0.034278
 **** Fit       0.028479
 **** Fit       0.025461
 **** Fit       0.023805
 **** Fit       0.023148
 **** Fit       0.023207
 **** Fit       0.023759
 **** Fit       0.024630
 **** Fit       0.025696
 **** Fit       0.026869
 **** Fit       0.028094
 **** Fit       0.029335
 **** Fit       0.030568
 **** Fit       0.031779
 **** Fit       0.032953
 **** Fit       0.034074
 **** Fit       0.033535
 **** Fit       0.030773
 **** Fit       0.029242
 **** Fit       0.028566
 **** Fit       0.028467
 **** Fit       0.028742
 **** Fit       0.029239
 **** Fit       0.029853
 **** Fit       0.030505
 **** Fit       0.031137
 **** Fit       0.031696
 **** Fit       0.032132
 **** Fit       0.032380
 **** Fit       0.036923
 **** Fit       0.034439
 **** Fit       0.033007
 **** Fit       0.032272
 **** Fit       0.031982
 **** Fit       0.031955
 **** Fit       0.032058
 **** Fit       0.032187
 **** Fit       0.032259
 **** Fit       0.032195
 **** Fit       0.031907
 **** Fit       0.039722
 **** Fit       0.037107
 **** Fit       0.035535
 **** Fit       0.034609
 **** Fit       0.034051
 **** Fit       0.033661
 **** Fit       0.033283
 **** Fit       0.032788
 **** Fit       0.032048
 **** Fit       0.041113
 **** Fit       0.038506
 **** Fit       0.036841
 **** Fit       0.035701
 **** Fit       0.034789
 **** Fit       0.033884
 **** Fit       0.032800
 **** Fit       0.040119
 **** Fit       0.037910
 **** Fit       0.036276
 **** Fit       0.034816
 **** Fit       0.024591
 **** Fit       0.019715
 **** Fit       0.016072
 **** Fit       0.032553
 **** Fit       0.027937
 **** Fit       0.024333
 **** Fit       0.021553
 **** Fit       0.019528
 **** Fit       0.018312
 **** Fit       0.018056
 **** Fit       0.019010
 **** Fit       0.035996
 **** Fit       0.031866
 **** Fit       0.028555
 **** Fit       0.026034
 **** Fit       0.024211
 **** Fit       0.022951
 **** Fit       0.022159
 **** Fit       0.021824
 **** Fit       0.022023
 **** Fit       0.022898
 **** Fit       0.024679
 **** Fit       0.032949
 **** Fit       0.030160
 **** Fit       0.027894
 **** Fit       0.026168
 **** Fit       0.025002
 **** Fit       0.024353
 **** Fit       0.024121
 **** Fit       0.024210
 **** Fit       0.024580
 **** Fit       0.025260
 **** Fit       0.026340
 **** Fit       0.027967
 **** Fit       0.030357
 **** Fit       0.030690
 **** Fit       0.028782
 **** Fit       0.027250
 **** Fit       0.026112
 **** Fit       0.025403
 **** Fit       0.025146
 **** Fit       0.025300
 **** Fit       0.025772
 **** Fit       0.026475
 **** Fit       0.027375
 **** Fit       0.028497
 **** Fit       0.029920
 **** Fit       0.031775
 **** Fit       0.034235
 **** Fit       0.037497
 **** Fit       0.029487
 **** Fit       0.028279
 **** Fit       0.027264
 **** Fit       0.026538
 **** Fit       0.026141
 **** Fit       0.026113
 **** Fit       0.026460
 **** Fit       0.027131
 **** Fit       0.028038
 **** Fit       0.029112
 **** Fit       0.030334
 **** Fit       0.031739
 **** Fit       0.033405
 **** Fit       0.035444
 **** Fit       0.037965
 **** Fit       0.041019
 **** Fit       0.028261
 **** Fit       0.027729
 **** Fit       0.027327
 **** Fit       0.027149
 **** Fit       0.027245
 **** Fit       0.027645
 **** Fit       0.028341
 **** Fit       0.029278
 **** Fit       0.030383
 **** Fit       0.031607
 **** Fit       0.032942
 **** Fit       0.034418
 **** Fit       0.036090
 **** Fit       0.038001
 **** Fit       0.040133
 **** Fit       0.042332
 **** Fit       0.028713
 **** Fit       0.028246
 **** Fit       0.028164
 **** Fit       0.028196
 **** Fit       0.028440
 **** Fit       0.028944
 **** Fit       0.029718
 **** Fit       0.030723
 **** Fit       0.031893
 **** Fit       0.033167
 **** Fit       0.034517
 **** Fit       0.035949
 **** Fit       0.037464
 **** Fit       0.039013
 **** Fit       0.040422
 **** Fit       0.041346
 **** Fit       0.028260
 **** Fit       0.028880
 **** Fit       0.029119
 **** Fit       0.029478
 **** Fit       0.030042
 **** Fit       0.030843
 **** Fit       0.031858
 **** Fit       0.033023
 **** Fit       0.034266
 **** Fit       0.035535
 **** Fit       0.036783
 **** Fit       0.037929
 **** Fit       0.038794
 **** Fit       0.039070
 **** Fit       0.028194
 **** Fit       0.028620
 **** Fit       0.029845
 **** Fit       0.030317
 **** Fit       0.030957
 **** Fit       0.031819
 **** Fit       0.032882
 **** Fit       0.034065
 **** Fit       0.035254
 **** Fit       0.036331
 **** Fit       0.037129
 **** Fit       0.037389
 **** Fit       0.036801
 **** Fit       0.035230
 **** Fit       0.028908
 **** Fit       0.029067
 **** Fit       0.029441
 **** Fit       0.030965
 **** Fit       0.031659
 **** Fit       0.032635
 **** Fit       0.033817
 **** Fit       0.034988
 **** Fit       0.035831
 **** Fit       0.035949
 **** Fit       0.035007
 **** Fit       0.033209
 **** Fit       0.031467
 **** Fit       0.030589
 **** Fit       0.030554
 **** Fit       0.032153
 **** Fit       0.033144
 **** Fit       0.034349
 **** Fit       0.034629
 **** Fit       0.033372
 **** Fit       0.032103
 **** Fit       0.033374
 -----------------------------------------------------------------
 Leave Link  602 at Thu Sep 19 17:20:28 2019, MaxMem=  1342177280 cpu:             126.0 elap:               2.7

 Test job not archived.
 1\1\GINC-C506-132\SP\RB3LYP\SVP\C54H83Ca1N15O23\PENGZHI\19-Sep-2019\0\
 \#b3lyp/svp scf=(tight,noincore,xqc) Test #IOP(5/87=12) Density=Curren
 t Pop=(MK,readradii) iop(6/33=2) iop(6/42=6)\\Ng-31_loop3_13.0\\0,1\C,
 0,87.53,73.99,28.25\C,0,87.45,73.14,29.52\O,0,86.41,73.15,30.17\H,0,88
 .562,74.301,28.086\H,0,87.188,73.403,27.397\H,0,86.899,74.872,28.362\N
 ,0,88.4,72.27,29.85\C,0,88.3,71.39,31.\C,0,88.42,72.1,32.34\O,0,87.82,
 71.6,33.28\C,0,89.2,70.16,30.88\C,0,90.65,70.36,30.46\O,0,91.11,71.52,
 30.41\O,0,91.39,69.45,30.03\H,0,89.23,72.27,29.27\H,0,87.3,70.95,30.98
 \H,0,88.72,69.42,30.24\H,0,89.25,69.68,31.85\N,0,89.08,73.25,32.48\C,0
 ,89.23,73.88,33.78\C,0,90.1,73.14,34.78\O,0,91.21,72.71,34.45\C,0,89.6
 9,75.33,33.59\C,0,89.24,76.01,32.3\C,0,89.62,77.49,32.32\C,0,88.9,78.2
 1,31.18\N,0,89.55,79.49,30.87\H,0,89.67,73.56,31.72\H,0,88.24,73.92,34
 .24\H,0,90.74,75.43,33.83\H,0,89.27,75.86,34.44\H,0,88.16,75.94,32.27\
 H,0,89.65,75.58,31.38\H,0,90.68,77.52,32.09\H,0,89.53,77.94,33.31\H,0,
 87.91,78.37,31.59\H,0,88.82,77.64,30.25\H,0,90.54,79.28,30.96\H,0,89.3
 7,79.92,29.98\H,0,89.47,80.16,31.62\N,0,89.63,72.95,36.01\C,0,90.14,72
 .06,37.03\C,0,89.66,70.62,36.95\O,0,90.12,69.74,37.67\C,0,90.11,72.65,
 38.44\C,0,88.69,72.94,38.91\O,0,88.16,74.01,38.53\O,0,88.03,72.17,39.6
 4\H,0,88.74,73.41,36.18\H,0,91.22,72.01,36.91\H,0,90.67,73.58,38.56\H,
 0,90.61,71.99,39.14\N,0,88.83,70.4,35.93\C,0,88.18,69.14,35.6\C,0,88.8
 3,68.46,34.4\O,0,90.04,68.55,34.23\H,0,88.49,71.16,35.36\H,0,87.15,69.
 3,35.31\H,0,88.11,68.5,36.47\N,0,88.14,67.64,33.6\C,0,86.84,67.,33.74\
 C,0,86.07,66.92,32.43\O,0,85.93,65.84,31.86\C,0,87.16,65.61,34.27\C,0,
 87.8,65.59,35.65\N,0,89.08,65.2,35.69\O,0,87.16,65.74,36.68\H,0,88.63,
 67.3,32.79\H,0,86.31,67.39,34.6\H,0,87.78,65.04,33.56\H,0,86.23,65.06,
 34.41\H,0,89.6,65.05,34.83\H,0,89.35,65.,36.64\N,0,85.41,67.99,31.99\C
 ,0,85.44,69.35,32.48\C,0,84.36,69.73,33.48\O,0,84.47,70.86,33.95\H,0,8
 4.91,67.68,31.16\H,0,85.4,70.08,31.66\H,0,86.37,69.42,33.05\N,0,83.49,
 68.82,33.94\C,0,82.39,69.23,34.78\C,0,82.81,69.19,36.24\O,0,83.81,68.5
 4,36.54\C,0,81.2,68.3,34.55\C,0,80.43,68.36,33.26\C,0,79.84,69.52,32.7
 4\C,0,80.17,67.16,32.58\C,0,79.07,69.57,31.57\C,0,79.43,67.2,31.39\C,0
 ,78.86,68.37,30.85\O,0,78.05,68.42,29.75\H,0,83.61,67.88,33.59\H,0,82.
 1,70.26,34.54\H,0,80.47,68.58,35.32\H,0,81.41,67.27,34.81\H,0,79.93,70
 .45,33.28\H,0,80.45,66.18,32.94\H,0,78.58,70.49,31.31\H,0,79.23,66.28,
 30.87\H,0,77.62,67.57,29.65\N,0,82.08,69.91,37.1\C,0,82.51,70.1,38.47\
 C,0,81.77,69.23,39.48\O,0,82.16,69.35,40.64\C,0,82.51,71.56,38.92\C,0,
 83.49,72.37,38.08\C,0,81.11,72.17,38.87\C,0,84.93,71.85,38.01\H,0,81.1
 5,70.23,36.88\H,0,83.51,69.67,38.5\H,0,82.95,71.59,39.92\H,0,83.57,73.
 34,38.57\H,0,83.11,72.49,37.07\H,0,80.56,71.86,37.98\H,0,80.54,71.8,39
 .73\H,0,81.19,73.26,38.91\H,0,85.19,71.45,38.98\H,0,84.98,71.11,37.2\H
 ,0,85.68,72.6,37.74\N,0,80.66,68.58,39.14\C,0,79.78,67.86,40.04\C,0,79
 .04,68.88,40.91\O,0,78.45,69.86,40.46\C,0,78.75,66.99,39.33\O,0,79.61,
 66.06,38.71\H,0,80.35,68.58,38.18\H,0,80.34,67.13,40.61\H,0,78.11,67.5
 3,38.62\H,0,78.07,66.56,40.06\H,0,79.1,65.24,38.69\N,0,78.97,68.58,42.
 2\C,0,78.33,69.35,43.25\C,0,79.23,70.32,43.99\O,0,80.44,70.27,43.82\C,
 0,77.71,68.41,44.29\H,0,79.57,67.84,42.54\H,0,77.49,69.89,42.82\H,0,77
 .17,67.67,43.69\H,0,78.46,67.9,44.89\H,0,77.04,69.01,44.91\N,0,78.66,7
 1.13,44.89\C,0,79.32,72.15,45.67\C,0,80.29,73.17,45.09\O,0,81.04,73.79
 ,45.84\C,0,79.67,71.55,47.03\H,0,77.66,71.08,45.\H,0,78.49,72.83,45.89
 \H,0,80.74,71.36,46.96\H,0,79.59,72.26,47.86\H,0,79.09,70.65,47.26\N,0
 ,80.37,73.29,43.76\C,0,81.16,74.31,43.09\C,0,80.43,75.15,42.05\O,0,81.
 04,75.75,41.17\C,0,82.4,73.68,42.49\C,0,83.53,73.26,43.43\C,0,84.57,72
 .43,42.71\O,0,85.1,72.79,41.64\O,0,84.95,71.33,43.16\H,0,79.89,72.63,4
 3.16\H,0,81.61,74.98,43.82\H,0,82.84,74.36,41.76\H,0,82.2,72.88,41.78\
 H,0,83.13,72.67,44.26\H,0,83.95,74.15,43.9\N,0,79.1,75.3,42.13\C,0,78.
 15,75.88,41.21\H,0,77.277,76.229,41.762\H,0,78.612,76.72,40.692\H,0,77
 .842,75.129,40.483\H,0,78.79,74.89,43.\Ca,0,87.29,71.26,41.84\O,0,87.6
 6,69.33,43.61\H,0,87.06,69.45,44.34\H,0,87.6,68.39,43.41\\Version=ES64
 L-G16RevA.03\State=1-A\HF=-5333.3284533\RMSD=1.471e-09\Dipole=-5.99959
 4,7.5071488,3.0815169\Quadrupole=-77.1694864,101.2030418,-24.0335554,1
 41.7932289,16.9592544,-172.2259502\PG=C01 [X(C54H83Ca1N15O23)]\\@


 THERE IS NO SCIENCE WITHOUT FANCY, NOR ART WITHOUT FACTS.
     -- VLADIMIR NABAKOV
 Job cpu time:       1 days  5 hours 16 minutes 23.1 seconds.
 Elapsed time:       0 days  0 hours 37 minutes 15.9 seconds.
 File lengths (MBytes):  RWF=   1591 Int=      0 D2E=      0 Chk=    171 Scr=      1
 Normal termination of Gaussian 16 at Thu Sep 19 17:20:30 2019.
