 Entering Gaussian System, Link 0=g16
 Initial command:
 /share/apps/gaussian16/c.01/g16/l1.exe "/project/cheung/pzhang5/SPQM_Ca/Ca1.0-ML/QM/holoCaM.loop2.water1.frame19/Gau-38937.inp" -scrdir="/project/cheung/pzhang5/SPQM_Ca/Ca1.0-ML/QM/holoCaM.loop2.water1.frame19/"
 Entering Link 1 = /share/apps/gaussian16/c.01/g16/l1.exe PID=     38942.
  
 Copyright (c) 1988-2019, Gaussian, Inc.  All Rights Reserved.
  
 This is part of the Gaussian(R) 16 program.  It is based on
 the Gaussian(R) 09 system (copyright 2009, Gaussian, Inc.),
 the Gaussian(R) 03 system (copyright 2003, Gaussian, Inc.),
 the Gaussian(R) 98 system (copyright 1998, Gaussian, Inc.),
 the Gaussian(R) 94 system (copyright 1995, Gaussian, Inc.),
 the Gaussian 92(TM) system (copyright 1992, Gaussian, Inc.),
 the Gaussian 90(TM) system (copyright 1990, Gaussian, Inc.),
 the Gaussian 88(TM) system (copyright 1988, Gaussian, Inc.),
 the Gaussian 86(TM) system (copyright 1986, Carnegie Mellon
 University), and the Gaussian 82(TM) system (copyright 1983,
 Carnegie Mellon University). Gaussian is a federally registered
 trademark of Gaussian, Inc.
  
 This software contains proprietary and confidential information,
 including trade secrets, belonging to Gaussian, Inc.
  
 This software is provided under written license and may be
 used, copied, transmitted, or stored only in accord with that
 written license.
  
 The following legend is applicable only to US Government
 contracts under FAR:
  
                    RESTRICTED RIGHTS LEGEND
  
 Use, reproduction and disclosure by the US Government is
 subject to restrictions as set forth in subparagraphs (a)
 and (c) of the Commercial Computer Software - Restricted
 Rights clause in FAR 52.227-19.
  
 Gaussian, Inc.
 340 Quinnipiac St., Bldg. 40, Wallingford CT 06492
  
  
 ---------------------------------------------------------------
 Warning -- This program may not be used in any manner that
 competes with the business of Gaussian, Inc. or will provide
 assistance to any competitor of Gaussian, Inc.  The licensee
 of this program is prohibited from giving any competitor of
 Gaussian, Inc. access to this program.  By using this program,
 the user acknowledges that Gaussian, Inc. is engaged in the
 business of creating and licensing software in the field of
 computational chemistry and represents and warrants to the
 licensee that it is not a competitor of Gaussian, Inc. and that
 it will not use this program in any manner prohibited above.
 ---------------------------------------------------------------
  

 Cite this work as:
 Gaussian 16, Revision C.01,
 M. J. Frisch, G. W. Trucks, H. B. Schlegel, G. E. Scuseria, 
 M. A. Robb, J. R. Cheeseman, G. Scalmani, V. Barone, 
 G. A. Petersson, H. Nakatsuji, X. Li, M. Caricato, A. V. Marenich, 
 J. Bloino, B. G. Janesko, R. Gomperts, B. Mennucci, H. P. Hratchian, 
 J. V. Ortiz, A. F. Izmaylov, J. L. Sonnenberg, D. Williams-Young, 
 F. Ding, F. Lipparini, F. Egidi, J. Goings, B. Peng, A. Petrone, 
 T. Henderson, D. Ranasinghe, V. G. Zakrzewski, J. Gao, N. Rega, 
 G. Zheng, W. Liang, M. Hada, M. Ehara, K. Toyota, R. Fukuda, 
 J. Hasegawa, M. Ishida, T. Nakajima, Y. Honda, O. Kitao, H. Nakai, 
 T. Vreven, K. Throssell, J. A. Montgomery, Jr., J. E. Peralta, 
 F. Ogliaro, M. J. Bearpark, J. J. Heyd, E. N. Brothers, K. N. Kudin, 
 V. N. Staroverov, T. A. Keith, R. Kobayashi, J. Normand, 
 K. Raghavachari, A. P. Rendell, J. C. Burant, S. S. Iyengar, 
 J. Tomasi, M. Cossi, J. M. Millam, M. Klene, C. Adamo, R. Cammi, 
 J. W. Ochterski, R. L. Martin, K. Morokuma, O. Farkas, 
 J. B. Foresman, and D. J. Fox, Gaussian, Inc., Wallingford CT, 2019.
 
 ******************************************
 Gaussian 16:  ES64L-G16RevC.01  3-Jul-2019
                23-Nov-2020 
 ******************************************
 %chk=holoCaM.loop2.water1.frame19.chk
 %nprocshared=12
 Will use up to   12 processors via shared memory.
 %mem=10GB
 %nosave
 ----------------------------------------------------------------------
 #b3lyp/svp scf=(tight,noincore,xqc) Test #IOP(5/87=12) Density=Current
  Pop=(MK,readradii) iop(6/33=2) iop(6/42=6)
 ----------------------------------------------------------------------
 1/30=1,38=1,172=1/1;
 2/12=2,17=6,18=5,40=1/2;
 3/5=18,7=101,11=2,25=1,30=1,74=-5/1,2,3;
 4//1;
 5/5=4,8=3,13=1,32=2,38=5,87=12/2,8;
 6/7=2,8=2,9=2,10=2,15=8,20=101,22=-1,28=1,33=2,42=6/1,2;
 99/5=1,9=1/99;
 ----------------------------
 holoCaM.loop2.water1.frame19
 ----------------------------
 Symbolic Z-matrix:
 Charge = -2 Multiplicity = 1
 C                     65.03     2.1       9.42 
 C                     64.66     1.43      8.06 
 O                     63.96     2.03      7.22 
 H                     65.867    2.782     9.272 
 H                     64.171    2.655     9.798 
 H                     65.311    1.331     10.14 
 N                     65.18     0.24      7.76 
 C                     64.89    -0.57      6.6 
 C                     63.39    -0.91      6.55 
 O                     62.84    -1.44      7.53 
 C                     65.78    -1.85      6.61 
 C                     65.37    -2.74      5.51 
 O                     65.1     -3.92      5.8 
 O                     65.21    -2.27      4.34 
 H                     65.72    -0.24      8.47 
 H                     65.14    -0.01      5.69 
 H                     65.68    -2.22      7.63 
 H                     66.84    -1.63      6.55 
 N                     62.84    -0.92      5.31 
 C                     61.56    -1.5       5. 
 C                     61.66    -2.77      4.14 
 O                     60.58    -3.38      3.97 
 C                     60.7     -0.48      4.35 
 H                     63.32    -0.57      4.5 
 H                     61.16    -1.86      5.95 
 H                     61.17    -0.16      3.43 
 H                     59.74    -0.9       4.03 
 H                     60.46     0.42      4.91 
 N                     62.8     -3.2       3.51 
 C                     62.9     -4.16      2.32 
 C                     64.15    -5.08      2.37 
 O                     64.21    -6.09      1.63 
 C                     62.91    -3.4       1. 
 C                     63.98    -2.31      0.85 
 O                     65.19    -2.53      1.13 
 O                     63.6     -1.21      0.38 
 H                     63.63    -2.68      3.72 
 H                     62.06    -4.86      2.34 
 H                     61.9     -3.03      0.86 
 H                     63.17    -4.13      0.23 
 N                     65.21    -4.88      3.19 
 C                     66.25    -5.88      3.41 
 C                     67.43    -5.76      2.39 
 O                     68.39    -6.54      2.37 
 H                     65.16    -4.14      3.89 
 H                     65.82    -6.88      3.32 
 H                     66.68    -5.77      4.41 
 N                     67.31    -4.84      1.44 
 C                     68.34    -4.52      0.42 
 C                     69.68    -4.04      1.05 
 O                     70.55    -3.64      0.23 
 C                     67.79    -3.43     -0.59 
 C                     67.82    -2.       -0.2 
 N                     67.3     -1.22     -1.09 
 O                     68.15    -1.59      0.91 
 H                     66.52    -4.22      1.38 
 H                     68.51    -5.36     -0.25 
 H                     66.78    -3.68     -0.91 
 H                     68.26    -3.52     -1.57 
 H                     66.79    -1.62     -1.86 
 H                     67.04    -0.27     -0.87 
 N                     69.92    -4.09      2.38 
 C                     71.29    -3.81      2.9 
 C                     71.67    -2.36      3.03 
 O                     72.72    -2.        3.54 
 H                     69.23    -4.4       3.04 
 H                     72.13    -4.21      2.34 
 H                     71.35    -4.21      3.91 
 N                     70.75    -1.43      2.59 
 C                     71.07    -0.06      2.26 
 C                     69.91     0.87      2.52 
 O                     68.73     0.53      2.43 
 C                     71.56     0.16      0.87 
 C                     72.99    -0.38      0.64 
 O                     70.76    -0.47     -0.17 
 H                     69.8     -1.74      2.41 
 H                     71.77     0.25      3.04 
 H                     71.52     1.23      0.67 
 H                     70.43    -1.28      0.22 
 H                     73.44     0.19     -0.16 
 H                     73.6     -0.1       1.49 
 H                     73.02    -1.47      0.6 
 N                     70.22     2.18      2.82 
 C                     69.16     3.18      3.23 
 C                     68.59     3.73      1.9 
 O                     69.36     4.4       1.2 
 C                     69.78     4.23      4.18 
 C                     70.55     3.65      5.39 
 C                     68.77     5.32      4.62 
 C                     70.94     4.62      6.54 
 H                     71.22     2.32      2.75 
 H                     68.4      2.64      3.8 
 H                     70.47     4.8       3.56 
 H                     71.39     3.06      5.01 
 H                     69.91     2.95      5.92 
 H                     68.18     4.94      5.46 
 H                     69.28     6.22      4.97 
 H                     68.11     5.6       3.8 
 H                     71.62     5.36      6.12 
 H                     69.99     4.96      6.93 
 H                     71.55     4.06      7.25 
 N                     67.3      3.41      1.57 
 C                     66.57     4.16      0.59 
 C                     66.09     5.52      1.09 
 O                     65.9      5.79      2.28 
 C                     65.42     3.22     -0.01 
 C                     65.86     1.78     -0.31 
 O                     65.91     0.94      0.63 
 O                     66.02     1.43     -1.49 
 H                     66.86     2.67      2.09 
 H                     67.34     4.29     -0.18 
 H                     65.02     3.72     -0.88 
 H                     64.59     3.05      0.68 
 N                     65.86     6.41      0.12 
 C                     65.34     7.8       0.39 
 C                     64.15     7.91      1.4 
 O                     64.31     8.7       2.3 
 C                     64.95     8.56     -0.88 
 C                     64.52     10.01    -0.66 
 C                     65.39     10.97    -0.12 
 C                     63.24     10.52    -1.05 
 C                     64.96     12.32    -0.03 
 C                     62.88     11.84    -1.13 
 C                     63.74     12.77    -0.53 
 H                     66.01     6.13     -0.83 
 H                     66.11     8.3       0.97 
 H                     64.21     7.98     -1.42 
 H                     65.83     8.56     -1.53 
 H                     66.42     10.7      0.1 
 H                     62.6      9.8      -1.54 
 H                     65.56     13.16     0.3 
 H                     62.06     12.14    -1.77 
 H                     63.55     13.83    -0.52 
 N                     63.1      7.08      1.33 
 C                     62.07     7.05      2.37 
 C                     62.44     6.43      3.75 
 O                     61.69     6.49      4.74 
 C                     61.       6.16      1.81 
 C                     61.69     5.13      0.93 
 C                     62.78     6.06      0.3 
 H                     61.68     8.04      2.59 
 H                     60.35     5.66      2.53 
 H                     60.23     6.65      1.22 
 H                     62.12     4.31      1.51 
 H                     61.       4.76      0.17 
 H                     63.61     5.4       0.03 
 H                     62.39     6.51     -0.62 
 N                     63.6      5.79      3.87 
 C                     64.23     5.37      5.11 
 C                     65.18     6.41      5.59 
 O                     65.41     6.41      6.78 
 C                     65.01     4.01      4.93 
 C                     64.11     2.96      4.27 
 C                     64.94     1.78      3.76 
 O                     66.19     1.75      3.93 
 O                     64.42     0.74      3.42 
 H                     64.11     5.64      3.01 
 H                     63.47     5.2       5.87 
 H                     65.34     3.72      5.92 
 H                     65.78     4.2       4.19 
 H                     63.52     3.44      3.49 
 H                     63.45     2.43      4.96 
 N                     65.73     7.27      4.74 
 C                     66.41     8.42      5.26 
 H                     67.341    8.568     4.714 
 H                     65.777    9.3       5.144 
 H                     66.63     8.266     6.316 
 H                     65.43     7.19      3.78 
 Ca                    66.41    -0.742     2.58 
 O                     68.36    -1.962     3.98 
 H                     68.62    -2.692     4.54 
 H                     68.68    -1.182     4.43 
 
 Stoichiometry    C55H78CaN14O24(2-)
 Framework group  C1[X(C55H78CaN14O24)]
 Deg. of freedom   510
 Full point group                 C1      NOp   1
 Largest Abelian subgroup         C1      NOp   1
 Largest concise Abelian subgroup C1      NOp   1
                         Standard orientation:                         
 ---------------------------------------------------------------------
 Center     Atomic      Atomic             Coordinates (Angstroms)
 Number     Number       Type             X           Y           Z
 ---------------------------------------------------------------------
      1          6           0        0.270596    3.493542    5.797636
      2          6           0       -0.196056    3.397539    4.311561
      3          8           0        0.605003    3.589708    3.375091
      4          1           0        0.762516    2.564126    6.083638
      5          1           0        0.969221    4.323463    5.906924
      6          1           0       -0.594113    3.659610    6.440615
      7          7           0       -1.444328    3.012536    4.046816
      8          6           0       -2.079991    2.948341    2.751590
      9          6           0       -2.079155    4.337292    2.089084
     10          8           0       -2.549719    5.314861    2.694665
     11          6           0       -3.520436    2.369408    2.894964
     12          6           0       -4.212305    2.450930    1.596938
     13          8           0       -5.323471    3.011522    1.575814
     14          8           0       -3.630400    2.047072    0.541624
     15          1           0       -2.083719    2.892002    4.823186
     16          1           0       -1.520058    2.263805    2.101908
     17          1           0       -3.936744    2.930380    3.731204
     18          1           0       -3.533432    1.353236    3.272886
     19          7           0       -1.873617    4.338652    0.748206
     20          6           0       -2.134391    5.466530   -0.106656
     21          6           0       -3.325773    5.249583   -1.053251
     22          8           0       -3.670168    6.258430   -1.709772
     23          6           0       -0.904357    5.807017   -0.864010
     24          1           0       -1.575901    3.522818    0.243449
     25          1           0       -2.470052    6.267988    0.554478
     26          1           0       -0.625205    4.961341   -1.477693
     27          1           0       -1.078636    6.615387   -1.582734
     28          1           0       -0.019322    6.093311   -0.301917
     29          7           0       -3.944872    4.044519   -1.267579
     30          6           0       -4.809376    3.642721   -2.467117
     31          6           0       -5.981336    2.694089   -2.095623
     32          8           0       -6.920247    2.516733   -2.906974
     33          6           0       -3.970998    2.976280   -3.550205
     34          6           0       -3.132926    1.766553   -3.114662
     35          8           0       -3.632811    0.826343   -2.438630
     36          8           0       -1.943753    1.733050   -3.514718
     37          1           0       -3.636471    3.292177   -0.682540
     38          1           0       -5.308336    4.526746   -2.873979
     39          1           0       -3.379627    3.766721   -3.999744
     40          1           0       -4.678921    2.558998   -4.270011
     41          7           0       -6.081269    2.033097   -0.917021
     42          6           0       -7.298205    1.355205   -0.481670
     43          6           0       -7.361088   -0.135704   -0.951178
     44          8           0       -8.328119   -0.875056   -0.730700
     45          1           0       -5.404137    2.231567   -0.180678
     46          1           0       -8.170163    1.877252   -0.881863
     47          1           0       -7.361835    1.348901    0.610535
     48          7           0       -6.367026   -0.564491   -1.720126
     49          6           0       -6.202570   -1.954467   -2.214719
     50          6           0       -6.076727   -2.991388   -1.060658
     51          8           0       -5.814821   -4.170985   -1.420178
     52          6           0       -4.944570   -2.049019   -3.173466
     53          6           0       -3.589902   -2.164346   -2.582303
     54          7           0       -2.649233   -2.185007   -3.468652
     55          8           0       -3.348272   -2.087852   -1.380278
     56          1           0       -5.586658    0.017106   -1.974821
     57          1           0       -7.005505   -2.231938   -2.894208
     58          1           0       -4.942544   -1.224651   -3.884391
     59          1           0       -5.059672   -2.848661   -3.906080
     60          1           0       -2.867876   -1.965195   -4.426189
     61          1           0       -1.685114   -2.025149   -3.216817
     62          7           0       -6.279798   -2.667345    0.236554
     63          6           0       -6.346638   -3.741099    1.270132
     64          6           0       -5.029054   -4.278976    1.758455
     65          8           0       -4.947380   -5.082203    2.675164
     66          1           0       -6.481212   -1.729179    0.531643
     67          1           0       -6.876369   -4.653130    1.011705
     68          1           0       -6.826325   -3.323095    2.152670
     69          7           0       -3.889566   -3.785141    1.156296
     70          6           0       -2.601423   -4.439198    1.189388
     71          6           0       -1.463172   -3.449410    1.136437
     72          8           0       -1.529190   -2.364635    0.557642
     73          6           0       -2.387882   -5.473683    0.138274
     74          6           0       -3.208031   -6.761238    0.381083
     75          8           0       -2.746201   -5.061351   -1.210833
     76          1           0       -3.969755   -2.948599    0.586413
     77          1           0       -2.512617   -4.810755    2.213380
     78          1           0       -1.322890   -5.700333    0.107911
     79          1           0       -3.491983   -4.469937   -1.105292
     80          1           0       -2.690507   -7.583627   -0.091405
     81          1           0       -3.134112   -7.018637    1.430503
     82          1           0       -4.271891   -6.618102    0.185339
     83          7           0       -0.279522   -3.832384    1.731841
     84          6           0        0.893473   -2.884648    1.864428
     85          6           0        1.655060   -2.996885    0.521414
     86          8           0        2.192275   -4.084565    0.276155
     87          6           0        1.706608   -3.242575    3.129378
     88          6           0        0.881337   -3.353299    4.433245
     89          6           0        2.953931   -2.343246    3.322233
     90          6           0        1.651568   -3.410484    5.781939
     91          1           0       -0.356467   -4.784857    2.065570
     92          1           0        0.490507   -1.880139    2.015032
     93          1           0        2.157888   -4.209152    2.911491
     94          1           0        0.152969   -4.160932    4.309516
     95          1           0        0.299567   -2.445527    4.567380
     96          1           0        2.648766   -1.411233    3.808366
     97          1           0        3.691190   -2.816333    3.974336
     98          1           0        3.433415   -2.124458    2.369013
     99          1           0        2.255075   -4.317140    5.769567
    100          1           0        2.160001   -2.457097    5.834366
    101          1           0        0.919056   -3.580397    6.572101
    102          7           0        1.650937   -1.912397   -0.314809
    103          6           0        2.615210   -1.774789   -1.366970
    104          6           0        4.004784   -1.374894   -0.877922
    105          8           0        4.217708   -0.774210    0.179878
    106          6           0        1.998054   -0.818431   -2.494178
    107          6           0        0.524058   -1.088695   -2.828085
    108          8           0       -0.376116   -0.614526   -2.082062
    109          8           0        0.239096   -1.644702   -3.900537
    110          1           0        0.987320   -1.181907   -0.120910
    111          1           0        2.632472   -2.798233   -1.760625
    112          1           0        2.638579   -0.891352   -3.360959
    113          1           0        1.961124    0.233900   -2.202398
    114          7           0        4.995231   -1.707488   -1.711166
    115          6           0        6.440367   -1.368632   -1.442543
    116          6           0        6.729950    0.088008   -0.949955
    117          8           0        7.394500    0.168763    0.055804
    118          6           0        7.362313   -1.654852   -2.630269
    119          6           0        8.849987   -1.427281   -2.364114
    120          6           0        9.552382   -2.158875   -1.393799
    121          6           0        9.655719   -0.517524   -3.121569
    122          6           0       10.952743   -1.966192   -1.262028
    123          6           0       11.024635   -0.450713   -3.123467
    124          6           0       11.695430   -1.144194   -2.106797
    125          1           0        4.762914   -2.174506   -2.566341
    126          1           0        6.714049   -1.915622   -0.545215
    127          1           0        7.001183   -1.105228   -3.492300
    128          1           0        7.219871   -2.707192   -2.893312
    129          1           0        9.047789   -2.952426   -0.848031
    130          1           0        9.132709   -0.014064   -3.922249
    131          1           0       11.613500   -2.518079   -0.603758
    132          1           0       11.544734   -0.019296   -3.969267
    133          1           0       12.767367   -1.150105   -2.003272
    134          7           0        6.157311    1.147380   -1.538269
    135          6           0        6.273439    2.495826   -0.980051
    136          6           0        5.483622    2.820121    0.322532
    137          8           0        5.629955    3.881047    0.954371
    138          6           0        5.684376    3.387588   -2.032841
    139          6           0        4.599084    2.590317   -2.738462
    140          6           0        5.313943    1.198031   -2.758869
    141          1           0        7.304876    2.765930   -0.770810
    142          1           0        5.284784    4.346161   -1.697633
    143          1           0        6.374549    3.761516   -2.784464
    144          1           0        3.662940    2.574945   -2.175349
    145          1           0        4.448191    2.971109   -3.749812
    146          1           0        4.511227    0.455329   -2.796828
    147          1           0        5.907477    1.104656   -3.675384
    148          7           0        4.598348    1.932707    0.767939
    149          6           0        3.957019    1.932733    2.071624
    150          6           0        4.724360    1.091446    3.029708
    151          8           0        4.582851    1.359994    4.203104
    152          6           0        2.477354    1.390577    1.987602
    153          6           0        1.703162    2.116590    0.882327
    154          6           0        0.412985    1.366754    0.543818
    155          8           0        0.097631    0.314103    1.164122
    156          8           0       -0.459050    1.876752   -0.124805
    157          1           0        4.406934    1.155255    0.150582
    158          1           0        3.899426    2.950004    2.453647
    159          1           0        2.047214    1.538644    2.970534
    160          1           0        2.550684    0.368879    1.630733
    161          1           0        2.358847    2.254172    0.023229
    162          1           0        1.278872    3.077300    1.181683
    163          7           0        5.505985    0.109488    2.594484
    164          6           0        6.436266   -0.491437    3.504851
    165          1           0        6.418682   -1.573408    3.379116
    166          1           0        7.439555   -0.118017    3.298666
    167          1           0        6.157403   -0.241148    4.528005
    168          1           0        5.567327    0.009581    1.592359
    169         20           0       -2.271181    0.001902   -0.376081
    170          8           0       -3.991463   -0.986267    1.444647
    171          1           0       -4.801374   -0.871904    1.939687
    172          1           0       -3.337095   -1.227777    2.097927
 ---------------------------------------------------------------------
 Rotational constants (GHZ):           0.0270649           0.0132720           0.0118750
 Standard basis: SVP (5D, 7F)
 There are  1799 symmetry adapted cartesian basis functions of A   symmetry.
 There are  1706 symmetry adapted basis functions of A   symmetry.
  1706 basis functions,  2912 primitive gaussians,  1799 cartesian basis functions
   360 alpha electrons      360 beta electrons
       nuclear repulsion energy     22045.2860077953 Hartrees.
 NAtoms=  172 NActive=  172 NUniq=  172 SFac= 1.00D+00 NAtFMM=   60 NAOKFM=T Big=T
 Integral buffers will be    131072 words long.
 Raffenetti 2 integral format.
 Two-electron integral symmetry is turned on.
 One-electron integrals computed using PRISM.
 NBasis=  1706 RedAO= T EigKep=  3.56D-04  NBF=  1706
 NBsUse=  1706 1.00D-06 EigRej= -1.00D+00 NBFU=  1706
 ExpMin= 1.98D-02 ExpMax= 3.51D+04 ExpMxC= 5.28D+03 IAcc=3 IRadAn=         5 AccDes= 0.00D+00
 Harris functional with IExCor=  402 and IRadAn=       5 diagonalized for initial guess.
 HarFok:  IExCor=  402 AccDes= 0.00D+00 IRadAn=         5 IDoV= 1 UseB2=F ITyADJ=14
 ICtDFT=  3500011 ScaDFX=  1.000000  1.000000  1.000000  1.000000
 FoFCou: FMM=F IPFlag=           0 FMFlag=      100000 FMFlg1=        2001
         NFxFlg=           0 DoJE=T BraDBF=F KetDBF=T FulRan=T
         wScrn=  0.000000 ICntrl=       500 IOpCl=  0 I1Cent=   200000004 NGrid=           0
         NMat0=    1 NMatS0=      1 NMatT0=    0 NMatD0=    1 NMtDS0=    0 NMtDT0=    0
 Petite list used in FoFCou.
 Requested convergence on RMS density matrix=1.00D-08 within  32 cycles.
 Requested convergence on MAX density matrix=1.00D-06.
 Requested convergence on             energy=1.00D-06.
 No special actions if energy rises.
 EnCoef did     5 forward-backward iterations
 SCF Done:  E(RB3LYP) =  -5389.28952284     A.U. after   18 cycles
            NFock= 18  Conv=0.32D-08     -V/T= 2.0084
 QCSCF skips out because SCF is already converged.
 SCF density gives NOpUse=  1 NOpAll=  1.
 Hyperfine terms turned off by default for NAtoms > 100.

 **********************************************************************

            Population analysis using the SCF Density.

 **********************************************************************

 Orbital symmetries:
 BldTbl:  Degeneracy threshold= 1.00D-02
       Occupied  (A) (A) (A) (A) (A) (A) (A) (A) (A) (A) (A) (A)
                 (A) (A) (A) (A) (A) (A) (A) (A) (A) (A) (A) (A)
                 (A) (A) (A) (A) (A) (A) (A) (A) (A) (A) (A) (A)
                 (A) (A) (A) (A) (A) (A) (A) (A) (A) (A) (A) (A)
                 (A) (A) (A) (A) (A) (A) (A) (A) (A) (A) (A) (A)
                 (A) (A) (A) (A) (A) (A) (A) (A) (A) (A) (A) (A)
                 (A) (A) (A) (A) (A) (A) (A) (A) (A) (A) (A) (A)
                 (A) (A) (A) (A) (A) (A) (A) (A) (A) (A) (A) (A)
                 (A) (A) (A) (A) (A) (A) (A) (A) (A) (A) (A) (A)
                 (A) (A) (A) (A) (A) (A) (A) (A) (A) (A) (A) (A)
                 (A) (A) (A) (A) (A) (A) (A) (A) (A) (A) (A) (A)
                 (A) (A) (A) (A) (A) (A) (A) (A) (A) (A) (A) (A)
                 (A) (A) (A) (A) (A) (A) (A) (A) (A) (A) (A) (A)
                 (A) (A) (A) (A) (A) (A) (A) (A) (A) (A) (A) (A)
                 (A) (A) (A) (A) (A) (A) (A) (A) (A) (A) (A) (A)
                 (A) (A) (A) (A) (A) (A) (A) (A) (A) (A) (A) (A)
                 (A) (A) (A) (A) (A) (A) (A) (A) (A) (A) (A) (A)
                 (A) (A) (A) (A) (A) (A) (A) (A) (A) (A) (A) (A)
                 (A) (A) (A) (A) (A) (A) (A) (A) (A) (A) (A) (A)
                 (A) (A) (A) (A) (A) (A) (A) (A) (A) (A) (A) (A)
                 (A) (A) (A) (A) (A) (A) (A) (A) (A) (A) (A) (A)
                 (A) (A) (A) (A) (A) (A) (A) (A) (A) (A) (A) (A)
                 (A) (A) (A) (A) (A) (A) (A) (A) (A) (A) (A) (A)
                 (A) (A) (A) (A) (A) (A) (A) (A) (A) (A) (A) (A)
                 (A) (A) (A) (A) (A) (A) (A) (A) (A) (A) (A) (A)
                 (A) (A) (A) (A) (A) (A) (A) (A) (A) (A) (A) (A)
                 (A) (A) (A) (A) (A) (A) (A) (A) (A) (A) (A) (A)
                 (A) (A) (A) (A) (A) (A) (A) (A) (A) (A) (A) (A)
                 (A) (A) (A) (A) (A) (A) (A) (A) (A) (A) (A) (A)
                 (A) (A) (A) (A) (A) (A) (A) (A) (A) (A) (A) (A)
       Virtual   (A) (A) (A) (A) (A) (A) (A) (A) (A) (A) (A) (A)
                 (A) (A) (A) (A) (A) (A) (A) (A) (A) (A) (A) (A)
                 (A) (A) (A) (A) (A) (A) (A) (A) (A) (A) (A) (A)
                 (A) (A) (A) (A) (A) (A) (A) (A) (A) (A) (A) (A)
                 (A) (A) (A) (A) (A) (A) (A) (A) (A) (A) (A) (A)
                 (A) (A) (A) (A) (A) (A) (A) (A) (A) (A) (A) (A)
                 (A) (A) (A) (A) (A) (A) (A) (A) (A) (A) (A) (A)
                 (A) (A) (A) (A) (A) (A) (A) (A) (A) (A) (A) (A)
                 (A) (A) (A) (A) (A) (A) (A) (A) (A) (A) (A) (A)
                 (A) (A) (A) (A) (A) (A) (A) (A) (A) (A) (A) (A)
                 (A) (A) (A) (A) (A) (A) (A) (A) (A) (A) (A) (A)
                 (A) (A) (A) (A) (A) (A) (A) (A) (A) (A) (A) (A)
                 (A) (A) (A) (A) (A) (A) (A) (A) (A) (A) (A) (A)
                 (A) (A) (A) (A) (A) (A) (A) (A) (A) (A) (A) (A)
                 (A) (A) (A) (A) (A) (A) (A) (A) (A) (A) (A) (A)
                 (A) (A) (A) (A) (A) (A) (A) (A) (A) (A) (A) (A)
                 (A) (A) (A) (A) (A) (A) (A) (A) (A) (A) (A) (A)
                 (A) (A) (A) (A) (A) (A) (A) (A) (A) (A) (A) (A)
                 (A) (A) (A) (A) (A) (A) (A) (A) (A) (A) (A) (A)
                 (A) (A) (A) (A) (A) (A) (A) (A) (A) (A) (A) (A)
                 (A) (A) (A) (A) (A) (A) (A) (A) (A) (A) (A) (A)
                 (A) (A) (A) (A) (A) (A) (A) (A) (A) (A) (A) (A)
                 (A) (A) (A) (A) (A) (A) (A) (A) (A) (A) (A) (A)
                 (A) (A) (A) (A) (A) (A) (A) (A) (A) (A) (A) (A)
                 (A) (A) (A) (A) (A) (A) (A) (A) (A) (A) (A) (A)
                 (A) (A) (A) (A) (A) (A) (A) (A) (A) (A) (A) (A)
                 (A) (A) (A) (A) (A) (A) (A) (A) (A) (A) (A) (A)
                 (A) (A) (A) (A) (A) (A) (A) (A) (A) (A) (A) (A)
                 (A) (A) (A) (A) (A) (A) (A) (A) (A) (A) (A) (A)
                 (A) (A) (A) (A) (A) (A) (A) (A) (A) (A) (A) (A)
                 (A) (A) (A) (A) (A) (A) (A) (A) (A) (A) (A) (A)
                 (A) (A) (A) (A) (A) (A) (A) (A) (A) (A) (A) (A)
                 (A) (A) (A) (A) (A) (A) (A) (A) (A) (A) (A) (A)
                 (A) (A) (A) (A) (A) (A) (A) (A) (A) (A) (A) (A)
                 (A) (A) (A) (A) (A) (A) (A) (A) (A) (A) (A) (A)
                 (A) (A) (A) (A) (A) (A) (A) (A) (A) (A) (A) (A)
                 (A) (A) (A) (A) (A) (A) (A) (A) (A) (A) (A) (A)
                 (A) (A) (A) (A) (A) (A) (A) (A) (A) (A) (A) (A)
                 (A) (A) (A) (A) (A) (A) (A) (A) (A) (A) (A) (A)
                 (A) (A) (A) (A) (A) (A) (A) (A) (A) (A) (A) (A)
                 (A) (A) (A) (A) (A) (A) (A) (A) (A) (A) (A) (A)
                 (A) (A) (A) (A) (A) (A) (A) (A) (A) (A) (A) (A)
                 (A) (A) (A) (A) (A) (A) (A) (A) (A) (A) (A) (A)
                 (A) (A) (A) (A) (A) (A) (A) (A) (A) (A) (A) (A)
                 (A) (A) (A) (A) (A) (A) (A) (A) (A) (A) (A) (A)
                 (A) (A) (A) (A) (A) (A) (A) (A) (A) (A) (A) (A)
                 (A) (A) (A) (A) (A) (A) (A) (A) (A) (A) (A) (A)
                 (A) (A) (A) (A) (A) (A) (A) (A) (A) (A) (A) (A)
                 (A) (A) (A) (A) (A) (A) (A) (A) (A) (A) (A) (A)
                 (A) (A) (A) (A) (A) (A) (A) (A) (A) (A) (A) (A)
                 (A) (A) (A) (A) (A) (A) (A) (A) (A) (A) (A) (A)
                 (A) (A) (A) (A) (A) (A) (A) (A) (A) (A) (A) (A)
                 (A) (A) (A) (A) (A) (A) (A) (A) (A) (A) (A) (A)
                 (A) (A) (A) (A) (A) (A) (A) (A) (A) (A) (A) (A)
                 (A) (A) (A) (A) (A) (A) (A) (A) (A) (A) (A) (A)
                 (A) (A) (A) (A) (A) (A) (A) (A) (A) (A) (A) (A)
                 (A) (A) (A) (A) (A) (A) (A) (A) (A) (A) (A) (A)
                 (A) (A) (A) (A) (A) (A) (A) (A) (A) (A) (A) (A)
                 (A) (A) (A) (A) (A) (A) (A) (A) (A) (A) (A) (A)
                 (A) (A) (A) (A) (A) (A) (A) (A) (A) (A) (A) (A)
                 (A) (A) (A) (A) (A) (A) (A) (A) (A) (A) (A) (A)
                 (A) (A) (A) (A) (A) (A) (A) (A) (A) (A) (A) (A)
                 (A) (A) (A) (A) (A) (A) (A) (A) (A) (A) (A) (A)
                 (A) (A) (A) (A) (A) (A) (A) (A) (A) (A) (A) (A)
                 (A) (A) (A) (A) (A) (A) (A) (A) (A) (A) (A) (A)
                 (A) (A) (A) (A) (A) (A) (A) (A) (A) (A) (A) (A)
                 (A) (A) (A) (A) (A) (A) (A) (A) (A) (A) (A) (A)
                 (A) (A) (A) (A) (A) (A) (A) (A) (A) (A) (A) (A)
                 (A) (A) (A) (A) (A) (A) (A) (A) (A) (A) (A) (A)
                 (A) (A) (A) (A) (A) (A) (A) (A) (A) (A) (A) (A)
                 (A) (A) (A) (A) (A) (A) (A) (A) (A) (A) (A) (A)
                 (A) (A) (A) (A) (A) (A) (A) (A) (A) (A) (A) (A)
                 (A) (A) (A) (A) (A) (A) (A) (A) (A) (A) (A) (A)
                 (A) (A) (A) (A) (A) (A) (A) (A) (A) (A) (A) (A)
                 (A) (A) (A) (A) (A) (A) (A) (A) (A) (A) (A) (A)
                 (A) (A) (A) (A) (A) (A) (A) (A) (A) (A) (A) (A)
                 (A) (A) (A) (A) (A) (A) (A) (A) (A) (A) (A) (A)
                 (A) (A) (A) (A) (A) (A) (A) (A) (A) (A) (A) (A)
                 (A) (A) (A) (A) (A) (A) (A) (A) (A) (A) (A) (A)
                 (A) (A) (A) (A) (A) (A) (A) (A) (A) (A) (A) (A)
                 (A) (A) (A) (A) (A) (A) (A) (A) (A) (A) (A) (A)
                 (A) (A) (A) (A) (A) (A) (A) (A) (A) (A) (A) (A)
                 (A) (A) (A) (A) (A) (A) (A) (A) (A) (A) (A) (A)
                 (A) (A) (A) (A) (A) (A) (A) (A) (A) (A) (A) (A)
                 (A) (A) (A) (A) (A) (A) (A) (A) (A) (A) (A) (A)
                 (A) (A) (A) (A) (A) (A) (A) (A) (A) (A) (A) (A)
                 (A) (A) (A) (A) (A) (A) (A) (A) (A) (A) (A) (A)
                 (A) (A) (A) (A) (A) (A) (A) (A) (A) (A) (A) (A)
                 (A) (A) (A) (A) (A) (A) (A) (A) (A) (A) (A) (A)
                 (A) (A) (A) (A) (A) (A) (A) (A) (A) (A) (A) (A)
                 (A) (A) (A) (A) (A) (A) (A) (A) (A) (A) (A) (A)
                 (A) (A) (A) (A) (A) (A) (A) (A) (A) (A) (A) (A)
                 (A) (A) (A) (A) (A) (A) (A) (A) (A) (A) (A) (A)
                 (A) (A) (A) (A) (A) (A) (A) (A) (A) (A) (A) (A)
                 (A) (A) (A) (A) (A) (A) (A) (A) (A) (A) (A) (A)
                 (A) (A) (A) (A) (A) (A) (A) (A) (A) (A) (A) (A)
                 (A) (A) (A) (A) (A) (A) (A) (A) (A) (A) (A) (A)
                 (A) (A) (A) (A) (A) (A) (A) (A) (A) (A) (A) (A)
                 (A) (A) (A) (A) (A) (A) (A) (A) (A) (A) (A) (A)
                 (A) (A) (A) (A) (A) (A) (A) (A) (A) (A) (A) (A)
                 (A) (A) (A) (A) (A) (A) (A) (A) (A) (A) (A) (A)
                 (A) (A) (A) (A) (A) (A) (A) (A) (A) (A) (A) (A)
                 (A) (A) (A) (A) (A) (A) (A) (A) (A) (A) (A) (A)
                 (A) (A) (A) (A) (A) (A) (A) (A) (A) (A) (A) (A)
                 (A) (A) (A) (A) (A) (A) (A) (A) (A) (A) (A) (A)
                 (A) (A) (A) (A) (A) (A) (A) (A) (A) (A) (A) (A)
                 (A) (A) (A) (A) (A) (A) (A) (A) (A) (A) (A) (A)
                 (A) (A) (A) (A) (A) (A) (A) (A) (A) (A) (A) (A)
                 (A) (A) (A) (A) (A) (A) (A) (A) (A) (A) (A) (A)
                 (A) (A) (A) (A) (A) (A) (A) (A) (A) (A) (A) (A)
                 (A) (A) (A) (A) (A) (A) (A) (A) (A) (A) (A) (A)
                 (A) (A) (A) (A) (A) (A) (A) (A) (A) (A) (A) (A)
                 (A) (A)
 The electronic state is 1-A.
 Alpha  occ. eigenvalues -- -145.20105 -19.05489 -19.00253 -18.99444 -18.98489
 Alpha  occ. eigenvalues --  -18.98188 -18.97768 -18.97089 -18.96252 -18.95531
 Alpha  occ. eigenvalues --  -18.94968 -18.94492 -18.94475 -18.93145 -18.93124
 Alpha  occ. eigenvalues --  -18.92734 -18.91565 -18.91348 -18.90911 -18.90376
 Alpha  occ. eigenvalues --  -18.90223 -18.89307 -18.88947 -18.88414 -18.86126
 Alpha  occ. eigenvalues --  -15.25742 -14.26378 -14.25966 -14.24212 -14.23317
 Alpha  occ. eigenvalues --  -14.21968 -14.21210 -14.20275 -14.20087 -14.19894
 Alpha  occ. eigenvalues --  -14.19222 -14.17927 -14.17037 -14.16320 -14.16048
 Alpha  occ. eigenvalues --  -12.39363 -12.39335 -12.39323 -10.18215 -10.18192
 Alpha  occ. eigenvalues --  -10.16861 -10.16849 -10.16541 -10.14589 -10.14587
 Alpha  occ. eigenvalues --  -10.14347 -10.14241 -10.13704 -10.13228 -10.12506
 Alpha  occ. eigenvalues --  -10.12460 -10.12396 -10.12289 -10.11747 -10.11658
 Alpha  occ. eigenvalues --  -10.11508 -10.11363 -10.11288 -10.11085 -10.11066
 Alpha  occ. eigenvalues --  -10.11046 -10.11037 -10.10996 -10.10933 -10.10821
 Alpha  occ. eigenvalues --  -10.10807 -10.10628 -10.10332 -10.10050 -10.09318
 Alpha  occ. eigenvalues --  -10.08996 -10.08392 -10.07753 -10.07712 -10.07618
 Alpha  occ. eigenvalues --  -10.07283 -10.07247 -10.06954 -10.06808 -10.06644
 Alpha  occ. eigenvalues --  -10.06536 -10.06525 -10.06414 -10.06038 -10.05570
 Alpha  occ. eigenvalues --  -10.04849 -10.04554 -10.04525 -10.04341 -10.01638
 Alpha  occ. eigenvalues --  -10.01226 -10.00719 -10.00191  -1.62607  -0.93695
 Alpha  occ. eigenvalues --   -0.92541  -0.92206  -0.91296  -0.90745  -0.90371
 Alpha  occ. eigenvalues --   -0.89934  -0.89865  -0.88913  -0.88206  -0.88011
 Alpha  occ. eigenvalues --   -0.87895  -0.87279  -0.87165  -0.87147  -0.86870
 Alpha  occ. eigenvalues --   -0.86679  -0.85652  -0.84510  -0.83787  -0.83683
 Alpha  occ. eigenvalues --   -0.83385  -0.82465  -0.82088  -0.81894  -0.79515
 Alpha  occ. eigenvalues --   -0.78468  -0.77958  -0.77523  -0.77422  -0.77135
 Alpha  occ. eigenvalues --   -0.77061  -0.77017  -0.76391  -0.75812  -0.75357
 Alpha  occ. eigenvalues --   -0.74963  -0.74380  -0.73141  -0.72469  -0.71700
 Alpha  occ. eigenvalues --   -0.71061  -0.70966  -0.69176  -0.68371  -0.65791
 Alpha  occ. eigenvalues --   -0.65701  -0.65193  -0.64158  -0.63609  -0.63574
 Alpha  occ. eigenvalues --   -0.62579  -0.61836  -0.61760  -0.61022  -0.59975
 Alpha  occ. eigenvalues --   -0.58910  -0.58712  -0.58580  -0.57604  -0.57339
 Alpha  occ. eigenvalues --   -0.56223  -0.55553  -0.55008  -0.53687  -0.53266
 Alpha  occ. eigenvalues --   -0.52855  -0.52130  -0.51830  -0.51516  -0.50545
 Alpha  occ. eigenvalues --   -0.48896  -0.48741  -0.48637  -0.48612  -0.47666
 Alpha  occ. eigenvalues --   -0.47209  -0.46838  -0.46120  -0.45303  -0.45119
 Alpha  occ. eigenvalues --   -0.44980  -0.44824  -0.44749  -0.44286  -0.44168
 Alpha  occ. eigenvalues --   -0.43882  -0.43590  -0.43503  -0.42676  -0.42165
 Alpha  occ. eigenvalues --   -0.41804  -0.41558  -0.41380  -0.40577  -0.40436
 Alpha  occ. eigenvalues --   -0.39789  -0.39543  -0.39297  -0.38964  -0.38496
 Alpha  occ. eigenvalues --   -0.38293  -0.37919  -0.37443  -0.37286  -0.37084
 Alpha  occ. eigenvalues --   -0.36493  -0.36459  -0.36111  -0.35769  -0.35666
 Alpha  occ. eigenvalues --   -0.35240  -0.35211  -0.34962  -0.34766  -0.34603
 Alpha  occ. eigenvalues --   -0.34471  -0.34386  -0.34142  -0.34049  -0.33780
 Alpha  occ. eigenvalues --   -0.33543  -0.33497  -0.32782  -0.32647  -0.32370
 Alpha  occ. eigenvalues --   -0.32307  -0.32260  -0.32076  -0.32050  -0.31900
 Alpha  occ. eigenvalues --   -0.31737  -0.31514  -0.31402  -0.31388  -0.31203
 Alpha  occ. eigenvalues --   -0.30998  -0.30793  -0.30609  -0.30317  -0.30181
 Alpha  occ. eigenvalues --   -0.30133  -0.29880  -0.29761  -0.29542  -0.29527
 Alpha  occ. eigenvalues --   -0.29261  -0.29006  -0.28737  -0.28587  -0.28506
 Alpha  occ. eigenvalues --   -0.28440  -0.27942  -0.27846  -0.27722  -0.27584
 Alpha  occ. eigenvalues --   -0.27383  -0.27204  -0.27141  -0.26971  -0.26931
 Alpha  occ. eigenvalues --   -0.26879  -0.26766  -0.26566  -0.26505  -0.26393
 Alpha  occ. eigenvalues --   -0.26295  -0.26014  -0.25763  -0.25680  -0.25570
 Alpha  occ. eigenvalues --   -0.25512  -0.25355  -0.25224  -0.25111  -0.25019
 Alpha  occ. eigenvalues --   -0.24949  -0.24839  -0.24626  -0.24458  -0.24277
 Alpha  occ. eigenvalues --   -0.24187  -0.24052  -0.23983  -0.23888  -0.23724
 Alpha  occ. eigenvalues --   -0.23704  -0.23577  -0.23341  -0.23214  -0.23002
 Alpha  occ. eigenvalues --   -0.22961  -0.22796  -0.22718  -0.22494  -0.22300
 Alpha  occ. eigenvalues --   -0.22054  -0.21555  -0.21344  -0.21143  -0.20874
 Alpha  occ. eigenvalues --   -0.20595  -0.20537  -0.20505  -0.20431  -0.20363
 Alpha  occ. eigenvalues --   -0.20059  -0.19614  -0.19452  -0.18817  -0.18709
 Alpha  occ. eigenvalues --   -0.18676  -0.18404  -0.18163  -0.17838  -0.17789
 Alpha  occ. eigenvalues --   -0.17412  -0.17286  -0.17001  -0.16737  -0.16731
 Alpha  occ. eigenvalues --   -0.16111  -0.16096  -0.15695  -0.15131  -0.14487
 Alpha  occ. eigenvalues --   -0.14377  -0.14121  -0.13548  -0.12927  -0.12500
 Alpha  occ. eigenvalues --   -0.12440  -0.12009  -0.11849  -0.11773  -0.11654
 Alpha  occ. eigenvalues --   -0.11430  -0.11100  -0.11038  -0.10709  -0.10693
 Alpha  occ. eigenvalues --   -0.10437  -0.10297  -0.10082  -0.09495  -0.09076
 Alpha  occ. eigenvalues --   -0.08776  -0.08432  -0.08323  -0.08108  -0.07721
 Alpha  occ. eigenvalues --   -0.07113  -0.06709  -0.06547  -0.06145  -0.05885
 Alpha  occ. eigenvalues --   -0.05711  -0.05522  -0.05134  -0.04143  -0.01855
 Alpha virt. eigenvalues --    0.06329   0.07004   0.10959   0.11655   0.11805
 Alpha virt. eigenvalues --    0.12753   0.13385   0.13752   0.13812   0.14306
 Alpha virt. eigenvalues --    0.14443   0.14865   0.15607   0.15904   0.16107
 Alpha virt. eigenvalues --    0.16167   0.16717   0.17083   0.17147   0.17514
 Alpha virt. eigenvalues --    0.17625   0.17906   0.18537   0.18552   0.18832
 Alpha virt. eigenvalues --    0.18985   0.19218   0.19294   0.19444   0.19638
 Alpha virt. eigenvalues --    0.19809   0.20083   0.20450   0.20912   0.21125
 Alpha virt. eigenvalues --    0.21383   0.21543   0.21916   0.22148   0.22187
 Alpha virt. eigenvalues --    0.22259   0.22526   0.22664   0.22826   0.22964
 Alpha virt. eigenvalues --    0.23388   0.23466   0.23575   0.23855   0.24012
 Alpha virt. eigenvalues --    0.24091   0.24251   0.24572   0.24883   0.24941
 Alpha virt. eigenvalues --    0.25041   0.25402   0.25724   0.25760   0.26064
 Alpha virt. eigenvalues --    0.26291   0.26311   0.26396   0.26558   0.26712
 Alpha virt. eigenvalues --    0.26936   0.27003   0.27304   0.27310   0.27379
 Alpha virt. eigenvalues --    0.27497   0.27875   0.28186   0.28302   0.28370
 Alpha virt. eigenvalues --    0.28488   0.28560   0.28821   0.29070   0.29125
 Alpha virt. eigenvalues --    0.29195   0.29483   0.29509   0.29821   0.29937
 Alpha virt. eigenvalues --    0.30034   0.30153   0.30285   0.30376   0.30437
 Alpha virt. eigenvalues --    0.30545   0.30862   0.31078   0.31166   0.31651
 Alpha virt. eigenvalues --    0.31835   0.32028   0.32320   0.32509   0.32738
 Alpha virt. eigenvalues --    0.32835   0.33028   0.33213   0.33338   0.33551
 Alpha virt. eigenvalues --    0.33758   0.33846   0.34168   0.34296   0.34557
 Alpha virt. eigenvalues --    0.34901   0.35001   0.35231   0.35462   0.35600
 Alpha virt. eigenvalues --    0.35774   0.36174   0.36347   0.36672   0.36806
 Alpha virt. eigenvalues --    0.36955   0.37048   0.37176   0.37426   0.37619
 Alpha virt. eigenvalues --    0.37741   0.37792   0.38193   0.38384   0.38617
 Alpha virt. eigenvalues --    0.38768   0.38837   0.39054   0.39298   0.39501
 Alpha virt. eigenvalues --    0.39762   0.40005   0.40135   0.40187   0.40224
 Alpha virt. eigenvalues --    0.40514   0.40757   0.40886   0.41160   0.41210
 Alpha virt. eigenvalues --    0.41617   0.41649   0.42103   0.42289   0.42423
 Alpha virt. eigenvalues --    0.43096   0.43143   0.43530   0.44040   0.44215
 Alpha virt. eigenvalues --    0.44313   0.44641   0.44815   0.45363   0.45486
 Alpha virt. eigenvalues --    0.45720   0.46130   0.46199   0.46575   0.47172
 Alpha virt. eigenvalues --    0.47348   0.47690   0.47961   0.48408   0.48824
 Alpha virt. eigenvalues --    0.48951   0.49268   0.49409   0.49907   0.49961
 Alpha virt. eigenvalues --    0.50198   0.50427   0.50683   0.51201   0.51524
 Alpha virt. eigenvalues --    0.51869   0.52166   0.52416   0.52702   0.52916
 Alpha virt. eigenvalues --    0.53076   0.53244   0.53594   0.53770   0.53877
 Alpha virt. eigenvalues --    0.53972   0.54219   0.54273   0.54712   0.54971
 Alpha virt. eigenvalues --    0.55163   0.55369   0.55751   0.55885   0.55926
 Alpha virt. eigenvalues --    0.56342   0.56417   0.56625   0.56800   0.56921
 Alpha virt. eigenvalues --    0.57081   0.57303   0.57316   0.57563   0.57937
 Alpha virt. eigenvalues --    0.58077   0.58421   0.58818   0.58945   0.59110
 Alpha virt. eigenvalues --    0.59262   0.59347   0.59570   0.59701   0.59957
 Alpha virt. eigenvalues --    0.60210   0.60267   0.60529   0.60835   0.61011
 Alpha virt. eigenvalues --    0.61361   0.61410   0.61702   0.61800   0.61997
 Alpha virt. eigenvalues --    0.62100   0.62170   0.62353   0.62784   0.62988
 Alpha virt. eigenvalues --    0.63090   0.63112   0.63350   0.63695   0.63855
 Alpha virt. eigenvalues --    0.64002   0.64287   0.64413   0.64675   0.64814
 Alpha virt. eigenvalues --    0.65134   0.65254   0.65688   0.66073   0.66242
 Alpha virt. eigenvalues --    0.66378   0.66554   0.66767   0.66998   0.67171
 Alpha virt. eigenvalues --    0.67378   0.67469   0.67678   0.67888   0.68072
 Alpha virt. eigenvalues --    0.68597   0.68846   0.68884   0.69321   0.69396
 Alpha virt. eigenvalues --    0.69537   0.69926   0.70010   0.70246   0.70538
 Alpha virt. eigenvalues --    0.70590   0.70735   0.71060   0.71160   0.71330
 Alpha virt. eigenvalues --    0.71402   0.71733   0.71865   0.71940   0.72174
 Alpha virt. eigenvalues --    0.72254   0.72504   0.72703   0.72781   0.72938
 Alpha virt. eigenvalues --    0.73156   0.73264   0.73350   0.73408   0.73799
 Alpha virt. eigenvalues --    0.73868   0.73961   0.74230   0.74285   0.74382
 Alpha virt. eigenvalues --    0.74608   0.74783   0.74817   0.75054   0.75181
 Alpha virt. eigenvalues --    0.75390   0.75444   0.75453   0.75628   0.75827
 Alpha virt. eigenvalues --    0.75924   0.76063   0.76179   0.76260   0.76475
 Alpha virt. eigenvalues --    0.76705   0.76808   0.76858   0.77046   0.77112
 Alpha virt. eigenvalues --    0.77190   0.77292   0.77360   0.77410   0.77624
 Alpha virt. eigenvalues --    0.77705   0.77795   0.77894   0.78152   0.78224
 Alpha virt. eigenvalues --    0.78343   0.78446   0.78566   0.78788   0.78842
 Alpha virt. eigenvalues --    0.79015   0.79089   0.79173   0.79297   0.79460
 Alpha virt. eigenvalues --    0.79532   0.79662   0.79742   0.79842   0.79921
 Alpha virt. eigenvalues --    0.80007   0.80099   0.80290   0.80304   0.80388
 Alpha virt. eigenvalues --    0.80544   0.80635   0.80785   0.80862   0.80973
 Alpha virt. eigenvalues --    0.81073   0.81130   0.81254   0.81546   0.81559
 Alpha virt. eigenvalues --    0.81647   0.81668   0.81903   0.82031   0.82126
 Alpha virt. eigenvalues --    0.82415   0.82453   0.82592   0.82642   0.82741
 Alpha virt. eigenvalues --    0.82823   0.82852   0.83043   0.83430   0.83639
 Alpha virt. eigenvalues --    0.83670   0.83740   0.83861   0.84009   0.84118
 Alpha virt. eigenvalues --    0.84215   0.84418   0.84735   0.84834   0.85009
 Alpha virt. eigenvalues --    0.85067   0.85364   0.85569   0.85595   0.85853
 Alpha virt. eigenvalues --    0.85928   0.86196   0.86209   0.86366   0.86549
 Alpha virt. eigenvalues --    0.86753   0.86911   0.87107   0.87408   0.87539
 Alpha virt. eigenvalues --    0.87684   0.87688   0.88070   0.88166   0.88274
 Alpha virt. eigenvalues --    0.88622   0.88746   0.89082   0.89289   0.89409
 Alpha virt. eigenvalues --    0.89610   0.89765   0.89851   0.89970   0.90344
 Alpha virt. eigenvalues --    0.90675   0.90748   0.91026   0.91092   0.91186
 Alpha virt. eigenvalues --    0.91328   0.91802   0.92229   0.92386   0.92895
 Alpha virt. eigenvalues --    0.93030   0.93306   0.93446   0.93759   0.94004
 Alpha virt. eigenvalues --    0.94275   0.94593   0.94954   0.95266   0.95369
 Alpha virt. eigenvalues --    0.95583   0.96014   0.96174   0.96569   0.96691
 Alpha virt. eigenvalues --    0.96780   0.97606   0.97864   0.98085   0.98499
 Alpha virt. eigenvalues --    0.98864   0.99098   0.99209   0.99430   0.99648
 Alpha virt. eigenvalues --    1.00248   1.00256   1.00460   1.00632   1.00929
 Alpha virt. eigenvalues --    1.01364   1.01561   1.01832   1.02210   1.02704
 Alpha virt. eigenvalues --    1.02902   1.03216   1.03391   1.04000   1.04044
 Alpha virt. eigenvalues --    1.04458   1.04652   1.05017   1.05499   1.05832
 Alpha virt. eigenvalues --    1.06268   1.06471   1.06731   1.06818   1.07325
 Alpha virt. eigenvalues --    1.07525   1.07705   1.07820   1.07906   1.08261
 Alpha virt. eigenvalues --    1.08541   1.09177   1.09604   1.09819   1.10205
 Alpha virt. eigenvalues --    1.10454   1.10622   1.10666   1.10881   1.11161
 Alpha virt. eigenvalues --    1.11564   1.11808   1.12111   1.12200   1.12928
 Alpha virt. eigenvalues --    1.13121   1.13476   1.13626   1.13899   1.14134
 Alpha virt. eigenvalues --    1.14676   1.14949   1.15034   1.15541   1.15910
 Alpha virt. eigenvalues --    1.16023   1.16390   1.16618   1.17136   1.17384
 Alpha virt. eigenvalues --    1.17597   1.17934   1.17988   1.18231   1.18461
 Alpha virt. eigenvalues --    1.18981   1.19563   1.19686   1.19987   1.20142
 Alpha virt. eigenvalues --    1.20309   1.20568   1.20708   1.21021   1.21520
 Alpha virt. eigenvalues --    1.21544   1.21869   1.22046   1.22988   1.23218
 Alpha virt. eigenvalues --    1.23396   1.23527   1.23848   1.24013   1.24419
 Alpha virt. eigenvalues --    1.24552   1.24808   1.24880   1.25427   1.25754
 Alpha virt. eigenvalues --    1.26046   1.26166   1.26660   1.26809   1.27053
 Alpha virt. eigenvalues --    1.27227   1.27366   1.27656   1.27871   1.28411
 Alpha virt. eigenvalues --    1.28643   1.28725   1.28928   1.29322   1.29561
 Alpha virt. eigenvalues --    1.29833   1.30046   1.30312   1.30497   1.30755
 Alpha virt. eigenvalues --    1.30915   1.31497   1.31625   1.31720   1.32201
 Alpha virt. eigenvalues --    1.32378   1.32573   1.33109   1.33234   1.33773
 Alpha virt. eigenvalues --    1.33978   1.34280   1.34517   1.34781   1.34875
 Alpha virt. eigenvalues --    1.35352   1.35467   1.35567   1.35750   1.35833
 Alpha virt. eigenvalues --    1.36130   1.36352   1.36477   1.36840   1.37206
 Alpha virt. eigenvalues --    1.37747   1.38100   1.38525   1.39124   1.39254
 Alpha virt. eigenvalues --    1.39642   1.39715   1.39978   1.40308   1.40618
 Alpha virt. eigenvalues --    1.40780   1.40991   1.41188   1.41461   1.41568
 Alpha virt. eigenvalues --    1.42171   1.42211   1.42710   1.42822   1.43165
 Alpha virt. eigenvalues --    1.43414   1.43718   1.43760   1.43936   1.44813
 Alpha virt. eigenvalues --    1.45141   1.45513   1.45640   1.46197   1.46370
 Alpha virt. eigenvalues --    1.46683   1.47000   1.47335   1.47663   1.47744
 Alpha virt. eigenvalues --    1.48013   1.48202   1.48361   1.48663   1.49103
 Alpha virt. eigenvalues --    1.49442   1.49664   1.50045   1.50190   1.50568
 Alpha virt. eigenvalues --    1.50663   1.51172   1.51423   1.51579   1.51797
 Alpha virt. eigenvalues --    1.51967   1.52659   1.52904   1.53026   1.53337
 Alpha virt. eigenvalues --    1.53842   1.54055   1.54367   1.54568   1.55020
 Alpha virt. eigenvalues --    1.55321   1.55487   1.55700   1.56105   1.56427
 Alpha virt. eigenvalues --    1.56741   1.56818   1.57098   1.57519   1.57695
 Alpha virt. eigenvalues --    1.58032   1.58149   1.58532   1.58885   1.59015
 Alpha virt. eigenvalues --    1.59577   1.59621   1.60172   1.60386   1.60775
 Alpha virt. eigenvalues --    1.61302   1.61551   1.62001   1.62383   1.62613
 Alpha virt. eigenvalues --    1.62769   1.63156   1.63278   1.63721   1.63857
 Alpha virt. eigenvalues --    1.64198   1.64392   1.64581   1.65267   1.65480
 Alpha virt. eigenvalues --    1.66057   1.66261   1.66376   1.66597   1.66723
 Alpha virt. eigenvalues --    1.66960   1.67199   1.67381   1.67597   1.68126
 Alpha virt. eigenvalues --    1.68433   1.68750   1.69111   1.69253   1.69545
 Alpha virt. eigenvalues --    1.69789   1.70122   1.70575   1.70818   1.71232
 Alpha virt. eigenvalues --    1.71338   1.71699   1.72054   1.72218   1.72438
 Alpha virt. eigenvalues --    1.72709   1.73047   1.73406   1.73560   1.73837
 Alpha virt. eigenvalues --    1.74185   1.74723   1.75494   1.75758   1.75841
 Alpha virt. eigenvalues --    1.76105   1.76229   1.76782   1.76876   1.77118
 Alpha virt. eigenvalues --    1.77505   1.77998   1.78038   1.78384   1.78643
 Alpha virt. eigenvalues --    1.78847   1.79328   1.79647   1.80120   1.80353
 Alpha virt. eigenvalues --    1.80517   1.80647   1.80998   1.81212   1.81260
 Alpha virt. eigenvalues --    1.81360   1.81999   1.82102   1.82475   1.82531
 Alpha virt. eigenvalues --    1.82887   1.83168   1.83286   1.83531   1.83668
 Alpha virt. eigenvalues --    1.83827   1.84135   1.84562   1.84922   1.85030
 Alpha virt. eigenvalues --    1.85171   1.85313   1.85519   1.85800   1.85924
 Alpha virt. eigenvalues --    1.86105   1.86268   1.86499   1.86757   1.87003
 Alpha virt. eigenvalues --    1.87159   1.87572   1.87819   1.88221   1.88366
 Alpha virt. eigenvalues --    1.88451   1.88633   1.88694   1.88865   1.88961
 Alpha virt. eigenvalues --    1.89400   1.89574   1.89808   1.89927   1.90195
 Alpha virt. eigenvalues --    1.90403   1.90476   1.90677   1.90924   1.91154
 Alpha virt. eigenvalues --    1.91243   1.91361   1.91471   1.91555   1.91792
 Alpha virt. eigenvalues --    1.91939   1.92131   1.92418   1.92458   1.92580
 Alpha virt. eigenvalues --    1.92751   1.93037   1.93454   1.93599   1.93714
 Alpha virt. eigenvalues --    1.93985   1.94164   1.94273   1.94402   1.94630
 Alpha virt. eigenvalues --    1.94829   1.94988   1.95120   1.95219   1.95355
 Alpha virt. eigenvalues --    1.95538   1.96157   1.96476   1.96548   1.97069
 Alpha virt. eigenvalues --    1.97187   1.97340   1.97508   1.97675   1.97836
 Alpha virt. eigenvalues --    1.98047   1.98263   1.98383   1.98706   1.98792
 Alpha virt. eigenvalues --    1.99020   1.99362   1.99487   1.99557   1.99651
 Alpha virt. eigenvalues --    2.00010   2.00050   2.00292   2.00402   2.00824
 Alpha virt. eigenvalues --    2.01045   2.01269   2.01428   2.01704   2.01920
 Alpha virt. eigenvalues --    2.02148   2.02315   2.02474   2.02583   2.02790
 Alpha virt. eigenvalues --    2.03011   2.03206   2.03379   2.03549   2.03718
 Alpha virt. eigenvalues --    2.03825   2.03997   2.04223   2.04329   2.04493
 Alpha virt. eigenvalues --    2.04759   2.05036   2.05287   2.05479   2.05661
 Alpha virt. eigenvalues --    2.05995   2.06130   2.06352   2.06406   2.06828
 Alpha virt. eigenvalues --    2.06975   2.07049   2.07382   2.07524   2.07714
 Alpha virt. eigenvalues --    2.07735   2.07866   2.08176   2.08312   2.08556
 Alpha virt. eigenvalues --    2.08722   2.08855   2.08931   2.09070   2.09293
 Alpha virt. eigenvalues --    2.09471   2.09600   2.09776   2.10128   2.10417
 Alpha virt. eigenvalues --    2.10799   2.10960   2.11284   2.11468   2.11640
 Alpha virt. eigenvalues --    2.11885   2.12076   2.12338   2.12615   2.12807
 Alpha virt. eigenvalues --    2.13001   2.13160   2.13511   2.13520   2.13810
 Alpha virt. eigenvalues --    2.13935   2.14153   2.14750   2.15012   2.15335
 Alpha virt. eigenvalues --    2.15478   2.15570   2.15686   2.16129   2.16177
 Alpha virt. eigenvalues --    2.16451   2.16633   2.16893   2.17418   2.17919
 Alpha virt. eigenvalues --    2.18045   2.18376   2.18973   2.19207   2.19330
 Alpha virt. eigenvalues --    2.19529   2.19849   2.20233   2.20899   2.21141
 Alpha virt. eigenvalues --    2.21366   2.21484   2.21607   2.21869   2.22006
 Alpha virt. eigenvalues --    2.22626   2.22719   2.22932   2.23306   2.23561
 Alpha virt. eigenvalues --    2.23959   2.24314   2.24416   2.24621   2.24873
 Alpha virt. eigenvalues --    2.25126   2.25334   2.25594   2.25824   2.25949
 Alpha virt. eigenvalues --    2.26380   2.26990   2.27294   2.27726   2.27949
 Alpha virt. eigenvalues --    2.28146   2.28450   2.28708   2.28982   2.29225
 Alpha virt. eigenvalues --    2.29445   2.29621   2.29979   2.30325   2.30509
 Alpha virt. eigenvalues --    2.31272   2.31375   2.31492   2.31807   2.31992
 Alpha virt. eigenvalues --    2.32544   2.32583   2.32695   2.32808   2.33088
 Alpha virt. eigenvalues --    2.33492   2.33648   2.34029   2.34465   2.34805
 Alpha virt. eigenvalues --    2.34921   2.35363   2.35517   2.35962   2.36052
 Alpha virt. eigenvalues --    2.36184   2.36776   2.37034   2.37623   2.38000
 Alpha virt. eigenvalues --    2.38177   2.38360   2.38490   2.38810   2.39420
 Alpha virt. eigenvalues --    2.39950   2.40119   2.40683   2.41046   2.41334
 Alpha virt. eigenvalues --    2.41499   2.41776   2.42307   2.42659   2.42939
 Alpha virt. eigenvalues --    2.43283   2.43542   2.43844   2.43963   2.44141
 Alpha virt. eigenvalues --    2.44469   2.44711   2.45113   2.45292   2.46014
 Alpha virt. eigenvalues --    2.46131   2.46273   2.46504   2.47234   2.47464
 Alpha virt. eigenvalues --    2.47763   2.48083   2.48338   2.49311   2.49681
 Alpha virt. eigenvalues --    2.49890   2.49977   2.50519   2.50974   2.51024
 Alpha virt. eigenvalues --    2.51176   2.51479   2.51666   2.51804   2.51996
 Alpha virt. eigenvalues --    2.52393   2.52676   2.53378   2.54010   2.54400
 Alpha virt. eigenvalues --    2.54519   2.55101   2.55322   2.56224   2.56268
 Alpha virt. eigenvalues --    2.56892   2.57059   2.57130   2.57505   2.57851
 Alpha virt. eigenvalues --    2.58100   2.58487   2.58747   2.59093   2.59410
 Alpha virt. eigenvalues --    2.59796   2.59948   2.60081   2.60205   2.60732
 Alpha virt. eigenvalues --    2.61065   2.61621   2.61907   2.62160   2.62433
 Alpha virt. eigenvalues --    2.62987   2.63136   2.63171   2.63984   2.64327
 Alpha virt. eigenvalues --    2.64435   2.65084   2.65374   2.65677   2.65804
 Alpha virt. eigenvalues --    2.66322   2.67112   2.67233   2.67413   2.68215
 Alpha virt. eigenvalues --    2.68291   2.68715   2.69108   2.69235   2.69509
 Alpha virt. eigenvalues --    2.69917   2.70070   2.70576   2.70635   2.70927
 Alpha virt. eigenvalues --    2.71661   2.72545   2.72619   2.72864   2.73020
 Alpha virt. eigenvalues --    2.73232   2.73375   2.73940   2.74188   2.74225
 Alpha virt. eigenvalues --    2.74888   2.75468   2.75641   2.75863   2.76857
 Alpha virt. eigenvalues --    2.77044   2.77338   2.77464   2.77728   2.78085
 Alpha virt. eigenvalues --    2.78242   2.78825   2.79007   2.79401   2.79574
 Alpha virt. eigenvalues --    2.79925   2.80227   2.80302   2.80637   2.80808
 Alpha virt. eigenvalues --    2.80972   2.81243   2.81670   2.81792   2.81966
 Alpha virt. eigenvalues --    2.82704   2.83360   2.83507   2.83705   2.84073
 Alpha virt. eigenvalues --    2.84083   2.84168   2.85146   2.85192   2.85527
 Alpha virt. eigenvalues --    2.85634   2.85731   2.86254   2.86381   2.86804
 Alpha virt. eigenvalues --    2.87000   2.87208   2.87598   2.87870   2.87921
 Alpha virt. eigenvalues --    2.88179   2.88323   2.88774   2.89166   2.89351
 Alpha virt. eigenvalues --    2.89536   2.89735   2.89863   2.90178   2.90307
 Alpha virt. eigenvalues --    2.90549   2.90697   2.91058   2.91186   2.91370
 Alpha virt. eigenvalues --    2.91490   2.91590   2.91815   2.91916   2.92195
 Alpha virt. eigenvalues --    2.92460   2.92502   2.92749   2.92935   2.93460
 Alpha virt. eigenvalues --    2.93873   2.94206   2.94475   2.94569   2.95043
 Alpha virt. eigenvalues --    2.95329   2.95998   2.96324   2.96440   2.96577
 Alpha virt. eigenvalues --    2.96742   2.97159   2.97204   2.97407   2.97498
 Alpha virt. eigenvalues --    2.97951   2.98699   2.99051   2.99439   2.99515
 Alpha virt. eigenvalues --    2.99931   3.00024   3.00304   3.00348   3.00543
 Alpha virt. eigenvalues --    3.01315   3.01662   3.01895   3.02163   3.02346
 Alpha virt. eigenvalues --    3.02593   3.02793   3.02908   3.03384   3.03703
 Alpha virt. eigenvalues --    3.03849   3.04322   3.04976   3.05168   3.05792
 Alpha virt. eigenvalues --    3.05874   3.06398   3.06683   3.07119   3.07535
 Alpha virt. eigenvalues --    3.07579   3.08123   3.08144   3.08275   3.08503
 Alpha virt. eigenvalues --    3.09045   3.09275   3.09756   3.10148   3.10207
 Alpha virt. eigenvalues --    3.10677   3.11025   3.11443   3.11603   3.11716
 Alpha virt. eigenvalues --    3.12257   3.12825   3.13014   3.13358   3.13767
 Alpha virt. eigenvalues --    3.14253   3.14346   3.14608   3.14914   3.15099
 Alpha virt. eigenvalues --    3.15649   3.15780   3.16276   3.16709   3.16877
 Alpha virt. eigenvalues --    3.17369   3.17803   3.18126   3.18201   3.18796
 Alpha virt. eigenvalues --    3.19718   3.20122   3.20531   3.21062   3.21853
 Alpha virt. eigenvalues --    3.22984   3.23366   3.23665   3.23775   3.25033
 Alpha virt. eigenvalues --    3.25158   3.25244   3.25530   3.25662   3.26047
 Alpha virt. eigenvalues --    3.26467   3.27207   3.27432   3.27647   3.27788
 Alpha virt. eigenvalues --    3.28441   3.28580   3.29046   3.29358   3.29955
 Alpha virt. eigenvalues --    3.30331   3.30445   3.30784   3.31183   3.31436
 Alpha virt. eigenvalues --    3.31561   3.31974   3.32137   3.32274   3.32596
 Alpha virt. eigenvalues --    3.33023   3.34295   3.34611   3.34685   3.34901
 Alpha virt. eigenvalues --    3.35696   3.35746   3.36279   3.37067   3.37240
 Alpha virt. eigenvalues --    3.38258   3.38416   3.38518   3.39173   3.39779
 Alpha virt. eigenvalues --    3.39829   3.39967   3.41547   3.41668   3.42068
 Alpha virt. eigenvalues --    3.42787   3.43546   3.43881   3.44159   3.45193
 Alpha virt. eigenvalues --    3.47112   3.48841   3.49908   3.50788   3.52479
 Alpha virt. eigenvalues --    3.53903   3.54888   3.60772   3.61635   3.61804
 Alpha virt. eigenvalues --    3.63585   3.64963   3.65510   3.65652   3.65931
 Alpha virt. eigenvalues --    3.67811   3.68576   3.70110   3.70884   3.72020
 Alpha virt. eigenvalues --    3.72945   3.73301   3.73450   3.74556   3.74863
 Alpha virt. eigenvalues --    3.76023   3.76355   3.77670   3.78381   3.80325
 Alpha virt. eigenvalues --    3.80917   3.81184   3.81352   3.81690   3.81799
 Alpha virt. eigenvalues --    3.82182   3.82376   3.83264   3.84354   3.84391
 Alpha virt. eigenvalues --    3.85533   3.85799   3.86192   3.86781   3.89772
 Alpha virt. eigenvalues --    3.89800   3.91166   3.93180   3.94283   3.94645
 Alpha virt. eigenvalues --    4.04722
          Condensed to atoms (all electrons):
 Mulliken charges:
               1
     1  C    0.052426
     2  C    0.052469
     3  O   -0.299682
     4  H    0.040421
     5  H    0.031396
     6  H   -0.016461
     7  N   -0.098820
     8  C    0.061412
     9  C    0.117012
    10  O   -0.319671
    11  C    0.161469
    12  C    0.139908
    13  O   -0.357529
    14  O   -0.507457
    15  H    0.097806
    16  H    0.021641
    17  H   -0.029716
    18  H   -0.047287
    19  N   -0.173094
    20  C    0.123347
    21  C    0.081270
    22  O   -0.348047
    23  C    0.062241
    24  H    0.154373
    25  H    0.009035
    26  H    0.017771
    27  H   -0.007434
    28  H    0.000334
    29  N   -0.188328
    30  C    0.157995
    31  C    0.078462
    32  O   -0.353111
    33  C    0.110907
    34  C    0.092847
    35  O   -0.484506
    36  O   -0.339921
    37  H    0.167206
    38  H    0.000556
    39  H   -0.012702
    40  H   -0.008144
    41  N   -0.169266
    42  C    0.255628
    43  C   -0.030486
    44  O   -0.335038
    45  H    0.128283
    46  H    0.015059
    47  H   -0.000948
    48  N   -0.140638
    49  C    0.194080
    50  C    0.104932
    51  O   -0.336093
    52  C   -0.013205
    53  C    0.090126
    54  N    0.052301
    55  O   -0.397992
    56  H    0.163901
    57  H    0.010376
    58  H    0.038222
    59  H    0.005695
    60  H    0.104697
    61  H    0.134733
    62  N   -0.142830
    63  C    0.234729
    64  C    0.012240
    65  O   -0.286307
    66  H    0.126190
    67  H    0.039109
    68  H    0.009839
    69  N   -0.233216
    70  C    0.129270
    71  C    0.097207
    72  O   -0.312262
    73  C    0.126017
    74  C    0.126544
    75  O   -0.329393
    76  H    0.200114
    77  H   -0.005832
    78  H   -0.016457
    79  H    0.183035
    80  H   -0.012022
    81  H   -0.042733
    82  H    0.025207
    83  N   -0.185706
    84  C    0.172887
    85  C    0.111879
    86  O   -0.314739
    87  C   -0.072999
    88  C   -0.000240
    89  C    0.018148
    90  C    0.038790
    91  H    0.115709
    92  H    0.032638
    93  H   -0.027191
    94  H   -0.032516
    95  H   -0.007870
    96  H    0.033336
    97  H   -0.008428
    98  H    0.036206
    99  H   -0.006347
   100  H    0.033477
   101  H   -0.008648
   102  N   -0.136017
   103  C    0.038370
   104  C    0.134568
   105  O   -0.298823
   106  C    0.101147
   107  C    0.157208
   108  O   -0.440076
   109  O   -0.389561
   110  H    0.163268
   111  H    0.010265
   112  H   -0.028943
   113  H    0.025001
   114  N   -0.129012
   115  C    0.125469
   116  C    0.089187
   117  O   -0.260579
   118  C    0.142965
   119  C   -0.048187
   120  C    0.029262
   121  C    0.014009
   122  C    0.024765
   123  C    0.021220
   124  C    0.004362
   125  H    0.120997
   126  H    0.016149
   127  H   -0.007616
   128  H    0.009136
   129  H   -0.020766
   130  H   -0.039604
   131  H   -0.028726
   132  H   -0.024457
   133  H   -0.033633
   134  N   -0.290361
   135  C    0.152735
   136  C    0.059548
   137  O   -0.298399
   138  C    0.025551
   139  C   -0.009877
   140  C    0.152483
   141  H    0.011320
   142  H    0.023186
   143  H   -0.025142
   144  H    0.061248
   145  H    0.010924
   146  H    0.018692
   147  H    0.002930
   148  N   -0.160383
   149  C    0.134011
   150  C    0.040946
   151  O   -0.297059
   152  C    0.045638
   153  C    0.065619
   154  C    0.139835
   155  O   -0.445170
   156  O   -0.373883
   157  H    0.139552
   158  H    0.014138
   159  H    0.011449
   160  H   -0.003623
   161  H   -0.027986
   162  H    0.028366
   163  N   -0.152374
   164  C    0.143206
   165  H   -0.008986
   166  H    0.003999
   167  H    0.021289
   168  H    0.136649
   169  Ca   1.245811
   170  O   -0.257819
   171  H    0.170063
   172  H    0.178930
 Sum of Mulliken charges =  -2.00000
 Mulliken charges with hydrogens summed into heavy atoms:
               1
     1  C    0.107782
     2  C    0.052469
     3  O   -0.299682
     7  N   -0.001013
     8  C    0.083053
     9  C    0.117012
    10  O   -0.319671
    11  C    0.084466
    12  C    0.139908
    13  O   -0.357529
    14  O   -0.507457
    19  N   -0.018720
    20  C    0.132382
    21  C    0.081270
    22  O   -0.348047
    23  C    0.072912
    29  N   -0.021122
    30  C    0.158551
    31  C    0.078462
    32  O   -0.353111
    33  C    0.090061
    34  C    0.092847
    35  O   -0.484506
    36  O   -0.339921
    41  N   -0.040983
    42  C    0.269738
    43  C   -0.030486
    44  O   -0.335038
    48  N    0.023263
    49  C    0.204456
    50  C    0.104932
    51  O   -0.336093
    52  C    0.030712
    53  C    0.090126
    54  N    0.291731
    55  O   -0.397992
    62  N   -0.016640
    63  C    0.283677
    64  C    0.012240
    65  O   -0.286307
    69  N   -0.033101
    70  C    0.123438
    71  C    0.097207
    72  O   -0.312262
    73  C    0.109560
    74  C    0.096996
    75  O   -0.146359
    83  N   -0.069997
    84  C    0.205525
    85  C    0.111879
    86  O   -0.314739
    87  C   -0.100190
    88  C   -0.040626
    89  C    0.079262
    90  C    0.057271
   102  N    0.027251
   103  C    0.048634
   104  C    0.134568
   105  O   -0.298823
   106  C    0.097205
   107  C    0.157208
   108  O   -0.440076
   109  O   -0.389561
   114  N   -0.008014
   115  C    0.141618
   116  C    0.089187
   117  O   -0.260579
   118  C    0.144485
   119  C   -0.048187
   120  C    0.008496
   121  C   -0.025594
   122  C   -0.003962
   123  C   -0.003237
   124  C   -0.029271
   134  N   -0.290361
   135  C    0.164055
   136  C    0.059548
   137  O   -0.298399
   138  C    0.023594
   139  C    0.062295
   140  C    0.174105
   148  N   -0.020830
   149  C    0.148149
   150  C    0.040946
   151  O   -0.297059
   152  C    0.053464
   153  C    0.066000
   154  C    0.139835
   155  O   -0.445170
   156  O   -0.373883
   163  N   -0.015725
   164  C    0.159507
   169  Ca   1.245811
   170  O    0.091175
 DipInt: DoE/N= T F RetVal/Mat= T F Init=T NMatP=  1 IDeriv=0 Min/MaxMlt=  0  4
 Entering OneElI...
 OneElI was handed  1334041911 working-precision words.
 Multipole integrals L=0 to 4 MinM= 0 MaxM= 0.
 Requested accuracy = 0.1000D-12
 ShPair: Thresh= 1.00D-13 NBox=     0 BxSize= 0.00D+00 RnKept= 2.87D+01
         NSMCal=               320400 NSMKep=              158283
 PrmmSu-InSpLW:  IPartL=    0 NPrtUS=    1 NPrtUL=    1 DoSpLW=F IThBeg=    0 IThEnd=    0 NThAct=    1.
 PrSmSu:  IncTry=   512 NBBP=         158283 NTPThr=   100 NPartT=    1 Incr=         512 LDynOK=F GPUOK=F.
 PrsmSu:  NPrtUS=   1 ThrOK=F IAlg=2 LenDen=           0 ISkipM=0 DoSpLW=F IThBeg=    0 IThEnd=    0.
 Prism:   IPart=     0 DynPar=F LinDyn=F Incr=         512.
 PRISM was handed  1324073787 working-precision words and158283 shell-pairs
 IPart=  0 NShTot=      158283 NBatch=         596 AvBLen=       265.6
 PrsmSu-ThDecC:  IPartSL=    0    0 NPrtUSL=    1    1 IThBeg=    0 IThEnd=    0 CPU=   -1 GPU=   -1 NThAct=    1.
 PrSmSu:  NxtVal=            513.
 Electronic moments (au):
       -720.00000000          7.07006640         -6.16061161          1.32800765
     -59305.07945394     -22693.35118732     -14399.84093351         10.95631868
        -69.37231938        -11.84320607    -251558.15007157      -3270.15797881
     -27294.19217182      66263.13036387      33192.04566085      99447.24439602
     -16629.96689100      -6061.48386645     -18954.26280161     -11420.93113074
  -11803545.48711188   -1654815.55963072    -752716.41181052     380904.73272721
    1029712.05250387    -111205.88019753      98400.60254458     -95723.26550786
     -23790.67310192   -1206540.78772234    -976985.09747278    -411946.80191194
     -34583.86080991      -8407.99246636      68210.61816457
 Electronic spatial extent (au):  <R**2>=          96398.2716
 DipInt: DoE/N= F T RetVal/Mat= T F Init=T NMatP=  1 IDeriv=0 Min/MaxMlt=  0  4
 Nuclear    moments (au):
        718.00000000          0.00000000          0.00000000         -0.00000000
      58717.92281191      22134.19683228      13937.12918844         -0.00000000
          0.00000000         -0.00000000     252671.95941178       2763.02046851
      27344.34129264     -65628.72731127     -33702.63654858     -99564.80168832
      16621.06840267       5963.34128185      18905.78052591      11158.11687193
   11562455.56745169    1560366.36409250     700490.60621724    -381899.62499519
   -1037756.87350758     113125.20821818     -98471.28514038      94175.49910640
      24932.17695279    1148690.67346774     931377.04774375     387588.60923081
      34336.48379535       7823.52744070     -67449.13884290
 Total      moments (au):
         -2.00000000          7.07006640         -6.16061161          1.32800765
       -587.15664203       -559.15435505       -462.71174506         10.95631868
        -69.37231938        -11.84320607       1113.80934021       -507.13751030
         50.14912082        634.40305261       -510.59088773       -117.55729230
         -8.89848833        -98.14258460        -48.48227571       -262.81425880
    -241089.91966019     -94449.19553822     -52225.80559328       -994.89226798
      -8044.82100372       1919.32802065        -70.68259580      -1547.76640146
       1141.50385088     -57850.11425460     -45608.04972903     -24358.19268113
       -247.37701456       -584.46502566        761.47932167
 Traceless Quadrup. (au):
        -50.81572798        -22.81344100         73.62916898         10.95631868
        -69.37231938        -11.84320607
 Charge=             -2.0000 electrons
 Dipole moment (field-independent basis, Debye):
    X=             17.9703    Y=            -15.6587    Z=              3.3755  Tot=             24.0732
 Quadrupole moment (field-independent basis, Debye-Ang):
   XX=           -789.7458   YY=           -752.0818   ZZ=           -622.3631
   XY=             14.7366   XZ=            -93.3081   YZ=            -15.9295
 Traceless Quadrupole moment (field-independent basis, Debye-Ang):
   XX=            -68.3489   YY=            -30.6849   ZZ=             99.0338
   XY=             14.7366   XZ=            -93.3081   YZ=            -15.9295
 Octapole moment (field-independent basis, Debye-Ang**2):
  XXX=            792.7666  YYY=           -360.9609  ZZZ=             35.6942  XYY=            451.5437
  XXY=           -363.4189  XXZ=            -83.6728  XZZ=             -6.3336  YZZ=            -69.8541
  YYZ=            -34.5078  XYZ=           -187.0611
 Hexadecapole moment (field-independent basis, Debye-Ang**3):
 XXXX=         -90806.0244 YYYY=         -35574.0960 ZZZZ=         -19670.7427 XXXY=           -374.7241
 XXXZ=          -3030.0654 YYYX=            722.9110 YYYZ=            -26.6225 ZZZX=           -582.9630
 ZZZY=            429.9451 XXYY=         -21789.1270 XXZZ=         -17178.1785 YYZZ=          -9174.4634
 XXYZ=            -93.1740 YYXZ=           -220.1376 ZZXY=            286.8096
 N-N= 2.204528600780D+04 E-N=-5.680607150016D+04  KE= 5.344480360635D+03
 Leave Link  601 at Mon Nov 23 01:00:15 2020, MaxMem=  1342177280 cpu:              11.6 elap:               1.2
 FitSet:  NAtFit=   172 NAtPot=   172 NAtFrz=     0 MDM=   176 TotChg=  -2.00000
 Merz-Kollman atomic radii used.
 Read replacement radii for each type of atom:
 Rad(20) =   1.000000000000D+00
 Atom Element Radius
    1     6    1.50
    2     6    1.50
    3     8    1.40
    4     1    1.20
    5     1    1.20
    6     1    1.20
    7     7    1.50
    8     6    1.50
    9     6    1.50
   10     8    1.40
   11     6    1.50
   12     6    1.50
   13     8    1.40
   14     8    1.40
   15     1    1.20
   16     1    1.20
   17     1    1.20
   18     1    1.20
   19     7    1.50
   20     6    1.50
   21     6    1.50
   22     8    1.40
   23     6    1.50
   24     1    1.20
   25     1    1.20
   26     1    1.20
   27     1    1.20
   28     1    1.20
   29     7    1.50
   30     6    1.50
   31     6    1.50
   32     8    1.40
   33     6    1.50
   34     6    1.50
   35     8    1.40
   36     8    1.40
   37     1    1.20
   38     1    1.20
   39     1    1.20
   40     1    1.20
   41     7    1.50
   42     6    1.50
   43     6    1.50
   44     8    1.40
   45     1    1.20
   46     1    1.20
   47     1    1.20
   48     7    1.50
   49     6    1.50
   50     6    1.50
   51     8    1.40
   52     6    1.50
   53     6    1.50
   54     7    1.50
   55     8    1.40
   56     1    1.20
   57     1    1.20
   58     1    1.20
   59     1    1.20
   60     1    1.20
   61     1    1.20
   62     7    1.50
   63     6    1.50
   64     6    1.50
   65     8    1.40
   66     1    1.20
   67     1    1.20
   68     1    1.20
   69     7    1.50
   70     6    1.50
   71     6    1.50
   72     8    1.40
   73     6    1.50
   74     6    1.50
   75     8    1.40
   76     1    1.20
   77     1    1.20
   78     1    1.20
   79     1    1.20
   80     1    1.20
   81     1    1.20
   82     1    1.20
   83     7    1.50
   84     6    1.50
   85     6    1.50
   86     8    1.40
   87     6    1.50
   88     6    1.50
   89     6    1.50
   90     6    1.50
   91     1    1.20
   92     1    1.20
   93     1    1.20
   94     1    1.20
   95     1    1.20
   96     1    1.20
   97     1    1.20
   98     1    1.20
   99     1    1.20
  100     1    1.20
  101     1    1.20
  102     7    1.50
  103     6    1.50
  104     6    1.50
  105     8    1.40
  106     6    1.50
  107     6    1.50
  108     8    1.40
  109     8    1.40
  110     1    1.20
  111     1    1.20
  112     1    1.20
  113     1    1.20
  114     7    1.50
  115     6    1.50
  116     6    1.50
  117     8    1.40
  118     6    1.50
  119     6    1.50
  120     6    1.50
  121     6    1.50
  122     6    1.50
  123     6    1.50
  124     6    1.50
  125     1    1.20
  126     1    1.20
  127     1    1.20
  128     1    1.20
  129     1    1.20
  130     1    1.20
  131     1    1.20
  132     1    1.20
  133     1    1.20
  134     7    1.50
  135     6    1.50
  136     6    1.50
  137     8    1.40
  138     6    1.50
  139     6    1.50
  140     6    1.50
  141     1    1.20
  142     1    1.20
  143     1    1.20
  144     1    1.20
  145     1    1.20
  146     1    1.20
  147     1    1.20
  148     7    1.50
  149     6    1.50
  150     6    1.50
  151     8    1.40
  152     6    1.50
  153     6    1.50
  154     6    1.50
  155     8    1.40
  156     8    1.40
  157     1    1.20
  158     1    1.20
  159     1    1.20
  160     1    1.20
  161     1    1.20
  162     1    1.20
  163     7    1.50
  164     6    1.50
  165     1    1.20
  166     1    1.20
  167     1    1.20
  168     1    1.20
  169    20    1.00
  170     8    1.40
  171     1    1.20
  172     1    1.20
 Generate VDW surfaces: Layer= 4 Dens= 6 Start= 1.400 Inc= 0.200

 **********************************************************************

            Electrostatic Properties Using The SCF Density.

 **********************************************************************

       Atomic Center    1 is at   0.270596  3.493542  5.797636
       Atomic Center    2 is at  -0.196056  3.397539  4.311561
       Atomic Center    3 is at   0.605003  3.589708  3.375091
       Atomic Center    4 is at   0.762516  2.564126  6.083638
       Atomic Center    5 is at   0.969221  4.323463  5.906924
       Atomic Center    6 is at  -0.594113  3.659610  6.440615
       Atomic Center    7 is at  -1.444328  3.012536  4.046816
[...]
 **** Fit      -0.078030
 **** Fit      -0.076786
 **** Fit      -0.079201
 **** Fit      -0.080917
 **** Fit      -0.083667
 **** Fit      -0.085018
 **** Fit      -0.083035
 **** Fit      -0.080007
 **** Fit      -0.081885
 **** Fit      -0.144705
 **** Fit      -0.143972
 **** Fit      -0.149062
 **** Fit      -0.154525
 **** Fit      -0.159926
 **** Fit      -0.145644
 **** Fit      -0.151643
 **** Fit      -0.138551
 **** Fit      -0.137633
 **** Fit      -0.139173
 **** Fit      -0.140053
 **** Fit      -0.139420
 **** Fit      -0.138061
 **** Fit      -0.137115
 **** Fit      -0.136671
 **** Fit      -0.138273
 **** Fit      -0.139942
 **** Fit      -0.141230
 **** Fit      -0.141728
 **** Fit      -0.141285
 **** Fit      -0.140222
 **** Fit      -0.138966
 **** Fit      -0.137682
 **** Fit      -0.136463
 **** Fit      -0.135602
 **** Fit      -0.135633
 **** Fit      -0.135672
 **** Fit      -0.137382
 **** Fit      -0.139165
 **** Fit      -0.140873
 **** Fit      -0.142335
 **** Fit      -0.143339
 **** Fit      -0.143670
 **** Fit      -0.143219
 **** Fit      -0.142158
 **** Fit      -0.140919
 **** Fit      -0.139731
 **** Fit      -0.138556
 **** Fit      -0.137374
 **** Fit      -0.136152
 **** Fit      -0.134871
 **** Fit      -0.133816
 **** Fit      -0.133534
 **** Fit      -0.134257
 **** Fit      -0.134658
 **** Fit      -0.136545
 **** Fit      -0.138412
 **** Fit      -0.140240
 **** Fit      -0.141985
 **** Fit      -0.143563
 **** Fit      -0.144853
 **** Fit      -0.145708
 **** Fit      -0.145967
 **** Fit      -0.145490
 **** Fit      -0.144295
 **** Fit      -0.142779
 **** Fit      -0.141463
 **** Fit      -0.140380
 **** Fit      -0.139295
 **** Fit      -0.138161
 **** Fit      -0.137063
 **** Fit      -0.135939
 **** Fit      -0.134584
 **** Fit      -0.135858
 **** Fit      -0.137892
 **** Fit      -0.139859
 **** Fit      -0.141773
 **** Fit      -0.143603
 **** Fit      -0.145292
 **** Fit      -0.146760
 **** Fit      -0.147904
 **** Fit      -0.148589
 **** Fit      -0.148651
 **** Fit      -0.147889
 **** Fit      -0.140503
 **** Fit      -0.139359
 **** Fit      -0.138087
 **** Fit      -0.136961
 **** Fit      -0.136020
 **** Fit      -0.134910
 **** Fit      -0.135363
 **** Fit      -0.137609
 **** Fit      -0.139756
 **** Fit      -0.141852
 **** Fit      -0.143889
 **** Fit      -0.145830
 **** Fit      -0.147630
 **** Fit      -0.149237
 **** Fit      -0.150584
 **** Fit      -0.151565
 **** Fit      -0.152018
 **** Fit      -0.141412
 **** Fit      -0.140150
 **** Fit      -0.138498
 **** Fit      -0.135410
 **** Fit      -0.134427
 **** Fit      -0.135054
 **** Fit      -0.137467
 **** Fit      -0.139778
 **** Fit      -0.142045
 **** Fit      -0.144264
 **** Fit      -0.146402
 **** Fit      -0.148419
 **** Fit      -0.150289
 **** Fit      -0.152001
 **** Fit      -0.153543
 **** Fit      -0.154868
 **** Fit      -0.155844
 **** Fit      -0.141549
 **** Fit      -0.137634
 **** Fit      -0.140160
 **** Fit      -0.142664
 **** Fit      -0.145129
 **** Fit      -0.147507
 **** Fit      -0.149742
 **** Fit      -0.151797
 **** Fit      -0.153680
 **** Fit      -0.155444
 **** Fit      -0.157165
 **** Fit      -0.158879
 **** Fit      -0.160505
 **** Fit      -0.144828
 **** Fit      -0.138280
 **** Fit      -0.141167
 **** Fit      -0.144068
 **** Fit      -0.146941
 **** Fit      -0.149695
 **** Fit      -0.152226
 **** Fit      -0.154459
 **** Fit      -0.156406
 **** Fit      -0.158188
 **** Fit      -0.160020
 **** Fit      -0.162147
 **** Fit      -0.164723
 **** Fit      -0.142509
 **** Fit      -0.145883
 **** Fit      -0.149265
 **** Fit      -0.152503
 **** Fit      -0.155399
 **** Fit      -0.157791
 **** Fit      -0.159641
 **** Fit      -0.161112
 **** Fit      -0.148575
 **** Fit      -0.152717
 **** Fit      -0.156687
 **** Fit      -0.160099
 **** Fit      -0.162595
 **** Fit      -0.160431
 **** Fit      -0.159725
 **** Fit      -0.155390
 **** Fit      -0.156526
 **** Fit      -0.152495
 **** Fit      -0.155586
 **** Fit      -0.152302
 **** Fit      -0.156373
 **** Fit      -0.151941
 **** Fit      -0.147365
 **** Fit      -0.150265
 **** Fit      -0.142909
 **** Fit      -0.138195
 **** Fit      -0.137178
 **** Fit      -0.131989
 **** Fit      -0.130475
 **** Fit      -0.180671
 **** Fit      -0.189304
 **** Fit      -0.193321
 **** Fit      -0.202514
 **** Fit      -0.162340
 **** Fit      -0.163087
 **** Fit      -0.166602
 **** Fit      -0.159742
 **** Fit      -0.158554
 **** Fit      -0.159451
 **** Fit      -0.162845
 **** Fit      -0.162597
 **** Fit      -0.159864
 **** Fit      -0.157900
 **** Fit      -0.157196
 **** Fit      -0.158353
 **** Fit      -0.162042
 **** Fit      -0.160787
 **** Fit      -0.158760
 **** Fit      -0.157849
 **** Fit      -0.158732
 **** Fit      -0.162101
 **** Fit      -0.160933
 **** Fit      -0.159945
 **** Fit      -0.161294
 **** Fit      -0.165698
 **** Fit      -0.162809
 **** Fit      -0.164374
 **** Fit      -0.169293
 **** Fit      -0.165854
 **** Fit      -0.168259
 **** Fit      -0.168209
 **** Fit      -0.169842
 **** Fit      -0.169637
 **** Fit      -0.171308
 **** Fit      -0.169799
 **** Fit      -0.145354
 **** Fit      -0.137080
 **** Fit      -0.136905
 **** Fit      -0.139962
 **** Fit      -0.146704
 **** Fit      -0.150451
 **** Fit      -0.145284
 **** Fit      -0.149902
 **** Fit      -0.148921
 **** Fit      -0.154521
 **** Fit      -0.164555
 **** Fit      -0.170989
 **** Fit      -0.170314
 **** Fit      -0.170888
 **** Fit      -0.168285
 **** Fit      -0.166494
 **** Fit      -0.166032
 **** Fit      -0.164639
 **** Fit      -0.162971
 **** Fit      -0.162517
 **** Fit      -0.160015
 **** Fit      -0.142926
 **** Fit      -0.102594
 **** Fit      -0.102407
 **** Fit      -0.100753
 **** Fit      -0.099918
 **** Fit      -0.099929
 **** Fit      -0.100812
 **** Fit      -0.101425
 **** Fit      -0.103791
 **** Fit      -0.106917
 **** Fit      -0.108431
 **** Fit      -0.105289
 **** Fit      -0.102720
 **** Fit      -0.100726
 **** Fit      -0.099318
 **** Fit      -0.098507
 **** Fit      -0.098301
 **** Fit      -0.098710
 **** Fit      -0.099745
 **** Fit      -0.100621
 **** Fit      -0.102840
 **** Fit      -0.105709
 **** Fit      -0.109330
 **** Fit      -0.113846
 **** Fit      -0.119488
 **** Fit      -0.107550
 **** Fit      -0.104579
 **** Fit      -0.102086
 **** Fit      -0.100097
 **** Fit      -0.098625
 **** Fit      -0.097670
 **** Fit      -0.097227
 **** Fit      -0.097296
 **** Fit      -0.097879
 **** Fit      -0.098981
 **** Fit      -0.100175
 **** Fit      -0.112097
 **** Fit      -0.117000
 **** Fit      -0.123043
 **** Fit      -0.130641
 **** Fit      -0.097209
 **** Fit      -0.096642
 **** Fit      -0.096503
 **** Fit      -0.096786
 **** Fit      -0.097489
 **** Fit      -0.098612
 **** Fit      -0.121138
 **** Fit      -0.127759
 **** Fit      -0.136051
 **** Fit      -0.096499
 **** Fit      -0.096206
 **** Fit      -0.096280
 **** Fit      -0.096710
 **** Fit      -0.097486
 **** Fit      -0.098608
 **** Fit      -0.125559
 **** Fit      -0.132519
 **** Fit      -0.096308
 **** Fit      -0.096275
 **** Fit      -0.096548
 **** Fit      -0.097109
 **** Fit      -0.097942
 **** Fit      -0.131336
 **** Fit      -0.138691
 **** Fit      -0.096828
 **** Fit      -0.097279
 **** Fit      -0.097969
 **** Fit      -0.140164
 **** Fit      -0.097781
 **** Fit      -0.098425
 **** Fit      -0.099208
 **** Fit      -0.100129
 **** Fit      -0.101178
 **** Fit      -0.102497
 **** Fit      -0.103415
 **** Fit      -0.105311
 **** Fit      -0.105828
 **** Fit      -0.108543
 **** Fit      -0.111828
 **** Fit      -0.108464
 **** Fit      -0.112311
 **** Fit      -0.104432
 **** Fit      -0.101714
 **** Fit      -0.099671
 **** Fit      -0.098413
 **** Fit      -0.103315
 **** Fit      -0.100751
 **** Fit      -0.098702
 **** Fit      -0.097313
 **** Fit      -0.096647
 **** Fit      -0.096712
 **** Fit      -0.102793
 **** Fit      -0.100310
 **** Fit      -0.098243
 **** Fit      -0.096750
 **** Fit      -0.095899
 **** Fit      -0.095709
 **** Fit      -0.096163
 **** Fit      -0.101738
 **** Fit      -0.099254
 **** Fit      -0.097303
 **** Fit      -0.095989
 **** Fit      -0.095351
 **** Fit      -0.095395
 **** Fit      -0.096095
 **** Fit      -0.103993
 **** Fit      -0.101064
 **** Fit      -0.098643
 **** Fit      -0.096853
 **** Fit      -0.095747
 **** Fit      -0.095345
 **** Fit      -0.095642
 **** Fit      -0.096607
 **** Fit      -0.104519
 **** Fit      -0.101387
 **** Fit      -0.098899
 **** Fit      -0.097126
 **** Fit      -0.096104
 **** Fit      -0.095846
 **** Fit      -0.096347
 **** Fit      -0.097576
 **** Fit      -0.107248
 **** Fit      -0.103482
 **** Fit      -0.100490
 **** Fit      -0.098343
 **** Fit      -0.097084
 **** Fit      -0.096738
 **** Fit      -0.097313
 **** Fit      -0.098787
 **** Fit      -0.111710
 **** Fit      -0.107020
 **** Fit      -0.103201
 **** Fit      -0.100377
 **** Fit      -0.098621
 **** Fit      -0.097988
 **** Fit      -0.098518
 **** Fit      -0.100225
 **** Fit      -0.116463
 **** Fit      -0.111050
 **** Fit      -0.106439
 **** Fit      -0.102899
 **** Fit      -0.100578
 **** Fit      -0.099584
 **** Fit      -0.100018
 **** Fit      -0.101959
 **** Fit      -0.112851
 **** Fit      -0.107735
 **** Fit      -0.103958
 **** Fit      -0.101800
 **** Fit      -0.101494
 **** Fit      -0.103271
 **** Fit      -0.107287
 **** Fit      -0.114247
 **** Fit      -0.108729
 **** Fit      -0.101412
 **** Fit      -0.103546
 **** Fit      -0.106633
 **** Fit      -0.110750
 **** Fit      -0.100287
 **** Fit      -0.102221
 **** Fit      -0.104942
 **** Fit      -0.108525
 **** Fit      -0.113057
 **** Fit      -0.118647
 **** Fit      -0.099077
 **** Fit      -0.099852
 **** Fit      -0.101612
 **** Fit      -0.104016
 **** Fit      -0.107127
 **** Fit      -0.111016
 **** Fit      -0.115763
 **** Fit      -0.121462
 **** Fit      -0.098070
 **** Fit      -0.098685
 **** Fit      -0.100181
 **** Fit      -0.101913
 **** Fit      -0.104235
 **** Fit      -0.107212
 **** Fit      -0.110913
 **** Fit      -0.115414
 **** Fit      -0.120782
 **** Fit      -0.127080
 **** Fit      -0.098102
 **** Fit      -0.098306
 **** Fit      -0.098991
 **** Fit      -0.101376
 **** Fit      -0.103076
 **** Fit      -0.105301
 **** Fit      -0.108110
 **** Fit      -0.111575
 **** Fit      -0.115769
 **** Fit      -0.120749
 **** Fit      -0.126533
 **** Fit      -0.133066
 **** Fit      -0.099097
 **** Fit      -0.099026
 **** Fit      -0.099375
 **** Fit      -0.100153
 **** Fit      -0.103585
 **** Fit      -0.105307
 **** Fit      -0.107502
 **** Fit      -0.110234
 **** Fit      -0.113578
 **** Fit      -0.117607
 **** Fit      -0.122383
 **** Fit      -0.127909
 **** Fit      -0.134066
 **** Fit      -0.100731
 **** Fit      -0.100866
 **** Fit      -0.101385
 **** Fit      -0.102288
 **** Fit      -0.107021
 **** Fit      -0.108871
 **** Fit      -0.111177
 **** Fit      -0.114016
 **** Fit      -0.117474
 **** Fit      -0.121633
 **** Fit      -0.126549
 **** Fit      -0.132191
 **** Fit      -0.138314
 **** Fit      -0.103376
 **** Fit      -0.103743
 **** Fit      -0.104479
 **** Fit      -0.105569
 **** Fit      -0.111993
 **** Fit      -0.114040
 **** Fit      -0.116530
 **** Fit      -0.119557
 **** Fit      -0.123208
 **** Fit      -0.127558
 **** Fit      -0.132620
 **** Fit      -0.138246
 **** Fit      -0.107178
 **** Fit      -0.107887
 **** Fit      -0.108945
 **** Fit      -0.110312
 **** Fit      -0.118964
 **** Fit      -0.121246
 **** Fit      -0.123939
 **** Fit      -0.127135
 **** Fit      -0.130892
 **** Fit      -0.112508
 **** Fit      -0.113732
 **** Fit      -0.115250
 **** Fit      -0.116991
 **** Fit      -0.113722
 **** Fit      -0.110176
 **** Fit      -0.115207
 **** Fit      -0.119804
 **** Fit      -0.118185
 **** Fit      -0.112709
 **** Fit      -0.109190
 **** Fit      -0.107484
 **** Fit      -0.111426
 **** Fit      -0.117133
 **** Fit      -0.123438
 **** Fit      -0.127881
 **** Fit      -0.127902
 **** Fit      -0.123621
 **** Fit      -0.117647
 **** Fit      -0.112184
 **** Fit      -0.108148
 **** Fit      -0.105896
 **** Fit      -0.105636
 **** Fit      -0.105580
 **** Fit      -0.108819
 **** Fit      -0.113451
 **** Fit      -0.119449
 **** Fit      -0.126477
 **** Fit      -0.130064
 **** Fit      -0.123246
 **** Fit      -0.117152
 **** Fit      -0.112142
 **** Fit      -0.108211
 **** Fit      -0.105356
 **** Fit      -0.103614
 **** Fit      -0.103035
 **** Fit      -0.103672
 **** Fit      -0.104404
 **** Fit      -0.107310
 **** Fit      -0.111335
 **** Fit      -0.116621
 **** Fit      -0.123295
 **** Fit      -0.131335
 **** Fit      -0.133195
 **** Fit      -0.125461
 **** Fit      -0.119145
 **** Fit      -0.114042
 **** Fit      -0.109885
 **** Fit      -0.106566
 **** Fit      -0.104060
 **** Fit      -0.102374
 **** Fit      -0.101532
 **** Fit      -0.101567
 **** Fit      -0.102511
 **** Fit      -0.103904
 **** Fit      -0.106635
 **** Fit      -0.110316
 **** Fit      -0.115117
 **** Fit      -0.121268
 **** Fit      -0.129044
 **** Fit      -0.130914
 **** Fit      -0.123673
 **** Fit      -0.118014
 **** Fit      -0.113379
 **** Fit      -0.109523
 **** Fit      -0.106370
 **** Fit      -0.103894
 **** Fit      -0.114194
 **** Fit      -0.119635
 **** Fit      -0.126552
 **** Fit      -0.082046
 **** Fit      -0.081526
 **** Fit      -0.084122
 **** Fit      -0.082248
 **** Fit      -0.081251
 **** Fit      -0.080954
 **** Fit      -0.087344
 **** Fit      -0.084913
 **** Fit      -0.082302
 **** Fit      -0.081005
 **** Fit      -0.081261
 **** Fit      -0.081674
 **** Fit      -0.088930
 **** Fit      -0.085361
 **** Fit      -0.082323
 **** Fit      -0.080546
 **** Fit      -0.080435
 **** Fit      -0.081812
 **** Fit      -0.083453
 **** Fit      -0.083586
 **** Fit      -0.096902
 **** Fit      -0.092670
 **** Fit      -0.088104
 **** Fit      -0.084072
 **** Fit      -0.081024
 **** Fit      -0.079304
 **** Fit      -0.100688
 **** Fit      -0.094778
 **** Fit      -0.089276
 **** Fit      -0.084610
 **** Fit      -0.080866
 **** Fit      -0.103466
 **** Fit      -0.096400
 **** Fit      -0.090368
 **** Fit      -0.085279
 **** Fit      -0.080897
 **** Fit      -0.106642
 **** Fit      -0.098445
 **** Fit      -0.091830
 **** Fit      -0.086170
 **** Fit      -0.087842
 **** Fit      -0.090908
 **** Fit      -0.089958
 **** Fit      -0.086814
 **** Fit      -0.085104
 **** Fit      -0.086960
 **** Fit      -0.089437
 **** Fit      -0.094648
 **** Fit      -0.094964
 **** Fit      -0.083261
 **** Fit      -0.082228
 **** Fit      -0.084156
 **** Fit      -0.087443
 **** Fit      -0.089927
 **** Fit      -0.091515
 **** Fit      -0.093145
 **** Fit      -0.099314
 **** Fit      -0.100540
 **** Fit      -0.085135
 **** Fit      -0.089467
 **** Fit      -0.092160
 **** Fit      -0.093163
 **** Fit      -0.093892
 **** Fit      -0.095324
 **** Fit      -0.097313
 **** Fit      -0.105111
 **** Fit      -0.107328
 **** Fit      -0.107959
 **** Fit      -0.085160
 **** Fit      -0.096328
 **** Fit      -0.096101
 **** Fit      -0.097332
 **** Fit      -0.099607
 **** Fit      -0.115782
 **** Fit      -0.117444
 -----------------------------------------------------------------
 Leave Link  602 at Mon Nov 23 01:00:18 2020, MaxMem=  1342177280 cpu:              41.2 elap:               3.5

 Test job not archived.
 1\1\GINC-COMPUTE-7-1\SP\RB3LYP\SVP\C55H78Ca1N14O24(2-)\PZHANG5\23-Nov-
 2020\0\\#b3lyp/svp scf=(tight,noincore,xqc) Test #IOP(5/87=12) Density
 =Current Pop=(MK,readradii) iop(6/33=2) iop(6/42=6)\\holoCaM.loop2.wat
 er1.frame19\\-2,1\C,0,65.03,2.1,9.42\C,0,64.66,1.43,8.06\O,0,63.96,2.0
 3,7.22\H,0,65.867,2.782,9.272\H,0,64.171,2.655,9.798\H,0,65.311,1.331,
 10.14\N,0,65.18,0.24,7.76\C,0,64.89,-0.57,6.6\C,0,63.39,-0.91,6.55\O,0
 ,62.84,-1.44,7.53\C,0,65.78,-1.85,6.61\C,0,65.37,-2.74,5.51\O,0,65.1,-
 3.92,5.8\O,0,65.21,-2.27,4.34\H,0,65.72,-0.24,8.47\H,0,65.14,-0.01,5.6
 9\H,0,65.68,-2.22,7.63\H,0,66.84,-1.63,6.55\N,0,62.84,-0.92,5.31\C,0,6
 1.56,-1.5,5.\C,0,61.66,-2.77,4.14\O,0,60.58,-3.38,3.97\C,0,60.7,-0.48,
 4.35\H,0,63.32,-0.57,4.5\H,0,61.16,-1.86,5.95\H,0,61.17,-0.16,3.43\H,0
 ,59.74,-0.9,4.03\H,0,60.46,0.42,4.91\N,0,62.8,-3.2,3.51\C,0,62.9,-4.16
 ,2.32\C,0,64.15,-5.08,2.37\O,0,64.21,-6.09,1.63\C,0,62.91,-3.4,1.\C,0,
 63.98,-2.31,0.85\O,0,65.19,-2.53,1.13\O,0,63.6,-1.21,0.38\H,0,63.63,-2
 .68,3.72\H,0,62.06,-4.86,2.34\H,0,61.9,-3.03,0.86\H,0,63.17,-4.13,0.23
 \N,0,65.21,-4.88,3.19\C,0,66.25,-5.88,3.41\C,0,67.43,-5.76,2.39\O,0,68
 .39,-6.54,2.37\H,0,65.16,-4.14,3.89\H,0,65.82,-6.88,3.32\H,0,66.68,-5.
 77,4.41\N,0,67.31,-4.84,1.44\C,0,68.34,-4.52,0.42\C,0,69.68,-4.04,1.05
 \O,0,70.55,-3.64,0.23\C,0,67.79,-3.43,-0.59\C,0,67.82,-2.,-0.2\N,0,67.
 3,-1.22,-1.09\O,0,68.15,-1.59,0.91\H,0,66.52,-4.22,1.38\H,0,68.51,-5.3
 6,-0.25\H,0,66.78,-3.68,-0.91\H,0,68.26,-3.52,-1.57\H,0,66.79,-1.62,-1
 .86\H,0,67.04,-0.27,-0.87\N,0,69.92,-4.09,2.38\C,0,71.29,-3.81,2.9\C,0
 ,71.67,-2.36,3.03\O,0,72.72,-2.,3.54\H,0,69.23,-4.4,3.04\H,0,72.13,-4.
 21,2.34\H,0,71.35,-4.21,3.91\N,0,70.75,-1.43,2.59\C,0,71.07,-0.06,2.26
 \C,0,69.91,0.87,2.52\O,0,68.73,0.53,2.43\C,0,71.56,0.16,0.87\C,0,72.99
 ,-0.38,0.64\O,0,70.76,-0.47,-0.17\H,0,69.8,-1.74,2.41\H,0,71.77,0.25,3
 .04\H,0,71.52,1.23,0.67\H,0,70.43,-1.28,0.22\H,0,73.44,0.19,-0.16\H,0,
 73.6,-0.1,1.49\H,0,73.02,-1.47,0.6\N,0,70.22,2.18,2.82\C,0,69.16,3.18,
 3.23\C,0,68.59,3.73,1.9\O,0,69.36,4.4,1.2\C,0,69.78,4.23,4.18\C,0,70.5
 5,3.65,5.39\C,0,68.77,5.32,4.62\C,0,70.94,4.62,6.54\H,0,71.22,2.32,2.7
 5\H,0,68.4,2.64,3.8\H,0,70.47,4.8,3.56\H,0,71.39,3.06,5.01\H,0,69.91,2
 .95,5.92\H,0,68.18,4.94,5.46\H,0,69.28,6.22,4.97\H,0,68.11,5.6,3.8\H,0
 ,71.62,5.36,6.12\H,0,69.99,4.96,6.93\H,0,71.55,4.06,7.25\N,0,67.3,3.41
 ,1.57\C,0,66.57,4.16,0.59\C,0,66.09,5.52,1.09\O,0,65.9,5.79,2.28\C,0,6
 5.42,3.22,-0.01\C,0,65.86,1.78,-0.31\O,0,65.91,0.94,0.63\O,0,66.02,1.4
 3,-1.49\H,0,66.86,2.67,2.09\H,0,67.34,4.29,-0.18\H,0,65.02,3.72,-0.88\
 H,0,64.59,3.05,0.68\N,0,65.86,6.41,0.12\C,0,65.34,7.8,0.39\C,0,64.15,7
 .91,1.4\O,0,64.31,8.7,2.3\C,0,64.95,8.56,-0.88\C,0,64.52,10.01,-0.66\C
 ,0,65.39,10.97,-0.12\C,0,63.24,10.52,-1.05\C,0,64.96,12.32,-0.03\C,0,6
 2.88,11.84,-1.13\C,0,63.74,12.77,-0.53\H,0,66.01,6.13,-0.83\H,0,66.11,
 8.3,0.97\H,0,64.21,7.98,-1.42\H,0,65.83,8.56,-1.53\H,0,66.42,10.7,0.1\
 H,0,62.6,9.8,-1.54\H,0,65.56,13.16,0.3\H,0,62.06,12.14,-1.77\H,0,63.55
 ,13.83,-0.52\N,0,63.1,7.08,1.33\C,0,62.07,7.05,2.37\C,0,62.44,6.43,3.7
 5\O,0,61.69,6.49,4.74\C,0,61.,6.16,1.81\C,0,61.69,5.13,0.93\C,0,62.78,
 6.06,0.3\H,0,61.68,8.04,2.59\H,0,60.35,5.66,2.53\H,0,60.23,6.65,1.22\H
 ,0,62.12,4.31,1.51\H,0,61.,4.76,0.17\H,0,63.61,5.4,0.03\H,0,62.39,6.51
 ,-0.62\N,0,63.6,5.79,3.87\C,0,64.23,5.37,5.11\C,0,65.18,6.41,5.59\O,0,
 65.41,6.41,6.78\C,0,65.01,4.01,4.93\C,0,64.11,2.96,4.27\C,0,64.94,1.78
 ,3.76\O,0,66.19,1.75,3.93\O,0,64.42,0.74,3.42\H,0,64.11,5.64,3.01\H,0,
 63.47,5.2,5.87\H,0,65.34,3.72,5.92\H,0,65.78,4.2,4.19\H,0,63.52,3.44,3
 .49\H,0,63.45,2.43,4.96\N,0,65.73,7.27,4.74\C,0,66.41,8.42,5.26\H,0,67
 .341,8.568,4.714\H,0,65.777,9.3,5.144\H,0,66.63,8.266,6.316\H,0,65.43,
 7.19,3.78\Ca,0,66.41,-0.742,2.58\O,0,68.36,-1.962,3.98\H,0,68.62,-2.69
 2,4.54\H,0,68.68,-1.182,4.43\\Version=ES64L-G16RevC.01\State=1-A\HF=-5
 389.2895228\RMSD=3.154e-09\Dipole=4.5023137,8.1376577,-1.7917246\Quadr
 upole=13.1877064,-71.0729317,57.8852253,-18.1301089,56.2413949,-39.433
 6208\PG=C01 [X(C55H78Ca1N14O24)]\\@


 A FOOL CAN ASK MORE QUESTIONS THAN
 A WISE MAN CAN ANSWER.
 Job cpu time:       0 days  6 hours 45 minutes 57.1 seconds.
 Elapsed time:       0 days  0 hours 33 minutes 59.5 seconds.
 File lengths (MBytes):  RWF=   1512 Int=      0 D2E=      0 Chk=    169 Scr=      2
 Normal termination of Gaussian 16 at Mon Nov 23 01:00:18 2020.
