 Entering Gaussian System, Link 0=g16
 Initial command:
 /home1/apps/gaussian/16rA.03/g16/l1.exe "/scratch/01990/pengzhi/4328948/Gau-60528.inp" -scrdir="/scratch/01990/pengzhi/4328948/"
 Entering Link 1 = /home1/apps/gaussian/16rA.03/g16/l1.exe PID=     60529.
  
 Copyright (c) 1988,1990,1992,1993,1995,1998,2003,2009,2016,
            Gaussian, Inc.  All Rights Reserved.
  
 This is part of the Gaussian(R) 16 program.  It is based on
 the Gaussian(R) 09 system (copyright 2009, Gaussian, Inc.),
 the Gaussian(R) 03 system (copyright 2003, Gaussian, Inc.),
 the Gaussian(R) 98 system (copyright 1998, Gaussian, Inc.),
 the Gaussian(R) 94 system (copyright 1995, Gaussian, Inc.),
 the Gaussian 92(TM) system (copyright 1992, Gaussian, Inc.),
 the Gaussian 90(TM) system (copyright 1990, Gaussian, Inc.),
 the Gaussian 88(TM) system (copyright 1988, Gaussian, Inc.),
 the Gaussian 86(TM) system (copyright 1986, Carnegie Mellon
 University), and the Gaussian 82(TM) system (copyright 1983,
 Carnegie Mellon University). Gaussian is a federally registered
 trademark of Gaussian, Inc.
  
 This software contains proprietary and confidential information,
 including trade secrets, belonging to Gaussian, Inc.
  
 This software is provided under written license and may be
 used, copied, transmitted, or stored only in accord with that
 written license.
  
 The following legend is applicable only to US Government
 contracts under FAR:
  
                    RESTRICTED RIGHTS LEGEND
  
 Use, reproduction and disclosure by the US Government is
 subject to restrictions as set forth in subparagraphs (a)
 and (c) of the Commercial Computer Software - Restricted
 Rights clause in FAR 52.227-19.
  
 Gaussian, Inc.
 340 Quinnipiac St., Bldg. 40, Wallingford CT 06492
  
  
 ---------------------------------------------------------------
 Warning -- This program may not be used in any manner that
 competes with the business of Gaussian, Inc. or will provide
 assistance to any competitor of Gaussian, Inc.  The licensee
 of this program is prohibited from giving any competitor of
 Gaussian, Inc. access to this program.  By using this program,
 the user acknowledges that Gaussian, Inc. is engaged in the
 business of creating and licensing software in the field of
 computational chemistry and represents and warrants to the
 licensee that it is not a competitor of Gaussian, Inc. and that
 it will not use this program in any manner prohibited above.
 ---------------------------------------------------------------
  

 Cite this work as:
 Gaussian 16, Revision A.03,
 M. J. Frisch, G. W. Trucks, H. B. Schlegel, G. E. Scuseria, 
 M. A. Robb, J. R. Cheeseman, G. Scalmani, V. Barone, 
 G. A. Petersson, H. Nakatsuji, X. Li, M. Caricato, A. V. Marenich, 
 J. Bloino, B. G. Janesko, R. Gomperts, B. Mennucci, H. P. Hratchian, 
 J. V. Ortiz, A. F. Izmaylov, J. L. Sonnenberg, D. Williams-Young, 
 F. Ding, F. Lipparini, F. Egidi, J. Goings, B. Peng, A. Petrone, 
 T. Henderson, D. Ranasinghe, V. G. Zakrzewski, J. Gao, N. Rega, 
 G. Zheng, W. Liang, M. Hada, M. Ehara, K. Toyota, R. Fukuda, 
 J. Hasegawa, M. Ishida, T. Nakajima, Y. Honda, O. Kitao, H. Nakai, 
 T. Vreven, K. Throssell, J. A. Montgomery, Jr., J. E. Peralta, 
 F. Ogliaro, M. J. Bearpark, J. J. Heyd, E. N. Brothers, K. N. Kudin, 
 V. N. Staroverov, T. A. Keith, R. Kobayashi, J. Normand, 
 K. Raghavachari, A. P. Rendell, J. C. Burant, S. S. Iyengar, 
 J. Tomasi, M. Cossi, J. M. Millam, M. Klene, C. Adamo, R. Cammi, 
 J. W. Ochterski, R. L. Martin, K. Morokuma, O. Farkas, 
 J. B. Foresman, and D. J. Fox, Gaussian, Inc., Wallingford CT, 2016.
 
 ******************************************
 Gaussian 16:  ES64L-G16RevA.03 25-Dec-2016
                14-Sep-2019 
 ******************************************
 %chk=CaMKII_loop3_75.0.chk
 %nprocshared=48
 Will use up to   48 processors via shared memory.
 %mem=10GB
 %nosave
 ----------------------------------------------------------------------
 #b3lyp/svp scf=(tight,noincore) Test #IOP(5/87=12) Density=Current Pop
 =(MK,readradii) iop(6/33=2) iop(6/42=6)
 ----------------------------------------------------------------------
 1/30=1,38=1,172=1/1;
 2/12=2,17=6,18=5,40=1/2;
 3/5=18,7=101,11=2,25=1,30=1,74=-5/1,2,3;
 4//1;
 5/5=4,32=2,38=5,87=12/2;
 6/7=2,8=2,9=2,10=2,15=8,20=101,22=-1,28=1,33=2,42=6/1,2;
 99/5=1,9=1/99;
 -----------------
 CaMKII_loop3_75.0
 -----------------
 Symbolic Z-matrix:
 Charge =  0 Multiplicity = 1
 C                     67.28     46.42     25.4 
 C                     65.9      45.8      25.62 
 O                     65.75     44.7      26.14 
 H                     68.001    45.632    25.181 
 H                     67.237    47.116    24.562 
 H                     67.587    46.953    26.3 
 N                     64.84     46.56     25.35 
 C                     63.47     46.25     25.71 
 C                     63.04     45.19     24.7 
 O                     62.53     45.51     23.63 
 C                     62.55     47.47     25.71 
 C                     61.19     47.13     26.3 
 O                     61.09     46.07     26.96 
 O                     60.25     47.95     26.22 
 H                     65.06     47.5      25.05 
 H                     63.44     45.93     26.75 
 H                     62.47     47.96     24.74 
 H                     63.04     48.18     26.38 
 N                     63.2      43.92     25.05 
 C                     63.14     42.77     24.16 
 C                     61.74     42.47     23.65 
 O                     61.54     42.02     22.52 
 C                     63.71     41.54     24.87 
 C                     64.02     40.57     23.74 
 C                     64.63     39.37     24.46 
 C                     65.19     38.36     23.47 
 N                     65.74     37.22     24.21 
 H                     63.52     43.73     25.99 
 H                     63.65     42.99     23.22 
 H                     62.99     41.09     25.55 
 H                     64.7      41.79     25.23 
 H                     64.77     40.9      23.02 
 H                     63.14     40.23     23.2 
 H                     63.83     38.92     25.05 
 H                     65.43     39.72     25.12 
 H                     65.95     38.88     22.88 
 H                     64.43     37.97     22.79 
 H                     64.95     36.61     24.39 
 H                     66.33     36.63     23.63 
 H                     66.16     37.52     25.07 
 N                     60.74     42.89     24.43 
 C                     59.32     42.71     24.23 
 C                     58.57     44.02     24.01 
 O                     57.36     44.09     23.83 
 C                     58.79     41.81     25.35 
 C                     58.99     42.35     26.76 
 O                     58.64     41.52     27.62 
 O                     59.62     43.41     26.97 
 H                     61.       43.26     25.33 
 H                     59.17     42.14     23.31 
 H                     59.35     40.88     25.21 
 H                     57.73     41.69     25.14 
 N                     59.31     45.13     24.04 
 C                     58.83     46.43     23.65 
 C                     57.66     46.87     24.52 
 O                     56.75     47.65     24.23 
 H                     60.3      45.04     24.21 
 H                     58.5      46.35     22.61 
 H                     59.6      47.2      23.75 
 N                     57.66     46.41     25.77 
 C                     56.69     46.7      26.82 
 C                     56.8      48.03     27.55 
 O                     55.9      48.3      28.35 
 C                     56.56     45.5      27.75 
 C                     57.43     45.58     29. 
 N                     56.83     45.62     30.19 
 O                     58.66     45.57     28.93 
 H                     58.37     45.76     26.08 
 H                     55.71     46.79     26.35 
 H                     56.82     44.58     27.24 
 H                     55.49     45.42     27.95 
 H                     55.82     45.71     30.2 
 H                     57.34     45.48     31.05 
 N                     57.8      48.84     27.21 
 C                     58.1      50.09     27.89 
 C                     58.93     49.9      29.15 
 O                     59.04     50.94     29.79 
 H                     58.45     48.53     26.5 
 H                     57.12     50.52     28.12 
 H                     58.6      50.71     27.15 
 N                     59.67     48.84     29.46 
 C                     60.53     48.74     30.63 
 C                     61.8      47.94     30.41 
 O                     61.68     46.87     29.8 
 C                     59.72     47.91     31.62 
 C                     59.04     48.73     32.7 
 C                     59.77     49.7      33.4 
 C                     57.79     48.34     33.18 
 C                     59.21     50.31     34.53 
 C                     57.25     48.87     34.37 
 C                     57.99     49.84     35.06 
 O                     57.55     50.3      36.27 
 H                     59.59     48.06     28.82 
 H                     60.81     49.72     31. 
 H                     60.35     47.12     32.02 
 H                     58.97     47.34     31.08 
 H                     60.72     49.95     32.98 
 H                     57.21     47.53     32.77 
 H                     59.76     51.06     35.07 
 H                     56.38     48.46     34.87 
 H                     56.6      50.3      36.41 
 N                     62.97     48.32     30.94 
 C                     64.22     47.62     30.74 
 C                     64.43     46.86     32.05 
 O                     64.56     47.49     33.1 
 C                     65.35     48.58     30.39 
 C                     65.22     49.07     28.95 
 C                     66.63     47.77     30.56 
 C                     66.28     50.07     28.52 
 H                     63.04     49.22     31.4 
 H                     64.22     46.89     29.93 
 H                     65.37     49.44     31.07 
 H                     64.18     49.4      28.9 
 H                     65.26     48.18     28.33 
 H                     66.79     47.36     31.56 
 H                     66.62     46.99     29.79 
 H                     67.5      48.4      30.37 
 H                     67.26     49.59     28.52 
 H                     66.1      50.62     27.59 
 H                     66.34     50.81     29.32 
 N                     64.6      45.55     31.93 
 C                     64.94     44.77     33.11 
 C                     66.43     44.48     33.26 
 O                     67.25     44.8      32.41 
 C                     63.98     43.58     33.11 
 O                     64.56     42.54     32.36 
 H                     64.62     45.03     31.06 
 H                     64.64     45.29     34.02 
 H                     62.97     43.8      32.76 
 H                     63.78     43.12     34.08 
 H                     63.84     42.1      31.89 
 N                     66.87     43.89     34.38 
 C                     68.22     43.41     34.54 
 C                     68.61     42.27     33.6 
 O                     69.74     42.16     33.13 
 C                     68.41     42.97     35.99 
 H                     66.25     43.71     35.15 
 H                     68.91     44.22     34.28 
 H                     67.71     42.2      36.31 
 H                     69.47     42.75     36.1 
 H                     68.16     43.78     36.68 
 N                     67.62     41.44     33.27 
 C                     67.64     40.32     32.36 
 C                     67.9      40.69     30.91 
 O                     68.48     39.93     30.13 
 C                     66.29     39.63     32.22 
 H                     66.77     41.58     33.8 
 H                     68.36     39.59     32.72 
 H                     66.39     38.79     31.52 
 H                     66.01     39.38     33.24 
 H                     65.52     40.35     31.97 
 N                     67.47     41.91     30.57 
 C                     67.54     42.49     29.25 
 C                     68.79     43.33     29.06 
 O                     69.43     43.23     28.01 
 C                     66.32     43.37     29.02 
 C                     65.1      42.47     28.82 
 C                     63.85     43.3      28.59 
 O                     62.84     42.85     28. 
 O                     63.65     44.45     29.02 
 H                     66.92     42.3      31.32 
 H                     67.61     41.69     28.51 
 H                     66.52     43.95     28.11 
 H                     66.09     44.05     29.84 
 H                     65.08     41.76     29.65 
 H                     65.21     41.96     27.86 
 N                     69.36     43.88     30.13 
 C                     70.71     44.43     30.14 
 H                     71.381    43.753    29.612 
 H                     70.711    45.401    29.645 
 H                     71.048    44.546    31.17 
 H                     68.78     43.78     30.95 
 Ca                    61.04     44.52     28.86 
 O                     59.82     42.33     29.94 
 H                     59.38     42.       29.16 
 H                     59.14     42.38     30.61 
 
 Stoichiometry    C54H83CaN15O23
 Framework group  C1[X(C54H83CaN15O23)]
 Deg. of freedom   522
 Full point group                 C1      NOp   1
 Largest Abelian subgroup         C1      NOp   1
 Largest concise Abelian subgroup C1      NOp   1
                         Standard orientation:                         
 ---------------------------------------------------------------------
 Center     Atomic      Atomic             Coordinates (Angstroms)
 Number     Number       Type             X           Y           Z
 ---------------------------------------------------------------------
      1          6           0        2.521775    2.183960    4.855424
      2          6           0        1.652007    2.317438    3.605270
      3          8           0        2.130126    2.434409    2.482497
      4          1           0        3.430696    2.772830    4.729560
      5          1           0        1.970644    2.547684    5.722874
      6          1           0        2.785470    1.136855    5.005006
      7          7           0        0.337699    2.164212    3.757644
      8          6           0       -0.621933    2.018694    2.680365
      9          6           0       -0.792041    3.430526    2.126836
     10          8           0       -1.643480    4.187743    2.584081
     11          6           0       -1.945495    1.397533    3.124375
     12          6           0       -2.825068    1.069761    1.927623
     13          8           0       -2.285428    1.045808    0.797395
     14          8           0       -4.013246    0.722163    2.100276
     15          1           0        0.045232    1.939905    4.698999
     16          1           0       -0.245264    1.289233    1.965587
     17          1           0       -2.473069    1.980240    3.879039
     18          1           0       -1.658477    0.456722    3.599342
     19          7           0       -0.015404    3.779418    1.108941
     20          6           0        0.203986    5.132880    0.620873
     21          6           0       -1.006950    5.729705   -0.077363
     22          8           0       -1.272412    6.931503   -0.009448
     23          6           0        1.409468    5.150539   -0.321677
     24          6           0        1.810114    6.616661   -0.383889
     25          6           0        3.039764    6.610225   -1.288554
     26          6           0        3.709551    7.975641   -1.317275
     27          7           0        4.866426    7.921530   -2.216393
     28          1           0        0.582414    3.068023    0.710655
     29          1           0        0.311217    5.825866    1.457755
     30          1           0        1.153994    4.799413   -1.319046
     31          1           0        2.249235    4.709671    0.200458
     32          1           0        2.133281    7.063468    0.557241
     33          1           0        1.058704    7.257822   -0.837646
     34          1           0        2.692219    6.336705   -2.286050
     35          1           0        3.748128    5.861156   -0.920837
     36          1           0        3.992217    8.213473   -0.287889
     37          1           0        3.048011    8.762221   -1.685727
     38          1           0        4.492573    8.082081   -3.145402
     39          1           0        5.484668    8.719629   -2.100566
     40          1           0        5.318492    7.027649   -2.165285
     41          7           0       -1.855539    4.848335   -0.613910
     42          6           0       -3.056924    5.117505   -1.370893
     43          6           0       -4.328238    4.638632   -0.677034
     44          8           0       -5.451004    4.761870   -1.152019
     45          6           0       -2.841612    4.618074   -2.802504
     46          6           0       -2.543943    3.129677   -2.928066
     47          8           0       -2.269245    2.817096   -4.101878
     48          8           0       -2.404059    2.404330   -1.918658
     49          1           0       -1.562002    3.884846   -0.608882
     50          1           0       -3.173878    6.200155   -1.460296
     51          1           0       -1.990483    5.212365   -3.149630
     52          1           0       -3.760056    4.863797   -3.329933
     53          7           0       -4.160551    4.041909    0.504660
     54          6           0       -5.237154    3.713197    1.402086
     55          6           0       -6.218594    2.744901    0.755109
     56          8           0       -7.416870    2.598065    1.006457
     57          1           0       -3.221995    3.938309    0.858893
     58          1           0       -5.752247    4.648749    1.639406
     59          1           0       -4.878672    3.230285    2.315369
     60          7           0       -5.702068    1.906603   -0.141862
     61          6           0       -6.399882    0.859736   -0.879848
     62          6           0       -6.694520   -0.448611   -0.161993
     63          8           0       -7.386640   -1.270741   -0.768599
     64          6           0       -5.757048    0.675625   -2.249033
     65          6           0       -4.721455   -0.442308   -2.308822
     66          7           0       -4.955488   -1.482819   -3.108988
     67          8           0       -3.670853   -0.381578   -1.668161
     68          1           0       -4.727958    1.970444   -0.405933
     69          1           0       -7.406003    1.221007   -1.095731
     70          1           0       -5.263770    1.583739   -2.574772
     71          1           0       -6.597282    0.548707   -2.934014
     72          1           0       -5.865616   -1.533769   -3.553253
     73          1           0       -4.235254   -2.151786   -3.339304
     74          7           0       -6.266151   -0.574874    1.091904
     75          6           0       -6.374522   -1.800015    1.867911
     76          6           0       -5.254212   -2.788172    1.583220
     77          8           0       -5.446282   -3.870750    2.125838
     78          1           0       -5.750138    0.191339    1.503422
     79          1           0       -7.349864   -2.214114    1.593264
     80          1           0       -6.398140   -1.483565    2.907768
     81          7           0       -4.076814   -2.514555    1.029895
     82          6           0       -2.992343   -3.471583    0.867050
     83          6           0       -1.603551   -2.877730    1.008104
     84          8           0       -1.399535   -1.805528    0.424870
     85          6           0       -3.082560   -3.894146   -0.595278
     86          6           0       -3.751114   -5.239168   -0.807767
     87          6           0       -3.361308   -6.339732   -0.032776
     88          6           0       -4.541847   -5.447256   -1.937563
     89          6           0       -3.822519   -7.620643   -0.363157
     90          6           0       -4.935911   -6.738829   -2.343955
     91          6           0       -4.539995   -7.830839   -1.559503
     92          8           0       -4.812192   -9.104125   -1.976578
     93          1           0       -3.971247   -1.565187    0.695297
     94          1           0       -3.079991   -4.292134    1.570409
     95          1           0       -2.094239   -3.835655   -1.043385
     96          1           0       -3.622028   -3.135721   -1.154532
     97          1           0       -2.754306   -6.110414    0.815965
     98          1           0       -4.797417   -4.678268   -2.647451
     99          1           0       -3.533923   -8.470479    0.229373
    100          1           0       -5.384179   -6.955256   -3.306875
    101          1           0       -5.598460   -9.220896   -2.515323
    102          7           0       -0.621107   -3.531844    1.641458
    103          6           0        0.712212   -3.006289    1.837811
    104          6           0        1.555407   -3.743324    0.796849
    105          8           0        1.662134   -4.968288    0.862974
    106          6           0        1.185623   -3.201228    3.272691
    107          6           0        0.495389   -2.214595    4.211165
    108          6           0        2.686471   -2.937312    3.238004
    109          6           0        0.870620   -2.361032    5.676176
    110          1           0       -0.832957   -4.387981    2.140104
    111          1           0        0.822171   -1.936777    1.656007
    112          1           0        1.003711   -4.225690    3.618790
    113          1           0       -0.559740   -2.336755    3.956646
    114          1           0        0.757426   -1.226538    3.846228
    115          1           0        3.256273   -3.587038    2.569511
    116          1           0        2.819568   -1.876528    2.996296
    117          1           0        3.118340   -3.099805    4.226429
    118          1           0        1.926019   -2.118912    5.811491
    119          1           0        0.240747   -1.843033    6.407434
    120          1           0        0.805700   -3.427294    5.899942
    121          7           0        2.238591   -2.970250   -0.036827
    122          6           0        3.169872   -3.585851   -0.969646
    123          6           0        4.622396   -3.571725   -0.504163
    124          8           0        4.977418   -3.008383    0.522435
    125          6           0        2.854087   -2.973137   -2.334403
    126          8           0        3.615124   -1.798603   -2.482026
    127          1           0        2.259779   -1.956773   -0.026070
    128          1           0        2.916620   -4.632660   -1.138630
    129          1           0        1.796273   -2.781388   -2.522181
    130          1           0        3.126461   -3.570172   -3.207250
    131          1           0        3.063165   -1.166969   -2.960858
    132          7           0        5.542763   -4.233417   -1.219137
    133          6           0        6.958894   -4.130102   -0.969341
    134          6           0        7.550546   -2.740463   -1.202044
    135          8           0        8.456271   -2.284564   -0.507984
    136          6           0        7.681947   -5.151142   -1.845054
    137          1           0        5.279881   -4.800442   -2.005952
    138          1           0        7.139409   -4.323948    0.093503
    139          1           0        7.490724   -5.029278   -2.909893
    140          1           0        8.722044   -5.136908   -1.525528
    141          1           0        7.290627   -6.157606   -1.675941
    142          7           0        6.969264   -2.028451   -2.167989
    143          6           0        7.239804   -0.673461   -2.584774
    144          6           0        6.936318    0.381759   -1.535294
    145          8           0        7.568626    1.438726   -1.461768
    146          6           0        6.334805   -0.195010   -3.711833
    147          1           0        6.308032   -2.552279   -2.726001
    148          1           0        8.269869   -0.611655   -2.925427
    149          1           0        6.606797    0.835953   -3.974008
    150          1           0        6.459844   -0.942206   -4.491169
    151          1           0        5.293756   -0.346006   -3.452571
    152          7           0        5.950273    0.050865   -0.694387
    153          6           0        5.424616    0.887606    0.357872
    154          6           0        6.094390    0.616213    1.692768
    155          8           0        6.424545    1.567028    2.406244
    156          6           0        3.930154    0.639177    0.501275
    157          6           0        3.213204    1.276195   -0.689771
    158          6           0        1.714415    1.053471   -0.598525
    159          8           0        0.885418    1.794373   -1.176910
    160          8           0        1.153238    0.096117   -0.036428
    161          1           0        5.496328   -0.791031   -1.014146
    162          1           0        5.643192    1.932564    0.128115
    163          1           0        3.621121    1.123240    1.436519
    164          1           0        3.645391   -0.412484    0.526156
    165          1           0        3.713857    0.926741   -1.595656
    166          1           0        3.285060    2.361534   -0.586447
    167          7           0        6.621440   -0.586596    1.911333
    168          6           0        7.553964   -0.881705    2.992263
    169          1           0        8.293118   -0.084036    3.061037
    170          1           0        7.009094   -0.953566    3.933442
    171          1           0        8.057866   -1.827126    2.790119
    172          1           0        6.371263   -1.237672    1.181737
    173         20           0       -1.175572    0.207321   -1.222546
    174          8           0       -1.009380    0.405165   -3.939923
    175          1           0       -1.445448    1.245756   -4.058885
    176          1           0       -1.449053   -0.193478   -4.541682
 ---------------------------------------------------------------------
 Rotational constants (GHZ):           0.0213296           0.0161423           0.0115575
 Standard basis: SVP (5D, 7F)
 There are  1809 symmetry adapted cartesian basis functions of A   symmetry.
 There are  1717 symmetry adapted basis functions of A   symmetry.
  1717 basis functions,  2922 primitive gaussians,  1809 cartesian basis functions
   358 alpha electrons      358 beta electrons
       nuclear repulsion energy     21609.8061596864 Hartrees.
 NAtoms=  176 NActive=  176 NUniq=  176 SFac= 1.00D+00 NAtFMM=   60 NAOKFM=T Big=T
 Integral buffers will be    131072 words long.
 Raffenetti 2 integral format.
 Two-electron integral symmetry is turned on.
 One-electron integrals computed using PRISM.
 NBasis=  1717 RedAO= T EigKep=  2.96D-04  NBF=  1717
 NBsUse=  1717 1.00D-06 EigRej= -1.00D+00 NBFU=  1717
 ExpMin= 1.98D-02 ExpMax= 3.51D+04 ExpMxC= 5.28D+03 IAcc=3 IRadAn=         5 AccDes= 0.00D+00
 Harris functional with IExCor=  402 and IRadAn=       5 diagonalized for initial guess.
 HarFok:  IExCor=  402 AccDes= 0.00D+00 IRadAn=         5 IDoV= 1 UseB2=F ITyADJ=14
 ICtDFT=  3500011 ScaDFX=  1.000000  1.000000  1.000000  1.000000
 FoFCou: FMM=F IPFlag=           0 FMFlag=      100000 FMFlg1=        2001
         NFxFlg=           0 DoJE=T BraDBF=F KetDBF=T FulRan=T
         wScrn=  0.000000 ICntrl=       500 IOpCl=  0 I1Cent=   200000004 NGrid=           0
         NMat0=    1 NMatS0=      1 NMatT0=    0 NMatD0=    1 NMtDS0=    0 NMtDT0=    0
 Petite list used in FoFCou.
 Requested convergence on RMS density matrix=1.00D-08 within 128 cycles.
 Requested convergence on MAX density matrix=1.00D-06.
 Requested convergence on             energy=1.00D-06.
 No special actions if energy rises.
 EnCoef did     4 forward-backward iterations
 SCF Done:  E(RB3LYP) =  -5333.58337285     A.U. after   18 cycles
            NFock= 18  Conv=0.25D-08     -V/T= 2.0081
 SCF density gives NOpUse=  1 NOpAll=  1.
 Hyperfine terms turned off by default for NAtoms > 100.

 **********************************************************************

            Population analysis using the SCF density.

 **********************************************************************

 Orbital symmetries:
 BldTbl:  Degeneracy threshold= 1.00D-02
       Occupied  (A) (A) (A) (A) (A) (A) (A) (A) (A) (A) (A) (A)
                 (A) (A) (A) (A) (A) (A) (A) (A) (A) (A) (A) (A)
                 (A) (A) (A) (A) (A) (A) (A) (A) (A) (A) (A) (A)
                 (A) (A) (A) (A) (A) (A) (A) (A) (A) (A) (A) (A)
                 (A) (A) (A) (A) (A) (A) (A) (A) (A) (A) (A) (A)
                 (A) (A) (A) (A) (A) (A) (A) (A) (A) (A) (A) (A)
                 (A) (A) (A) (A) (A) (A) (A) (A) (A) (A) (A) (A)
                 (A) (A) (A) (A) (A) (A) (A) (A) (A) (A) (A) (A)
                 (A) (A) (A) (A) (A) (A) (A) (A) (A) (A) (A) (A)
                 (A) (A) (A) (A) (A) (A) (A) (A) (A) (A) (A) (A)
                 (A) (A) (A) (A) (A) (A) (A) (A) (A) (A) (A) (A)
                 (A) (A) (A) (A) (A) (A) (A) (A) (A) (A) (A) (A)
                 (A) (A) (A) (A) (A) (A) (A) (A) (A) (A) (A) (A)
                 (A) (A) (A) (A) (A) (A) (A) (A) (A) (A) (A) (A)
                 (A) (A) (A) (A) (A) (A) (A) (A) (A) (A) (A) (A)
                 (A) (A) (A) (A) (A) (A) (A) (A) (A) (A) (A) (A)
                 (A) (A) (A) (A) (A) (A) (A) (A) (A) (A) (A) (A)
                 (A) (A) (A) (A) (A) (A) (A) (A) (A) (A) (A) (A)
                 (A) (A) (A) (A) (A) (A) (A) (A) (A) (A) (A) (A)
                 (A) (A) (A) (A) (A) (A) (A) (A) (A) (A) (A) (A)
                 (A) (A) (A) (A) (A) (A) (A) (A) (A) (A) (A) (A)
                 (A) (A) (A) (A) (A) (A) (A) (A) (A) (A) (A) (A)
                 (A) (A) (A) (A) (A) (A) (A) (A) (A) (A) (A) (A)
                 (A) (A) (A) (A) (A) (A) (A) (A) (A) (A) (A) (A)
                 (A) (A) (A) (A) (A) (A) (A) (A) (A) (A) (A) (A)
                 (A) (A) (A) (A) (A) (A) (A) (A) (A) (A) (A) (A)
                 (A) (A) (A) (A) (A) (A) (A) (A) (A) (A) (A) (A)
                 (A) (A) (A) (A) (A) (A) (A) (A) (A) (A) (A) (A)
                 (A) (A) (A) (A) (A) (A) (A) (A) (A) (A) (A) (A)
                 (A) (A) (A) (A) (A) (A) (A) (A) (A) (A)
       Virtual   (A) (A) (A) (A) (A) (A) (A) (A) (A) (A) (A) (A)
                 (A) (A) (A) (A) (A) (A) (A) (A) (A) (A) (A) (A)
                 (A) (A) (A) (A) (A) (A) (A) (A) (A) (A) (A) (A)
                 (A) (A) (A) (A) (A) (A) (A) (A) (A) (A) (A) (A)
                 (A) (A) (A) (A) (A) (A) (A) (A) (A) (A) (A) (A)
                 (A) (A) (A) (A) (A) (A) (A) (A) (A) (A) (A) (A)
                 (A) (A) (A) (A) (A) (A) (A) (A) (A) (A) (A) (A)
                 (A) (A) (A) (A) (A) (A) (A) (A) (A) (A) (A) (A)
                 (A) (A) (A) (A) (A) (A) (A) (A) (A) (A) (A) (A)
                 (A) (A) (A) (A) (A) (A) (A) (A) (A) (A) (A) (A)
                 (A) (A) (A) (A) (A) (A) (A) (A) (A) (A) (A) (A)
                 (A) (A) (A) (A) (A) (A) (A) (A) (A) (A) (A) (A)
                 (A) (A) (A) (A) (A) (A) (A) (A) (A) (A) (A) (A)
                 (A) (A) (A) (A) (A) (A) (A) (A) (A) (A) (A) (A)
                 (A) (A) (A) (A) (A) (A) (A) (A) (A) (A) (A) (A)
                 (A) (A) (A) (A) (A) (A) (A) (A) (A) (A) (A) (A)
                 (A) (A) (A) (A) (A) (A) (A) (A) (A) (A) (A) (A)
                 (A) (A) (A) (A) (A) (A) (A) (A) (A) (A) (A) (A)
                 (A) (A) (A) (A) (A) (A) (A) (A) (A) (A) (A) (A)
                 (A) (A) (A) (A) (A) (A) (A) (A) (A) (A) (A) (A)
                 (A) (A) (A) (A) (A) (A) (A) (A) (A) (A) (A) (A)
                 (A) (A) (A) (A) (A) (A) (A) (A) (A) (A) (A) (A)
                 (A) (A) (A) (A) (A) (A) (A) (A) (A) (A) (A) (A)
                 (A) (A) (A) (A) (A) (A) (A) (A) (A) (A) (A) (A)
                 (A) (A) (A) (A) (A) (A) (A) (A) (A) (A) (A) (A)
                 (A) (A) (A) (A) (A) (A) (A) (A) (A) (A) (A) (A)
                 (A) (A) (A) (A) (A) (A) (A) (A) (A) (A) (A) (A)
                 (A) (A) (A) (A) (A) (A) (A) (A) (A) (A) (A) (A)
                 (A) (A) (A) (A) (A) (A) (A) (A) (A) (A) (A) (A)
                 (A) (A) (A) (A) (A) (A) (A) (A) (A) (A) (A) (A)
                 (A) (A) (A) (A) (A) (A) (A) (A) (A) (A) (A) (A)
                 (A) (A) (A) (A) (A) (A) (A) (A) (A) (A) (A) (A)
                 (A) (A) (A) (A) (A) (A) (A) (A) (A) (A) (A) (A)
                 (A) (A) (A) (A) (A) (A) (A) (A) (A) (A) (A) (A)
                 (A) (A) (A) (A) (A) (A) (A) (A) (A) (A) (A) (A)
                 (A) (A) (A) (A) (A) (A) (A) (A) (A) (A) (A) (A)
                 (A) (A) (A) (A) (A) (A) (A) (A) (A) (A) (A) (A)
                 (A) (A) (A) (A) (A) (A) (A) (A) (A) (A) (A) (A)
                 (A) (A) (A) (A) (A) (A) (A) (A) (A) (A) (A) (A)
                 (A) (A) (A) (A) (A) (A) (A) (A) (A) (A) (A) (A)
                 (A) (A) (A) (A) (A) (A) (A) (A) (A) (A) (A) (A)
                 (A) (A) (A) (A) (A) (A) (A) (A) (A) (A) (A) (A)
                 (A) (A) (A) (A) (A) (A) (A) (A) (A) (A) (A) (A)
                 (A) (A) (A) (A) (A) (A) (A) (A) (A) (A) (A) (A)
                 (A) (A) (A) (A) (A) (A) (A) (A) (A) (A) (A) (A)
                 (A) (A) (A) (A) (A) (A) (A) (A) (A) (A) (A) (A)
                 (A) (A) (A) (A) (A) (A) (A) (A) (A) (A) (A) (A)
                 (A) (A) (A) (A) (A) (A) (A) (A) (A) (A) (A) (A)
                 (A) (A) (A) (A) (A) (A) (A) (A) (A) (A) (A) (A)
                 (A) (A) (A) (A) (A) (A) (A) (A) (A) (A) (A) (A)
                 (A) (A) (A) (A) (A) (A) (A) (A) (A) (A) (A) (A)
                 (A) (A) (A) (A) (A) (A) (A) (A) (A) (A) (A) (A)
                 (A) (A) (A) (A) (A) (A) (A) (A) (A) (A) (A) (A)
                 (A) (A) (A) (A) (A) (A) (A) (A) (A) (A) (A) (A)
                 (A) (A) (A) (A) (A) (A) (A) (A) (A) (A) (A) (A)
                 (A) (A) (A) (A) (A) (A) (A) (A) (A) (A) (A) (A)
                 (A) (A) (A) (A) (A) (A) (A) (A) (A) (A) (A) (A)
                 (A) (A) (A) (A) (A) (A) (A) (A) (A) (A) (A) (A)
                 (A) (A) (A) (A) (A) (A) (A) (A) (A) (A) (A) (A)
                 (A) (A) (A) (A) (A) (A) (A) (A) (A) (A) (A) (A)
                 (A) (A) (A) (A) (A) (A) (A) (A) (A) (A) (A) (A)
                 (A) (A) (A) (A) (A) (A) (A) (A) (A) (A) (A) (A)
                 (A) (A) (A) (A) (A) (A) (A) (A) (A) (A) (A) (A)
                 (A) (A) (A) (A) (A) (A) (A) (A) (A) (A) (A) (A)
                 (A) (A) (A) (A) (A) (A) (A) (A) (A) (A) (A) (A)
                 (A) (A) (A) (A) (A) (A) (A) (A) (A) (A) (A) (A)
                 (A) (A) (A) (A) (A) (A) (A) (A) (A) (A) (A) (A)
                 (A) (A) (A) (A) (A) (A) (A) (A) (A) (A) (A) (A)
                 (A) (A) (A) (A) (A) (A) (A) (A) (A) (A) (A) (A)
                 (A) (A) (A) (A) (A) (A) (A) (A) (A) (A) (A) (A)
                 (A) (A) (A) (A) (A) (A) (A) (A) (A) (A) (A) (A)
                 (A) (A) (A) (A) (A) (A) (A) (A) (A) (A) (A) (A)
                 (A) (A) (A) (A) (A) (A) (A) (A) (A) (A) (A) (A)
                 (A) (A) (A) (A) (A) (A) (A) (A) (A) (A) (A) (A)
                 (A) (A) (A) (A) (A) (A) (A) (A) (A) (A) (A) (A)
                 (A) (A) (A) (A) (A) (A) (A) (A) (A) (A) (A) (A)
                 (A) (A) (A) (A) (A) (A) (A) (A) (A) (A) (A) (A)
                 (A) (A) (A) (A) (A) (A) (A) (A) (A) (A) (A) (A)
                 (A) (A) (A) (A) (A) (A) (A) (A) (A) (A) (A) (A)
                 (A) (A) (A) (A) (A) (A) (A) (A) (A) (A) (A) (A)
                 (A) (A) (A) (A) (A) (A) (A) (A) (A) (A) (A) (A)
                 (A) (A) (A) (A) (A) (A) (A) (A) (A) (A) (A) (A)
                 (A) (A) (A) (A) (A) (A) (A) (A) (A) (A) (A) (A)
                 (A) (A) (A) (A) (A) (A) (A) (A) (A) (A) (A) (A)
                 (A) (A) (A) (A) (A) (A) (A) (A) (A) (A) (A) (A)
                 (A) (A) (A) (A) (A) (A) (A) (A) (A) (A) (A) (A)
                 (A) (A) (A) (A) (A) (A) (A) (A) (A) (A) (A) (A)
                 (A) (A) (A) (A) (A) (A) (A) (A) (A) (A) (A) (A)
                 (A) (A) (A) (A) (A) (A) (A) (A) (A) (A) (A) (A)
                 (A) (A) (A) (A) (A) (A) (A) (A) (A) (A) (A) (A)
                 (A) (A) (A) (A) (A) (A) (A) (A) (A) (A) (A) (A)
                 (A) (A) (A) (A) (A) (A) (A) (A) (A) (A) (A) (A)
                 (A) (A) (A) (A) (A) (A) (A) (A) (A) (A) (A) (A)
                 (A) (A) (A) (A) (A) (A) (A) (A) (A) (A) (A) (A)
                 (A) (A) (A) (A) (A) (A) (A) (A) (A) (A) (A) (A)
                 (A) (A) (A) (A) (A) (A) (A) (A) (A) (A) (A) (A)
                 (A) (A) (A) (A) (A) (A) (A) (A) (A) (A) (A) (A)
                 (A) (A) (A) (A) (A) (A) (A) (A) (A) (A) (A) (A)
                 (A) (A) (A) (A) (A) (A) (A) (A) (A) (A) (A) (A)
                 (A) (A) (A) (A) (A) (A) (A) (A) (A) (A) (A) (A)
                 (A) (A) (A) (A) (A) (A) (A) (A) (A) (A) (A) (A)
                 (A) (A) (A) (A) (A) (A) (A) (A) (A) (A) (A) (A)
                 (A) (A) (A) (A) (A) (A) (A) (A) (A) (A) (A) (A)
                 (A) (A) (A) (A) (A) (A) (A) (A) (A) (A) (A) (A)
                 (A) (A) (A) (A) (A) (A) (A) (A) (A) (A) (A) (A)
                 (A) (A) (A) (A) (A) (A) (A) (A) (A) (A) (A) (A)
                 (A) (A) (A) (A) (A) (A) (A) (A) (A) (A) (A) (A)
                 (A) (A) (A) (A) (A) (A) (A) (A) (A) (A) (A) (A)
                 (A) (A) (A) (A) (A) (A) (A) (A) (A) (A) (A) (A)
                 (A) (A) (A) (A) (A) (A) (A) (A) (A) (A) (A) (A)
                 (A) (A) (A) (A) (A) (A) (A) (A) (A) (A) (A) (A)
                 (A) (A) (A) (A) (A) (A) (A) (A) (A) (A) (A) (A)
                 (A) (A) (A) (A) (A) (A) (A) (A) (A) (A) (A) (A)
                 (A) (A) (A)
 The electronic state is 1-A.
 Alpha  occ. eigenvalues -- -145.35703 -19.18308 -19.15056 -19.13489 -19.12633
 Alpha  occ. eigenvalues --  -19.11598 -19.11294 -19.10818 -19.10351 -19.09157
 Alpha  occ. eigenvalues --  -19.08519 -19.07331 -19.07264 -19.07044 -19.06206
 Alpha  occ. eigenvalues --  -19.06071 -19.05091 -19.04974 -19.04825 -19.04789
 Alpha  occ. eigenvalues --  -19.03812 -19.03632 -19.02919 -19.02444 -15.41492
 Alpha  occ. eigenvalues --  -14.58826 -14.39225 -14.37669 -14.37515 -14.36804
 Alpha  occ. eigenvalues --  -14.36124 -14.34819 -14.34406 -14.32705 -14.32523
 Alpha  occ. eigenvalues --  -14.32301 -14.31585 -14.30060 -14.29703 -14.28589
 Alpha  occ. eigenvalues --  -12.55106 -12.55056 -12.55046 -10.34799 -10.32139
 Alpha  occ. eigenvalues --  -10.30204 -10.30011 -10.29495 -10.28805 -10.27992
 Alpha  occ. eigenvalues --  -10.27885 -10.27428 -10.26778 -10.26350 -10.26316
 Alpha  occ. eigenvalues --  -10.25982 -10.25560 -10.25487 -10.24697 -10.24591
 Alpha  occ. eigenvalues --  -10.24393 -10.24247 -10.23426 -10.23418 -10.23361
 Alpha  occ. eigenvalues --  -10.23109 -10.23085 -10.22975 -10.22510 -10.22234
 Alpha  occ. eigenvalues --  -10.22166 -10.22160 -10.21656 -10.21151 -10.20860
 Alpha  occ. eigenvalues --  -10.20232 -10.20114 -10.19382 -10.19131 -10.19043
 Alpha  occ. eigenvalues --  -10.18904 -10.18711 -10.18692 -10.18615 -10.18452
 Alpha  occ. eigenvalues --  -10.18414 -10.18351 -10.18287 -10.18146 -10.18133
 Alpha  occ. eigenvalues --  -10.17952 -10.17949 -10.17805 -10.17245 -10.16922
 Alpha  occ. eigenvalues --  -10.15638 -10.14841  -1.78430  -1.14277  -1.07282
 Alpha  occ. eigenvalues --   -1.06369  -1.06196  -1.05999  -1.05819  -1.04435
 Alpha  occ. eigenvalues --   -1.04252  -1.03501  -1.03300  -1.03183  -1.02782
 Alpha  occ. eigenvalues --   -1.02009  -1.01883  -1.00554  -0.99611  -0.99383
 Alpha  occ. eigenvalues --   -0.99228  -0.99094  -0.98452  -0.98141  -0.97659
 Alpha  occ. eigenvalues --   -0.97545  -0.96218  -0.95962  -0.94396  -0.93847
 Alpha  occ. eigenvalues --   -0.93561  -0.91883  -0.90921  -0.90690  -0.90658
 Alpha  occ. eigenvalues --   -0.90334  -0.89754  -0.89414  -0.88963  -0.88563
 Alpha  occ. eigenvalues --   -0.88087  -0.87863  -0.87122  -0.86742  -0.85093
 Alpha  occ. eigenvalues --   -0.84149  -0.82495  -0.81869  -0.81867  -0.80176
 Alpha  occ. eigenvalues --   -0.78566  -0.78133  -0.77848  -0.76859  -0.75722
 Alpha  occ. eigenvalues --   -0.75379  -0.74574  -0.74526  -0.73557  -0.73115
 Alpha  occ. eigenvalues --   -0.72461  -0.72340  -0.72082  -0.71330  -0.70048
 Alpha  occ. eigenvalues --   -0.69692  -0.69290  -0.68459  -0.68331  -0.67817
 Alpha  occ. eigenvalues --   -0.67214  -0.65874  -0.65123  -0.64684  -0.64053
 Alpha  occ. eigenvalues --   -0.63811  -0.63390  -0.63009  -0.61820  -0.61773
 Alpha  occ. eigenvalues --   -0.61731  -0.61104  -0.60693  -0.60663  -0.60371
 Alpha  occ. eigenvalues --   -0.58966  -0.58918  -0.58549  -0.58427  -0.58039
 Alpha  occ. eigenvalues --   -0.57032  -0.56815  -0.56278  -0.56054  -0.55694
 Alpha  occ. eigenvalues --   -0.55601  -0.55310  -0.54901  -0.54822  -0.54627
 Alpha  occ. eigenvalues --   -0.54395  -0.54295  -0.53689  -0.53331  -0.53019
 Alpha  occ. eigenvalues --   -0.52703  -0.52498  -0.52321  -0.51874  -0.51696
 Alpha  occ. eigenvalues --   -0.51555  -0.51273  -0.50577  -0.50282  -0.49951
 Alpha  occ. eigenvalues --   -0.49585  -0.49122  -0.48926  -0.48643  -0.48537
 Alpha  occ. eigenvalues --   -0.48263  -0.48093  -0.48012  -0.47800  -0.47788
 Alpha  occ. eigenvalues --   -0.47312  -0.46923  -0.46702  -0.46585  -0.46240
 Alpha  occ. eigenvalues --   -0.46094  -0.45920  -0.45837  -0.45390  -0.45200
 Alpha  occ. eigenvalues --   -0.44962  -0.44687  -0.44585  -0.44508  -0.44272
 Alpha  occ. eigenvalues --   -0.44224  -0.44040  -0.43980  -0.43779  -0.43503
 Alpha  occ. eigenvalues --   -0.43318  -0.43311  -0.43189  -0.42807  -0.42438
 Alpha  occ. eigenvalues --   -0.42241  -0.42043  -0.41929  -0.41844  -0.41670
 Alpha  occ. eigenvalues --   -0.41474  -0.41417  -0.41329  -0.41181  -0.41111
 Alpha  occ. eigenvalues --   -0.40855  -0.40824  -0.40731  -0.40538  -0.40478
 Alpha  occ. eigenvalues --   -0.40345  -0.40239  -0.40119  -0.40027  -0.40022
 Alpha  occ. eigenvalues --   -0.39658  -0.39594  -0.39510  -0.39424  -0.39399
 Alpha  occ. eigenvalues --   -0.39321  -0.39026  -0.38880  -0.38705  -0.38547
 Alpha  occ. eigenvalues --   -0.38543  -0.38405  -0.38292  -0.38064  -0.38044
 Alpha  occ. eigenvalues --   -0.37948  -0.37844  -0.37633  -0.37562  -0.37368
 Alpha  occ. eigenvalues --   -0.37254  -0.36902  -0.36515  -0.36399  -0.36118
 Alpha  occ. eigenvalues --   -0.36099  -0.36036  -0.35937  -0.35722  -0.35547
 Alpha  occ. eigenvalues --   -0.35389  -0.35242  -0.35000  -0.34765  -0.34386
 Alpha  occ. eigenvalues --   -0.34148  -0.34036  -0.33859  -0.33808  -0.33610
 Alpha  occ. eigenvalues --   -0.33480  -0.33095  -0.32999  -0.32871  -0.32697
 Alpha  occ. eigenvalues --   -0.32607  -0.32402  -0.32359  -0.32278  -0.31695
 Alpha  occ. eigenvalues --   -0.31407  -0.31368  -0.31104  -0.30913  -0.30157
 Alpha  occ. eigenvalues --   -0.29294  -0.28891  -0.28785  -0.28546  -0.27656
 Alpha  occ. eigenvalues --   -0.27347  -0.27010  -0.26803  -0.26592  -0.26401
 Alpha  occ. eigenvalues --   -0.26372  -0.25532  -0.25395  -0.25001  -0.24626
 Alpha  occ. eigenvalues --   -0.24494  -0.24389  -0.24231  -0.23580  -0.23018
 Alpha  occ. eigenvalues --   -0.22680  -0.22579  -0.22422  -0.22241  -0.22100
 Alpha  occ. eigenvalues --   -0.21917  -0.21679  -0.21606  -0.21230  -0.21182
 Alpha  occ. eigenvalues --   -0.20956  -0.20764  -0.20279  -0.19983  -0.19755
 Alpha  occ. eigenvalues --   -0.18862  -0.18517  -0.18106
 Alpha virt. eigenvalues --   -0.10844  -0.05568  -0.04040  -0.03332  -0.02019
 Alpha virt. eigenvalues --   -0.01306  -0.01133  -0.00421  -0.00063   0.00298
 Alpha virt. eigenvalues --    0.00822   0.01338   0.01400   0.01958   0.02179
 Alpha virt. eigenvalues --    0.02247   0.02717   0.02838   0.03091   0.03943
 Alpha virt. eigenvalues --    0.04059   0.04134   0.04166   0.04458   0.05065
 Alpha virt. eigenvalues --    0.05326   0.05455   0.05633   0.05664   0.05827
 Alpha virt. eigenvalues --    0.06123   0.06395   0.06534   0.06631   0.06782
 Alpha virt. eigenvalues --    0.07008   0.07444   0.07561   0.07943   0.08190
 Alpha virt. eigenvalues --    0.08231   0.08286   0.08519   0.08742   0.09117
 Alpha virt. eigenvalues --    0.09496   0.09660   0.09896   0.10012   0.10220
 Alpha virt. eigenvalues --    0.10271   0.10591   0.10873   0.10957   0.11320
 Alpha virt. eigenvalues --    0.11358   0.11631   0.11755   0.11970   0.12243
 Alpha virt. eigenvalues --    0.12288   0.12501   0.12667   0.12842   0.13009
 Alpha virt. eigenvalues --    0.13055   0.13206   0.13328   0.13382   0.13603
 Alpha virt. eigenvalues --    0.13805   0.13939   0.14026   0.14234   0.14390
 Alpha virt. eigenvalues --    0.14420   0.14507   0.14653   0.14694   0.14961
 Alpha virt. eigenvalues --    0.15095   0.15180   0.15685   0.15811   0.16210
 Alpha virt. eigenvalues --    0.16240   0.16444   0.16608   0.16662   0.16759
 Alpha virt. eigenvalues --    0.17024   0.17563   0.17620   0.17652   0.17786
 Alpha virt. eigenvalues --    0.18118   0.18379   0.18585   0.18796   0.18966
 Alpha virt. eigenvalues --    0.19145   0.19437   0.19532   0.19577   0.19659
 Alpha virt. eigenvalues --    0.19760   0.19958   0.20251   0.20429   0.20711
 Alpha virt. eigenvalues --    0.20740   0.20982   0.21243   0.21336   0.21751
 Alpha virt. eigenvalues --    0.21868   0.22260   0.22354   0.22497   0.22693
 Alpha virt. eigenvalues --    0.22893   0.23200   0.23289   0.23462   0.23615
 Alpha virt. eigenvalues --    0.23689   0.23993   0.24427   0.24624   0.24753
 Alpha virt. eigenvalues --    0.24918   0.24944   0.25110   0.25309   0.25556
 Alpha virt. eigenvalues --    0.25794   0.25905   0.26224   0.26452   0.26514
 Alpha virt. eigenvalues --    0.26925   0.27155   0.27243   0.27372   0.27761
 Alpha virt. eigenvalues --    0.28185   0.28441   0.28718   0.29106   0.29118
 Alpha virt. eigenvalues --    0.29306   0.29554   0.29795   0.30162   0.30287
 Alpha virt. eigenvalues --    0.30887   0.31182   0.31213   0.31225   0.31372
 Alpha virt. eigenvalues --    0.31630   0.32167   0.32388   0.32547   0.32591
 Alpha virt. eigenvalues --    0.32655   0.33029   0.33465   0.33513   0.33865
 Alpha virt. eigenvalues --    0.33985   0.34166   0.34530   0.35189   0.35296
 Alpha virt. eigenvalues --    0.35974   0.36250   0.36281   0.36582   0.36768
 Alpha virt. eigenvalues --    0.36838   0.37404   0.37528   0.37739   0.38146
 Alpha virt. eigenvalues --    0.38210   0.38420   0.38983   0.39066   0.39846
 Alpha virt. eigenvalues --    0.40201   0.40430   0.40799   0.40957   0.41115
 Alpha virt. eigenvalues --    0.41232   0.41636   0.41863   0.42014   0.42363
 Alpha virt. eigenvalues --    0.42566   0.42833   0.43026   0.43190   0.43393
 Alpha virt. eigenvalues --    0.43458   0.43973   0.44202   0.44281   0.44459
 Alpha virt. eigenvalues --    0.44607   0.44832   0.45095   0.45400   0.45480
 Alpha virt. eigenvalues --    0.45647   0.46089   0.46252   0.46409   0.46580
 Alpha virt. eigenvalues --    0.46814   0.46934   0.47202   0.47396   0.47564
 Alpha virt. eigenvalues --    0.47768   0.47868   0.48036   0.48182   0.48244
 Alpha virt. eigenvalues --    0.48415   0.48869   0.48921   0.49131   0.49291
 Alpha virt. eigenvalues --    0.49665   0.49721   0.49982   0.50082   0.50189
 Alpha virt. eigenvalues --    0.50430   0.50560   0.50757   0.50974   0.51133
 Alpha virt. eigenvalues --    0.51284   0.51584   0.51674   0.52012   0.52276
 Alpha virt. eigenvalues --    0.52503   0.52572   0.52671   0.52959   0.53197
 Alpha virt. eigenvalues --    0.53264   0.53433   0.53942   0.54055   0.54105
 Alpha virt. eigenvalues --    0.54208   0.54374   0.54549   0.54585   0.54827
 Alpha virt. eigenvalues --    0.55097   0.55197   0.55720   0.55769   0.55924
 Alpha virt. eigenvalues --    0.56314   0.56457   0.56472   0.56760   0.56906
 Alpha virt. eigenvalues --    0.57237   0.57403   0.57518   0.57930   0.58082
 Alpha virt. eigenvalues --    0.58290   0.58444   0.58570   0.58634   0.58825
 Alpha virt. eigenvalues --    0.58964   0.59004   0.59091   0.59414   0.59489
 Alpha virt. eigenvalues --    0.59728   0.59828   0.60019   0.60313   0.60394
 Alpha virt. eigenvalues --    0.60502   0.60710   0.60859   0.60965   0.61090
 Alpha virt. eigenvalues --    0.61344   0.61504   0.61560   0.61788   0.61861
 Alpha virt. eigenvalues --    0.62021   0.62261   0.62366   0.62494   0.62544
 Alpha virt. eigenvalues --    0.62778   0.62859   0.62975   0.63027   0.63147
 Alpha virt. eigenvalues --    0.63288   0.63381   0.63602   0.63676   0.63818
 Alpha virt. eigenvalues --    0.63977   0.64058   0.64170   0.64311   0.64522
 Alpha virt. eigenvalues --    0.64609   0.64782   0.64970   0.65029   0.65099
 Alpha virt. eigenvalues --    0.65153   0.65242   0.65396   0.65489   0.65685
 Alpha virt. eigenvalues --    0.65850   0.65964   0.66083   0.66220   0.66300
 Alpha virt. eigenvalues --    0.66503   0.66583   0.66655   0.66728   0.66796
 Alpha virt. eigenvalues --    0.66964   0.67005   0.67130   0.67152   0.67247
 Alpha virt. eigenvalues --    0.67317   0.67410   0.67562   0.67749   0.67776
 Alpha virt. eigenvalues --    0.67878   0.68139   0.68199   0.68327   0.68398
 Alpha virt. eigenvalues --    0.68520   0.68634   0.68814   0.68942   0.69071
 Alpha virt. eigenvalues --    0.69210   0.69267   0.69355   0.69553   0.69622
 Alpha virt. eigenvalues --    0.69729   0.69823   0.69961   0.70128   0.70247
 Alpha virt. eigenvalues --    0.70334   0.70370   0.70610   0.70736   0.70803
 Alpha virt. eigenvalues --    0.70964   0.71043   0.71203   0.71293   0.71484
 Alpha virt. eigenvalues --    0.71619   0.71816   0.71914   0.72125   0.72338
 Alpha virt. eigenvalues --    0.72458   0.72598   0.72763   0.73123   0.73264
 Alpha virt. eigenvalues --    0.73469   0.73578   0.73677   0.73932   0.74002
 Alpha virt. eigenvalues --    0.74121   0.74179   0.74605   0.74843   0.75031
 Alpha virt. eigenvalues --    0.75269   0.75317   0.75581   0.75611   0.75890
 Alpha virt. eigenvalues --    0.76355   0.76428   0.76515   0.76961   0.77176
 Alpha virt. eigenvalues --    0.77231   0.77438   0.77534   0.77780   0.78118
 Alpha virt. eigenvalues --    0.78140   0.78522   0.78716   0.79035   0.79282
 Alpha virt. eigenvalues --    0.79393   0.79897   0.80046   0.80182   0.80413
 Alpha virt. eigenvalues --    0.80734   0.80986   0.81130   0.81574   0.81974
 Alpha virt. eigenvalues --    0.82080   0.82208   0.82330   0.82778   0.82889
 Alpha virt. eigenvalues --    0.83227   0.83483   0.83775   0.84117   0.84461
 Alpha virt. eigenvalues --    0.84509   0.84821   0.84999   0.85210   0.85392
 Alpha virt. eigenvalues --    0.85814   0.86064   0.86449   0.86471   0.86769
 Alpha virt. eigenvalues --    0.86917   0.87254   0.87374   0.87760   0.88030
 Alpha virt. eigenvalues --    0.88458   0.88766   0.88909   0.89120   0.89671
 Alpha virt. eigenvalues --    0.89960   0.90588   0.90683   0.90893   0.91381
 Alpha virt. eigenvalues --    0.91861   0.92183   0.92223   0.92668   0.92836
 Alpha virt. eigenvalues --    0.93039   0.93627   0.93808   0.94343   0.94654
 Alpha virt. eigenvalues --    0.94723   0.95139   0.95194   0.95562   0.95708
 Alpha virt. eigenvalues --    0.95889   0.96124   0.96652   0.96688   0.97092
 Alpha virt. eigenvalues --    0.97340   0.97450   0.97751   0.97922   0.98279
 Alpha virt. eigenvalues --    0.98434   0.98656   0.98865   0.99312   0.99502
 Alpha virt. eigenvalues --    1.00067   1.00510   1.00691   1.01149   1.01409
 Alpha virt. eigenvalues --    1.01748   1.01906   1.02163   1.02440   1.02842
 Alpha virt. eigenvalues --    1.03091   1.03257   1.03715   1.04011   1.04168
 Alpha virt. eigenvalues --    1.04625   1.05160   1.05240   1.05512   1.05758
 Alpha virt. eigenvalues --    1.06363   1.06569   1.06677   1.07249   1.07474
 Alpha virt. eigenvalues --    1.07515   1.07773   1.08068   1.08454   1.08721
 Alpha virt. eigenvalues --    1.08980   1.09239   1.09729   1.09756   1.09933
 Alpha virt. eigenvalues --    1.10486   1.10760   1.11191   1.11498   1.11919
 Alpha virt. eigenvalues --    1.12226   1.12333   1.12441   1.12773   1.13232
 Alpha virt. eigenvalues --    1.13529   1.13778   1.14007   1.14492   1.14642
 Alpha virt. eigenvalues --    1.14989   1.15120   1.15314   1.15716   1.16180
 Alpha virt. eigenvalues --    1.16247   1.16409   1.16723   1.16912   1.17143
 Alpha virt. eigenvalues --    1.17505   1.17536   1.17908   1.18047   1.18402
 Alpha virt. eigenvalues --    1.18535   1.19122   1.19484   1.19762   1.19946
 Alpha virt. eigenvalues --    1.20324   1.20470   1.20560   1.21030   1.21477
 Alpha virt. eigenvalues --    1.22070   1.22214   1.22347   1.22388   1.22694
 Alpha virt. eigenvalues --    1.22778   1.23005   1.23396   1.23694   1.23902
 Alpha virt. eigenvalues --    1.24089   1.24521   1.24691   1.24827   1.25080
 Alpha virt. eigenvalues --    1.25347   1.25605   1.25749   1.25829   1.26155
 Alpha virt. eigenvalues --    1.26430   1.26518   1.26668   1.27365   1.27496
 Alpha virt. eigenvalues --    1.27628   1.27915   1.28274   1.28669   1.28938
 Alpha virt. eigenvalues --    1.29123   1.29379   1.29681   1.29886   1.30200
 Alpha virt. eigenvalues --    1.30294   1.30543   1.30817   1.30982   1.31490
 Alpha virt. eigenvalues --    1.31845   1.32320   1.32648   1.32998   1.33076
 Alpha virt. eigenvalues --    1.33210   1.33832   1.33889   1.34284   1.34401
 Alpha virt. eigenvalues --    1.34572   1.34777   1.35099   1.35367   1.35768
 Alpha virt. eigenvalues --    1.35854   1.36007   1.36187   1.36773   1.36868
 Alpha virt. eigenvalues --    1.37342   1.37692   1.37829   1.38000   1.38244
 Alpha virt. eigenvalues --    1.38504   1.39037   1.39483   1.39535   1.39830
 Alpha virt. eigenvalues --    1.39860   1.40156   1.40838   1.41022   1.41305
 Alpha virt. eigenvalues --    1.41458   1.41843   1.42156   1.42399   1.42521
 Alpha virt. eigenvalues --    1.42925   1.43278   1.43558   1.44244   1.44478
 Alpha virt. eigenvalues --    1.44776   1.44924   1.45062   1.45714   1.45975
 Alpha virt. eigenvalues --    1.46272   1.46319   1.46650   1.47349   1.47436
 Alpha virt. eigenvalues --    1.47840   1.47925   1.48398   1.48644   1.48769
 Alpha virt. eigenvalues --    1.48953   1.49518   1.49706   1.49949   1.50644
 Alpha virt. eigenvalues --    1.50706   1.51065   1.51432   1.51794   1.52031
 Alpha virt. eigenvalues --    1.52283   1.52313   1.52725   1.53199   1.53266
 Alpha virt. eigenvalues --    1.53624   1.53858   1.54196   1.54664   1.54867
 Alpha virt. eigenvalues --    1.55031   1.55278   1.55357   1.56058   1.56235
 Alpha virt. eigenvalues --    1.56579   1.57016   1.57200   1.57489   1.57975
 Alpha virt. eigenvalues --    1.58228   1.58604   1.58699   1.59144   1.59214
 Alpha virt. eigenvalues --    1.59498   1.59650   1.60336   1.60389   1.60753
 Alpha virt. eigenvalues --    1.60937   1.61368   1.61542   1.61664   1.61924
 Alpha virt. eigenvalues --    1.62140   1.62521   1.62730   1.63024   1.63703
 Alpha virt. eigenvalues --    1.64157   1.64378   1.64806   1.64920   1.65413
 Alpha virt. eigenvalues --    1.65447   1.66131   1.66545   1.67021   1.67048
 Alpha virt. eigenvalues --    1.67341   1.67511   1.67526   1.67798   1.68179
 Alpha virt. eigenvalues --    1.68283   1.68810   1.69118   1.69360   1.69805
 Alpha virt. eigenvalues --    1.70074   1.70323   1.70467   1.70614   1.70811
 Alpha virt. eigenvalues --    1.71108   1.71271   1.71404   1.71540   1.71777
 Alpha virt. eigenvalues --    1.72105   1.72287   1.72340   1.72663   1.72774
 Alpha virt. eigenvalues --    1.72933   1.73272   1.74106   1.74229   1.74325
 Alpha virt. eigenvalues --    1.74705   1.74933   1.75087   1.75268   1.75350
 Alpha virt. eigenvalues --    1.75682   1.75767   1.75888   1.76115   1.76256
 Alpha virt. eigenvalues --    1.76533   1.76686   1.76833   1.77043   1.77095
 Alpha virt. eigenvalues --    1.77527   1.77691   1.77824   1.77923   1.78103
 Alpha virt. eigenvalues --    1.78275   1.78637   1.78861   1.79022   1.79105
 Alpha virt. eigenvalues --    1.79309   1.79585   1.79746   1.79904   1.80065
 Alpha virt. eigenvalues --    1.80106   1.80382   1.80458   1.80709   1.80722
 Alpha virt. eigenvalues --    1.80847   1.80917   1.81164   1.81250   1.81370
 Alpha virt. eigenvalues --    1.81504   1.81749   1.81945   1.82042   1.82353
 Alpha virt. eigenvalues --    1.82482   1.82630   1.82768   1.82908   1.83242
 Alpha virt. eigenvalues --    1.83276   1.83537   1.83689   1.83723   1.83927
 Alpha virt. eigenvalues --    1.84048   1.84252   1.84607   1.84746   1.85142
 Alpha virt. eigenvalues --    1.85195   1.85281   1.85357   1.85602   1.85786
 Alpha virt. eigenvalues --    1.86377   1.86701   1.87001   1.87206   1.87233
 Alpha virt. eigenvalues --    1.87272   1.87383   1.87511   1.87899   1.87993
 Alpha virt. eigenvalues --    1.88029   1.88367   1.88627   1.88781   1.88916
 Alpha virt. eigenvalues --    1.89142   1.89250   1.89332   1.89463   1.89967
 Alpha virt. eigenvalues --    1.90045   1.90290   1.90304   1.90635   1.90864
 Alpha virt. eigenvalues --    1.91043   1.91306   1.91480   1.91554   1.91726
 Alpha virt. eigenvalues --    1.92318   1.92463   1.92661   1.92920   1.92968
 Alpha virt. eigenvalues --    1.93146   1.93384   1.93567   1.93714   1.93854
 Alpha virt. eigenvalues --    1.93911   1.94237   1.94480   1.94604   1.94920
 Alpha virt. eigenvalues --    1.95192   1.95239   1.95465   1.95678   1.95997
 Alpha virt. eigenvalues --    1.96498   1.96566   1.96854   1.97108   1.97181
 Alpha virt. eigenvalues --    1.97360   1.97589   1.97675   1.98045   1.98062
 Alpha virt. eigenvalues --    1.98301   1.98498   1.98818   1.98953   1.98990
 Alpha virt. eigenvalues --    1.99291   1.99653   2.00025   2.00319   2.00342
 Alpha virt. eigenvalues --    2.00466   2.00667   2.00822   2.00972   2.01080
 Alpha virt. eigenvalues --    2.01578   2.02070   2.02122   2.02339   2.02356
 Alpha virt. eigenvalues --    2.02925   2.02943   2.03306   2.03489   2.04059
 Alpha virt. eigenvalues --    2.04221   2.04679   2.04804   2.04880   2.05279
 Alpha virt. eigenvalues --    2.05369   2.05609   2.05828   2.06305   2.06638
 Alpha virt. eigenvalues --    2.06922   2.07704   2.07849   2.07947   2.08156
 Alpha virt. eigenvalues --    2.08809   2.08836   2.09037   2.09384   2.09807
 Alpha virt. eigenvalues --    2.09932   2.10197   2.10918   2.10954   2.11022
 Alpha virt. eigenvalues --    2.11322   2.11587   2.11869   2.12338   2.12844
 Alpha virt. eigenvalues --    2.13089   2.13662   2.13847   2.14051   2.14225
 Alpha virt. eigenvalues --    2.14437   2.15075   2.15372   2.15420   2.15557
 Alpha virt. eigenvalues --    2.15802   2.16422   2.16941   2.16967   2.17370
 Alpha virt. eigenvalues --    2.17774   2.17920   2.18066   2.18384   2.18947
 Alpha virt. eigenvalues --    2.18989   2.19276   2.19590   2.19764   2.20161
 Alpha virt. eigenvalues --    2.20388   2.20481   2.20790   2.21029   2.21442
 Alpha virt. eigenvalues --    2.21772   2.21874   2.22149   2.22220   2.22795
 Alpha virt. eigenvalues --    2.23087   2.23174   2.23292   2.23843   2.24207
 Alpha virt. eigenvalues --    2.24573   2.24729   2.25045   2.25509   2.26404
 Alpha virt. eigenvalues --    2.26875   2.27187   2.27260   2.27992   2.28125
 Alpha virt. eigenvalues --    2.28789   2.28992   2.29496   2.29766   2.29825
 Alpha virt. eigenvalues --    2.30074   2.30208   2.30274   2.30659   2.30843
 Alpha virt. eigenvalues --    2.31203   2.31337   2.32011   2.32233   2.32428
 Alpha virt. eigenvalues --    2.32655   2.32997   2.33178   2.33435   2.33901
 Alpha virt. eigenvalues --    2.34138   2.34217   2.34557   2.34714   2.35272
 Alpha virt. eigenvalues --    2.35379   2.35710   2.36095   2.36583   2.36694
 Alpha virt. eigenvalues --    2.36811   2.37176   2.37706   2.37747   2.38613
 Alpha virt. eigenvalues --    2.39037   2.39272   2.39802   2.40126   2.40241
 Alpha virt. eigenvalues --    2.40673   2.40783   2.41277   2.41566   2.41828
 Alpha virt. eigenvalues --    2.42135   2.42389   2.42677   2.42873   2.42947
 Alpha virt. eigenvalues --    2.43180   2.43575   2.44036   2.44567   2.44755
 Alpha virt. eigenvalues --    2.45179   2.45319   2.45777   2.45903   2.46488
 Alpha virt. eigenvalues --    2.46793   2.46954   2.47368   2.47791   2.47917
 Alpha virt. eigenvalues --    2.48369   2.48522   2.48757   2.49687   2.50143
 Alpha virt. eigenvalues --    2.50433   2.50604   2.50819   2.51503   2.51784
 Alpha virt. eigenvalues --    2.52064   2.53121   2.53567   2.53698   2.53803
 Alpha virt. eigenvalues --    2.54262   2.54510   2.54576   2.54785   2.54864
 Alpha virt. eigenvalues --    2.55191   2.55221   2.56140   2.56423   2.57112
 Alpha virt. eigenvalues --    2.57622   2.58206   2.58657   2.58842   2.58985
 Alpha virt. eigenvalues --    2.59227   2.59332   2.59541   2.59988   2.60426
 Alpha virt. eigenvalues --    2.61197   2.61454   2.61593   2.61851   2.61968
 Alpha virt. eigenvalues --    2.62606   2.62658   2.62960   2.63135   2.63224
 Alpha virt. eigenvalues --    2.63579   2.64123   2.64767   2.65054   2.65107
 Alpha virt. eigenvalues --    2.65273   2.65803   2.65988   2.66801   2.66916
 Alpha virt. eigenvalues --    2.67445   2.67467   2.67702   2.68363   2.68776
 Alpha virt. eigenvalues --    2.68990   2.69122   2.69223   2.69454   2.69553
 Alpha virt. eigenvalues --    2.70248   2.70434   2.70506   2.70938   2.71231
 Alpha virt. eigenvalues --    2.71370   2.71589   2.72140   2.72339   2.72555
 Alpha virt. eigenvalues --    2.72675   2.72816   2.72952   2.73047   2.73230
 Alpha virt. eigenvalues --    2.73529   2.74313   2.74495   2.74621   2.74913
 Alpha virt. eigenvalues --    2.74966   2.75132   2.75831   2.76065   2.76369
 Alpha virt. eigenvalues --    2.76483   2.76683   2.76971   2.77283   2.77361
 Alpha virt. eigenvalues --    2.77489   2.77532   2.77847   2.78338   2.78794
 Alpha virt. eigenvalues --    2.79154   2.79516   2.79786   2.79991   2.80262
 Alpha virt. eigenvalues --    2.80402   2.80687   2.81105   2.81454   2.81740
 Alpha virt. eigenvalues --    2.81769   2.82162   2.82559   2.82873   2.83109
 Alpha virt. eigenvalues --    2.83415   2.83754   2.84081   2.84691   2.84760
 Alpha virt. eigenvalues --    2.84951   2.85065   2.85178   2.85315   2.85461
 Alpha virt. eigenvalues --    2.85944   2.86198   2.86667   2.87582   2.87764
 Alpha virt. eigenvalues --    2.87952   2.88308   2.88459   2.88562   2.88884
 Alpha virt. eigenvalues --    2.89099   2.89154   2.90063   2.90832   2.91279
 Alpha virt. eigenvalues --    2.91572   2.91814   2.92047   2.92185   2.92377
 Alpha virt. eigenvalues --    2.92489   2.93312   2.93547   2.93635   2.94213
 Alpha virt. eigenvalues --    2.94518   2.94751   2.95256   2.95686   2.96042
 Alpha virt. eigenvalues --    2.96306   2.96615   2.96714   2.96903   2.97100
 Alpha virt. eigenvalues --    2.97392   2.97659   2.97909   2.98482   2.98533
 Alpha virt. eigenvalues --    2.98606   2.98817   2.98973   2.99803   2.99968
 Alpha virt. eigenvalues --    3.00329   3.00645   3.00755   3.00894   3.01160
 Alpha virt. eigenvalues --    3.01640   3.01897   3.02098   3.02260   3.02416
 Alpha virt. eigenvalues --    3.02566   3.02712   3.03186   3.03381   3.03502
 Alpha virt. eigenvalues --    3.03999   3.04994   3.05355   3.05581   3.05744
 Alpha virt. eigenvalues --    3.06146   3.06458   3.07425   3.07706   3.07808
 Alpha virt. eigenvalues --    3.09300   3.10260   3.10869   3.11080   3.11312
 Alpha virt. eigenvalues --    3.12025   3.12077   3.12406   3.13391   3.13871
 Alpha virt. eigenvalues --    3.15728   3.16031   3.16613   3.16937   3.17071
 Alpha virt. eigenvalues --    3.17172   3.17338   3.17470   3.17627   3.17959
 Alpha virt. eigenvalues --    3.18456   3.18648   3.18971   3.19102   3.19826
 Alpha virt. eigenvalues --    3.19877   3.20055   3.20176   3.20712   3.21098
 Alpha virt. eigenvalues --    3.21364   3.21507   3.22484   3.22755   3.22964
 Alpha virt. eigenvalues --    3.23642   3.23860   3.24414   3.25132   3.25322
 Alpha virt. eigenvalues --    3.25648   3.25945   3.26453   3.27309   3.28067
 Alpha virt. eigenvalues --    3.29141   3.29194   3.30404   3.30641   3.31174
 Alpha virt. eigenvalues --    3.31711   3.31789   3.32498   3.33082   3.33177
 Alpha virt. eigenvalues --    3.34031   3.34640   3.36454   3.38654   3.38720
 Alpha virt. eigenvalues --    3.40153   3.40741   3.46484   3.52091   3.52973
 Alpha virt. eigenvalues --    3.53214   3.54754   3.55296   3.55687   3.56600
 Alpha virt. eigenvalues --    3.56755   3.59236   3.59637   3.60135   3.60431
 Alpha virt. eigenvalues --    3.61669   3.62424   3.62679   3.64507   3.65290
 Alpha virt. eigenvalues --    3.66144   3.67421   3.67555   3.68195   3.68601
 Alpha virt. eigenvalues --    3.69116   3.69340   3.69804   3.69936   3.70100
 Alpha virt. eigenvalues --    3.70433   3.71566   3.71989   3.72365   3.72719
 Alpha virt. eigenvalues --    3.73071   3.73583   3.74021   3.74281   3.75877
 Alpha virt. eigenvalues --    3.77439   3.78563   3.79377   3.85396
          Condensed to atoms (all electrons):
 Mulliken charges:
               1
     1  C    0.052674
     2  C    0.026957
     3  O   -0.298649
     4  H    0.041259
     5  H    0.008266
     6  H    0.046424
     7  N   -0.113771
     8  C    0.060934
     9  C    0.084110
    10  O   -0.296512
    11  C    0.075961
    12  C    0.160514
    13  O   -0.476302
    14  O   -0.388349
    15  H    0.111594
    16  H    0.029637
    17  H    0.006945
    18  H   -0.006962
    19  N   -0.109509
    20  C    0.125026
    21  C    0.017448
    22  O   -0.293171
    23  C    0.069295
    24  C   -0.018755
    25  C   -0.078037
    26  C    0.032378
    27  N    0.094799
    28  H    0.164159
    29  H    0.005424
    30  H    0.036415
    31  H    0.032380
    32  H    0.006986
    33  H    0.032088
    34  H    0.022610
    35  H    0.029441
    36  H    0.079039
    37  H    0.070818
    38  H    0.191008
    39  H    0.191216
    40  H    0.199368
    41  N   -0.155965
    42  C    0.140576
    43  C    0.046014
    44  O   -0.275554
    45  C    0.065934
    46  C    0.157453
    47  O   -0.400538
    48  O   -0.440396
    49  H    0.143090
    50  H    0.009366
    51  H   -0.004215
    52  H    0.022684
    53  N   -0.172685
    54  C    0.249514
    55  C    0.027340
    56  O   -0.299562
    57  H    0.146416
    58  H    0.010377
    59  H    0.042504
    60  N   -0.157517
    61  C    0.145503
    62  C    0.025460
    63  O   -0.315906
    64  C    0.086440
    65  C    0.061602
    66  N   -0.032421
    67  O   -0.348975
    68  H    0.145665
    69  H    0.024912
    70  H    0.056846
    71  H   -0.005078
    72  H    0.137407
    73  H    0.124014
    74  N   -0.157245
    75  C    0.241088
    76  C    0.030779
    77  O   -0.316863
    78  H    0.156822
    79  H    0.032924
    80  H    0.037869
    81  N   -0.126398
    82  C    0.117824
    83  C    0.118124
    84  O   -0.373821
    85  C    0.156405
    86  C    0.029218
    87  C    0.018651
    88  C   -0.011652
    89  C    0.006672
    90  C   -0.040019
    91  C    0.158875
    92  O   -0.228765
    93  H    0.156844
    94  H    0.006088
    95  H   -0.003035
    96  H   -0.017169
    97  H   -0.051085
    98  H   -0.061303
    99  H   -0.029062
   100  H   -0.043180
   101  H    0.180817
   102  N   -0.107359
   103  C    0.113891
   104  C    0.073721
   105  O   -0.291050
   106  C   -0.113002
   107  C    0.024594
   108  C    0.046814
   109  C    0.055890
   110  H    0.138426
   111  H    0.031125
   112  H   -0.012201
   113  H   -0.003911
   114  H   -0.005876
   115  H    0.038100
   116  H    0.014402
   117  H   -0.003929
   118  H    0.011281
   119  H    0.019797
   120  H   -0.003113
   121  N   -0.137123
   122  C    0.106930
   123  C    0.120206
   124  O   -0.255955
   125  C    0.186225
   126  O   -0.312041
   127  H    0.146767
   128  H    0.028603
   129  H    0.017581
   130  H   -0.014730
   131  H    0.197948
   132  N   -0.127281
   133  C    0.066669
   134  C    0.047150
   135  O   -0.250123
   136  C    0.044153
   137  H    0.109775
   138  H    0.031343
   139  H    0.005531
   140  H    0.050434
   141  H    0.024134
   142  N   -0.122523
   143  C    0.068216
   144  C    0.045362
   145  O   -0.282136
   146  C    0.074043
   147  H    0.101657
   148  H    0.017382
   149  H    0.044000
   150  H   -0.004560
   151  H   -0.015704
   152  N   -0.160934
   153  C    0.153415
   154  C    0.052682
   155  O   -0.305199
   156  C   -0.029291
   157  C    0.091108
   158  C    0.120616
   159  O   -0.431816
   160  O   -0.412382
   161  H    0.133911
   162  H   -0.011255
   163  H    0.038416
   164  H   -0.008266
   165  H   -0.013188
   166  H   -0.015155
   167  N   -0.151936
   168  C    0.158057
   169  H    0.027611
   170  H    0.013411
   171  H    0.016538
   172  H    0.128323
   173  Ca   1.298767
   174  O   -0.318532
   175  H    0.152721
   176  H    0.157977
 Sum of Mulliken charges =  -0.00000
 Mulliken charges with hydrogens summed into heavy atoms:
               1
     1  C    0.148623
     2  C    0.026957
     3  O   -0.298649
     7  N   -0.002177
     8  C    0.090571
     9  C    0.084110
    10  O   -0.296512
    11  C    0.075945
    12  C    0.160514
    13  O   -0.476302
    14  O   -0.388349
    19  N    0.054651
    20  C    0.130449
    21  C    0.017448
    22  O   -0.293171
    23  C    0.138090
    24  C    0.020319
    25  C   -0.025986
    26  C    0.182235
    27  N    0.676392
    41  N   -0.012875
    42  C    0.149942
    43  C    0.046014
    44  O   -0.275554
    45  C    0.084402
    46  C    0.157453
    47  O   -0.400538
    48  O   -0.440396
    53  N   -0.026269
    54  C    0.302396
    55  C    0.027340
    56  O   -0.299562
    60  N   -0.011852
    61  C    0.170415
    62  C    0.025460
    63  O   -0.315906
    64  C    0.138208
    65  C    0.061602
    66  N    0.228999
    67  O   -0.348975
    74  N   -0.000423
    75  C    0.311881
    76  C    0.030779
    77  O   -0.316863
    81  N    0.030446
    82  C    0.123912
    83  C    0.118124
    84  O   -0.373821
    85  C    0.136201
    86  C    0.029218
    87  C   -0.032434
    88  C   -0.072955
    89  C   -0.022390
    90  C   -0.083199
    91  C    0.158875
    92  O   -0.047949
   102  N    0.031067
   103  C    0.145016
   104  C    0.073721
   105  O   -0.291050
   106  C   -0.125203
   107  C    0.014807
   108  C    0.095386
   109  C    0.083854
   121  N    0.009644
   122  C    0.135533
   123  C    0.120206
   124  O   -0.255955
   125  C    0.189076
   126  O   -0.114093
   132  N   -0.017506
   133  C    0.098011
   134  C    0.047150
   135  O   -0.250123
   136  C    0.124251
   142  N   -0.020866
   143  C    0.085598
   144  C    0.045362
   145  O   -0.282136
   146  C    0.097780
   152  N   -0.027023
   153  C    0.142160
   154  C    0.052682
   155  O   -0.305199
   156  C    0.000858
   157  C    0.062766
   158  C    0.120616
   159  O   -0.431816
   160  O   -0.412382
   167  N   -0.023613
   168  C    0.215618
   173  Ca   1.298767
   174  O   -0.007834
 DipInt: DoE/N= T F RetVal/Mat= T F Init=T NMatP=  1 IDeriv=0 Min/MaxMlt=  0  4
 Entering OneElI...
 OneElI was handed  1333951383 working-precision words.
 Multipole integrals L=0 to 4 MinM= 0 MaxM= 0.
 Requested accuracy = 0.1000D-12
 ShPair: Thresh= 1.00D-13 NBox=     0 BxSize= 0.00D+00 RnKept= 2.55D+01
         NSMCal=               327645 NSMKep=              159253
 PrmmSu-InSpLW:  IPartL=    0 NPrtUS=    1 NPrtUL=    1 DoSpLW=F IThBeg=    0 IThEnd=    0 NThAct=    1.
 PrsmSu:  NPrtUS=   1 ThrOK=F IAlg=1 NPAlg=1 LenDen=           0 ISkipM=0 DoSpLW=F IThBeg=    0 IThEnd=    0.
 Prism:   IPart=     0 DynPar=F LinDyn=F Incr=         512.
 PRISM was handed  1323937721 working-precision words and159253 shell-pairs
 IPart=  0 NShTot=      159253 NBatch=         363 AvBLen=       438.7
 PrsmSu-ThDecC:  IPartSL=    0    0 NPrtUSL=    1    1 IThBeg=    0 IThEnd=    0 CPU=   -1 GPU=   -1 NThAct=    1.
 PrSmSu:  NxtVal=            513.
 Electronic moments (au):
       -716.00000000         11.81391874          3.50815952         -6.50636587
     -49245.93039502     -35018.75434927     -11612.27746857        115.45725195
        -30.66673327        -18.63617084     -89482.12126967        199.16284210
     -17620.75338852      36404.81212163      63144.18541121      35648.14605879
     -11319.79190533       1402.46292122      36383.27677173       4994.01306743
   -6700701.58202109   -4591456.82196968    -539595.72648016     451062.59778198
     272087.44239770   -1108741.84705673     -57774.12880822     -89292.27110044
      39427.49792467   -2022334.43260794    -627704.04193437    -401374.32825467
    -162503.44162227     -29708.58360633     -10895.05731168
 Electronic spatial extent (au):  <R**2>=          95876.9622
 DipInt: DoE/N= F T RetVal/Mat= T F Init=T NMatP=  1 IDeriv=0 Min/MaxMlt=  0  4
 Nuclear    moments (au):
        716.00000000         -0.00000000         -0.00000000         -0.00000000
      48751.52401434      34741.00402263      11241.71363314         -0.00000000
         -0.00000000          0.00000000      90379.62504504       2239.08512088
      17559.47809011     -34137.04427127     -62928.37251087     -36530.73335677
      11508.17962539      -1426.25249201     -37469.61790536      -5596.59913359
    6501101.74353353    4507307.06682362     501644.39750118    -442190.63817671
    -273529.17777958    1139614.25100891      47511.11181044      89004.05657699
     -38687.18184426    1989713.26136831     596218.82396889     379176.64441553
     161651.06785863      23136.83031702      13787.53688114
 Total      moments (au):
         -0.00000000         11.81391874          3.50815952         -6.50636587
       -494.40638068       -277.75032664       -370.56383543        115.45725195
        -30.66673327        -18.63617084        897.50377537       2438.24796298
        -61.27529841       2267.76785035        215.81290034       -882.58729799
        188.38772007        -23.78957079      -1086.34113364       -602.58606616
    -199599.83848756     -84149.75514607     -37951.32897898       8871.95960527
      -1441.73538188      30872.40395218     -10263.01699778       -288.21452345
        740.31608041     -32621.17123963     -31485.21796548     -22197.68383914
       -852.37376364      -6571.75328930       2892.47956945
 Traceless Quadrup. (au):
       -113.49953310        103.15652094         10.34301215        115.45725195
        -30.66673327        -18.63617084
 Charge=             -0.0000 electrons
 Dipole moment (field-independent basis, Debye):
    X=             30.0280    Y=              8.9169    Z=            -16.5375  Tot=             35.4215
 Quadrupole moment (field-independent basis, Debye-Ang):
   XX=           -664.9935   YY=           -373.5837   ZZ=           -498.4211
   XY=            155.2940   XZ=            -41.2478   YZ=            -25.0663
 Traceless Quadrupole moment (field-independent basis, Debye-Ang):
   XX=           -152.6608   YY=            138.7491   ZZ=             13.9117
   XY=            155.2940   XZ=            -41.2478   YZ=            -25.0663
 Octapole moment (field-independent basis, Debye-Ang**2):
  XXX=            638.8086  YYY=           1735.4510  ZZZ=            -43.6134  XYY=           1614.1098
  XXY=            153.6073  XXZ=           -628.1916  XZZ=            134.0871  YZZ=            -16.9325
  YYZ=           -773.2158  XYZ=           -428.8975
 Hexadecapole moment (field-independent basis, Debye-Ang**3):
 XXXX=         -75178.8703 YYYY=         -31694.8329 ZZZZ=         -14294.2903 XXXY=           3341.6054
 XXXZ=           -543.0267 YYYX=          11628.0277 YYYZ=          -3865.5443 ZZZX=           -108.5554
 ZZZY=            278.8385 XXYY=         -12286.6973 XXZZ=         -11858.8429 YYZZ=          -8360.7121
 XXYZ=           -321.0448 YYXZ=          -2475.2374 ZZXY=           1089.4465
 N-N= 2.160980615969D+04 E-N=-5.570329560314D+04  KE= 5.290594666834D+03
 Leave Link  601 at Sat Sep 14 23:58:26 2019, MaxMem=  1342177280 cpu:              44.1 elap:               1.1
 FitSet:  NAtFit=   176 NAtPot=   176 NAtFrz=     0 MDM=   180 TotChg=   0.00000
 Merz-Kollman atomic radii used.
 Read replacement radii for each type of atom:
 Rad(20) =   1.700000000000D+00
 Atom Element Radius
    1     6    1.50
    2     6    1.50
    3     8    1.40
    4     1    1.20
    5     1    1.20
    6     1    1.20
    7     7    1.50
    8     6    1.50
    9     6    1.50
   10     8    1.40
   11     6    1.50
   12     6    1.50
   13     8    1.40
   14     8    1.40
   15     1    1.20
   16     1    1.20
   17     1    1.20
   18     1    1.20
   19     7    1.50
   20     6    1.50
   21     6    1.50
   22     8    1.40
   23     6    1.50
   24     6    1.50
   25     6    1.50
   26     6    1.50
   27     7    1.50
   28     1    1.20
   29     1    1.20
   30     1    1.20
   31     1    1.20
   32     1    1.20
   33     1    1.20
   34     1    1.20
   35     1    1.20
   36     1    1.20
   37     1    1.20
   38     1    1.20
   39     1    1.20
   40     1    1.20
   41     7    1.50
   42     6    1.50
   43     6    1.50
   44     8    1.40
   45     6    1.50
   46     6    1.50
   47     8    1.40
   48     8    1.40
   49     1    1.20
   50     1    1.20
   51     1    1.20
   52     1    1.20
   53     7    1.50
   54     6    1.50
   55     6    1.50
   56     8    1.40
   57     1    1.20
   58     1    1.20
   59     1    1.20
   60     7    1.50
   61     6    1.50
   62     6    1.50
   63     8    1.40
   64     6    1.50
   65     6    1.50
   66     7    1.50
   67     8    1.40
   68     1    1.20
   69     1    1.20
   70     1    1.20
   71     1    1.20
   72     1    1.20
   73     1    1.20
   74     7    1.50
   75     6    1.50
   76     6    1.50
   77     8    1.40
   78     1    1.20
   79     1    1.20
   80     1    1.20
   81     7    1.50
   82     6    1.50
   83     6    1.50
   84     8    1.40
   85     6    1.50
   86     6    1.50
   87     6    1.50
   88     6    1.50
   89     6    1.50
   90     6    1.50
   91     6    1.50
   92     8    1.40
   93     1    1.20
   94     1    1.20
   95     1    1.20
   96     1    1.20
   97     1    1.20
   98     1    1.20
   99     1    1.20
  100     1    1.20
  101     1    1.20
  102     7    1.50
  103     6    1.50
  104     6    1.50
  105     8    1.40
  106     6    1.50
  107     6    1.50
  108     6    1.50
  109     6    1.50
  110     1    1.20
  111     1    1.20
  112     1    1.20
  113     1    1.20
  114     1    1.20
  115     1    1.20
  116     1    1.20
  117     1    1.20
  118     1    1.20
  119     1    1.20
  120     1    1.20
  121     7    1.50
  122     6    1.50
  123     6    1.50
  124     8    1.40
  125     6    1.50
  126     8    1.40
  127     1    1.20
  128     1    1.20
  129     1    1.20
  130     1    1.20
  131     1    1.20
  132     7    1.50
  133     6    1.50
  134     6    1.50
  135     8    1.40
  136     6    1.50
  137     1    1.20
  138     1    1.20
  139     1    1.20
  140     1    1.20
  141     1    1.20
  142     7    1.50
  143     6    1.50
  144     6    1.50
  145     8    1.40
  146     6    1.50
  147     1    1.20
  148     1    1.20
  149     1    1.20
  150     1    1.20
  151     1    1.20
  152     7    1.50
  153     6    1.50
  154     6    1.50
  155     8    1.40
  156     6    1.50
  157     6    1.50
  158     6    1.50
  159     8    1.40
  160     8    1.40
  161     1    1.20
  162     1    1.20
  163     1    1.20
  164     1    1.20
  165     1    1.20
  166     1    1.20
  167     7    1.50
  168     6    1.50
  169     1    1.20
  170     1    1.20
  171     1    1.20
  172     1    1.20
  173    20    1.70
  174     8    1.40
[...]
 **** Fit       0.010075
 **** Fit       0.022233
 **** Fit       0.030948
 **** Fit       0.025349
 **** Fit       0.032464
 **** Fit       0.019981
 **** Fit       0.027893
 **** Fit       0.030389
 **** Fit       0.021476
 **** Fit       0.018737
 **** Fit       0.022276
 **** Fit       0.022856
 **** Fit       0.022838
 **** Fit       0.021113
 **** Fit       0.017271
 **** Fit       0.020911
 **** Fit       0.017110
 **** Fit       0.012529
 **** Fit       0.009404
 **** Fit       0.010788
 **** Fit       0.021130
 **** Fit       0.018210
 **** Fit       0.018317
 **** Fit       0.024093
 **** Fit       0.002197
 **** Fit       0.029549
 **** Fit       0.031992
 **** Fit       0.038842
 **** Fit       0.031181
 **** Fit       0.034353
 **** Fit       0.033471
 **** Fit       0.025033
 **** Fit       0.018237
 **** Fit      -0.037428
 **** Fit      -0.041648
 **** Fit      -0.006193
 **** Fit      -0.007545
 **** Fit      -0.009221
 **** Fit      -0.011065
 **** Fit      -0.004425
 **** Fit      -0.005165
 **** Fit      -0.006130
 **** Fit      -0.007393
 **** Fit      -0.009021
 **** Fit      -0.011068
 **** Fit      -0.013427
 **** Fit      -0.015714
 **** Fit      -0.003559
 **** Fit      -0.003884
 **** Fit      -0.004410
 **** Fit      -0.005153
 **** Fit      -0.006094
 **** Fit      -0.007178
 **** Fit      -0.008561
 **** Fit      -0.010374
 **** Fit      -0.015542
 **** Fit      -0.018602
 **** Fit      -0.021370
 **** Fit      -0.003203
 **** Fit      -0.003264
 **** Fit      -0.003495
 **** Fit      -0.003907
 **** Fit      -0.004486
 **** Fit      -0.005213
 **** Fit      -0.006159
 **** Fit      -0.007129
 **** Fit      -0.027397
 **** Fit      -0.003205
 **** Fit      -0.002973
 **** Fit      -0.002907
 **** Fit      -0.003053
 **** Fit      -0.003409
 **** Fit      -0.003937
 **** Fit      -0.004587
 **** Fit      -0.005328
 **** Fit      -0.006392
 **** Fit      -0.004251
 **** Fit      -0.003654
 **** Fit      -0.003106
 **** Fit      -0.002701
 **** Fit      -0.002942
 **** Fit      -0.003486
 **** Fit      -0.004155
 **** Fit      -0.004882
 **** Fit      -0.005628
 **** Fit      -0.006859
 **** Fit      -0.005853
 **** Fit      -0.004911
 **** Fit      -0.003966
 **** Fit      -0.004576
 **** Fit      -0.005391
 **** Fit      -0.006151
 **** Fit      -0.007628
 **** Fit      -0.009763
 **** Fit      -0.008564
 **** Fit      -0.007198
 **** Fit      -0.005770
 **** Fit      -0.004401
 **** Fit      -0.006224
 **** Fit      -0.006985
 **** Fit      -0.008777
 **** Fit      -0.011667
 **** Fit      -0.009648
 **** Fit      -0.007542
 **** Fit      -0.005540
 **** Fit      -0.007430
 **** Fit      -0.008189
 **** Fit      -0.012340
 **** Fit      -0.009163
 **** Fit      -0.009089
 **** Fit      -0.009850
 **** Fit      -0.012590
 **** Fit      -0.012137
 **** Fit      -0.015503
 **** Fit      -0.015235
 **** Fit      -0.019320
 **** Fit      -0.019404
 **** Fit      -0.024293
 **** Fit      -0.023791
 **** Fit      -0.025080
 **** Fit      -0.029366
 **** Fit      -0.034789
 **** Fit      -0.035261
 **** Fit      -0.008366
 **** Fit      -0.009889
 **** Fit      -0.011962
 **** Fit      -0.014696
 **** Fit      -0.017959
 **** Fit      -0.008089
 **** Fit      -0.009352
 **** Fit      -0.011070
 **** Fit      -0.013432
 **** Fit      -0.016578
 **** Fit      -0.020519
 **** Fit      -0.024963
 **** Fit      -0.008080
 **** Fit      -0.009153
 **** Fit      -0.010624
 **** Fit      -0.012687
 **** Fit      -0.015546
 **** Fit      -0.019399
 **** Fit      -0.024378
 **** Fit      -0.030393
 **** Fit      -0.007224
 **** Fit      -0.008375
 **** Fit      -0.009263
 **** Fit      -0.010493
 **** Fit      -0.012236
 **** Fit      -0.014690
 **** Fit      -0.018090
 **** Fit      -0.022712
 **** Fit      -0.028848
 **** Fit      -0.007670
 **** Fit      -0.009019
 **** Fit      -0.009789
 **** Fit      -0.010899
 **** Fit      -0.012521
 **** Fit      -0.014862
 **** Fit      -0.018188
 **** Fit      -0.022855
 **** Fit      -0.029346
 **** Fit      -0.008430
 **** Fit      -0.010070
 **** Fit      -0.010711
 **** Fit      -0.011689
 **** Fit      -0.013165
 **** Fit      -0.015335
 **** Fit      -0.018459
 **** Fit      -0.022910
 **** Fit      -0.029239
 **** Fit      -0.009615
 **** Fit      -0.011601
 **** Fit      -0.012124
 **** Fit      -0.013007
 **** Fit      -0.014404
 **** Fit      -0.016506
 **** Fit      -0.019572
 **** Fit      -0.023990
 **** Fit      -0.030358
 **** Fit      -0.011291
 **** Fit      -0.013701
 **** Fit      -0.014120
 **** Fit      -0.014982
 **** Fit      -0.016452
 **** Fit      -0.018741
 **** Fit      -0.022147
 **** Fit      -0.027141
 **** Fit      -0.013571
 **** Fit      -0.016477
 **** Fit      -0.016771
 **** Fit      -0.017653
 **** Fit      -0.019300
 **** Fit      -0.021950
 **** Fit      -0.025958
 **** Fit      -0.031905
 **** Fit      -0.016610
 **** Fit      -0.020033
 **** Fit      -0.020151
 **** Fit      -0.021048
 **** Fit      -0.022892
 **** Fit      -0.025915
 **** Fit      -0.030473
 **** Fit      -0.020552
 **** Fit      -0.024438
 **** Fit      -0.024350
 **** Fit      -0.025438
 **** Fit      -0.027852
 **** Fit      -0.031813
 **** Fit      -0.029280
 **** Fit      -0.030637
 **** Fit      -0.033717
 **** Fit      -0.038484
 **** Fit      -0.036503
 **** Fit      -0.005350
 **** Fit      -0.005550
 **** Fit      -0.006659
 **** Fit      -0.006488
 **** Fit      -0.005165
 **** Fit      -0.004367
 **** Fit      -0.004562
 **** Fit      -0.005747
 **** Fit      -0.007085
 **** Fit      -0.008328
 **** Fit      -0.008813
 **** Fit      -0.008096
 **** Fit      -0.006537
 **** Fit      -0.005009
 **** Fit      -0.004061
 **** Fit      -0.003690
 **** Fit      -0.003709
 **** Fit      -0.004034
 **** Fit      -0.004699
 **** Fit      -0.005915
 **** Fit      -0.007277
 **** Fit      -0.008866
 **** Fit      -0.010407
 **** Fit      -0.011430
 **** Fit      -0.011461
 **** Fit      -0.010351
 **** Fit      -0.008466
 **** Fit      -0.006471
 **** Fit      -0.004904
 **** Fit      -0.003939
 **** Fit      -0.003471
 **** Fit      -0.003313
 **** Fit      -0.003318
 **** Fit      -0.003436
 **** Fit      -0.003694
 **** Fit      -0.004153
 **** Fit      -0.004876
 **** Fit      -0.011237
 **** Fit      -0.013282
 **** Fit      -0.014863
 **** Fit      -0.015446
 **** Fit      -0.014706
 **** Fit      -0.012768
 **** Fit      -0.010175
 **** Fit      -0.007623
 **** Fit      -0.005630
 **** Fit      -0.004344
 **** Fit      -0.003645
 **** Fit      -0.003343
 **** Fit      -0.003255
 **** Fit      -0.003243
 **** Fit      -0.003252
 **** Fit      -0.003302
 **** Fit      -0.003442
 **** Fit      -0.003729
 **** Fit      -0.004219
 **** Fit      -0.019790
 **** Fit      -0.020886
 **** Fit      -0.020280
 **** Fit      -0.018017
 **** Fit      -0.014680
 **** Fit      -0.011094
 **** Fit      -0.008019
 **** Fit      -0.005865
 **** Fit      -0.004579
 **** Fit      -0.003905
 **** Fit      -0.003617
 **** Fit      -0.003542
 **** Fit      -0.003525
 **** Fit      -0.003473
 **** Fit      -0.003381
 **** Fit      -0.003298
 **** Fit      -0.003283
 **** Fit      -0.028689
 **** Fit      -0.025782
 **** Fit      -0.021523
 **** Fit      -0.016652
 **** Fit      -0.012135
 **** Fit      -0.008683
 **** Fit      -0.006505
 **** Fit      -0.005316
 **** Fit      -0.004708
 **** Fit      -0.004413
 **** Fit      -0.004308
 **** Fit      -0.004267
 **** Fit      -0.004161
 **** Fit      -0.003954
 **** Fit      -0.003684
 **** Fit      -0.003416
 **** Fit      -0.020114
 **** Fit      -0.014271
 **** Fit      -0.010203
 **** Fit      -0.007902
 **** Fit      -0.006821
 **** Fit      -0.005654
 **** Fit      -0.005377
 **** Fit      -0.004944
 **** Fit      -0.004407
 **** Fit      -0.012525
 **** Fit      -0.010171
 **** Fit      -0.007356
 **** Fit      -0.006556
 **** Fit      -0.002721
 **** Fit      -0.002412
 **** Fit      -0.002406
 **** Fit      -0.002676
 **** Fit      -0.003152
 **** Fit      -0.003137
 **** Fit      -0.002446
 **** Fit      -0.002090
 **** Fit      -0.002076
 **** Fit      -0.002359
 **** Fit      -0.002865
 **** Fit      -0.003518
 **** Fit      -0.004073
 **** Fit      -0.002939
 **** Fit      -0.002167
 **** Fit      -0.001804
 **** Fit      -0.001822
 **** Fit      -0.002152
 **** Fit      -0.002712
 **** Fit      -0.003423
 **** Fit      -0.004218
 **** Fit      -0.005040
 **** Fit      -0.005083
 **** Fit      -0.003417
 **** Fit      -0.002258
 **** Fit      -0.001663
 **** Fit      -0.001583
 **** Fit      -0.001915
 **** Fit      -0.002540
 **** Fit      -0.003353
 **** Fit      -0.004269
 **** Fit      -0.005225
 **** Fit      -0.006172
 **** Fit      -0.008780
 **** Fit      -0.006655
 **** Fit      -0.004217
 **** Fit      -0.002503
 **** Fit      -0.001592
 **** Fit      -0.001402
 **** Fit      -0.001766
 **** Fit      -0.002510
 **** Fit      -0.003481
 **** Fit      -0.004563
 **** Fit      -0.005678
 **** Fit      -0.006773
 **** Fit      -0.007816
 **** Fit      -0.011151
 **** Fit      -0.006511
 **** Fit      -0.003523
 **** Fit      -0.001780
 **** Fit      -0.001202
 **** Fit      -0.001518
 **** Fit      -0.002423
 **** Fit      -0.003657
 **** Fit      -0.005034
 **** Fit      -0.006428
 **** Fit      -0.007763
 **** Fit      -0.009003
 **** Fit      -0.010133
 **** Fit      -0.014449
 **** Fit      -0.000851
 **** Fit      -0.001665
 **** Fit      -0.003267
 **** Fit      -0.005203
 **** Fit      -0.007185
 **** Fit      -0.009048
 **** Fit      -0.010711
 **** Fit      -0.012152
 **** Fit      -0.013388
 **** Fit      -0.019097
 **** Fit      -0.007406
 **** Fit      -0.010403
 **** Fit      -0.013009
 **** Fit      -0.015136
 **** Fit      -0.016803
 **** Fit      -0.018089
 **** Fit       0.043016
 **** Fit       0.043485
 **** Fit       0.044862
 **** Fit       0.046999
 **** Fit       0.002589
 **** Fit       0.043216
 **** Fit       0.043602
 **** Fit       0.003130
 **** Fit      -0.006337
 **** Fit      -0.014049
 **** Fit      -0.020105
 **** Fit      -0.024930
 **** Fit      -0.029387
 **** Fit       0.040231
 **** Fit       0.040275
 **** Fit       0.010403
 **** Fit       0.002026
 **** Fit      -0.005405
 **** Fit      -0.011657
 **** Fit      -0.016905
 **** Fit      -0.021665
 **** Fit      -0.026825
 **** Fit       0.036065
 **** Fit       0.035490
 **** Fit       0.034832
 **** Fit       0.033642
 **** Fit       0.018914
 **** Fit       0.006982
 **** Fit       0.000538
 **** Fit      -0.005364
 **** Fit      -0.010576
 **** Fit      -0.015290
 **** Fit      -0.020003
 **** Fit      -0.025530
 **** Fit       0.032529
 **** Fit       0.030811
 **** Fit       0.029006
 **** Fit       0.026771
 **** Fit       0.023636
 **** Fit       0.019189
 **** Fit       0.013448
 **** Fit       0.004354
 **** Fit      -0.001038
 **** Fit      -0.006095
 **** Fit      -0.010771
 **** Fit      -0.015327
 **** Fit      -0.020311
 **** Fit      -0.026565
 **** Fit       0.025417
 **** Fit       0.022457
 **** Fit       0.018975
 **** Fit       0.014741
 **** Fit       0.009762
 **** Fit       0.002610
 **** Fit      -0.002256
 **** Fit      -0.006905
 **** Fit      -0.011401
 **** Fit      -0.016086
 **** Fit      -0.021561
 **** Fit       0.020312
 **** Fit       0.016456
 **** Fit       0.012195
 **** Fit       0.007518
 **** Fit       0.001675
 **** Fit      -0.002913
 **** Fit      -0.007361
 **** Fit      -0.011810
 **** Fit      -0.016626
 **** Fit      -0.022302
 **** Fit       0.015321
 **** Fit       0.010925
 **** Fit       0.006341
 **** Fit       0.001432
 **** Fit      -0.003185
 **** Fit      -0.007681
 **** Fit      -0.012241
 **** Fit      -0.017149
 **** Fit      -0.022491
 **** Fit       0.010930
 **** Fit       0.006171
 **** Fit       0.001746
 **** Fit      -0.003205
 **** Fit      -0.007932
 **** Fit      -0.012491
 **** Fit      -0.016587
 **** Fit      -0.019034
 **** Fit      -0.018003
 **** Fit      -0.012625
 **** Fit       0.006903
 **** Fit       0.002471
 **** Fit      -0.002867
 **** Fit      -0.007325
 **** Fit      -0.009902
 **** Fit      -0.008707
 **** Fit       0.003443
 **** Fit      -0.001666
 **** Fit       0.043659
 **** Fit       0.042994
 **** Fit       0.043294
 **** Fit       0.042871
 **** Fit       0.041019
 **** Fit       0.040381
 **** Fit       0.040365
 **** Fit       0.040102
 **** Fit       0.038750
 **** Fit       0.038105
 **** Fit       0.037790
 **** Fit       0.037364
 **** Fit       0.039577
 **** Fit       0.038098
 **** Fit       0.036942
 **** Fit       0.036166
 **** Fit       0.035568
 **** Fit       0.034816
 **** Fit       0.033483
 **** Fit      -0.003682
 **** Fit       0.035147
 **** Fit       0.036088
 **** Fit       0.035809
 **** Fit       0.035123
 **** Fit       0.034406
 **** Fit       0.033678
 **** Fit       0.032748
 **** Fit       0.031294
 **** Fit       0.028916
 **** Fit      -0.001764
 **** Fit       0.006511
 **** Fit       0.013601
 **** Fit       0.019830
 **** Fit       0.025163
 **** Fit       0.029190
 **** Fit       0.031618
 **** Fit       0.032645
 **** Fit       0.032773
 **** Fit       0.032429
 **** Fit       0.031802
 **** Fit       0.030851
 **** Fit       0.029383
 **** Fit       0.027110
 **** Fit       0.023720
 **** Fit      -0.008879
 **** Fit      -0.000304
 **** Fit       0.007377
 **** Fit       0.014045
 **** Fit       0.019702
 **** Fit       0.024219
 **** Fit       0.027392
 **** Fit       0.029213
 **** Fit       0.029944
 **** Fit       0.029915
 **** Fit       0.029314
 **** Fit       0.028126
 **** Fit       0.026183
 **** Fit       0.023241
 **** Fit       0.019099
 **** Fit      -0.011574
 **** Fit      -0.005503
 **** Fit       0.001466
 **** Fit       0.008245
 **** Fit       0.014285
 **** Fit       0.019312
 **** Fit       0.023126
 **** Fit       0.025624
 **** Fit       0.026897
 **** Fit       0.027158
 **** Fit       0.026565
 **** Fit       0.025122
 **** Fit       0.022704
 **** Fit       0.019175
 **** Fit       0.014539
 **** Fit       0.010396
 **** Fit      -0.006405
 **** Fit      -0.004341
 **** Fit       0.000182
 **** Fit       0.005985
 **** Fit       0.011834
 **** Fit       0.016907
 **** Fit       0.020734
 **** Fit       0.023108
 **** Fit       0.024062
 **** Fit       0.023730
 **** Fit       0.022168
 **** Fit       0.019346
 **** Fit       0.015312
 **** Fit       0.011361
 **** Fit       0.006462
 **** Fit       0.002628
 **** Fit       0.000987
 **** Fit       0.002442
 **** Fit       0.006742
 **** Fit       0.012175
 **** Fit       0.016913
 **** Fit       0.019855
 **** Fit       0.020637
 **** Fit       0.019293
 **** Fit       0.016015
 **** Fit       0.011986
 **** Fit       0.007783
 **** Fit       0.007855
 **** Fit       0.012349
 **** Fit       0.016291
 **** Fit       0.016052
 **** Fit       0.012302
 -----------------------------------------------------------------
 Leave Link  602 at Sat Sep 14 23:58:29 2019, MaxMem=  1342177280 cpu:             135.5 elap:               2.9

 Test job not archived.
 1\1\GINC-C506-091\SP\RB3LYP\SVP\C54H83Ca1N15O23\PENGZHI\14-Sep-2019\0\
 \#b3lyp/svp scf=(tight,noincore) Test #IOP(5/87=12) Density=Current Po
 p=(MK,readradii) iop(6/33=2) iop(6/42=6)\\CaMKII_loop3_75.0\\0,1\C,0,6
 7.28,46.42,25.4\C,0,65.9,45.8,25.62\O,0,65.75,44.7,26.14\H,0,68.001,45
 .632,25.181\H,0,67.237,47.116,24.562\H,0,67.587,46.953,26.3\N,0,64.84,
 46.56,25.35\C,0,63.47,46.25,25.71\C,0,63.04,45.19,24.7\O,0,62.53,45.51
 ,23.63\C,0,62.55,47.47,25.71\C,0,61.19,47.13,26.3\O,0,61.09,46.07,26.9
 6\O,0,60.25,47.95,26.22\H,0,65.06,47.5,25.05\H,0,63.44,45.93,26.75\H,0
 ,62.47,47.96,24.74\H,0,63.04,48.18,26.38\N,0,63.2,43.92,25.05\C,0,63.1
 4,42.77,24.16\C,0,61.74,42.47,23.65\O,0,61.54,42.02,22.52\C,0,63.71,41
 .54,24.87\C,0,64.02,40.57,23.74\C,0,64.63,39.37,24.46\C,0,65.19,38.36,
 23.47\N,0,65.74,37.22,24.21\H,0,63.52,43.73,25.99\H,0,63.65,42.99,23.2
 2\H,0,62.99,41.09,25.55\H,0,64.7,41.79,25.23\H,0,64.77,40.9,23.02\H,0,
 63.14,40.23,23.2\H,0,63.83,38.92,25.05\H,0,65.43,39.72,25.12\H,0,65.95
 ,38.88,22.88\H,0,64.43,37.97,22.79\H,0,64.95,36.61,24.39\H,0,66.33,36.
 63,23.63\H,0,66.16,37.52,25.07\N,0,60.74,42.89,24.43\C,0,59.32,42.71,2
 4.23\C,0,58.57,44.02,24.01\O,0,57.36,44.09,23.83\C,0,58.79,41.81,25.35
 \C,0,58.99,42.35,26.76\O,0,58.64,41.52,27.62\O,0,59.62,43.41,26.97\H,0
 ,61.,43.26,25.33\H,0,59.17,42.14,23.31\H,0,59.35,40.88,25.21\H,0,57.73
 ,41.69,25.14\N,0,59.31,45.13,24.04\C,0,58.83,46.43,23.65\C,0,57.66,46.
 87,24.52\O,0,56.75,47.65,24.23\H,0,60.3,45.04,24.21\H,0,58.5,46.35,22.
 61\H,0,59.6,47.2,23.75\N,0,57.66,46.41,25.77\C,0,56.69,46.7,26.82\C,0,
 56.8,48.03,27.55\O,0,55.9,48.3,28.35\C,0,56.56,45.5,27.75\C,0,57.43,45
 .58,29.\N,0,56.83,45.62,30.19\O,0,58.66,45.57,28.93\H,0,58.37,45.76,26
 .08\H,0,55.71,46.79,26.35\H,0,56.82,44.58,27.24\H,0,55.49,45.42,27.95\
 H,0,55.82,45.71,30.2\H,0,57.34,45.48,31.05\N,0,57.8,48.84,27.21\C,0,58
 .1,50.09,27.89\C,0,58.93,49.9,29.15\O,0,59.04,50.94,29.79\H,0,58.45,48
 .53,26.5\H,0,57.12,50.52,28.12\H,0,58.6,50.71,27.15\N,0,59.67,48.84,29
 .46\C,0,60.53,48.74,30.63\C,0,61.8,47.94,30.41\O,0,61.68,46.87,29.8\C,
 0,59.72,47.91,31.62\C,0,59.04,48.73,32.7\C,0,59.77,49.7,33.4\C,0,57.79
 ,48.34,33.18\C,0,59.21,50.31,34.53\C,0,57.25,48.87,34.37\C,0,57.99,49.
 84,35.06\O,0,57.55,50.3,36.27\H,0,59.59,48.06,28.82\H,0,60.81,49.72,31
 .\H,0,60.35,47.12,32.02\H,0,58.97,47.34,31.08\H,0,60.72,49.95,32.98\H,
 0,57.21,47.53,32.77\H,0,59.76,51.06,35.07\H,0,56.38,48.46,34.87\H,0,56
 .6,50.3,36.41\N,0,62.97,48.32,30.94\C,0,64.22,47.62,30.74\C,0,64.43,46
 .86,32.05\O,0,64.56,47.49,33.1\C,0,65.35,48.58,30.39\C,0,65.22,49.07,2
 8.95\C,0,66.63,47.77,30.56\C,0,66.28,50.07,28.52\H,0,63.04,49.22,31.4\
 H,0,64.22,46.89,29.93\H,0,65.37,49.44,31.07\H,0,64.18,49.4,28.9\H,0,65
 .26,48.18,28.33\H,0,66.79,47.36,31.56\H,0,66.62,46.99,29.79\H,0,67.5,4
 8.4,30.37\H,0,67.26,49.59,28.52\H,0,66.1,50.62,27.59\H,0,66.34,50.81,2
 9.32\N,0,64.6,45.55,31.93\C,0,64.94,44.77,33.11\C,0,66.43,44.48,33.26\
 O,0,67.25,44.8,32.41\C,0,63.98,43.58,33.11\O,0,64.56,42.54,32.36\H,0,6
 4.62,45.03,31.06\H,0,64.64,45.29,34.02\H,0,62.97,43.8,32.76\H,0,63.78,
 43.12,34.08\H,0,63.84,42.1,31.89\N,0,66.87,43.89,34.38\C,0,68.22,43.41
 ,34.54\C,0,68.61,42.27,33.6\O,0,69.74,42.16,33.13\C,0,68.41,42.97,35.9
 9\H,0,66.25,43.71,35.15\H,0,68.91,44.22,34.28\H,0,67.71,42.2,36.31\H,0
 ,69.47,42.75,36.1\H,0,68.16,43.78,36.68\N,0,67.62,41.44,33.27\C,0,67.6
 4,40.32,32.36\C,0,67.9,40.69,30.91\O,0,68.48,39.93,30.13\C,0,66.29,39.
 63,32.22\H,0,66.77,41.58,33.8\H,0,68.36,39.59,32.72\H,0,66.39,38.79,31
 .52\H,0,66.01,39.38,33.24\H,0,65.52,40.35,31.97\N,0,67.47,41.91,30.57\
 C,0,67.54,42.49,29.25\C,0,68.79,43.33,29.06\O,0,69.43,43.23,28.01\C,0,
 66.32,43.37,29.02\C,0,65.1,42.47,28.82\C,0,63.85,43.3,28.59\O,0,62.84,
 42.85,28.\O,0,63.65,44.45,29.02\H,0,66.92,42.3,31.32\H,0,67.61,41.69,2
 8.51\H,0,66.52,43.95,28.11\H,0,66.09,44.05,29.84\H,0,65.08,41.76,29.65
 \H,0,65.21,41.96,27.86\N,0,69.36,43.88,30.13\C,0,70.71,44.43,30.14\H,0
 ,71.381,43.753,29.612\H,0,70.711,45.401,29.645\H,0,71.048,44.546,31.17
 \H,0,68.78,43.78,30.95\Ca,0,61.04,44.52,28.86\O,0,59.82,42.33,29.94\H,
 0,59.38,42.,29.16\H,0,59.14,42.38,30.61\\Version=ES64L-G16RevA.03\Stat
 e=1-A\HF=-5333.5833729\RMSD=2.496e-09\Dipole=6.9435987,-11.7347174,2.8
 794965\Quadrupole=-109.61729,96.4772038,13.1400862,-12.6351739,-96.950
 1873,78.2694662\PG=C01 [X(C54H83Ca1N15O23)]\\@


 YE HAVE SOWN MUCH, AND BRING IN LITTLE.
 YE EAT, BUT YE HAVE NOT ENOUGH.
 YE DRINK, BUT YE ARE NOT FILLED WITH DRINK.
 YE CLOTHE YOU, BUT THERE IS NONE WARM.
 AND HE THAT EARNETH WAGES EARNETH WAGES TO PUT
 IT INTO A BAG WITH HOLES.
                                     HAGGAI I,6
 Job cpu time:       0 days  8 hours 31 minutes 35.6 seconds.
 Elapsed time:       0 days  0 hours 10 minutes 46.8 seconds.
 File lengths (MBytes):  RWF=   1517 Int=      0 D2E=      0 Chk=    171 Scr=      1
 Normal termination of Gaussian 16 at Sat Sep 14 23:58:31 2019.
