 Entering Gaussian System, Link 0=g16
 Initial command:
 /home1/apps/gaussian/16rA.03/g16/l1.exe "/scratch/04905/jaebeomh/4356890/Gau-239560.inp" -scrdir="/scratch/04905/jaebeomh/4356890/"
 Entering Link 1 = /home1/apps/gaussian/16rA.03/g16/l1.exe PID=    239561.
  
 Copyright (c) 1988,1990,1992,1993,1995,1998,2003,2009,2016,
            Gaussian, Inc.  All Rights Reserved.
  
 This is part of the Gaussian(R) 16 program.  It is based on
 the Gaussian(R) 09 system (copyright 2009, Gaussian, Inc.),
 the Gaussian(R) 03 system (copyright 2003, Gaussian, Inc.),
 the Gaussian(R) 98 system (copyright 1998, Gaussian, Inc.),
 the Gaussian(R) 94 system (copyright 1995, Gaussian, Inc.),
 the Gaussian 92(TM) system (copyright 1992, Gaussian, Inc.),
 the Gaussian 90(TM) system (copyright 1990, Gaussian, Inc.),
 the Gaussian 88(TM) system (copyright 1988, Gaussian, Inc.),
 the Gaussian 86(TM) system (copyright 1986, Carnegie Mellon
 University), and the Gaussian 82(TM) system (copyright 1983,
 Carnegie Mellon University). Gaussian is a federally registered
 trademark of Gaussian, Inc.
  
 This software contains proprietary and confidential information,
 including trade secrets, belonging to Gaussian, Inc.
  
 This software is provided under written license and may be
 used, copied, transmitted, or stored only in accord with that
 written license.
  
 The following legend is applicable only to US Government
 contracts under FAR:
  
                    RESTRICTED RIGHTS LEGEND
  
 Use, reproduction and disclosure by the US Government is
 subject to restrictions as set forth in subparagraphs (a)
 and (c) of the Commercial Computer Software - Restricted
 Rights clause in FAR 52.227-19.
  
 Gaussian, Inc.
 340 Quinnipiac St., Bldg. 40, Wallingford CT 06492
  
  
 ---------------------------------------------------------------
 Warning -- This program may not be used in any manner that
 competes with the business of Gaussian, Inc. or will provide
 assistance to any competitor of Gaussian, Inc.  The licensee
 of this program is prohibited from giving any competitor of
 Gaussian, Inc. access to this program.  By using this program,
 the user acknowledges that Gaussian, Inc. is engaged in the
 business of creating and licensing software in the field of
 computational chemistry and represents and warrants to the
 licensee that it is not a competitor of Gaussian, Inc. and that
 it will not use this program in any manner prohibited above.
 ---------------------------------------------------------------
  

 Cite this work as:
 Gaussian 16, Revision A.03,
 M. J. Frisch, G. W. Trucks, H. B. Schlegel, G. E. Scuseria, 
 M. A. Robb, J. R. Cheeseman, G. Scalmani, V. Barone, 
 G. A. Petersson, H. Nakatsuji, X. Li, M. Caricato, A. V. Marenich, 
 J. Bloino, B. G. Janesko, R. Gomperts, B. Mennucci, H. P. Hratchian, 
 J. V. Ortiz, A. F. Izmaylov, J. L. Sonnenberg, D. Williams-Young, 
 F. Ding, F. Lipparini, F. Egidi, J. Goings, B. Peng, A. Petrone, 
 T. Henderson, D. Ranasinghe, V. G. Zakrzewski, J. Gao, N. Rega, 
 G. Zheng, W. Liang, M. Hada, M. Ehara, K. Toyota, R. Fukuda, 
 J. Hasegawa, M. Ishida, T. Nakajima, Y. Honda, O. Kitao, H. Nakai, 
 T. Vreven, K. Throssell, J. A. Montgomery, Jr., J. E. Peralta, 
 F. Ogliaro, M. J. Bearpark, J. J. Heyd, E. N. Brothers, K. N. Kudin, 
 V. N. Staroverov, T. A. Keith, R. Kobayashi, J. Normand, 
 K. Raghavachari, A. P. Rendell, J. C. Burant, S. S. Iyengar, 
 J. Tomasi, M. Cossi, J. M. Millam, M. Klene, C. Adamo, R. Cammi, 
 J. W. Ochterski, R. L. Martin, K. Morokuma, O. Farkas, 
 J. B. Foresman, and D. J. Fox, Gaussian, Inc., Wallingford CT, 2016.
 
 ******************************************
 Gaussian 16:  ES64L-G16RevA.03 25-Dec-2016
                18-Sep-2019 
 ******************************************
 %chk=CaMKII_loop3_40.0.chk
 %nprocshared=48
 Will use up to   48 processors via shared memory.
 %mem=10GB
 %nosave
 ----------------------------------------------------------------------
 #b3lyp/svp scf=(tight,noincore) Test #IOP(5/87=12) Density=Current Pop
 =(MK,readradii) iop(6/33=2) iop(6/42=6)
 ----------------------------------------------------------------------
 1/30=1,38=1,172=1/1;
 2/12=2,17=6,18=5,40=1/2;
 3/5=18,7=101,11=2,25=1,30=1,74=-5/1,2,3;
 4//1;
 5/5=4,32=2,38=5,87=12/2;
 6/7=2,8=2,9=2,10=2,15=8,20=101,22=-1,28=1,33=2,42=6/1,2;
 99/5=1,9=1/99;
 -----------------
 CaMKII_loop3_40.0
 -----------------
 Symbolic Z-matrix:
 Charge =  0 Multiplicity = 1
 C                     75.55     41.99     24.09 
 C                     74.34     41.19     24.54 
 O                     74.51     39.99     24.77 
 H                     76.393    41.317    23.937 
 H                     75.32     42.503    23.156 
 H                     75.806    42.724    24.854 
 N                     73.15     41.72     24.78 
 C                     72.       40.99     25.28 
 C                     71.39     40.21     24.12 
 O                     70.75     40.77     23.23 
 C                     71.02     41.86     26.06 
 C                     70.02     40.96     26.76 
 O                     70.06     39.72     26.55 
 O                     69.09     41.45     27.44 
 H                     72.98     42.63     24.37 
 H                     72.49     40.28     25.94 
 H                     70.57     42.7      25.52 
 H                     71.61     42.28     26.87 
 N                     71.56     38.89     24.08 
 C                     71.11     38.01     23.02 
 C                     69.63     37.64     23.1 
 O                     69.24     36.89     22.2 
 C                     72.12     36.92     22.7 
 C                     72.26     36.53     21.23 
 C                     73.44     35.56     21.11 
 C                     73.8      35.4      19.63 
 N                     72.59     35.07     18.86 
 H                     72.02     38.47     24.87 
 H                     71.05     38.62     22.11 
 H                     71.78     36.04     23.25 
 H                     73.08     37.12     23.18 
 H                     72.54     37.44     20.71 
 H                     71.33     36.24     20.74 
 H                     73.14     34.62     21.58 
 H                     74.31     35.88     21.67 
 H                     74.53     34.6      19.57 
 H                     74.12     36.34     19.18 
 H                     72.26     34.11     18.9 
 H                     71.85     35.71     19.1 
 H                     72.75     35.28     17.88 
 N                     68.84     38.18     24.02 
 C                     67.43     37.91     24.22 
 C                     66.65     39.15     24.63 
 O                     65.43     39.2      24.46 
 C                     67.27     36.71     25.15 
 C                     68.18     36.74     26.37 
 O                     67.75     37.28     27.42 
 O                     69.38     36.38     26.32 
 H                     69.31     38.78     24.68 
 H                     67.07     37.64     23.23 
 H                     67.68     35.93     24.51 
 H                     66.24     36.63     25.49 
 N                     67.23     40.17     25.27 
 C                     66.6      41.45     25.51 
 C                     65.96     41.45     26.9 
 O                     65.26     42.38     27.28 
 H                     68.18     39.98     25.56 
 H                     65.87     41.6      24.72 
 H                     67.42     42.17     25.49 
 N                     66.18     40.45     27.76 
 C                     65.71     40.52     29.12 
 C                     66.4      41.48     30.08 
 O                     65.92     41.64     31.2 
 C                     65.74     39.09     29.66 
 C                     67.06     38.65     30.29 
 N                     66.94     37.92     31.4 
 O                     68.19     38.95     29.9 
 H                     66.79     39.76     27.35 
 H                     64.72     40.98     29.1 
 H                     65.44     38.37     28.9 
 H                     64.92     38.9      30.35 
 H                     66.02     37.72     31.76 
 H                     67.8      37.54     31.77 
 N                     67.4      42.24     29.63 
 C                     68.03     43.33     30.34 
 C                     69.32     42.88     31.02 
 O                     70.       43.71     31.62 
 H                     67.91     41.82     28.87 
 H                     67.38     43.75     31.11 
 H                     68.25     44.11     29.61 
 N                     69.85     41.68     30.79 
 C                     71.01     41.04     31.38 
 C                     71.97     40.53     30.32 
 O                     71.56     39.78     29.45 
 C                     70.71     40.1      32.55 
 C                     69.76     40.6      33.61 
 C                     70.32     41.07     34.8 
 C                     68.39     40.68     33.34 
 C                     69.48     41.65     35.76 
 C                     67.59     41.3      34.31 
 C                     68.11     41.82     35.51 
 O                     67.33     42.2      36.57 
 H                     69.46     41.1      30.06 
 H                     71.52     41.83     31.93 
 H                     71.65     39.78     32.99 
 H                     70.31     39.23     32.02 
 H                     71.4      41.08     34.85 
 H                     68.01     40.34     32.39 
 H                     69.92     41.99     36.69 
 H                     66.51     41.35     34.22 
 H                     66.39     42.23     36.4 
 N                     73.25     40.74     30.64 
 C                     74.38     40.09     30. 
 C                     74.91     39.06     30.98 
 O                     75.31     39.35     32.11 
 C                     75.47     41.13     29.75 
 C                     75.07     42.28     28.83 
 C                     76.86     40.58     29.44 
 C                     76.       43.48     28.65 
 H                     73.49     41.37     31.39 
 H                     74.04     39.64     29.07 
 H                     75.76     41.55     30.71 
 H                     74.2      42.67     29.36 
 H                     74.77     41.84     27.88 
 H                     77.55     41.4      29.24 
 H                     77.21     39.89     30.2 
 H                     76.8      39.98     28.53 
 H                     76.32     43.87     29.62 
 H                     76.89     43.17     28.1 
 H                     75.54     44.29     28.09 
 N                     75.19     37.83     30.54 
 C                     75.88     36.77     31.26 
 C                     77.23     36.41     30.64 
 O                     77.6      37.05     29.66 
 C                     75.01     35.52     31.25 
 O                     74.7      35.15     29.92 
 H                     74.93     37.63     29.59 
 H                     76.07     36.99     32.31 
 H                     74.05     35.6      31.77 
 H                     75.52     34.7      31.75 
 H                     74.42     34.23     29.98 
 N                     78.02     35.49     31.18 
 C                     79.36     35.23     30.68 
 C                     79.34     34.49     29.36 
 O                     80.1      34.73     28.42 
 C                     80.01     34.4      31.78 
 H                     77.6      34.88     31.86 
 H                     79.83     36.21     30.61 
 H                     80.99     34.13     31.38 
 H                     80.04     34.78     32.81 
 H                     79.43     33.49     31.9 
 N                     78.39     33.58     29.1 
 C                     78.18     33.01     27.79 
 C                     77.84     33.98     26.67 
 O                     78.34     33.93     25.54 
 C                     77.1      31.93     27.84 
 H                     77.84     33.17     29.85 
 H                     79.16     32.59     27.56 
 H                     76.81     31.72     26.81 
 H                     77.52     31.06     28.34 
 H                     76.32     32.33     28.49 
 N                     76.9      34.88     26.91 
 C                     76.6      36.       26.03 
 C                     77.76     36.93     25.73 
 O                     78.03     37.33     24.6 
 C                     75.53     36.86     26.71 
 C                     74.11     36.31     26.58 
 C                     72.97     37.1      27.21 
 O                     72.56     36.74     28.33 
 O                     72.41     38.04     26.61 
 H                     76.53     34.99     27.84 
 H                     76.19     35.75     25.05 
 H                     75.59     37.89     26.37 
 H                     75.78     36.95     27.77 
 H                     74.05     35.25     26.8 
 H                     73.88     36.37     25.51 
 N                     78.52     37.25     26.79 
 C                     79.69     38.1      26.7 
 H                     80.512    37.54     26.254 
 H                     79.463    38.967    26.08 
 H                     79.977    38.432    27.698 
 H                     78.16     36.96     27.68 
 Ca                    70.19     37.83     28.27 
 O                     69.38     35.19     29.09 
 H                     68.51     34.78     29.09 
 H                     69.98     34.48     29.32 
 
 Stoichiometry    C54H83CaN15O23
 Framework group  C1[X(C54H83CaN15O23)]
 Deg. of freedom   522
 Full point group                 C1      NOp   1
 Largest Abelian subgroup         C1      NOp   1
 Largest concise Abelian subgroup C1      NOp   1
                         Standard orientation:                         
 ---------------------------------------------------------------------
 Center     Atomic      Atomic             Coordinates (Angstroms)
 Number     Number       Type             X           Y           Z
 ---------------------------------------------------------------------
      1          6           0        2.353719    2.093169    5.300844
      2          6           0        1.559402    2.158084    4.007999
      3          8           0        2.187469    2.040838    2.952734
      4          1           0        3.417929    2.054008    5.070823
      5          1           0        2.143798    2.978338    5.901539
      6          1           0        2.070094    1.200439    5.858139
      7          7           0        0.238686    2.244341    3.954448
      8          6           0       -0.546594    2.234250    2.734352
      9          6           0       -0.456285    3.617601    2.098519
     10          8           0       -1.051815    4.586113    2.570355
     11          6           0       -1.962997    1.703050    2.927561
     12          6           0       -2.589434    1.478975    1.564708
     13          8           0       -1.953475    1.821526    0.534410
     14          8           0       -3.770020    1.074202    1.465844
     15          1           0       -0.218260    2.567618    4.798126
     16          1           0        0.039654    1.548689    2.129276
     17          1           0       -2.600530    2.246583    3.633127
     18          1           0       -1.828703    0.700698    3.324872
     19          7           0        0.288114    3.769248    1.005005
     20          6           0        0.538006    5.020431    0.317549
     21          6           0       -0.595149    5.464104   -0.605930
     22          8           0       -0.388565    6.529315   -1.195208
     23          6           0        1.971259    5.138057   -0.174946
     24          6           0        2.608318    6.523853   -0.095407
     25          6           0        4.088493    6.384157   -0.465904
     26          6           0        4.815582    7.679918   -0.094494
     27          7           0        4.095917    8.830812   -0.663200
     28          1           0        0.688950    2.934180    0.612460
     29          1           0        0.426235    5.816518    1.064244
     30          1           0        1.941372    4.841990   -1.225637
     31          1           0        2.600256    4.355788    0.254491
     32          1           0        2.565986    6.807040    0.950974
     33          1           0        2.047682    7.317426   -0.590411
     34          1           0        4.138544    6.158130   -1.534036
     35          1           0        4.567596    5.540133    0.014703
     36          1           0        5.817041    7.605605   -0.504442
     37          1           0        4.778162    7.880786    0.976371
     38          1           0        4.229067    9.020773   -1.652283
     39          1           0        3.115192    8.759640   -0.444313
     40          1           0        4.368844    9.673521   -0.167769
     41          7           0       -1.732871    4.782922   -0.666577
     42          6           0       -2.878011    5.078830   -1.504488
     43          6           0       -4.200228    4.784254   -0.812342
     44          8           0       -5.237549    5.326348   -1.199510
     45          6           0       -2.698198    4.409273   -2.864583
     46          6           0       -2.208979    2.969560   -2.791840
     47          8           0       -3.065769    2.051549   -2.745299
     48          8           0       -0.999601    2.679989   -2.631671
     49          1           0       -1.747585    3.936756   -0.118593
     50          1           0       -2.838403    6.157831   -1.634060
     51          1           0       -1.847228    4.979156   -3.234965
     52          1           0       -3.632100    4.428368   -3.421686
     53          7           0       -4.302328    3.868283    0.155632
     54          6           0       -5.473118    3.680479    0.984414
     55          6           0       -6.350009    2.578876    0.385052
     56          8           0       -7.457964    2.326497    0.841165
     57          1           0       -3.463971    3.317369    0.283502
     58          1           0       -5.987056    4.636007    1.032724
     59          1           0       -5.080412    3.346169    1.946297
     60          7           0       -5.914518    1.828474   -0.632418
     61          6           0       -6.668656    0.691950   -1.096088
     62          6           0       -6.723442   -0.551989   -0.219210
     63          8           0       -7.470443   -1.471377   -0.546493
     64          6           0       -6.131315    0.357468   -2.487772
     65          6           0       -4.940889   -0.598838   -2.523317
     66          7           0       -4.977819   -1.510117   -3.496768
     67          8           0       -4.006922   -0.630882   -1.719775
     68          1           0       -4.984311    2.107121   -0.903286
     69          1           0       -7.724757    0.967598   -1.068341
     70          1           0       -5.892895    1.258679   -3.050778
     71          1           0       -6.916165   -0.005077   -3.148962
     72          1           0       -5.767822   -1.529566   -4.122482
     73          1           0       -4.151234   -2.083271   -3.592431
     74          7           0       -6.092837   -0.544882    0.956540
     75          6           0       -6.199202   -1.551457    1.988331
     76          6           0       -5.041896   -2.543891    1.919652
     77          8           0       -4.963582   -3.429942    2.768227
     78          1           0       -5.287880    0.059956    0.974309
     79          1           0       -7.127510   -2.121071    1.913607
     80          1           0       -6.186583   -1.035336    2.949143
     81          7           0       -3.995523   -2.343808    1.120358
     82          6           0       -2.844984   -3.186062    0.855464
     83          6           0       -1.541075   -2.431384    1.044097
     84          8           0       -1.358765   -1.387977    0.439478
     85          6           0       -2.957919   -4.069565   -0.389192
     86          6           0       -4.248728   -4.826155   -0.582799
     87          6           0       -4.251124   -6.182235   -0.248673
     88          6           0       -5.405800   -4.146158   -0.976486
     89          6           0       -5.459204   -6.890152   -0.303402
     90          6           0       -6.599453   -4.881313   -0.982740
     91          6           0       -6.661032   -6.240412   -0.622381
     92          8           0       -7.751419   -7.035882   -0.856226
     93          1           0       -3.904266   -1.459938    0.638853
     94          1           0       -2.884163   -3.965876    1.615105
     95          1           0       -2.105210   -4.741609   -0.418234
     96          1           0       -2.792663   -3.333394   -1.181999
     97          1           0       -3.333618   -6.574650    0.167492
     98          1           0       -5.361606   -3.089431   -1.185952
     99          1           0       -5.446874   -7.947215   -0.065565
    100          1           0       -7.534378   -4.458975   -1.335649
    101          1           0       -8.537784   -6.580471   -1.152251
    102          7           0       -0.602656   -3.166627    1.647162
    103          6           0        0.812795   -2.842766    1.671920
    104          6           0        1.501690   -3.800847    0.718135
    105          8           0        1.455153   -5.026639    0.845678
    106          6           0        1.349878   -3.087881    3.080345
    107          6           0        0.705924   -2.242880    4.175880
    108          6           0        2.868693   -3.169578    3.211587
    109          6           0        1.017108   -2.523148    5.646225
    110          1           0       -0.850515   -4.027852    2.109609
    111          1           0        0.935920   -1.803551    1.375488
    112          1           0        1.189911   -4.135516    3.323186
    113          1           0       -0.343315   -2.513140    4.049556
    114          1           0        0.863828   -1.198902    3.908905
    115          1           0        3.146377   -3.306140    4.256931
    116          1           0        3.301725   -3.906998    2.544583
    117          1           0        3.296040   -2.219259    2.886058
    118          1           0        0.894113   -3.585912    5.871625
    119          1           0        2.052648   -2.250674    5.856258
    120          1           0        0.388953   -1.953819    6.326362
    121          7           0        2.394214   -3.320027   -0.151987
    122          6           0        3.295325   -4.081067   -1.004581
    123          6           0        4.767088   -3.883066   -0.642350
    124          8           0        5.029961   -3.162090    0.315768
    125          6           0        3.102525   -3.635090   -2.447991
    126          8           0        3.309075   -2.239931   -2.560996
    127          1           0        2.479764   -2.319387   -0.190737
    128          1           0        3.117069   -5.155873   -1.000543
    129          1           0        2.115936   -3.827762   -2.881487
    130          1           0        3.792328   -4.162723   -3.102418
    131          1           0        3.462967   -2.089788   -3.500237
    132          7           0        5.734177   -4.524755   -1.286612
    133          6           0        7.124800   -4.449024   -0.869917
    134          6           0        7.744565   -3.108515   -1.200560
    135          8           0        8.513480   -2.498409   -0.455348
    136          6           0        7.800378   -5.583550   -1.630078
    137          1           0        5.484567   -4.951846   -2.161933
    138          1           0        7.110747   -4.657973    0.198888
    139          1           0        8.860971   -5.485744   -1.387433
    140          1           0        7.417179   -6.608976   -1.541424
    141          1           0        7.676511   -5.395431   -2.692231
    142          7           0        7.389330   -2.445568   -2.310745
    143          6           0        7.766778   -1.075570   -2.567140
    144          6           0        7.301458   -0.038896   -1.557346
    145          8           0        8.019066    0.869490   -1.122290
    146          6           0        7.302730   -0.640693   -3.956687
    147          1           0        6.921933   -2.922470   -3.077036
    148          1           0        8.854622   -1.118316   -2.500285
    149          1           0        7.385429    0.445922   -3.995788
    150          1           0        7.937010   -1.133272   -4.690414
    151          1           0        6.298895   -1.053619   -4.069418
    152          7           0        6.031999   -0.079472   -1.185825
    153          6           0        5.478543    0.699915   -0.088081
    154          6           0        6.136790    0.493476    1.262695
    155          8           0        6.455076    1.417800    2.007086
    156          6           0        4.012080    0.292596    0.086492
    157          6           0        3.059887    0.937334   -0.920207
    158          6           0        1.575743    0.608208   -0.822271
    159          8           0        1.120940   -0.267207   -1.583129
    160          8           0        0.812535    1.230405   -0.055730
    161          1           0        5.446604   -0.849084   -1.466733
    162          1           0        5.463689    1.782908   -0.221893
    163          1           0        3.684192    0.461532    1.108279
    164          1           0        3.941284   -0.794154   -0.003861
    165          1           0        3.429081    0.884932   -1.938317
    166          1           0        3.083467    2.007983   -0.686635
    167          7           0        6.404386   -0.785119    1.574445
    168          6           0        7.058025   -1.181791    2.805260
    169          1           0        8.121956   -0.953462    2.741095
    170          1           0        6.619861   -0.637625    3.641630
    171          1           0        6.925826   -2.252944    2.959373
    172          1           0        6.015169   -1.469362    0.953058
    173         20           0       -1.399483    0.405492   -1.523584
    174          8           0       -1.114354    0.229945   -4.384700
    175          1           0       -1.683747    0.559460   -5.086278
    176          1           0       -0.332895   -0.086794   -4.838572
 ---------------------------------------------------------------------
 Rotational constants (GHZ):           0.0225690           0.0150707           0.0112625
 Standard basis: SVP (5D, 7F)
 There are  1809 symmetry adapted cartesian basis functions of A   symmetry.
 There are  1717 symmetry adapted basis functions of A   symmetry.
  1717 basis functions,  2922 primitive gaussians,  1809 cartesian basis functions
   358 alpha electrons      358 beta electrons
       nuclear repulsion energy     21518.5185168226 Hartrees.
 NAtoms=  176 NActive=  176 NUniq=  176 SFac= 1.00D+00 NAtFMM=   60 NAOKFM=T Big=T
 Integral buffers will be    131072 words long.
 Raffenetti 2 integral format.
 Two-electron integral symmetry is turned on.
 One-electron integrals computed using PRISM.
 NBasis=  1717 RedAO= T EigKep=  2.64D-04  NBF=  1717
 NBsUse=  1717 1.00D-06 EigRej= -1.00D+00 NBFU=  1717
 ExpMin= 1.98D-02 ExpMax= 3.51D+04 ExpMxC= 5.28D+03 IAcc=3 IRadAn=         5 AccDes= 0.00D+00
 Harris functional with IExCor=  402 and IRadAn=       5 diagonalized for initial guess.
 HarFok:  IExCor=  402 AccDes= 0.00D+00 IRadAn=         5 IDoV= 1 UseB2=F ITyADJ=14
 ICtDFT=  3500011 ScaDFX=  1.000000  1.000000  1.000000  1.000000
 FoFCou: FMM=F IPFlag=           0 FMFlag=      100000 FMFlg1=        2001
         NFxFlg=           0 DoJE=T BraDBF=F KetDBF=T FulRan=T
         wScrn=  0.000000 ICntrl=       500 IOpCl=  0 I1Cent=   200000004 NGrid=           0
         NMat0=    1 NMatS0=      1 NMatT0=    0 NMatD0=    1 NMtDS0=    0 NMtDT0=    0
 Petite list used in FoFCou.
 Requested convergence on RMS density matrix=1.00D-08 within 128 cycles.
 Requested convergence on MAX density matrix=1.00D-06.
 Requested convergence on             energy=1.00D-06.
 No special actions if energy rises.
 EnCoef did     2 forward-backward iterations
 SCF Done:  E(RB3LYP) =  -5333.55739216     A.U. after   15 cycles
            NFock= 15  Conv=0.52D-08     -V/T= 2.0081
 SCF density gives NOpUse=  1 NOpAll=  1.
 Hyperfine terms turned off by default for NAtoms > 100.

 **********************************************************************

            Population analysis using the SCF density.

 **********************************************************************

 Orbital symmetries:
 BldTbl:  Degeneracy threshold= 1.00D-02
       Occupied  (A) (A) (A) (A) (A) (A) (A) (A) (A) (A) (A) (A)
                 (A) (A) (A) (A) (A) (A) (A) (A) (A) (A) (A) (A)
                 (A) (A) (A) (A) (A) (A) (A) (A) (A) (A) (A) (A)
                 (A) (A) (A) (A) (A) (A) (A) (A) (A) (A) (A) (A)
                 (A) (A) (A) (A) (A) (A) (A) (A) (A) (A) (A) (A)
                 (A) (A) (A) (A) (A) (A) (A) (A) (A) (A) (A) (A)
                 (A) (A) (A) (A) (A) (A) (A) (A) (A) (A) (A) (A)
                 (A) (A) (A) (A) (A) (A) (A) (A) (A) (A) (A) (A)
                 (A) (A) (A) (A) (A) (A) (A) (A) (A) (A) (A) (A)
                 (A) (A) (A) (A) (A) (A) (A) (A) (A) (A) (A) (A)
                 (A) (A) (A) (A) (A) (A) (A) (A) (A) (A) (A) (A)
                 (A) (A) (A) (A) (A) (A) (A) (A) (A) (A) (A) (A)
                 (A) (A) (A) (A) (A) (A) (A) (A) (A) (A) (A) (A)
                 (A) (A) (A) (A) (A) (A) (A) (A) (A) (A) (A) (A)
                 (A) (A) (A) (A) (A) (A) (A) (A) (A) (A) (A) (A)
                 (A) (A) (A) (A) (A) (A) (A) (A) (A) (A) (A) (A)
                 (A) (A) (A) (A) (A) (A) (A) (A) (A) (A) (A) (A)
                 (A) (A) (A) (A) (A) (A) (A) (A) (A) (A) (A) (A)
                 (A) (A) (A) (A) (A) (A) (A) (A) (A) (A) (A) (A)
                 (A) (A) (A) (A) (A) (A) (A) (A) (A) (A) (A) (A)
                 (A) (A) (A) (A) (A) (A) (A) (A) (A) (A) (A) (A)
                 (A) (A) (A) (A) (A) (A) (A) (A) (A) (A) (A) (A)
                 (A) (A) (A) (A) (A) (A) (A) (A) (A) (A) (A) (A)
                 (A) (A) (A) (A) (A) (A) (A) (A) (A) (A) (A) (A)
                 (A) (A) (A) (A) (A) (A) (A) (A) (A) (A) (A) (A)
                 (A) (A) (A) (A) (A) (A) (A) (A) (A) (A) (A) (A)
                 (A) (A) (A) (A) (A) (A) (A) (A) (A) (A) (A) (A)
                 (A) (A) (A) (A) (A) (A) (A) (A) (A) (A) (A) (A)
                 (A) (A) (A) (A) (A) (A) (A) (A) (A) (A) (A) (A)
                 (A) (A) (A) (A) (A) (A) (A) (A) (A) (A)
       Virtual   (A) (A) (A) (A) (A) (A) (A) (A) (A) (A) (A) (A)
                 (A) (A) (A) (A) (A) (A) (A) (A) (A) (A) (A) (A)
                 (A) (A) (A) (A) (A) (A) (A) (A) (A) (A) (A) (A)
                 (A) (A) (A) (A) (A) (A) (A) (A) (A) (A) (A) (A)
                 (A) (A) (A) (A) (A) (A) (A) (A) (A) (A) (A) (A)
                 (A) (A) (A) (A) (A) (A) (A) (A) (A) (A) (A) (A)
                 (A) (A) (A) (A) (A) (A) (A) (A) (A) (A) (A) (A)
                 (A) (A) (A) (A) (A) (A) (A) (A) (A) (A) (A) (A)
                 (A) (A) (A) (A) (A) (A) (A) (A) (A) (A) (A) (A)
                 (A) (A) (A) (A) (A) (A) (A) (A) (A) (A) (A) (A)
                 (A) (A) (A) (A) (A) (A) (A) (A) (A) (A) (A) (A)
                 (A) (A) (A) (A) (A) (A) (A) (A) (A) (A) (A) (A)
                 (A) (A) (A) (A) (A) (A) (A) (A) (A) (A) (A) (A)
                 (A) (A) (A) (A) (A) (A) (A) (A) (A) (A) (A) (A)
                 (A) (A) (A) (A) (A) (A) (A) (A) (A) (A) (A) (A)
                 (A) (A) (A) (A) (A) (A) (A) (A) (A) (A) (A) (A)
                 (A) (A) (A) (A) (A) (A) (A) (A) (A) (A) (A) (A)
                 (A) (A) (A) (A) (A) (A) (A) (A) (A) (A) (A) (A)
                 (A) (A) (A) (A) (A) (A) (A) (A) (A) (A) (A) (A)
                 (A) (A) (A) (A) (A) (A) (A) (A) (A) (A) (A) (A)
                 (A) (A) (A) (A) (A) (A) (A) (A) (A) (A) (A) (A)
                 (A) (A) (A) (A) (A) (A) (A) (A) (A) (A) (A) (A)
                 (A) (A) (A) (A) (A) (A) (A) (A) (A) (A) (A) (A)
                 (A) (A) (A) (A) (A) (A) (A) (A) (A) (A) (A) (A)
                 (A) (A) (A) (A) (A) (A) (A) (A) (A) (A) (A) (A)
                 (A) (A) (A) (A) (A) (A) (A) (A) (A) (A) (A) (A)
                 (A) (A) (A) (A) (A) (A) (A) (A) (A) (A) (A) (A)
                 (A) (A) (A) (A) (A) (A) (A) (A) (A) (A) (A) (A)
                 (A) (A) (A) (A) (A) (A) (A) (A) (A) (A) (A) (A)
                 (A) (A) (A) (A) (A) (A) (A) (A) (A) (A) (A) (A)
                 (A) (A) (A) (A) (A) (A) (A) (A) (A) (A) (A) (A)
                 (A) (A) (A) (A) (A) (A) (A) (A) (A) (A) (A) (A)
                 (A) (A) (A) (A) (A) (A) (A) (A) (A) (A) (A) (A)
                 (A) (A) (A) (A) (A) (A) (A) (A) (A) (A) (A) (A)
                 (A) (A) (A) (A) (A) (A) (A) (A) (A) (A) (A) (A)
                 (A) (A) (A) (A) (A) (A) (A) (A) (A) (A) (A) (A)
                 (A) (A) (A) (A) (A) (A) (A) (A) (A) (A) (A) (A)
                 (A) (A) (A) (A) (A) (A) (A) (A) (A) (A) (A) (A)
                 (A) (A) (A) (A) (A) (A) (A) (A) (A) (A) (A) (A)
                 (A) (A) (A) (A) (A) (A) (A) (A) (A) (A) (A) (A)
                 (A) (A) (A) (A) (A) (A) (A) (A) (A) (A) (A) (A)
                 (A) (A) (A) (A) (A) (A) (A) (A) (A) (A) (A) (A)
                 (A) (A) (A) (A) (A) (A) (A) (A) (A) (A) (A) (A)
                 (A) (A) (A) (A) (A) (A) (A) (A) (A) (A) (A) (A)
                 (A) (A) (A) (A) (A) (A) (A) (A) (A) (A) (A) (A)
                 (A) (A) (A) (A) (A) (A) (A) (A) (A) (A) (A) (A)
                 (A) (A) (A) (A) (A) (A) (A) (A) (A) (A) (A) (A)
                 (A) (A) (A) (A) (A) (A) (A) (A) (A) (A) (A) (A)
                 (A) (A) (A) (A) (A) (A) (A) (A) (A) (A) (A) (A)
                 (A) (A) (A) (A) (A) (A) (A) (A) (A) (A) (A) (A)
                 (A) (A) (A) (A) (A) (A) (A) (A) (A) (A) (A) (A)
                 (A) (A) (A) (A) (A) (A) (A) (A) (A) (A) (A) (A)
                 (A) (A) (A) (A) (A) (A) (A) (A) (A) (A) (A) (A)
                 (A) (A) (A) (A) (A) (A) (A) (A) (A) (A) (A) (A)
                 (A) (A) (A) (A) (A) (A) (A) (A) (A) (A) (A) (A)
                 (A) (A) (A) (A) (A) (A) (A) (A) (A) (A) (A) (A)
                 (A) (A) (A) (A) (A) (A) (A) (A) (A) (A) (A) (A)
                 (A) (A) (A) (A) (A) (A) (A) (A) (A) (A) (A) (A)
                 (A) (A) (A) (A) (A) (A) (A) (A) (A) (A) (A) (A)
                 (A) (A) (A) (A) (A) (A) (A) (A) (A) (A) (A) (A)
                 (A) (A) (A) (A) (A) (A) (A) (A) (A) (A) (A) (A)
                 (A) (A) (A) (A) (A) (A) (A) (A) (A) (A) (A) (A)
                 (A) (A) (A) (A) (A) (A) (A) (A) (A) (A) (A) (A)
                 (A) (A) (A) (A) (A) (A) (A) (A) (A) (A) (A) (A)
                 (A) (A) (A) (A) (A) (A) (A) (A) (A) (A) (A) (A)
                 (A) (A) (A) (A) (A) (A) (A) (A) (A) (A) (A) (A)
                 (A) (A) (A) (A) (A) (A) (A) (A) (A) (A) (A) (A)
                 (A) (A) (A) (A) (A) (A) (A) (A) (A) (A) (A) (A)
                 (A) (A) (A) (A) (A) (A) (A) (A) (A) (A) (A) (A)
                 (A) (A) (A) (A) (A) (A) (A) (A) (A) (A) (A) (A)
                 (A) (A) (A) (A) (A) (A) (A) (A) (A) (A) (A) (A)
                 (A) (A) (A) (A) (A) (A) (A) (A) (A) (A) (A) (A)
                 (A) (A) (A) (A) (A) (A) (A) (A) (A) (A) (A) (A)
                 (A) (A) (A) (A) (A) (A) (A) (A) (A) (A) (A) (A)
                 (A) (A) (A) (A) (A) (A) (A) (A) (A) (A) (A) (A)
                 (A) (A) (A) (A) (A) (A) (A) (A) (A) (A) (A) (A)
                 (A) (A) (A) (A) (A) (A) (A) (A) (A) (A) (A) (A)
                 (A) (A) (A) (A) (A) (A) (A) (A) (A) (A) (A) (A)
                 (A) (A) (A) (A) (A) (A) (A) (A) (A) (A) (A) (A)
                 (A) (A) (A) (A) (A) (A) (A) (A) (A) (A) (A) (A)
                 (A) (A) (A) (A) (A) (A) (A) (A) (A) (A) (A) (A)
                 (A) (A) (A) (A) (A) (A) (A) (A) (A) (A) (A) (A)
                 (A) (A) (A) (A) (A) (A) (A) (A) (A) (A) (A) (A)
                 (A) (A) (A) (A) (A) (A) (A) (A) (A) (A) (A) (A)
                 (A) (A) (A) (A) (A) (A) (A) (A) (A) (A) (A) (A)
                 (A) (A) (A) (A) (A) (A) (A) (A) (A) (A) (A) (A)
                 (A) (A) (A) (A) (A) (A) (A) (A) (A) (A) (A) (A)
                 (A) (A) (A) (A) (A) (A) (A) (A) (A) (A) (A) (A)
                 (A) (A) (A) (A) (A) (A) (A) (A) (A) (A) (A) (A)
                 (A) (A) (A) (A) (A) (A) (A) (A) (A) (A) (A) (A)
                 (A) (A) (A) (A) (A) (A) (A) (A) (A) (A) (A) (A)
                 (A) (A) (A) (A) (A) (A) (A) (A) (A) (A) (A) (A)
                 (A) (A) (A) (A) (A) (A) (A) (A) (A) (A) (A) (A)
                 (A) (A) (A) (A) (A) (A) (A) (A) (A) (A) (A) (A)
                 (A) (A) (A) (A) (A) (A) (A) (A) (A) (A) (A) (A)
                 (A) (A) (A) (A) (A) (A) (A) (A) (A) (A) (A) (A)
                 (A) (A) (A) (A) (A) (A) (A) (A) (A) (A) (A) (A)
                 (A) (A) (A) (A) (A) (A) (A) (A) (A) (A) (A) (A)
                 (A) (A) (A) (A) (A) (A) (A) (A) (A) (A) (A) (A)
                 (A) (A) (A) (A) (A) (A) (A) (A) (A) (A) (A) (A)
                 (A) (A) (A) (A) (A) (A) (A) (A) (A) (A) (A) (A)
                 (A) (A) (A) (A) (A) (A) (A) (A) (A) (A) (A) (A)
                 (A) (A) (A) (A) (A) (A) (A) (A) (A) (A) (A) (A)
                 (A) (A) (A) (A) (A) (A) (A) (A) (A) (A) (A) (A)
                 (A) (A) (A) (A) (A) (A) (A) (A) (A) (A) (A) (A)
                 (A) (A) (A) (A) (A) (A) (A) (A) (A) (A) (A) (A)
                 (A) (A) (A) (A) (A) (A) (A) (A) (A) (A) (A) (A)
                 (A) (A) (A) (A) (A) (A) (A) (A) (A) (A) (A) (A)
                 (A) (A) (A) (A) (A) (A) (A) (A) (A) (A) (A) (A)
                 (A) (A) (A) (A) (A) (A) (A) (A) (A) (A) (A) (A)
                 (A) (A) (A) (A) (A) (A) (A) (A) (A) (A) (A) (A)
                 (A) (A) (A) (A) (A) (A) (A) (A) (A) (A) (A) (A)
                 (A) (A) (A) (A) (A) (A) (A) (A) (A) (A) (A) (A)
                 (A) (A) (A)
 The electronic state is 1-A.
 Alpha  occ. eigenvalues -- -145.34665 -19.16478 -19.14878 -19.14081 -19.12808
 Alpha  occ. eigenvalues --  -19.11834 -19.10957 -19.10882 -19.09553 -19.08061
 Alpha  occ. eigenvalues --  -19.06593 -19.05845 -19.05575 -19.05475 -19.05043
 Alpha  occ. eigenvalues --  -19.04977 -19.04875 -19.04821 -19.04784 -19.04525
 Alpha  occ. eigenvalues --  -19.03732 -19.03652 -19.03642 -19.03435 -15.40392
 Alpha  occ. eigenvalues --  -14.57112 -14.39198 -14.37544 -14.36563 -14.35992
 Alpha  occ. eigenvalues --  -14.35905 -14.34482 -14.32718 -14.31741 -14.31702
 Alpha  occ. eigenvalues --  -14.31004 -14.30718 -14.29943 -14.29840 -14.29719
 Alpha  occ. eigenvalues --  -12.54009 -12.53978 -12.53946 -10.34174 -10.31339
 Alpha  occ. eigenvalues --  -10.30068 -10.29579 -10.29491 -10.28547 -10.27144
 Alpha  occ. eigenvalues --  -10.26983 -10.26748 -10.26296 -10.26100 -10.25406
 Alpha  occ. eigenvalues --  -10.25280 -10.24542 -10.24155 -10.24083 -10.23987
 Alpha  occ. eigenvalues --  -10.23975 -10.23897 -10.23873 -10.23566 -10.23562
 Alpha  occ. eigenvalues --  -10.23377 -10.22865 -10.22818 -10.22607 -10.22418
 Alpha  occ. eigenvalues --  -10.21436 -10.21374 -10.20942 -10.20861 -10.20430
 Alpha  occ. eigenvalues --  -10.20205 -10.19881 -10.19192 -10.18870 -10.18837
 Alpha  occ. eigenvalues --  -10.18612 -10.18513 -10.18446 -10.17925 -10.17502
 Alpha  occ. eigenvalues --  -10.17276 -10.17230 -10.17128 -10.16922 -10.16829
 Alpha  occ. eigenvalues --  -10.16679 -10.16614 -10.16510 -10.16169 -10.15809
 Alpha  occ. eigenvalues --  -10.15759 -10.14913  -1.77230  -1.12661  -1.06707
 Alpha  occ. eigenvalues --   -1.05088  -1.04825  -1.04778  -1.04689  -1.04414
 Alpha  occ. eigenvalues --   -1.04232  -1.03269  -1.02843  -1.02412  -1.01201
 Alpha  occ. eigenvalues --   -1.00821  -0.99958  -0.99796  -0.99553  -0.99145
 Alpha  occ. eigenvalues --   -0.98946  -0.98509  -0.98336  -0.98250  -0.98144
 Alpha  occ. eigenvalues --   -0.97883  -0.97244  -0.96267  -0.93792  -0.93432
 Alpha  occ. eigenvalues --   -0.92117  -0.90863  -0.90653  -0.89588  -0.89390
 Alpha  occ. eigenvalues --   -0.89052  -0.88863  -0.88605  -0.88128  -0.87881
 Alpha  occ. eigenvalues --   -0.87657  -0.87292  -0.87289  -0.87023  -0.86123
 Alpha  occ. eigenvalues --   -0.82706  -0.82422  -0.81207  -0.80778  -0.79280
 Alpha  occ. eigenvalues --   -0.78128  -0.76991  -0.76920  -0.75901  -0.75609
 Alpha  occ. eigenvalues --   -0.74495  -0.74097  -0.73782  -0.72560  -0.71886
 Alpha  occ. eigenvalues --   -0.71631  -0.70684  -0.70661  -0.70193  -0.69758
 Alpha  occ. eigenvalues --   -0.69460  -0.69399  -0.68757  -0.67606  -0.67399
 Alpha  occ. eigenvalues --   -0.66762  -0.65534  -0.65180  -0.64148  -0.63802
 Alpha  occ. eigenvalues --   -0.63628  -0.63276  -0.62371  -0.62064  -0.61236
 Alpha  occ. eigenvalues --   -0.60694  -0.60148  -0.60066  -0.60047  -0.59593
 Alpha  occ. eigenvalues --   -0.58926  -0.58720  -0.57604  -0.57141  -0.56834
 Alpha  occ. eigenvalues --   -0.56545  -0.55805  -0.55626  -0.55195  -0.55084
 Alpha  occ. eigenvalues --   -0.55059  -0.54592  -0.54471  -0.54332  -0.54217
 Alpha  occ. eigenvalues --   -0.54096  -0.53557  -0.53356  -0.53097  -0.52588
 Alpha  occ. eigenvalues --   -0.52461  -0.52290  -0.51666  -0.51360  -0.50917
 Alpha  occ. eigenvalues --   -0.50662  -0.50320  -0.50017  -0.49944  -0.49784
 Alpha  occ. eigenvalues --   -0.49044  -0.48687  -0.48484  -0.48178  -0.47736
 Alpha  occ. eigenvalues --   -0.47685  -0.47514  -0.47371  -0.47131  -0.46912
 Alpha  occ. eigenvalues --   -0.46546  -0.46292  -0.46135  -0.45917  -0.45830
 Alpha  occ. eigenvalues --   -0.45441  -0.45360  -0.45205  -0.45036  -0.44749
 Alpha  occ. eigenvalues --   -0.44471  -0.44327  -0.43873  -0.43710  -0.43571
 Alpha  occ. eigenvalues --   -0.43261  -0.43179  -0.42917  -0.42906  -0.42813
 Alpha  occ. eigenvalues --   -0.42595  -0.42527  -0.42440  -0.42333  -0.42222
 Alpha  occ. eigenvalues --   -0.41984  -0.41847  -0.41626  -0.41455  -0.41288
 Alpha  occ. eigenvalues --   -0.41250  -0.41017  -0.40865  -0.40700  -0.40671
 Alpha  occ. eigenvalues --   -0.40478  -0.40429  -0.40298  -0.40271  -0.40252
 Alpha  occ. eigenvalues --   -0.40139  -0.39997  -0.39866  -0.39616  -0.39439
 Alpha  occ. eigenvalues --   -0.39348  -0.39131  -0.39059  -0.38910  -0.38859
 Alpha  occ. eigenvalues --   -0.38751  -0.38585  -0.38480  -0.38254  -0.38026
 Alpha  occ. eigenvalues --   -0.37918  -0.37855  -0.37695  -0.37472  -0.37375
 Alpha  occ. eigenvalues --   -0.37077  -0.36876  -0.36784  -0.36629  -0.36487
 Alpha  occ. eigenvalues --   -0.36383  -0.36161  -0.36099  -0.35795  -0.35688
 Alpha  occ. eigenvalues --   -0.35640  -0.35600  -0.35541  -0.35391  -0.34949
 Alpha  occ. eigenvalues --   -0.34820  -0.34296  -0.34173  -0.34085  -0.33903
 Alpha  occ. eigenvalues --   -0.33808  -0.33735  -0.33506  -0.33268  -0.33202
 Alpha  occ. eigenvalues --   -0.32889  -0.32235  -0.32182  -0.31968  -0.31917
 Alpha  occ. eigenvalues --   -0.31903  -0.31781  -0.31497  -0.31182  -0.31082
 Alpha  occ. eigenvalues --   -0.30994  -0.30698  -0.30565  -0.30534  -0.30311
 Alpha  occ. eigenvalues --   -0.28363  -0.28350  -0.28246  -0.28066  -0.27235
 Alpha  occ. eigenvalues --   -0.26656  -0.26568  -0.26215  -0.25740  -0.25254
 Alpha  occ. eigenvalues --   -0.24753  -0.24342  -0.24112  -0.23773  -0.23741
 Alpha  occ. eigenvalues --   -0.23726  -0.23489  -0.23411  -0.22798  -0.22637
 Alpha  occ. eigenvalues --   -0.22474  -0.22350  -0.22080  -0.21901  -0.21799
 Alpha  occ. eigenvalues --   -0.21688  -0.21095  -0.21085  -0.20614  -0.20351
 Alpha  occ. eigenvalues --   -0.20227  -0.20142  -0.20067  -0.19897  -0.19712
 Alpha  occ. eigenvalues --   -0.19078  -0.18943  -0.18703
 Alpha virt. eigenvalues --   -0.09328  -0.04228  -0.02156  -0.02128  -0.01805
 Alpha virt. eigenvalues --   -0.00721  -0.00584   0.00303   0.00412   0.00690
 Alpha virt. eigenvalues --    0.01272   0.01585   0.01898   0.02731   0.02838
 Alpha virt. eigenvalues --    0.03424   0.03560   0.04288   0.04351   0.04671
 Alpha virt. eigenvalues --    0.04731   0.04944   0.05287   0.05433   0.05511
 Alpha virt. eigenvalues --    0.05768   0.06002   0.06070   0.06341   0.06689
 Alpha virt. eigenvalues --    0.06854   0.07100   0.07113   0.07163   0.07277
 Alpha virt. eigenvalues --    0.07481   0.07711   0.07877   0.07984   0.08066
 Alpha virt. eigenvalues --    0.08283   0.08486   0.08695   0.08998   0.09464
 Alpha virt. eigenvalues --    0.09663   0.09934   0.10042   0.10181   0.10315
 Alpha virt. eigenvalues --    0.10555   0.10658   0.10842   0.11202   0.11277
 Alpha virt. eigenvalues --    0.11461   0.11678   0.12056   0.12232   0.12316
 Alpha virt. eigenvalues --    0.12578   0.12785   0.13066   0.13186   0.13218
 Alpha virt. eigenvalues --    0.13480   0.13536   0.13772   0.13801   0.13992
 Alpha virt. eigenvalues --    0.14094   0.14356   0.14461   0.14612   0.14645
 Alpha virt. eigenvalues --    0.14823   0.15211   0.15447   0.15480   0.15658
 Alpha virt. eigenvalues --    0.15920   0.16039   0.16125   0.16154   0.16479
 Alpha virt. eigenvalues --    0.16611   0.16905   0.17215   0.17258   0.17451
 Alpha virt. eigenvalues --    0.17475   0.17685   0.17852   0.17966   0.18005
 Alpha virt. eigenvalues --    0.18117   0.18182   0.18603   0.18738   0.19166
 Alpha virt. eigenvalues --    0.19223   0.19396   0.19658   0.19736   0.19879
 Alpha virt. eigenvalues --    0.20014   0.20140   0.20245   0.20458   0.20637
 Alpha virt. eigenvalues --    0.20867   0.21068   0.21143   0.21359   0.21670
 Alpha virt. eigenvalues --    0.22145   0.22363   0.22488   0.22725   0.23143
 Alpha virt. eigenvalues --    0.23370   0.23398   0.23655   0.23826   0.23874
 Alpha virt. eigenvalues --    0.24303   0.24366   0.24775   0.25115   0.25367
 Alpha virt. eigenvalues --    0.25553   0.25685   0.25804   0.26063   0.26371
 Alpha virt. eigenvalues --    0.26457   0.26490   0.26687   0.27194   0.27413
 Alpha virt. eigenvalues --    0.27653   0.27732   0.28140   0.28205   0.28491
 Alpha virt. eigenvalues --    0.28785   0.29225   0.29466   0.29624   0.29679
 Alpha virt. eigenvalues --    0.30060   0.30156   0.30521   0.30969   0.31438
 Alpha virt. eigenvalues --    0.31549   0.31711   0.32040   0.32160   0.32488
 Alpha virt. eigenvalues --    0.32610   0.32719   0.33017   0.33251   0.33311
 Alpha virt. eigenvalues --    0.33498   0.33853   0.34275   0.34386   0.34733
 Alpha virt. eigenvalues --    0.34936   0.35258   0.35350   0.35678   0.36022
 Alpha virt. eigenvalues --    0.36475   0.36692   0.36818   0.37175   0.37333
 Alpha virt. eigenvalues --    0.37569   0.37724   0.38015   0.38286   0.38577
 Alpha virt. eigenvalues --    0.38897   0.39174   0.39485   0.39553   0.39576
 Alpha virt. eigenvalues --    0.39797   0.40351   0.40478   0.40955   0.41257
 Alpha virt. eigenvalues --    0.41389   0.41812   0.41998   0.42125   0.42619
 Alpha virt. eigenvalues --    0.42847   0.43223   0.43663   0.43761   0.43960
 Alpha virt. eigenvalues --    0.44163   0.44308   0.44402   0.44742   0.44889
 Alpha virt. eigenvalues --    0.45035   0.45236   0.45539   0.45743   0.45924
 Alpha virt. eigenvalues --    0.45957   0.46290   0.46462   0.46520   0.46874
 Alpha virt. eigenvalues --    0.47288   0.47437   0.47559   0.47647   0.47900
 Alpha virt. eigenvalues --    0.48175   0.48207   0.48600   0.48611   0.48795
 Alpha virt. eigenvalues --    0.48927   0.49058   0.49385   0.49531   0.49594
 Alpha virt. eigenvalues --    0.50039   0.50067   0.50262   0.50508   0.50599
 Alpha virt. eigenvalues --    0.50914   0.51084   0.51275   0.51466   0.51592
 Alpha virt. eigenvalues --    0.51906   0.52241   0.52377   0.52445   0.52780
 Alpha virt. eigenvalues --    0.52898   0.53008   0.53250   0.53455   0.53684
 Alpha virt. eigenvalues --    0.53768   0.53982   0.54217   0.54343   0.54544
 Alpha virt. eigenvalues --    0.54602   0.54818   0.54924   0.55361   0.55416
 Alpha virt. eigenvalues --    0.55556   0.55660   0.55864   0.56134   0.56238
 Alpha virt. eigenvalues --    0.56524   0.56647   0.56822   0.56980   0.57356
 Alpha virt. eigenvalues --    0.57508   0.57579   0.57840   0.57945   0.58138
 Alpha virt. eigenvalues --    0.58217   0.58338   0.58479   0.58589   0.58993
 Alpha virt. eigenvalues --    0.59234   0.59426   0.59666   0.59798   0.59837
 Alpha virt. eigenvalues --    0.59956   0.60251   0.60536   0.60591   0.60853
 Alpha virt. eigenvalues --    0.60931   0.61048   0.61261   0.61536   0.61626
 Alpha virt. eigenvalues --    0.61722   0.61830   0.61929   0.61990   0.62014
 Alpha virt. eigenvalues --    0.62349   0.62384   0.62732   0.62871   0.62955
 Alpha virt. eigenvalues --    0.63213   0.63294   0.63406   0.63579   0.63719
 Alpha virt. eigenvalues --    0.63787   0.63905   0.63929   0.64148   0.64390
 Alpha virt. eigenvalues --    0.64434   0.64550   0.64596   0.64638   0.64874
 Alpha virt. eigenvalues --    0.64919   0.65028   0.65337   0.65350   0.65447
 Alpha virt. eigenvalues --    0.65622   0.65660   0.65785   0.66050   0.66158
 Alpha virt. eigenvalues --    0.66177   0.66336   0.66444   0.66527   0.66570
 Alpha virt. eigenvalues --    0.66658   0.66770   0.66815   0.66888   0.67051
 Alpha virt. eigenvalues --    0.67153   0.67198   0.67325   0.67445   0.67755
 Alpha virt. eigenvalues --    0.67766   0.67823   0.67887   0.67913   0.67977
 Alpha virt. eigenvalues --    0.68191   0.68293   0.68343   0.68483   0.68583
 Alpha virt. eigenvalues --    0.68799   0.68979   0.69106   0.69225   0.69263
 Alpha virt. eigenvalues --    0.69345   0.69514   0.69633   0.69845   0.69948
 Alpha virt. eigenvalues --    0.70073   0.70113   0.70246   0.70414   0.70548
 Alpha virt. eigenvalues --    0.70777   0.70882   0.71016   0.71120   0.71198
 Alpha virt. eigenvalues --    0.71256   0.71445   0.71675   0.71776   0.72073
 Alpha virt. eigenvalues --    0.72118   0.72254   0.72337   0.72586   0.72823
 Alpha virt. eigenvalues --    0.72948   0.73293   0.73394   0.73430   0.73553
 Alpha virt. eigenvalues --    0.73615   0.73837   0.74025   0.74156   0.74255
 Alpha virt. eigenvalues --    0.74411   0.74642   0.74921   0.74946   0.75054
 Alpha virt. eigenvalues --    0.75131   0.75372   0.75891   0.75976   0.76030
 Alpha virt. eigenvalues --    0.76304   0.76442   0.76581   0.76802   0.76849
 Alpha virt. eigenvalues --    0.77102   0.77474   0.77637   0.78127   0.78231
 Alpha virt. eigenvalues --    0.78419   0.78621   0.78650   0.78888   0.79274
 Alpha virt. eigenvalues --    0.79654   0.79715   0.79832   0.80195   0.80282
 Alpha virt. eigenvalues --    0.80711   0.81004   0.81285   0.81437   0.82067
 Alpha virt. eigenvalues --    0.82374   0.82417   0.82663   0.82806   0.83013
 Alpha virt. eigenvalues --    0.83321   0.83644   0.83764   0.84331   0.84629
 Alpha virt. eigenvalues --    0.84840   0.84999   0.85127   0.85709   0.86168
 Alpha virt. eigenvalues --    0.86773   0.86987   0.87245   0.87472   0.87711
 Alpha virt. eigenvalues --    0.88154   0.88350   0.88402   0.88763   0.88949
 Alpha virt. eigenvalues --    0.89729   0.89847   0.90047   0.90249   0.90583
 Alpha virt. eigenvalues --    0.90767   0.91287   0.91449   0.91569   0.92425
 Alpha virt. eigenvalues --    0.92729   0.92914   0.93382   0.93707   0.94236
 Alpha virt. eigenvalues --    0.94314   0.94653   0.94782   0.94954   0.95468
 Alpha virt. eigenvalues --    0.95616   0.95830   0.96087   0.96337   0.96560
 Alpha virt. eigenvalues --    0.96816   0.97229   0.97311   0.97694   0.97978
 Alpha virt. eigenvalues --    0.98320   0.98731   0.99019   0.99277   0.99652
 Alpha virt. eigenvalues --    0.99968   1.00184   1.00420   1.00713   1.01085
 Alpha virt. eigenvalues --    1.01469   1.01594   1.01903   1.01942   1.02052
 Alpha virt. eigenvalues --    1.02139   1.02457   1.02664   1.02854   1.03047
 Alpha virt. eigenvalues --    1.03494   1.03531   1.03983   1.04256   1.04613
 Alpha virt. eigenvalues --    1.05116   1.05709   1.05996   1.06219   1.06439
 Alpha virt. eigenvalues --    1.06587   1.06829   1.07422   1.07549   1.07845
 Alpha virt. eigenvalues --    1.08186   1.08325   1.08489   1.08863   1.09429
 Alpha virt. eigenvalues --    1.09760   1.09805   1.10230   1.10414   1.10793
 Alpha virt. eigenvalues --    1.10828   1.11205   1.11597   1.11837   1.12058
 Alpha virt. eigenvalues --    1.12186   1.12340   1.12671   1.13221   1.13344
 Alpha virt. eigenvalues --    1.13826   1.14023   1.14221   1.14291   1.14523
 Alpha virt. eigenvalues --    1.14775   1.15133   1.15631   1.15831   1.16253
 Alpha virt. eigenvalues --    1.16272   1.16867   1.17367   1.17511   1.17659
 Alpha virt. eigenvalues --    1.17903   1.18418   1.18447   1.18793   1.19066
 Alpha virt. eigenvalues --    1.19325   1.19551   1.19953   1.20190   1.20460
 Alpha virt. eigenvalues --    1.20541   1.21016   1.21289   1.21617   1.21881
 Alpha virt. eigenvalues --    1.21970   1.22334   1.22454   1.22761   1.22960
 Alpha virt. eigenvalues --    1.23259   1.23377   1.23472   1.23859   1.24028
 Alpha virt. eigenvalues --    1.24182   1.24605   1.25082   1.25162   1.25545
 Alpha virt. eigenvalues --    1.25656   1.25916   1.26112   1.26420   1.26596
 Alpha virt. eigenvalues --    1.26807   1.26919   1.27080   1.27677   1.27997
 Alpha virt. eigenvalues --    1.28013   1.28288   1.28652   1.28715   1.29080
 Alpha virt. eigenvalues --    1.29536   1.29675   1.30118   1.30323   1.30656
 Alpha virt. eigenvalues --    1.31073   1.31308   1.31415   1.31619   1.31880
 Alpha virt. eigenvalues --    1.31918   1.32321   1.32555   1.32916   1.33282
 Alpha virt. eigenvalues --    1.33435   1.34121   1.34395   1.34422   1.34962
 Alpha virt. eigenvalues --    1.35038   1.35534   1.35649   1.35768   1.36117
 Alpha virt. eigenvalues --    1.36456   1.36800   1.37005   1.37498   1.37749
 Alpha virt. eigenvalues --    1.37833   1.38101   1.38483   1.38751   1.39196
 Alpha virt. eigenvalues --    1.39497   1.39812   1.40063   1.40304   1.40403
 Alpha virt. eigenvalues --    1.41269   1.41474   1.41987   1.42145   1.42276
 Alpha virt. eigenvalues --    1.42773   1.42939   1.43550   1.43576   1.43748
 Alpha virt. eigenvalues --    1.43842   1.44245   1.44352   1.44599   1.44868
 Alpha virt. eigenvalues --    1.45203   1.45384   1.45939   1.46064   1.46376
 Alpha virt. eigenvalues --    1.46807   1.47039   1.47379   1.47507   1.47844
 Alpha virt. eigenvalues --    1.48112   1.48155   1.48449   1.48743   1.48834
 Alpha virt. eigenvalues --    1.49171   1.49607   1.49738   1.50072   1.50265
 Alpha virt. eigenvalues --    1.50563   1.50720   1.51218   1.51386   1.51785
 Alpha virt. eigenvalues --    1.51981   1.52330   1.52543   1.52691   1.53125
 Alpha virt. eigenvalues --    1.53301   1.53463   1.53691   1.53908   1.54579
 Alpha virt. eigenvalues --    1.54937   1.55151   1.55337   1.55412   1.55535
 Alpha virt. eigenvalues --    1.55763   1.56131   1.56282   1.56991   1.57211
 Alpha virt. eigenvalues --    1.57768   1.57843   1.58448   1.58696   1.59746
 Alpha virt. eigenvalues --    1.60016   1.60580   1.60652   1.60894   1.61051
 Alpha virt. eigenvalues --    1.61369   1.61450   1.62109   1.62731   1.62778
 Alpha virt. eigenvalues --    1.62997   1.63155   1.63511   1.64005   1.64309
 Alpha virt. eigenvalues --    1.64413   1.64563   1.64724   1.65227   1.65478
 Alpha virt. eigenvalues --    1.65602   1.65909   1.66538   1.66804   1.66858
 Alpha virt. eigenvalues --    1.67227   1.67598   1.67674   1.68586   1.68893
 Alpha virt. eigenvalues --    1.69034   1.69346   1.69773   1.70020   1.70214
 Alpha virt. eigenvalues --    1.70334   1.70846   1.70922   1.71008   1.71236
 Alpha virt. eigenvalues --    1.71652   1.71965   1.72282   1.72293   1.72388
 Alpha virt. eigenvalues --    1.72971   1.73183   1.73450   1.73870   1.74050
 Alpha virt. eigenvalues --    1.74332   1.74526   1.74607   1.74783   1.75072
 Alpha virt. eigenvalues --    1.75326   1.75409   1.75471   1.75736   1.75815
 Alpha virt. eigenvalues --    1.76059   1.76389   1.76545   1.76569   1.76715
 Alpha virt. eigenvalues --    1.76879   1.77207   1.77479   1.77535   1.77736
 Alpha virt. eigenvalues --    1.78000   1.78200   1.78241   1.78559   1.78578
 Alpha virt. eigenvalues --    1.78882   1.79202   1.79262   1.79376   1.79544
 Alpha virt. eigenvalues --    1.79706   1.79889   1.80009   1.80208   1.80411
 Alpha virt. eigenvalues --    1.80531   1.80636   1.80749   1.80901   1.80996
 Alpha virt. eigenvalues --    1.81263   1.81284   1.81590   1.81745   1.82022
 Alpha virt. eigenvalues --    1.82291   1.82483   1.82499   1.82735   1.82861
 Alpha virt. eigenvalues --    1.82893   1.83298   1.83495   1.83566   1.83694
 Alpha virt. eigenvalues --    1.83789   1.84029   1.84196   1.84292   1.84675
 Alpha virt. eigenvalues --    1.84725   1.84922   1.85038   1.85180   1.85252
 Alpha virt. eigenvalues --    1.85392   1.85477   1.85692   1.86047   1.86259
 Alpha virt. eigenvalues --    1.86271   1.86638   1.86731   1.87283   1.87381
 Alpha virt. eigenvalues --    1.87494   1.87600   1.87721   1.88025   1.88214
 Alpha virt. eigenvalues --    1.88275   1.88470   1.88657   1.88774   1.88984
 Alpha virt. eigenvalues --    1.89089   1.89379   1.89633   1.89812   1.90084
 Alpha virt. eigenvalues --    1.90256   1.90456   1.90580   1.90703   1.90836
 Alpha virt. eigenvalues --    1.90914   1.91591   1.91800   1.91847   1.92061
 Alpha virt. eigenvalues --    1.92483   1.92557   1.92987   1.93033   1.93290
 Alpha virt. eigenvalues --    1.93507   1.93704   1.93960   1.93975   1.94131
 Alpha virt. eigenvalues --    1.94503   1.94621   1.94910   1.95047   1.95410
 Alpha virt. eigenvalues --    1.95673   1.95998   1.96239   1.96470   1.96656
 Alpha virt. eigenvalues --    1.96931   1.97154   1.97434   1.97482   1.97737
 Alpha virt. eigenvalues --    1.98223   1.98361   1.98671   1.98814   1.98835
 Alpha virt. eigenvalues --    1.99185   1.99557   1.99748   1.99955   2.00229
 Alpha virt. eigenvalues --    2.00260   2.01139   2.01332   2.01478   2.01599
 Alpha virt. eigenvalues --    2.01645   2.01911   2.02096   2.02467   2.02737
 Alpha virt. eigenvalues --    2.03106   2.03512   2.03588   2.03848   2.03968
 Alpha virt. eigenvalues --    2.04462   2.04587   2.04740   2.05019   2.05338
 Alpha virt. eigenvalues --    2.05742   2.05836   2.06080   2.06588   2.06641
 Alpha virt. eigenvalues --    2.06891   2.07082   2.07416   2.07526   2.07641
 Alpha virt. eigenvalues --    2.07919   2.08016   2.08574   2.08801   2.09151
 Alpha virt. eigenvalues --    2.09224   2.09741   2.09766   2.09872   2.10503
 Alpha virt. eigenvalues --    2.10860   2.10956   2.11178   2.11382   2.11435
 Alpha virt. eigenvalues --    2.11733   2.11894   2.12135   2.12495   2.12603
 Alpha virt. eigenvalues --    2.13001   2.13855   2.14331   2.14799   2.15011
 Alpha virt. eigenvalues --    2.15159   2.15408   2.15602   2.15909   2.16244
 Alpha virt. eigenvalues --    2.16420   2.16822   2.16989   2.17129   2.17269
 Alpha virt. eigenvalues --    2.17678   2.17914   2.18013   2.18100   2.18719
 Alpha virt. eigenvalues --    2.18997   2.19213   2.19617   2.20139   2.20526
 Alpha virt. eigenvalues --    2.20755   2.20910   2.21439   2.21558   2.21933
 Alpha virt. eigenvalues --    2.22314   2.22373   2.22472   2.22598   2.23081
 Alpha virt. eigenvalues --    2.23367   2.23629   2.23728   2.23922   2.24491
 Alpha virt. eigenvalues --    2.24529   2.24821   2.24985   2.25258   2.26133
 Alpha virt. eigenvalues --    2.26781   2.27086   2.27407   2.27912   2.28128
 Alpha virt. eigenvalues --    2.28448   2.28863   2.29179   2.29267   2.29933
 Alpha virt. eigenvalues --    2.30224   2.30612   2.30693   2.31190   2.31356
 Alpha virt. eigenvalues --    2.31698   2.31927   2.32437   2.32986   2.33298
 Alpha virt. eigenvalues --    2.33372   2.34055   2.34222   2.34303   2.34448
 Alpha virt. eigenvalues --    2.34615   2.35214   2.35398   2.35767   2.36254
 Alpha virt. eigenvalues --    2.36479   2.36657   2.37144   2.37517   2.37608
 Alpha virt. eigenvalues --    2.37945   2.38045   2.38492   2.38789   2.38986
 Alpha virt. eigenvalues --    2.39252   2.39661   2.39958   2.40508   2.40771
 Alpha virt. eigenvalues --    2.41218   2.41364   2.41911   2.42200   2.42470
 Alpha virt. eigenvalues --    2.42971   2.43447   2.44102   2.44448   2.44468
 Alpha virt. eigenvalues --    2.44936   2.45230   2.45802   2.46006   2.46299
 Alpha virt. eigenvalues --    2.46356   2.46427   2.46708   2.47519   2.48112
 Alpha virt. eigenvalues --    2.48298   2.48559   2.48826   2.49167   2.49403
 Alpha virt. eigenvalues --    2.49633   2.49882   2.50172   2.50754   2.50823
 Alpha virt. eigenvalues --    2.50929   2.51290   2.51474   2.51600   2.52021
 Alpha virt. eigenvalues --    2.52601   2.52830   2.52992   2.53962   2.54632
 Alpha virt. eigenvalues --    2.54827   2.55289   2.55377   2.55602   2.55928
 Alpha virt. eigenvalues --    2.56011   2.56156   2.56250   2.56415   2.57930
 Alpha virt. eigenvalues --    2.58027   2.58784   2.59076   2.59304   2.59329
 Alpha virt. eigenvalues --    2.59821   2.60178   2.60486   2.60643   2.61065
 Alpha virt. eigenvalues --    2.61234   2.61339   2.61506   2.61649   2.62489
 Alpha virt. eigenvalues --    2.62691   2.63179   2.63192   2.63299   2.63892
 Alpha virt. eigenvalues --    2.63991   2.64424   2.64629   2.64858   2.64994
 Alpha virt. eigenvalues --    2.65126   2.65390   2.65744   2.65842   2.66048
 Alpha virt. eigenvalues --    2.66177   2.67015   2.67991   2.68197   2.68355
 Alpha virt. eigenvalues --    2.68669   2.69045   2.69341   2.69747   2.70492
 Alpha virt. eigenvalues --    2.70808   2.70860   2.71187   2.71221   2.71437
 Alpha virt. eigenvalues --    2.71686   2.71756   2.72140   2.72576   2.72789
 Alpha virt. eigenvalues --    2.72988   2.73297   2.73641   2.74155   2.74434
 Alpha virt. eigenvalues --    2.74809   2.74962   2.75178   2.75438   2.75577
 Alpha virt. eigenvalues --    2.75880   2.76145   2.76154   2.76518   2.76586
 Alpha virt. eigenvalues --    2.77111   2.77177   2.77264   2.77516   2.77551
 Alpha virt. eigenvalues --    2.78029   2.78223   2.78656   2.79378   2.79615
 Alpha virt. eigenvalues --    2.79694   2.79751   2.80264   2.80466   2.80671
 Alpha virt. eigenvalues --    2.80936   2.81336   2.81446   2.81938   2.81977
 Alpha virt. eigenvalues --    2.82015   2.82275   2.82493   2.82588   2.82833
 Alpha virt. eigenvalues --    2.82916   2.83065   2.83390   2.84191   2.84629
 Alpha virt. eigenvalues --    2.84982   2.85482   2.85549   2.85686   2.85911
 Alpha virt. eigenvalues --    2.86144   2.86279   2.86970   2.87221   2.87893
 Alpha virt. eigenvalues --    2.88184   2.88444   2.88765   2.89055   2.89273
 Alpha virt. eigenvalues --    2.89700   2.90392   2.90535   2.90984   2.91109
 Alpha virt. eigenvalues --    2.91400   2.92278   2.92778   2.93038   2.93243
 Alpha virt. eigenvalues --    2.93445   2.94092   2.94171   2.94343   2.94575
 Alpha virt. eigenvalues --    2.94813   2.95117   2.95362   2.96062   2.96153
 Alpha virt. eigenvalues --    2.96282   2.96508   2.96701   2.96781   2.97009
 Alpha virt. eigenvalues --    2.97340   2.97764   2.98110   2.98334   2.98370
 Alpha virt. eigenvalues --    2.98957   2.99242   2.99384   2.99962   3.00477
 Alpha virt. eigenvalues --    3.00634   3.00900   3.01405   3.02117   3.02434
 Alpha virt. eigenvalues --    3.02771   3.03077   3.03312   3.03584   3.03772
 Alpha virt. eigenvalues --    3.04265   3.04363   3.04540   3.04691   3.05009
 Alpha virt. eigenvalues --    3.05121   3.05588   3.06163   3.06377   3.06954
 Alpha virt. eigenvalues --    3.07116   3.07220   3.08896   3.09203   3.09796
 Alpha virt. eigenvalues --    3.10217   3.10885   3.11739   3.12084   3.13070
 Alpha virt. eigenvalues --    3.13187   3.13542   3.13757   3.14010   3.14565
 Alpha virt. eigenvalues --    3.15761   3.16642   3.16972   3.17073   3.17655
 Alpha virt. eigenvalues --    3.17792   3.17903   3.18169   3.18355   3.18517
 Alpha virt. eigenvalues --    3.18970   3.19419   3.19731   3.20140   3.20380
 Alpha virt. eigenvalues --    3.20553   3.20650   3.20853   3.21146   3.21563
 Alpha virt. eigenvalues --    3.21758   3.21966   3.22318   3.22939   3.23233
 Alpha virt. eigenvalues --    3.23641   3.23875   3.24779   3.24847   3.25382
 Alpha virt. eigenvalues --    3.25839   3.25973   3.26174   3.27124   3.27944
 Alpha virt. eigenvalues --    3.28014   3.28475   3.28625   3.29040   3.29806
 Alpha virt. eigenvalues --    3.30972   3.32351   3.32801   3.33343   3.34048
 Alpha virt. eigenvalues --    3.35560   3.35742   3.36743   3.39394   3.39778
 Alpha virt. eigenvalues --    3.41853   3.43891   3.49736   3.51259   3.52016
 Alpha virt. eigenvalues --    3.53129   3.54402   3.54971   3.55215   3.57759
 Alpha virt. eigenvalues --    3.60496   3.60695   3.61331   3.61718   3.62179
 Alpha virt. eigenvalues --    3.62459   3.62961   3.63356   3.64184   3.64509
 Alpha virt. eigenvalues --    3.65213   3.66653   3.67733   3.68658   3.69928
 Alpha virt. eigenvalues --    3.70176   3.70486   3.70705   3.70815   3.71256
 Alpha virt. eigenvalues --    3.71423   3.71653   3.72139   3.72164   3.72477
 Alpha virt. eigenvalues --    3.73193   3.73535   3.73763   3.75174   3.76606
 Alpha virt. eigenvalues --    3.76967   3.78617   3.82499   3.82917
          Condensed to atoms (all electrons):
 Mulliken charges:
               1
     1  C    0.069989
     2  C    0.000135
     3  O   -0.297191
     4  H    0.038147
     5  H    0.011219
     6  H    0.023910
     7  N   -0.131890
     8  C    0.131524
     9  C    0.025342
    10  O   -0.309557
    11  C    0.111045
    12  C    0.152290
    13  O   -0.476739
    14  O   -0.376563
    15  H    0.103497
    16  H    0.016549
    17  H    0.017637
    18  H    0.001689
    19  N   -0.134161
    20  C    0.163486
    21  C    0.048271
    22  O   -0.341616
    23  C    0.050177
    24  C   -0.069105
    25  C   -0.021912
    26  C    0.062302
    27  N    0.069283
    28  H    0.142225
    29  H    0.001078
    30  H    0.014003
    31  H    0.046744
    32  H    0.000670
    33  H    0.012299
    34  H    0.033385
    35  H    0.071909
    36  H    0.073880
    37  H    0.070015
    38  H    0.194267
    39  H    0.172348
    40  H    0.182918
    41  N   -0.128070
    42  C    0.088843
    43  C    0.058719
    44  O   -0.295925
    45  C    0.202378
    46  C    0.047860
    47  O   -0.439158
    48  O   -0.424728
    49  H    0.180960
    50  H    0.011029
    51  H   -0.008263
    52  H    0.004509
    53  N   -0.217748
    54  C    0.298071
    55  C   -0.000283
    56  O   -0.304399
    57  H    0.125546
    58  H    0.028202
    59  H    0.032427
    60  N   -0.147869
    61  C    0.170469
    62  C    0.024159
    63  O   -0.309459
    64  C    0.088228
    65  C    0.100106
    66  N   -0.042460
    67  O   -0.344628
    68  H    0.131930
    69  H    0.033072
    70  H    0.045678
    71  H   -0.016201
    72  H    0.126125
    73  H    0.128222
    74  N   -0.158625
    75  C    0.252240
    76  C    0.021429
    77  O   -0.301116
    78  H    0.154814
    79  H    0.038283
    80  H    0.038070
    81  N   -0.154321
    82  C    0.087158
    83  C    0.170389
    84  O   -0.329656
    85  C    0.164079
    86  C   -0.037620
    87  C    0.016562
    88  C    0.030811
    89  C   -0.035423
    90  C   -0.045868
    91  C    0.197228
    92  O   -0.213170
    93  H    0.134008
    94  H   -0.028131
    95  H   -0.021449
    96  H   -0.047360
    97  H   -0.035260
    98  H   -0.032754
    99  H   -0.029506
   100  H   -0.035148
   101  H    0.172054
   102  N   -0.130864
   103  C    0.163804
   104  C    0.066276
   105  O   -0.300137
   106  C   -0.136993
   107  C    0.025078
   108  C    0.061193
   109  C    0.033537
   110  H    0.144936
   111  H    0.036455
   112  H   -0.013953
   113  H   -0.009323
   114  H    0.018507
   115  H    0.003445
   116  H    0.020780
   117  H    0.000296
   118  H    0.005919
   119  H    0.012623
   120  H    0.013813
   121  N   -0.108864
   122  C    0.134822
   123  C    0.069033
   124  O   -0.269464
   125  C    0.190585
   126  O   -0.280178
   127  H    0.152212
   128  H    0.038883
   129  H    0.015999
   130  H   -0.039425
   131  H    0.167606
   132  N   -0.128149
   133  C    0.115564
   134  C    0.085795
   135  O   -0.248163
   136  C    0.031580
   137  H    0.107474
   138  H    0.037137
   139  H    0.045151
   140  H    0.039900
   141  H   -0.014935
   142  N   -0.141205
   143  C    0.087837
   144  C    0.054736
   145  O   -0.269635
   146  C    0.052573
   147  H    0.086769
   148  H    0.015221
   149  H    0.050136
   150  H    0.019753
   151  H   -0.010767
   152  N   -0.108901
   153  C    0.133743
   154  C    0.050734
   155  O   -0.272068
   156  C   -0.062257
   157  C    0.147643
   158  C    0.136644
   159  O   -0.456538
   160  O   -0.373823
   161  H    0.107809
   162  H   -0.019044
   163  H    0.045791
   164  H   -0.023962
   165  H   -0.034623
   166  H   -0.032577
   167  N   -0.178485
   168  C    0.157377
   169  H    0.024677
   170  H    0.016323
   171  H    0.004449
   172  H    0.122609
   173  Ca   1.271970
   174  O   -0.267325
   175  H    0.172198
   176  H    0.161702
 Sum of Mulliken charges =  -0.00000
 Mulliken charges with hydrogens summed into heavy atoms:
               1
     1  C    0.143264
     2  C    0.000135
     3  O   -0.297191
     7  N   -0.028393
     8  C    0.148073
     9  C    0.025342
    10  O   -0.309557
    11  C    0.130371
    12  C    0.152290
    13  O   -0.476739
    14  O   -0.376563
    19  N    0.008063
    20  C    0.164564
    21  C    0.048271
    22  O   -0.341616
    23  C    0.110924
    24  C   -0.056135
    25  C    0.083382
    26  C    0.206198
    27  N    0.618816
    41  N    0.052891
    42  C    0.099873
    43  C    0.058719
    44  O   -0.295925
    45  C    0.198625
    46  C    0.047860
    47  O   -0.439158
    48  O   -0.424728
    53  N   -0.092201
    54  C    0.358700
    55  C   -0.000283
    56  O   -0.304399
    60  N   -0.015938
    61  C    0.203540
    62  C    0.024159
    63  O   -0.309459
    64  C    0.117705
    65  C    0.100106
    66  N    0.211887
    67  O   -0.344628
    74  N   -0.003811
    75  C    0.328592
    76  C    0.021429
    77  O   -0.301116
    81  N   -0.020313
    82  C    0.059027
    83  C    0.170389
    84  O   -0.329656
    85  C    0.095270
    86  C   -0.037620
    87  C   -0.018698
    88  C   -0.001943
    89  C   -0.064929
    90  C   -0.081016
    91  C    0.197228
    92  O   -0.041115
   102  N    0.014071
   103  C    0.200259
   104  C    0.066276
   105  O   -0.300137
   106  C   -0.150945
   107  C    0.034261
   108  C    0.085714
   109  C    0.065891
   121  N    0.043349
   122  C    0.173705
   123  C    0.069033
   124  O   -0.269464
   125  C    0.167159
   126  O   -0.112571
   132  N   -0.020675
   133  C    0.152700
   134  C    0.085795
   135  O   -0.248163
   136  C    0.101695
   142  N   -0.054436
   143  C    0.103058
   144  C    0.054736
   145  O   -0.269635
   146  C    0.111695
   152  N   -0.001092
   153  C    0.114698
   154  C    0.050734
   155  O   -0.272068
   156  C   -0.040427
   157  C    0.080443
   158  C    0.136644
   159  O   -0.456538
   160  O   -0.373823
   167  N   -0.055876
   168  C    0.202827
   173  Ca   1.271970
   174  O    0.066576
 DipInt: DoE/N= T F RetVal/Mat= T F Init=T NMatP=  1 IDeriv=0 Min/MaxMlt=  0  4
 Entering OneElI...
 OneElI was handed  1333951383 working-precision words.
 Multipole integrals L=0 to 4 MinM= 0 MaxM= 0.
 Requested accuracy = 0.1000D-12
 ShPair: Thresh= 1.00D-13 NBox=     0 BxSize= 0.00D+00 RnKept= 2.55D+01
         NSMCal=               327645 NSMKep=              157083
 PrmmSu-InSpLW:  IPartL=    0 NPrtUS=    1 NPrtUL=    1 DoSpLW=F IThBeg=    0 IThEnd=    0 NThAct=    1.
 PrsmSu:  NPrtUS=   1 ThrOK=F IAlg=1 NPAlg=1 LenDen=           0 ISkipM=0 DoSpLW=F IThBeg=    0 IThEnd=    0.
 Prism:   IPart=     0 DynPar=F LinDyn=F Incr=         512.
 PRISM was handed  1324023695 working-precision words and157083 shell-pairs
 IPart=  0 NShTot=      157083 NBatch=         357 AvBLen=       440.0
 PrsmSu-ThDecC:  IPartSL=    0    0 NPrtUSL=    1    1 IThBeg=    0 IThEnd=    0 CPU=   -1 GPU=   -1 NThAct=    1.
 PrSmSu:  NxtVal=            513.
 Electronic moments (au):
       -716.00000000         10.05442759          4.38567283         -6.04449211
     -53714.58860897     -32830.65458143     -11395.76862511         83.63953331
        -17.38725314         21.34758659     -66465.17302558     -51333.14445299
     -20261.50132989       8059.50809969     103961.70192081      48944.32526200
     -13346.79799637       2383.74677282      12888.73666090     -12707.47264204
   -7946690.03734639   -3778071.21287400    -576030.79909728     165221.77155166
     342014.23899212    -915195.81448164      48148.82577369     -74177.69434428
      16547.83499186   -2387379.36122303    -618093.71922175    -284907.77186565
    -216083.81023840       7579.75427063      65520.55061309
 Electronic spatial extent (au):  <R**2>=          97941.0118
 DipInt: DoE/N= F T RetVal/Mat= T F Init=T NMatP=  1 IDeriv=0 Min/MaxMlt=  0  4
 Nuclear    moments (au):
        716.00000000          0.00000000          0.00000000          0.00000000
      53234.45589774      32579.78263791      11032.75565792          0.00000000
          0.00000000          0.00000000      66830.64653588      54670.22903831
      19915.80369873      -5436.27539032    -103898.20055308     -49793.39944335
      13473.22742247      -2480.90400123     -13277.35333712      12583.02315226
    7736480.00787434    3720131.44278092     542021.21803177    -159732.75392412
    -343047.54558999     944013.02742857     -49893.18388342      74857.23963714
     -15100.85546144    2350899.52851730     583999.04186495     259886.83108693
     218679.28801064     -11189.63405603     -66260.84233486
 Total      moments (au):
          0.00000000         10.05442759          4.38567283         -6.04449211
       -480.13271123       -250.87194352       -363.01296720         83.63953331
        -17.38725314         21.34758659        365.47351030       3337.08458532
       -345.69763116       2623.23270937         63.50136773       -849.07418135
        126.42942610        -97.15722842       -388.61667621       -124.44948978
    -210210.02947205     -57939.77009308     -34009.58106551       5489.01762754
      -1033.30659787      28817.21294693      -1744.35810973        679.54529286
       1446.97953042     -36479.83270573     -34094.67735680     -25020.94077872
       2595.47777224      -3609.87978539       -740.29172177
 Traceless Quadrup. (au):
       -115.46017058        113.80059713          1.65957345         83.63953331
        -17.38725314         21.34758659
 Charge=              0.0000 electrons
 Dipole moment (field-independent basis, Debye):
    X=             25.5558    Y=             11.1473    Z=            -15.3636  Tot=             31.8339
 Quadrupole moment (field-independent basis, Debye-Ang):
   XX=           -645.7949   YY=           -337.4314   ZZ=           -488.2649
   XY=            112.4980   XZ=            -23.3865   YZ=             28.7132
 Traceless Quadrupole moment (field-independent basis, Debye-Ang):
   XX=           -155.2979   YY=            153.0657   ZZ=              2.2322
   XY=            112.4980   XZ=            -23.3865   YZ=             28.7132
 Octapole moment (field-independent basis, Debye-Ang**2):
  XXX=            260.1300  YYY=           2375.2082  ZZZ=           -246.0543  XYY=           1867.1160
  XXY=             45.1978  XXZ=           -604.3383  XZZ=             89.9876  YZZ=            -69.1528
  YYZ=           -276.6024  XYZ=            -88.5784
 Hexadecapole moment (field-independent basis, Debye-Ang**3):
 XXXX=         -79175.1770 YYYY=         -21822.8957 ZZZZ=         -12809.6390 XXXY=           2067.4272
 XXXZ=           -389.1928 YYYX=          10853.9442 YYYZ=           -657.0089 ZZZX=            255.9493
 ZZZY=            545.0019 XXYY=         -13740.0543 XXZZ=         -12841.6904 YYZZ=          -9424.0861
 XXYZ=            977.5814 YYXZ=          -1359.6538 ZZXY=           -278.8294
 N-N= 2.151851851682D+04 E-N=-5.552466269492D+04  KE= 5.290501520503D+03
 Leave Link  601 at Wed Sep 18 16:07:28 2019, MaxMem=  1342177280 cpu:              49.4 elap:               1.3
 FitSet:  NAtFit=   176 NAtPot=   176 NAtFrz=     0 MDM=   180 TotChg=   0.00000
 Merz-Kollman atomic radii used.
 Read replacement radii for each type of atom:
 Rad(20) =   1.700000000000D+00
 Atom Element Radius
    1     6    1.50
    2     6    1.50
    3     8    1.40
    4     1    1.20
    5     1    1.20
    6     1    1.20
    7     7    1.50
    8     6    1.50
    9     6    1.50
   10     8    1.40
   11     6    1.50
   12     6    1.50
   13     8    1.40
   14     8    1.40
   15     1    1.20
   16     1    1.20
   17     1    1.20
   18     1    1.20
   19     7    1.50
   20     6    1.50
   21     6    1.50
   22     8    1.40
   23     6    1.50
   24     6    1.50
   25     6    1.50
   26     6    1.50
   27     7    1.50
   28     1    1.20
   29     1    1.20
   30     1    1.20
   31     1    1.20
   32     1    1.20
   33     1    1.20
   34     1    1.20
   35     1    1.20
   36     1    1.20
   37     1    1.20
   38     1    1.20
   39     1    1.20
   40     1    1.20
   41     7    1.50
   42     6    1.50
   43     6    1.50
   44     8    1.40
   45     6    1.50
   46     6    1.50
   47     8    1.40
   48     8    1.40
   49     1    1.20
   50     1    1.20
   51     1    1.20
   52     1    1.20
   53     7    1.50
   54     6    1.50
   55     6    1.50
   56     8    1.40
   57     1    1.20
   58     1    1.20
   59     1    1.20
   60     7    1.50
   61     6    1.50
   62     6    1.50
   63     8    1.40
   64     6    1.50
   65     6    1.50
   66     7    1.50
   67     8    1.40
   68     1    1.20
   69     1    1.20
   70     1    1.20
   71     1    1.20
   72     1    1.20
   73     1    1.20
   74     7    1.50
   75     6    1.50
   76     6    1.50
   77     8    1.40
   78     1    1.20
   79     1    1.20
   80     1    1.20
   81     7    1.50
   82     6    1.50
   83     6    1.50
   84     8    1.40
   85     6    1.50
   86     6    1.50
   87     6    1.50
   88     6    1.50
   89     6    1.50
   90     6    1.50
   91     6    1.50
   92     8    1.40
   93     1    1.20
   94     1    1.20
   95     1    1.20
   96     1    1.20
   97     1    1.20
   98     1    1.20
   99     1    1.20
  100     1    1.20
  101     1    1.20
  102     7    1.50
  103     6    1.50
  104     6    1.50
  105     8    1.40
  106     6    1.50
  107     6    1.50
  108     6    1.50
  109     6    1.50
  110     1    1.20
  111     1    1.20
  112     1    1.20
  113     1    1.20
  114     1    1.20
  115     1    1.20
  116     1    1.20
  117     1    1.20
  118     1    1.20
  119     1    1.20
  120     1    1.20
  121     7    1.50
  122     6    1.50
  123     6    1.50
  124     8    1.40
  125     6    1.50
  126     8    1.40
  127     1    1.20
  128     1    1.20
  129     1    1.20
  130     1    1.20
  131     1    1.20
  132     7    1.50
  133     6    1.50
  134     6    1.50
  135     8    1.40
  136     6    1.50
  137     1    1.20
  138     1    1.20
  139     1    1.20
  140     1    1.20
  141     1    1.20
  142     7    1.50
  143     6    1.50
  144     6    1.50
  145     8    1.40
  146     6    1.50
  147     1    1.20
  148     1    1.20
  149     1    1.20
  150     1    1.20
  151     1    1.20
  152     7    1.50
  153     6    1.50
  154     6    1.50
  155     8    1.40
  156     6    1.50
  157     6    1.50
  158     6    1.50
  159     8    1.40
  160     8    1.40
  161     1    1.20
  162     1    1.20
  163     1    1.20
  164     1    1.20
  165     1    1.20
  166     1    1.20
  167     7    1.50
  168     6    1.50
  169     1    1.20
  170     1    1.20
  171     1    1.20
  172     1    1.20
  173    20    1.70
  174     8    1.40
[...]
 **** Fit      -0.009939
 **** Fit      -0.010214
 **** Fit      -0.011010
 **** Fit      -0.012529
 **** Fit      -0.013938
 **** Fit      -0.009676
 **** Fit      -0.009273
 **** Fit      -0.009218
 **** Fit      -0.009571
 **** Fit      -0.010286
 **** Fit      -0.011291
 **** Fit      -0.012929
 **** Fit      -0.014441
 **** Fit      -0.016137
 **** Fit      -0.010230
 **** Fit      -0.009482
 **** Fit      -0.008849
 **** Fit      -0.008478
 **** Fit      -0.008489
 **** Fit      -0.008888
 **** Fit      -0.009595
 **** Fit      -0.010522
 **** Fit      -0.011630
 **** Fit      -0.013386
 **** Fit      -0.014865
 **** Fit      -0.016608
 **** Fit      -0.018594
 **** Fit      -0.020714
 **** Fit      -0.010885
 **** Fit      -0.010026
 **** Fit      -0.009178
 **** Fit      -0.008364
 **** Fit      -0.009134
 **** Fit      -0.010039
 **** Fit      -0.011035
 **** Fit      -0.012133
 **** Fit      -0.013905
 **** Fit      -0.019482
 **** Fit      -0.022063
 **** Fit      -0.024893
 **** Fit      -0.008536
 **** Fit      -0.009531
 **** Fit      -0.010552
 **** Fit      -0.011583
 **** Fit      -0.012670
 **** Fit      -0.026450
 **** Fit      -0.030255
 **** Fit      -0.009142
 **** Fit      -0.010277
 **** Fit      -0.011337
 **** Fit      -0.012335
 **** Fit      -0.032703
 **** Fit      -0.038079
 **** Fit      -0.010037
 **** Fit      -0.011279
 **** Fit      -0.012349
 **** Fit      -0.011436
 **** Fit      -0.012732
 **** Fit      -0.011558
 **** Fit      -0.013305
 **** Fit      -0.013519
 **** Fit      -0.015671
 **** Fit      -0.016593
 **** Fit      -0.019264
 **** Fit      -0.021484
 **** Fit      -0.024815
 **** Fit      -0.014687
 **** Fit      -0.016316
 **** Fit      -0.014951
 **** Fit      -0.016450
 **** Fit      -0.018393
 **** Fit      -0.020846
 **** Fit      -0.012835
 **** Fit      -0.013786
 **** Fit      -0.015453
 **** Fit      -0.016865
 **** Fit      -0.018724
 **** Fit      -0.021149
 **** Fit      -0.024252
 **** Fit      -0.028091
 **** Fit      -0.012689
 **** Fit      -0.013485
 **** Fit      -0.014366
 **** Fit      -0.016292
 **** Fit      -0.017596
 **** Fit      -0.019321
 **** Fit      -0.021596
 **** Fit      -0.024574
 **** Fit      -0.028441
 **** Fit      -0.033390
 **** Fit      -0.013042
 **** Fit      -0.013779
 **** Fit      -0.014493
 **** Fit      -0.015294
 **** Fit      -0.017575
 **** Fit      -0.018846
 **** Fit      -0.020563
 **** Fit      -0.022867
 **** Fit      -0.025940
 **** Fit      -0.030041
 **** Fit      -0.035536
 **** Fit      -0.014552
 **** Fit      -0.015240
 **** Fit      -0.015891
 **** Fit      -0.016629
 **** Fit      -0.019432
 **** Fit      -0.020637
 **** Fit      -0.022306
 **** Fit      -0.024575
 **** Fit      -0.027628
 **** Fit      -0.031739
 **** Fit      -0.037344
 **** Fit      -0.016048
 **** Fit      -0.016817
 **** Fit      -0.017396
 **** Fit      -0.017934
 **** Fit      -0.018570
 **** Fit      -0.022021
 **** Fit      -0.023160
 **** Fit      -0.024813
 **** Fit      -0.027111
 **** Fit      -0.030236
 **** Fit      -0.034463
 **** Fit      -0.040260
 **** Fit      -0.019428
 **** Fit      -0.020056
 **** Fit      -0.020448
 **** Fit      -0.020798
 **** Fit      -0.021275
 **** Fit      -0.025540
 **** Fit      -0.026628
 **** Fit      -0.028366
 **** Fit      -0.030894
 **** Fit      -0.034399
 **** Fit      -0.039188
 **** Fit      -0.045813
 **** Fit      -0.024374
 **** Fit      -0.024762
 **** Fit      -0.024799
 **** Fit      -0.024789
 **** Fit      -0.024975
 **** Fit      -0.030241
 **** Fit      -0.031217
 **** Fit      -0.033090
 **** Fit      -0.035989
 **** Fit      -0.040091
 **** Fit      -0.045699
 **** Fit      -0.031215
 **** Fit      -0.030439
 **** Fit      -0.030035
 **** Fit      -0.036422
 **** Fit      -0.037121
 **** Fit      -0.039079
 **** Fit      -0.042365
 **** Fit      -0.047059
 **** Fit      -0.053295
 **** Fit      -0.036903
 **** Fit      -0.044611
 **** Fit      -0.046888
 **** Fit      -0.051091
 **** Fit      -0.012472
 **** Fit      -0.012771
 **** Fit      -0.013819
 **** Fit      -0.013579
 **** Fit      -0.012367
 **** Fit      -0.011519
 **** Fit      -0.011682
 **** Fit      -0.013250
 **** Fit      -0.014629
 **** Fit      -0.015660
 **** Fit      -0.015869
 **** Fit      -0.015122
 **** Fit      -0.013817
 **** Fit      -0.012486
 **** Fit      -0.011465
 **** Fit      -0.010885
 **** Fit      -0.010750
 **** Fit      -0.011103
 **** Fit      -0.011976
 **** Fit      -0.013901
 **** Fit      -0.015444
 **** Fit      -0.016944
 **** Fit      -0.018127
 **** Fit      -0.018670
 **** Fit      -0.018352
 **** Fit      -0.017255
 **** Fit      -0.015766
 **** Fit      -0.014253
 **** Fit      -0.012886
 **** Fit      -0.011781
 **** Fit      -0.011004
 **** Fit      -0.010519
 **** Fit      -0.010268
 **** Fit      -0.016482
 **** Fit      -0.018343
 **** Fit      -0.020135
 **** Fit      -0.021605
 **** Fit      -0.022435
 **** Fit      -0.022352
 **** Fit      -0.021302
 **** Fit      -0.019581
 **** Fit      -0.017709
 **** Fit      -0.015988
 **** Fit      -0.014409
 **** Fit      -0.013006
 **** Fit      -0.011893
 **** Fit      -0.011103
 **** Fit      -0.010551
 **** Fit      -0.022376
 **** Fit      -0.024674
 **** Fit      -0.026593
 **** Fit      -0.027745
 **** Fit      -0.027775
 **** Fit      -0.026551
 **** Fit      -0.024331
 **** Fit      -0.017717
 **** Fit      -0.015899
 **** Fit      -0.014225
 **** Fit      -0.012872
 **** Fit      -0.011881
 **** Fit      -0.011157
 **** Fit      -0.027838
 **** Fit      -0.030901
 **** Fit      -0.033534
 **** Fit      -0.035236
 **** Fit      -0.035537
 **** Fit      -0.034218
 **** Fit      -0.031487
 **** Fit      -0.020411
 **** Fit      -0.018178
 **** Fit      -0.016140
 **** Fit      -0.014535
 **** Fit      -0.036642
 **** Fit      -0.021356
 **** Fit      -0.029420
 **** Fit      -0.008192
 **** Fit      -0.007720
 **** Fit      -0.007895
 **** Fit      -0.008595
 **** Fit      -0.007665
 **** Fit      -0.007034
 **** Fit      -0.006848
 **** Fit      -0.007165
 **** Fit      -0.009931
 **** Fit      -0.008767
 **** Fit      -0.007689
 **** Fit      -0.006780
 **** Fit      -0.006201
 **** Fit      -0.006076
 **** Fit      -0.006435
 **** Fit      -0.007207
 **** Fit      -0.008630
 **** Fit      -0.007331
 **** Fit      -0.006236
 **** Fit      -0.005532
 **** Fit      -0.005331
 **** Fit      -0.005660
 **** Fit      -0.006453
 **** Fit      -0.007580
 **** Fit      -0.008713
 **** Fit      -0.007068
 **** Fit      -0.005739
 **** Fit      -0.004886
 **** Fit      -0.004603
 **** Fit      -0.004905
 **** Fit      -0.005729
 **** Fit      -0.006949
 **** Fit      -0.008402
 **** Fit      -0.008093
 **** Fit      -0.006114
 **** Fit      -0.004681
 **** Fit      -0.003931
 **** Fit      -0.003922
 **** Fit      -0.004618
 **** Fit      -0.005896
 **** Fit      -0.007571
 **** Fit      -0.009432
 **** Fit      -0.007016
 **** Fit      -0.004831
 **** Fit      -0.003427
 **** Fit      -0.002937
 **** Fit      -0.003374
 **** Fit      -0.004629
 **** Fit      -0.006501
 **** Fit      -0.008742
 **** Fit      -0.011088
 **** Fit      -0.009867
 **** Fit      -0.006400
 **** Fit      -0.003718
 **** Fit      -0.002138
 **** Fit      -0.001825
 **** Fit      -0.002746
 **** Fit      -0.004692
 **** Fit      -0.007349
 **** Fit      -0.010370
 **** Fit      -0.003866
 **** Fit      -0.001277
 **** Fit      -0.004012
 **** Fit      -0.007806
 **** Fit      -0.012093
 **** Fit      -0.013988
 **** Fit       0.001380
 **** Fit       0.006086
 **** Fit       0.014604
 **** Fit       0.011359
 **** Fit       0.006046
 **** Fit       0.017764
 **** Fit       0.015278
 **** Fit       0.011624
 **** Fit       0.020558
 **** Fit       0.012160
 **** Fit       0.018744
 **** Fit       0.017313
 **** Fit       0.016443
 **** Fit       0.015421
 **** Fit       0.013530
 **** Fit      -0.017788
 **** Fit      -0.025941
 **** Fit       0.020512
 **** Fit       0.018804
 **** Fit       0.018575
 **** Fit       0.019182
 **** Fit      -0.015342
 **** Fit      -0.023931
 **** Fit       0.020875
 **** Fit       0.020037
 **** Fit       0.020655
 **** Fit       0.022290
 **** Fit      -0.013849
 **** Fit      -0.021046
 **** Fit       0.021853
 **** Fit       0.021511
 **** Fit       0.022532
 **** Fit      -0.004800
 **** Fit      -0.010483
 **** Fit      -0.014996
 **** Fit      -0.017801
 **** Fit       0.023599
 **** Fit       0.022841
 **** Fit       0.023002
 **** Fit       0.024288
 **** Fit       0.001923
 **** Fit      -0.002444
 **** Fit      -0.005361
 **** Fit      -0.006552
 **** Fit       0.024572
 **** Fit       0.024438
 **** Fit       0.024105
 **** Fit       0.024179
 **** Fit       0.025105
 **** Fit       0.027061
 **** Fit       0.007644
 **** Fit       0.004767
 **** Fit       0.025712
 **** Fit       0.025580
 **** Fit       0.025922
 **** Fit       0.027091
 **** Fit       0.016303
 **** Fit       0.013415
 **** Fit       0.027937
 **** Fit       0.029111
 **** Fit       0.030677
 **** Fit       0.032970
 **** Fit      -0.009776
 **** Fit      -0.006181
 **** Fit      -0.001311
 **** Fit       0.003953
 **** Fit      -0.003855
 **** Fit      -0.004763
 **** Fit      -0.004694
 **** Fit      -0.004261
 **** Fit      -0.003866
 **** Fit      -0.003484
 **** Fit      -0.002710
 **** Fit      -0.001055
 **** Fit       0.001705
 **** Fit       0.005375
 **** Fit       0.009458
 **** Fit       0.013417
 **** Fit       0.016914
 **** Fit       0.024083
 **** Fit       0.005996
 **** Fit       0.003904
 **** Fit       0.002914
 **** Fit       0.002646
 **** Fit       0.002786
 **** Fit       0.003212
 **** Fit       0.004032
 **** Fit       0.005462
 **** Fit       0.007634
 **** Fit       0.010456
 **** Fit       0.013635
 **** Fit       0.016805
 **** Fit       0.019673
 **** Fit       0.022074
 **** Fit       0.023929
 **** Fit       0.025208
 **** Fit       0.026058
 **** Fit       0.017486
 **** Fit       0.013492
 **** Fit       0.010858
 **** Fit       0.009364
 **** Fit       0.008724
 **** Fit       0.008701
 **** Fit       0.009195
 **** Fit       0.010248
 **** Fit       0.011927
 **** Fit       0.014185
 **** Fit       0.016805
 **** Fit       0.019476
 **** Fit       0.021910
 **** Fit       0.023927
 **** Fit       0.025486
 **** Fit       0.026717
 **** Fit       0.027962
 **** Fit       0.023690
 **** Fit       0.019547
 **** Fit       0.016570
 **** Fit       0.014725
 **** Fit       0.013836
 **** Fit       0.013719
 **** Fit       0.014272
 **** Fit       0.015462
 **** Fit       0.017222
 **** Fit       0.019366
 **** Fit       0.021616
 **** Fit       0.023704
 **** Fit       0.025483
 **** Fit       0.026994
 **** Fit       0.028474
 **** Fit       0.030286
 **** Fit       0.032703
 **** Fit       0.031680
 **** Fit       0.027747
 **** Fit       0.023840
 **** Fit       0.020773
 **** Fit       0.018832
 **** Fit       0.017975
 **** Fit       0.018064
 **** Fit       0.018967
 **** Fit       0.020518
 **** Fit       0.022447
 **** Fit       0.024435
 **** Fit       0.026269
 **** Fit       0.027961
 **** Fit       0.029728
 **** Fit       0.031754
 **** Fit       0.033807
 **** Fit       0.029919
 **** Fit       0.026643
 **** Fit       0.023607
 **** Fit       0.021822
 **** Fit       0.021491
 **** Fit       0.022402
 **** Fit       0.024123
 **** Fit       0.026126
 **** Fit       0.028095
 **** Fit       0.030009
 **** Fit       0.031588
 **** Fit       0.031824
 **** Fit       0.028410
 **** Fit       0.025647
 **** Fit       0.024432
 **** Fit       0.025616
 **** Fit       0.027804
 **** Fit       0.029360
 **** Fit       0.027014
 **** Fit       0.008868
 **** Fit      -0.016520
 **** Fit       0.018194
 **** Fit       0.017514
 **** Fit       0.010138
 **** Fit       0.005040
 **** Fit       0.000199
 **** Fit      -0.005088
 **** Fit      -0.011579
 **** Fit       0.022890
 **** Fit       0.024374
 **** Fit       0.025530
 **** Fit       0.026182
 **** Fit       0.019667
 **** Fit       0.014346
 **** Fit       0.009229
 **** Fit       0.003976
 **** Fit      -0.001847
 **** Fit      -0.008579
 **** Fit       0.024814
 **** Fit       0.026960
 **** Fit       0.029130
 **** Fit       0.031161
 **** Fit       0.032833
 **** Fit       0.033702
 **** Fit       0.025125
 **** Fit       0.025364
 **** Fit       0.020381
 **** Fit       0.015441
 **** Fit       0.010427
 **** Fit       0.005125
 **** Fit      -0.000582
 **** Fit       0.026822
 **** Fit       0.029069
 **** Fit       0.031424
 **** Fit       0.033702
 **** Fit       0.035633
 **** Fit       0.036759
 **** Fit       0.036417
 **** Fit       0.034134
 **** Fit       0.030174
 **** Fit       0.028617
 **** Fit       0.024225
 **** Fit       0.019722
 **** Fit       0.015148
 **** Fit       0.010478
 **** Fit       0.005789
 **** Fit       0.027897
 **** Fit       0.029921
 **** Fit       0.032130
 **** Fit       0.034315
 **** Fit       0.036193
 **** Fit       0.037360
 **** Fit       0.037314
 **** Fit       0.035699
 **** Fit       0.032622
 **** Fit       0.030423
 **** Fit       0.026752
 **** Fit       0.022883
 **** Fit       0.018968
 **** Fit       0.015133
 **** Fit       0.011621
 **** Fit       0.028957
 **** Fit       0.030530
 **** Fit       0.032369
 **** Fit       0.034248
 **** Fit       0.035890
 **** Fit       0.036950
 **** Fit       0.037051
 **** Fit       0.035931
 **** Fit       0.033615
 **** Fit       0.031396
 **** Fit       0.028228
 **** Fit       0.024842
 **** Fit       0.021507
 **** Fit       0.018536
 **** Fit       0.016407
 **** Fit       0.030583
 **** Fit       0.031816
 **** Fit       0.033346
 **** Fit       0.034856
 **** Fit       0.035993
 **** Fit       0.036388
 **** Fit       0.035752
 **** Fit       0.034019
 **** Fit       0.031903
 **** Fit       0.029261
 **** Fit       0.026467
 **** Fit       0.023937
 **** Fit       0.022193
 **** Fit       0.021928
 **** Fit       0.032009
 **** Fit       0.032803
 **** Fit       0.033926
 **** Fit       0.034969
 **** Fit       0.035523
 **** Fit       0.035251
 **** Fit       0.034004
 **** Fit       0.032179
 **** Fit       0.029990
 **** Fit       0.027851
 **** Fit       0.026459
 **** Fit       0.026615
 **** Fit       0.033238
 **** Fit       0.033360
 **** Fit       0.034008
 **** Fit       0.034619
 **** Fit       0.034677
 **** Fit       0.033859
 **** Fit       0.032402
 **** Fit       0.030654
 **** Fit       0.029595
 **** Fit       0.030407
 **** Fit       0.033982
 **** Fit       0.033929
 **** Fit       0.034121
 **** Fit       0.033723
 **** Fit       0.032732
 **** Fit       0.031875
 **** Fit       0.033179
 **** Fit       0.034440
 **** Fit       0.034032
 **** Fit       0.033675
 **** Fit       0.033342
 -----------------------------------------------------------------
 Leave Link  602 at Wed Sep 18 16:07:31 2019, MaxMem=  1342177280 cpu:             106.7 elap:               2.3

 Test job not archived.
 1\1\GINC-C488-002\SP\RB3LYP\SVP\C54H83Ca1N15O23\JAEBEOMH\18-Sep-2019\0
 \\#b3lyp/svp scf=(tight,noincore) Test #IOP(5/87=12) Density=Current P
 op=(MK,readradii) iop(6/33=2) iop(6/42=6)\\CaMKII_loop3_40.0\\0,1\C,0,
 75.55,41.99,24.09\C,0,74.34,41.19,24.54\O,0,74.51,39.99,24.77\H,0,76.3
 93,41.317,23.937\H,0,75.32,42.503,23.156\H,0,75.806,42.724,24.854\N,0,
 73.15,41.72,24.78\C,0,72.,40.99,25.28\C,0,71.39,40.21,24.12\O,0,70.75,
 40.77,23.23\C,0,71.02,41.86,26.06\C,0,70.02,40.96,26.76\O,0,70.06,39.7
 2,26.55\O,0,69.09,41.45,27.44\H,0,72.98,42.63,24.37\H,0,72.49,40.28,25
 .94\H,0,70.57,42.7,25.52\H,0,71.61,42.28,26.87\N,0,71.56,38.89,24.08\C
 ,0,71.11,38.01,23.02\C,0,69.63,37.64,23.1\O,0,69.24,36.89,22.2\C,0,72.
 12,36.92,22.7\C,0,72.26,36.53,21.23\C,0,73.44,35.56,21.11\C,0,73.8,35.
 4,19.63\N,0,72.59,35.07,18.86\H,0,72.02,38.47,24.87\H,0,71.05,38.62,22
 .11\H,0,71.78,36.04,23.25\H,0,73.08,37.12,23.18\H,0,72.54,37.44,20.71\
 H,0,71.33,36.24,20.74\H,0,73.14,34.62,21.58\H,0,74.31,35.88,21.67\H,0,
 74.53,34.6,19.57\H,0,74.12,36.34,19.18\H,0,72.26,34.11,18.9\H,0,71.85,
 35.71,19.1\H,0,72.75,35.28,17.88\N,0,68.84,38.18,24.02\C,0,67.43,37.91
 ,24.22\C,0,66.65,39.15,24.63\O,0,65.43,39.2,24.46\C,0,67.27,36.71,25.1
 5\C,0,68.18,36.74,26.37\O,0,67.75,37.28,27.42\O,0,69.38,36.38,26.32\H,
 0,69.31,38.78,24.68\H,0,67.07,37.64,23.23\H,0,67.68,35.93,24.51\H,0,66
 .24,36.63,25.49\N,0,67.23,40.17,25.27\C,0,66.6,41.45,25.51\C,0,65.96,4
 1.45,26.9\O,0,65.26,42.38,27.28\H,0,68.18,39.98,25.56\H,0,65.87,41.6,2
 4.72\H,0,67.42,42.17,25.49\N,0,66.18,40.45,27.76\C,0,65.71,40.52,29.12
 \C,0,66.4,41.48,30.08\O,0,65.92,41.64,31.2\C,0,65.74,39.09,29.66\C,0,6
 7.06,38.65,30.29\N,0,66.94,37.92,31.4\O,0,68.19,38.95,29.9\H,0,66.79,3
 9.76,27.35\H,0,64.72,40.98,29.1\H,0,65.44,38.37,28.9\H,0,64.92,38.9,30
 .35\H,0,66.02,37.72,31.76\H,0,67.8,37.54,31.77\N,0,67.4,42.24,29.63\C,
 0,68.03,43.33,30.34\C,0,69.32,42.88,31.02\O,0,70.,43.71,31.62\H,0,67.9
 1,41.82,28.87\H,0,67.38,43.75,31.11\H,0,68.25,44.11,29.61\N,0,69.85,41
 .68,30.79\C,0,71.01,41.04,31.38\C,0,71.97,40.53,30.32\O,0,71.56,39.78,
 29.45\C,0,70.71,40.1,32.55\C,0,69.76,40.6,33.61\C,0,70.32,41.07,34.8\C
 ,0,68.39,40.68,33.34\C,0,69.48,41.65,35.76\C,0,67.59,41.3,34.31\C,0,68
 .11,41.82,35.51\O,0,67.33,42.2,36.57\H,0,69.46,41.1,30.06\H,0,71.52,41
 .83,31.93\H,0,71.65,39.78,32.99\H,0,70.31,39.23,32.02\H,0,71.4,41.08,3
 4.85\H,0,68.01,40.34,32.39\H,0,69.92,41.99,36.69\H,0,66.51,41.35,34.22
 \H,0,66.39,42.23,36.4\N,0,73.25,40.74,30.64\C,0,74.38,40.09,30.\C,0,74
 .91,39.06,30.98\O,0,75.31,39.35,32.11\C,0,75.47,41.13,29.75\C,0,75.07,
 42.28,28.83\C,0,76.86,40.58,29.44\C,0,76.,43.48,28.65\H,0,73.49,41.37,
 31.39\H,0,74.04,39.64,29.07\H,0,75.76,41.55,30.71\H,0,74.2,42.67,29.36
 \H,0,74.77,41.84,27.88\H,0,77.55,41.4,29.24\H,0,77.21,39.89,30.2\H,0,7
 6.8,39.98,28.53\H,0,76.32,43.87,29.62\H,0,76.89,43.17,28.1\H,0,75.54,4
 4.29,28.09\N,0,75.19,37.83,30.54\C,0,75.88,36.77,31.26\C,0,77.23,36.41
 ,30.64\O,0,77.6,37.05,29.66\C,0,75.01,35.52,31.25\O,0,74.7,35.15,29.92
 \H,0,74.93,37.63,29.59\H,0,76.07,36.99,32.31\H,0,74.05,35.6,31.77\H,0,
 75.52,34.7,31.75\H,0,74.42,34.23,29.98\N,0,78.02,35.49,31.18\C,0,79.36
 ,35.23,30.68\C,0,79.34,34.49,29.36\O,0,80.1,34.73,28.42\C,0,80.01,34.4
 ,31.78\H,0,77.6,34.88,31.86\H,0,79.83,36.21,30.61\H,0,80.99,34.13,31.3
 8\H,0,80.04,34.78,32.81\H,0,79.43,33.49,31.9\N,0,78.39,33.58,29.1\C,0,
 78.18,33.01,27.79\C,0,77.84,33.98,26.67\O,0,78.34,33.93,25.54\C,0,77.1
 ,31.93,27.84\H,0,77.84,33.17,29.85\H,0,79.16,32.59,27.56\H,0,76.81,31.
 72,26.81\H,0,77.52,31.06,28.34\H,0,76.32,32.33,28.49\N,0,76.9,34.88,26
 .91\C,0,76.6,36.,26.03\C,0,77.76,36.93,25.73\O,0,78.03,37.33,24.6\C,0,
 75.53,36.86,26.71\C,0,74.11,36.31,26.58\C,0,72.97,37.1,27.21\O,0,72.56
 ,36.74,28.33\O,0,72.41,38.04,26.61\H,0,76.53,34.99,27.84\H,0,76.19,35.
 75,25.05\H,0,75.59,37.89,26.37\H,0,75.78,36.95,27.77\H,0,74.05,35.25,2
 6.8\H,0,73.88,36.37,25.51\N,0,78.52,37.25,26.79\C,0,79.69,38.1,26.7\H,
 0,80.512,37.54,26.254\H,0,79.463,38.967,26.08\H,0,79.977,38.432,27.698
 \H,0,78.16,36.96,27.68\Ca,0,70.19,37.83,28.27\O,0,69.38,35.19,29.09\H,
 0,68.51,34.78,29.09\H,0,69.98,34.48,29.32\\Version=ES64L-G16RevA.03\St
 ate=1-A\HF=-5333.5573922\RMSD=5.223e-09\Dipole=4.9437411,-10.3950301,-
 4.9360205\Quadrupole=-137.5324521,-1.361381,138.8938331,34.9314587,-5.
 2796734,23.3120897\PG=C01 [X(C54H83Ca1N15O23)]\\@


      TO SUSPECT YOUR OWN MORTALITY IS TO KNOW THE BEGINNING OF TERROR.
      TO LEARN IRREFUTABLY THAT YOU ARE MORTAL IS TO KNOW THE END
      OF TERROR.

                                                  -- JESSICA
                                                     CHILDREN OF DUNE
                                                     BY FRANK HERBERT
 Job cpu time:       0 days  7 hours  5 minutes 16.8 seconds.
 Elapsed time:       0 days  0 hours  8 minutes 57.8 seconds.
 File lengths (MBytes):  RWF=   1517 Int=      0 D2E=      0 Chk=    171 Scr=      1
 Normal termination of Gaussian 16 at Wed Sep 18 16:07:32 2019.
