 Entering Gaussian System, Link 0=g16
 Initial command:
 /home1/apps/gaussian/16rA.03/g16/l1.exe "/scratch/04905/jaebeomh/4356901/Gau-234391.inp" -scrdir="/scratch/04905/jaebeomh/4356901/"
 Entering Link 1 = /home1/apps/gaussian/16rA.03/g16/l1.exe PID=    234392.
  
 Copyright (c) 1988,1990,1992,1993,1995,1998,2003,2009,2016,
            Gaussian, Inc.  All Rights Reserved.
  
 This is part of the Gaussian(R) 16 program.  It is based on
 the Gaussian(R) 09 system (copyright 2009, Gaussian, Inc.),
 the Gaussian(R) 03 system (copyright 2003, Gaussian, Inc.),
 the Gaussian(R) 98 system (copyright 1998, Gaussian, Inc.),
 the Gaussian(R) 94 system (copyright 1995, Gaussian, Inc.),
 the Gaussian 92(TM) system (copyright 1992, Gaussian, Inc.),
 the Gaussian 90(TM) system (copyright 1990, Gaussian, Inc.),
 the Gaussian 88(TM) system (copyright 1988, Gaussian, Inc.),
 the Gaussian 86(TM) system (copyright 1986, Carnegie Mellon
 University), and the Gaussian 82(TM) system (copyright 1983,
 Carnegie Mellon University). Gaussian is a federally registered
 trademark of Gaussian, Inc.
  
 This software contains proprietary and confidential information,
 including trade secrets, belonging to Gaussian, Inc.
  
 This software is provided under written license and may be
 used, copied, transmitted, or stored only in accord with that
 written license.
  
 The following legend is applicable only to US Government
 contracts under FAR:
  
                    RESTRICTED RIGHTS LEGEND
  
 Use, reproduction and disclosure by the US Government is
 subject to restrictions as set forth in subparagraphs (a)
 and (c) of the Commercial Computer Software - Restricted
 Rights clause in FAR 52.227-19.
  
 Gaussian, Inc.
 340 Quinnipiac St., Bldg. 40, Wallingford CT 06492
  
  
 ---------------------------------------------------------------
 Warning -- This program may not be used in any manner that
 competes with the business of Gaussian, Inc. or will provide
 assistance to any competitor of Gaussian, Inc.  The licensee
 of this program is prohibited from giving any competitor of
 Gaussian, Inc. access to this program.  By using this program,
 the user acknowledges that Gaussian, Inc. is engaged in the
 business of creating and licensing software in the field of
 computational chemistry and represents and warrants to the
 licensee that it is not a competitor of Gaussian, Inc. and that
 it will not use this program in any manner prohibited above.
 ---------------------------------------------------------------
  

 Cite this work as:
 Gaussian 16, Revision A.03,
 M. J. Frisch, G. W. Trucks, H. B. Schlegel, G. E. Scuseria, 
 M. A. Robb, J. R. Cheeseman, G. Scalmani, V. Barone, 
 G. A. Petersson, H. Nakatsuji, X. Li, M. Caricato, A. V. Marenich, 
 J. Bloino, B. G. Janesko, R. Gomperts, B. Mennucci, H. P. Hratchian, 
 J. V. Ortiz, A. F. Izmaylov, J. L. Sonnenberg, D. Williams-Young, 
 F. Ding, F. Lipparini, F. Egidi, J. Goings, B. Peng, A. Petrone, 
 T. Henderson, D. Ranasinghe, V. G. Zakrzewski, J. Gao, N. Rega, 
 G. Zheng, W. Liang, M. Hada, M. Ehara, K. Toyota, R. Fukuda, 
 J. Hasegawa, M. Ishida, T. Nakajima, Y. Honda, O. Kitao, H. Nakai, 
 T. Vreven, K. Throssell, J. A. Montgomery, Jr., J. E. Peralta, 
 F. Ogliaro, M. J. Bearpark, J. J. Heyd, E. N. Brothers, K. N. Kudin, 
 V. N. Staroverov, T. A. Keith, R. Kobayashi, J. Normand, 
 K. Raghavachari, A. P. Rendell, J. C. Burant, S. S. Iyengar, 
 J. Tomasi, M. Cossi, J. M. Millam, M. Klene, C. Adamo, R. Cammi, 
 J. W. Ochterski, R. L. Martin, K. Morokuma, O. Farkas, 
 J. B. Foresman, and D. J. Fox, Gaussian, Inc., Wallingford CT, 2016.
 
 ******************************************
 Gaussian 16:  ES64L-G16RevA.03 25-Dec-2016
                18-Sep-2019 
 ******************************************
 %chk=CaMKII_loop3_51.0.chk
 %nprocshared=48
 Will use up to   48 processors via shared memory.
 %mem=10GB
 %nosave
 ----------------------------------------------------------------------
 #b3lyp/svp scf=(tight,noincore) Test #IOP(5/87=12) Density=Current Pop
 =(MK,readradii) iop(6/33=2) iop(6/42=6)
 ----------------------------------------------------------------------
 1/30=1,38=1,172=1/1;
 2/12=2,17=6,18=5,40=1/2;
 3/5=18,7=101,11=2,25=1,30=1,74=-5/1,2,3;
 4//1;
 5/5=4,32=2,38=5,87=12/2;
 6/7=2,8=2,9=2,10=2,15=8,20=101,22=-1,28=1,33=2,42=6/1,2;
 99/5=1,9=1/99;
 -----------------
 CaMKII_loop3_51.0
 -----------------
 Symbolic Z-matrix:
 Charge =  0 Multiplicity = 1
 C                     79.63     58.77     19.91 
 C                     79.29     57.4      19.36 
 O                     80.23     56.67     19.04 
 H                     80.531    59.143    19.423 
 H                     78.804    59.455    19.718 
 H                     79.801    58.699    20.984 
 N                     78.06     56.89     19.19 
 C                     77.75     55.65     18.51 
 C                     77.71     55.75     16.99 
 O                     76.72     56.08     16.35 
 C                     76.44     55.04     19. 
 C                     76.27     53.62     18.51 
 O                     75.18     53.11     18.85 
 O                     77.14     53.09     17.77 
 H                     77.26     57.45     19.45 
 H                     78.54     54.93     18.72 
 H                     75.68     55.77     18.72 
 H                     76.49     55.03     20.09 
 N                     78.79     55.39     16.3 
 C                     79.09     55.48     14.89 
 C                     78.21     54.73     13.9 
 O                     77.8      55.2      12.83 
 C                     80.57     55.2      14.66 
 C                     81.13     55.63     13.31 
 C                     82.65     55.7      13.17 
 C                     83.06     56.08     11.75 
 N                     84.51     56.23     11.58 
 H                     79.51     54.91     16.83 
 H                     78.93     56.52     14.57 
 H                     80.84     54.17     14.93 
 H                     81.02     55.81     15.45 
 H                     80.68     56.59     13.04 
 H                     80.84     54.89     12.56 
 H                     83.07     54.71     13.34 
 H                     83.09     56.39     13.89 
 H                     82.57     57.03     11.56 
 H                     82.73     55.3      11.06 
 H                     84.91     56.89     12.23 
 H                     84.96     55.32     11.58 
 H                     84.56     56.57     10.63 
 N                     77.85     53.52     14.32 
 C                     77.02     52.61     13.56 
 C                     75.59     52.54     14.08 
 O                     74.78     51.92     13.4 
 C                     77.65     51.23     13.68 
 C                     77.86     50.77     15.12 
 O                     76.91     50.68     15.92 
 O                     79.03     50.58     15.51 
 H                     78.2      53.3      15.24 
 H                     77.05     52.87     12.5 
 H                     78.58     51.22     13.1 
 H                     77.01     50.51     13.18 
 N                     75.36     53.21     15.22 
 C                     74.08     53.56     15.8 
 C                     73.47     52.39     16.56 
 O                     72.32     52.48     17. 
 H                     76.14     53.75     15.55 
 H                     73.35     53.94     15.09 
 H                     74.23     54.45     16.41 
 N                     74.11     51.23     16.65 
 C                     73.59     49.99     17.2 
 C                     73.17     50.03     18.67 
 O                     72.75     48.95     19.1 
 C                     74.57     48.85     16.94 
 C                     75.74     48.73     17.91 
 N                     76.45     47.62     17.73 
 O                     76.23     49.64     18.58 
 H                     75.05     51.25     16.28 
 H                     72.73     49.77     16.56 
 H                     74.98     48.85     15.93 
 H                     73.99     47.93     17.05 
 H                     76.13     47.07     16.94 
 H                     77.19     47.45     18.39 
 N                     73.36     51.07     19.48 
 C                     73.15     51.22     20.91 
 C                     74.32     51.24     21.88 
 O                     74.07     51.32     23.09 
 H                     73.76     51.91     19.08 
 H                     72.53     50.38     21.23 
 H                     72.67     52.16     21.17 
 N                     75.57     51.13     21.43 
 C                     76.71     50.94     22.3 
 C                     77.97     51.59     21.75 
 O                     78.25     51.56     20.55 
 C                     76.99     49.44     22.33 
 C                     75.85     48.57     22.8 
 C                     75.53     48.5      24.16 
 C                     74.99     47.99     21.86 
 C                     74.4      47.8      24.6 
 C                     73.89     47.29     22.34 
 C                     73.57     47.1      23.7 
 O                     72.48     46.35     24.01 
 H                     75.6      50.99     20.43 
 H                     76.61     51.4      23.29 
 H                     77.73     49.17     23.08 
 H                     77.4      49.14     21.37 
 H                     76.22     48.94     24.87 
 H                     75.19     48.02     20.79 
 H                     74.24     47.65     25.66 
 H                     73.17     46.81     21.68 
 H                     72.16     45.93     23.21 
 N                     78.76     52.16     22.66 
 C                     80.       52.82     22.3 
 C                     81.12     51.8      22.47 
 O                     81.28     51.32     23.59 
 C                     80.16     54.02     23.23 
 C                     79.06     55.05     23.03 
 C                     81.51     54.62     22.84 
 C                     78.97     56.02     24.21 
 H                     78.62     52.08     23.66 
 H                     80.04     53.13     21.25 
 H                     80.2      53.7      24.27 
 H                     78.06     54.61     23.11 
 H                     79.12     55.65     22.12 
 H                     81.7      54.58     21.77 
 H                     81.58     55.59     23.34 
 H                     82.38     54.15     23.29 
 H                     79.84     56.67     24.19 
 H                     78.12     56.69     24.08 
 H                     78.85     55.4      25.09 
 N                     81.99     51.58     21.49 
 C                     83.32     51.       21.58 
 C                     84.48     51.94     21.3 
 O                     84.35     53.13     21.01 
 C                     83.29     49.75     20.7 
 O                     83.02     50.07     19.35 
 H                     81.72     51.99     20.6 
 H                     83.45     50.74     22.63 
 H                     82.42     49.21     21.07 
 H                     84.15     49.1      20.87 
 H                     82.18     50.52     19.3 
 N                     85.67     51.44     21.63 
 C                     86.94     52.13     21.58 
 C                     87.29     52.89     20.31 
 O                     87.52     54.09     20.45 
 C                     88.09     51.4      22.27 
 H                     85.57     50.53     22.06 
 H                     86.81     52.98     22.26 
 H                     87.81     50.9      23.19 
 H                     88.41     50.68     21.51 
 H                     88.83     52.14     22.59 
 N                     87.11     52.29     19.13 
 C                     87.23     52.9      17.82 
 C                     86.26     54.05     17.59 
 O                     86.55     55.06     16.95 
 C                     87.09     51.71     16.87 
 H                     86.71     51.37     19.13 
 H                     88.26     53.22     17.68 
 H                     86.16     51.18     17.07 
 H                     87.02     52.01     15.83 
 H                     87.91     51.       16.99 
 N                     85.04     54.       18.13 
 C                     84.       55.       17.96 
 C                     84.31     56.29     18.71 
 O                     84.36     57.37     18.12 
 C                     82.64     54.37     18.22 
 C                     82.36     53.07     17.48 
 C                     80.96     52.54     17.75 
 O                     80.78     51.84     18.77 
 O                     80.03     52.83     16.98 
 H                     84.8      53.13     18.58 
 H                     84.03     55.31     16.91 
 H                     81.87     55.       17.78 
 H                     82.57     54.29     19.31 
 H                     83.06     52.32     17.84 
 H                     82.59     53.17     16.42 
 N                     84.64     56.14     19.99 
 C                     84.97     57.3      20.8 
 H                     85.845    57.798    20.382 
 H                     84.127    57.992    20.806 
 H                     85.187    56.982    21.82 
 H                     84.66     55.18     20.32 
 Ca                    78.32     50.93     18.01 
 O                     79.17     48.58     19.33 
 H                     80.04     48.29     19.05 
 H                     78.79     47.82     19.77 
 
 Stoichiometry    C54H83CaN15O23
 Framework group  C1[X(C54H83CaN15O23)]
 Deg. of freedom   522
 Full point group                 C1      NOp   1
 Largest Abelian subgroup         C1      NOp   1
 Largest concise Abelian subgroup C1      NOp   1
                         Standard orientation:                         
 ---------------------------------------------------------------------
 Center     Atomic      Atomic             Coordinates (Angstroms)
 Number     Number       Type             X           Y           Z
 ---------------------------------------------------------------------
      1          6           0        2.449071    1.093657    5.707462
      2          6           0        1.690551    1.195401    4.400062
      3          8           0        2.319611    0.977075    3.362990
      4          1           0        3.476960    1.423706    5.557092
      5          1           0        1.971163    1.725681    6.456137
      6          1           0        2.446677    0.059120    6.050225
      7          7           0        0.390275    1.494110    4.251887
      8          6           0       -0.275815    1.750378    2.992225
      9          6           0       -0.087040    3.160893    2.447420
     10          8           0       -0.793439    4.113646    2.750506
     11          6           0       -1.768737    1.442487    3.060670
     12          6           0       -2.397283    1.427775    1.685856
     13          8           0       -3.632029    1.231525    1.712100
     14          8           0       -1.705514    1.675448    0.663352
     15          1           0       -0.166568    1.669437    5.076742
     16          1           0        0.153662    1.099405    2.231709
     17          1           0       -2.158245    2.151889    3.791377
     18          1           0       -1.861365    0.447072    3.498013
     19          7           0        0.855259    3.367913    1.530188
     20          6           0        1.338999    4.586163    0.923505
     21          6           0        0.371564    5.444036    0.120310
     22          8           0        0.303680    6.678629    0.191523
     23          6           0        2.621875    4.302457    0.151857
     24          6           0        3.464647    5.517659   -0.214228
     25          6           0        4.904506    5.265714   -0.659459
     26          6           0        5.599378    6.565872   -1.053976
     27          7           0        7.008672    6.387537   -1.422740
     28          1           0        1.270939    2.532601    1.131236
     29          1           0        1.621954    5.281765    1.727044
     30          1           0        2.449904    3.626154   -0.696518
     31          1           0        3.166500    3.688695    0.876688
     32          1           0        3.444997    6.216969    0.626950
     33          1           0        3.013257    6.007419   -1.080589
     34          1           0        4.897705    4.653574   -1.559813
     35          1           0        5.478629    4.745599    0.107328
     36          1           0        5.529336    7.200421   -0.175829
     37          1           0        5.088809    6.998271   -1.917544
     38          1           0        7.543448    5.930302   -0.699518
     39          1           0        7.080481    5.948242   -2.335134
     40          1           0        7.299708    7.346904   -1.547297
     41          7           0       -0.465237    4.736451   -0.634136
     42          6           0       -1.475242    5.318285   -1.492016
     43          6           0       -2.879423    5.205226   -0.912625
     44          8           0       -3.772101    5.811981   -1.493894
     45          6           0       -1.429336    4.558231   -2.809555
     46          6           0       -1.587178    3.047881   -2.657148
     47          8           0       -2.592566    2.549350   -2.117463
     48          8           0       -0.631964    2.321215   -2.998652
     49          1           0       -0.340083    3.740383   -0.536749
     50          1           0       -1.219001    6.353559   -1.725786
     51          1           0       -0.507062    4.829340   -3.336157
     52          1           0       -2.225648    4.923193   -3.450406
     53          7           0       -2.980211    4.478292    0.211123
     54          6           0       -4.096379    4.419448    1.131996
     55          6           0       -5.189865    3.486831    0.628893
     56          8           0       -6.266890    3.427796    1.229503
     57          1           0       -2.101832    4.165578    0.584701
     58          1           0       -4.536518    5.383835    1.372071
     59          1           0       -3.699977    4.145221    2.108911
     60          7           0       -5.048488    2.828477   -0.515608
     61          6           0       -6.059603    2.035960   -1.193888
     62          6           0       -6.612201    0.841341   -0.415158
     63          8           0       -7.456561    0.186400   -1.036294
     64          6           0       -5.555109    1.608910   -2.568921
     65          6           0       -4.645353    0.386119   -2.605313
     66          7           0       -4.387515   -0.030746   -3.841575
     67          8           0       -3.936541   -0.024926   -1.685679
     68          1           0       -4.131739    2.918946   -0.930682
     69          1           0       -6.853021    2.760780   -1.400581
     70          1           0       -5.053573    2.407237   -3.116037
     71          1           0       -6.446814    1.339927   -3.141118
     72          1           0       -4.790201    0.569722   -4.553109
     73          1           0       -3.853184   -0.878994   -3.925638
     74          7           0       -6.147489    0.429736    0.763156
     75          6           0       -6.460947   -0.745841    1.557676
     76          6           0       -5.498643   -1.919371    1.641334
     77          8           0       -5.847911   -2.911464    2.294605
     78          1           0       -5.415293    0.978586    1.197038
     79          1           0       -7.385340   -1.164638    1.154556
     80          1           0       -6.581209   -0.521493    2.614466
     81          7           0       -4.336029   -1.884860    0.989999
     82          6           0       -3.467737   -3.034557    0.860130
     83          6           0       -1.998310   -2.645487    0.815305
     84          8           0       -1.603954   -1.652719    0.200330
     85          6           0       -3.777251   -3.663399   -0.495621
     86          6           0       -5.209127   -4.089810   -0.708469
     87          6           0       -5.697549   -5.250836   -0.099894
     88          6           0       -6.100566   -3.222305   -1.350630
     89          6           0       -7.052721   -5.593140   -0.182580
     90          6           0       -7.433127   -3.608464   -1.425218
     91          6           0       -7.966590   -4.811714   -0.919543
     92          8           0       -9.287707   -5.065476   -1.111776
     93          1           0       -4.237345   -1.044205    0.438583
     94          1           0       -3.509377   -3.735110    1.702265
     95          1           0       -3.291585   -4.627641   -0.627403
     96          1           0       -3.394500   -3.015526   -1.278859
     97          1           0       -4.986374   -5.916104    0.374920
     98          1           0       -5.773255   -2.303974   -1.835744
     99          1           0       -7.387092   -6.555304    0.183669
    100          1           0       -8.193057   -2.994224   -1.904399
    101          1           0       -9.640363   -4.410286   -1.716060
    102          7           0       -1.171216   -3.471049    1.456758
    103          6           0        0.260094   -3.243760    1.506665
    104          6           0        0.885053   -4.051715    0.375146
    105          8           0        0.713350   -5.268556    0.389858
    106          6           0        0.742463   -3.698869    2.881691
    107          6           0        0.143340   -2.865752    4.003238
    108          6           0        2.256008   -3.494868    2.835187
    109          6           0        0.278811   -3.560092    5.360051
    110          1           0       -1.453521   -4.360003    1.851808
    111          1           0        0.543052   -2.202518    1.317061
    112          1           0        0.530477   -4.755824    3.035016
    113          1           0       -0.950303   -2.827748    3.953228
    114          1           0        0.536203   -1.853461    4.115598
    115          1           0        2.547860   -2.598521    2.292984
    116          1           0        2.622554   -3.621010    3.857700
    117          1           0        2.823126   -4.294532    2.366983
    118          1           0        1.324437   -3.543670    5.653643
    119          1           0       -0.234442   -2.982661    6.129106
    120          1           0       -0.172965   -4.536605    5.235473
    121          7           0        1.722859   -3.479477   -0.482947
    122          6           0        2.715768   -4.116359   -1.332602
    123          6           0        4.168792   -3.841203   -0.985312
    124          8           0        4.531895   -3.127696   -0.049275
    125          6           0        2.327867   -3.758142   -2.767528
    126          8           0        2.366914   -2.361981   -2.984346
    127          1           0        1.738797   -2.464662   -0.428211
    128          1           0        2.607739   -5.185000   -1.150015
    129          1           0        1.280242   -4.050108   -2.818899
    130          1           0        2.852866   -4.367095   -3.505466
    131          1           0        1.770378   -1.936437   -2.373071
    132          7           0        5.033442   -4.628370   -1.623864
    133          6           0        6.465231   -4.676800   -1.426043
    134          6           0        7.229066   -3.361731   -1.413716
    135          8           0        7.873438   -3.126060   -0.393058
    136          6           0        7.162286   -5.857538   -2.097959
    137          1           0        4.546842   -5.308183   -2.193140
    138          1           0        6.580755   -4.953849   -0.371672
    139          1           0        6.603628   -6.785397   -2.055776
    140          1           0        7.279984   -5.513202   -3.130422
    141          1           0        8.080226   -6.080315   -1.545367
    142          7           0        6.984448   -2.465744   -2.374012
    143          6           0        7.485651   -1.106671   -2.439711
    144          6           0        7.054697   -0.238800   -1.266093
    145          8           0        7.779336    0.614466   -0.755568
    146          6           0        7.027882   -0.635379   -3.820483
    147          1           0        6.271695   -2.683601   -3.045519
    148          1           0        8.569231   -1.140968   -2.526759
    149          1           0        5.949919   -0.755311   -3.917505
    150          1           0        7.204803    0.422478   -3.982153
    151          1           0        7.499800   -1.209966   -4.619259
    152          7           0        5.848455   -0.418356   -0.722733
    153          6           0        5.289478    0.361389    0.368157
    154          6           0        5.965678    0.059864    1.700274
    155          8           0        6.489943    0.956385    2.362389
    156          6           0        3.771563    0.266201    0.336938
    157          6           0        3.117931    0.547289   -1.008334
    158          6           0        1.599570    0.488895   -0.937838
    159          8           0        1.045336   -0.625589   -1.054248
    160          8           0        0.949351    1.528415   -0.741594
    161          1           0        5.245792   -1.065000   -1.208169
    162          1           0        5.563249    1.405278    0.181488
    163          1           0        3.355123    1.086719    0.917220
    164          1           0        3.542430   -0.722086    0.749474
    165          1           0        3.434922   -0.225100   -1.704777
    166          1           0        3.497837    1.473333   -1.438001
    167          7           0        6.054212   -1.229508    2.015678
    168          6           0        6.692569   -1.635941    3.255804
    169          1           0        7.734958   -1.316980    3.249409
    170          1           0        6.177184   -1.174731    4.099138
    171          1           0        6.646399   -2.721079    3.350446
    172          1           0        5.671444   -1.868888    1.326053
    173         20           0       -1.461985    0.387633   -1.433747
    174          8           0       -1.726477   -1.849385   -3.140555
    175          1           0       -1.001516   -1.930277   -3.762880
    176          1           0       -2.415220   -2.411293   -3.494804
 ---------------------------------------------------------------------
 Rotational constants (GHZ):           0.0244172           0.0152851           0.0119462
 Standard basis: SVP (5D, 7F)
 There are  1809 symmetry adapted cartesian basis functions of A   symmetry.
 There are  1717 symmetry adapted basis functions of A   symmetry.
  1717 basis functions,  2922 primitive gaussians,  1809 cartesian basis functions
   358 alpha electrons      358 beta electrons
       nuclear repulsion energy     21870.8993987470 Hartrees.
 NAtoms=  176 NActive=  176 NUniq=  176 SFac= 1.00D+00 NAtFMM=   60 NAOKFM=T Big=T
 Integral buffers will be    131072 words long.
 Raffenetti 2 integral format.
 Two-electron integral symmetry is turned on.
 One-electron integrals computed using PRISM.
 NBasis=  1717 RedAO= T EigKep=  2.59D-04  NBF=  1717
 NBsUse=  1717 1.00D-06 EigRej= -1.00D+00 NBFU=  1717
 ExpMin= 1.98D-02 ExpMax= 3.51D+04 ExpMxC= 5.28D+03 IAcc=3 IRadAn=         5 AccDes= 0.00D+00
 Harris functional with IExCor=  402 and IRadAn=       5 diagonalized for initial guess.
 HarFok:  IExCor=  402 AccDes= 0.00D+00 IRadAn=         5 IDoV= 1 UseB2=F ITyADJ=14
 ICtDFT=  3500011 ScaDFX=  1.000000  1.000000  1.000000  1.000000
 FoFCou: FMM=F IPFlag=           0 FMFlag=      100000 FMFlg1=        2001
         NFxFlg=           0 DoJE=T BraDBF=F KetDBF=T FulRan=T
         wScrn=  0.000000 ICntrl=       500 IOpCl=  0 I1Cent=   200000004 NGrid=           0
         NMat0=    1 NMatS0=      1 NMatT0=    0 NMatD0=    1 NMtDS0=    0 NMtDT0=    0
 Petite list used in FoFCou.
 Requested convergence on RMS density matrix=1.00D-08 within 128 cycles.
 Requested convergence on MAX density matrix=1.00D-06.
 Requested convergence on             energy=1.00D-06.
 No special actions if energy rises.
 EnCoef did     4 forward-backward iterations
 SCF Done:  E(RB3LYP) =  -5333.57954434     A.U. after   17 cycles
            NFock= 17  Conv=0.82D-08     -V/T= 2.0082
 SCF density gives NOpUse=  1 NOpAll=  1.
 Hyperfine terms turned off by default for NAtoms > 100.

 **********************************************************************

            Population analysis using the SCF density.

 **********************************************************************

 Orbital symmetries:
 BldTbl:  Degeneracy threshold= 1.00D-02
       Occupied  (A) (A) (A) (A) (A) (A) (A) (A) (A) (A) (A) (A)
                 (A) (A) (A) (A) (A) (A) (A) (A) (A) (A) (A) (A)
                 (A) (A) (A) (A) (A) (A) (A) (A) (A) (A) (A) (A)
                 (A) (A) (A) (A) (A) (A) (A) (A) (A) (A) (A) (A)
                 (A) (A) (A) (A) (A) (A) (A) (A) (A) (A) (A) (A)
                 (A) (A) (A) (A) (A) (A) (A) (A) (A) (A) (A) (A)
                 (A) (A) (A) (A) (A) (A) (A) (A) (A) (A) (A) (A)
                 (A) (A) (A) (A) (A) (A) (A) (A) (A) (A) (A) (A)
                 (A) (A) (A) (A) (A) (A) (A) (A) (A) (A) (A) (A)
                 (A) (A) (A) (A) (A) (A) (A) (A) (A) (A) (A) (A)
                 (A) (A) (A) (A) (A) (A) (A) (A) (A) (A) (A) (A)
                 (A) (A) (A) (A) (A) (A) (A) (A) (A) (A) (A) (A)
                 (A) (A) (A) (A) (A) (A) (A) (A) (A) (A) (A) (A)
                 (A) (A) (A) (A) (A) (A) (A) (A) (A) (A) (A) (A)
                 (A) (A) (A) (A) (A) (A) (A) (A) (A) (A) (A) (A)
                 (A) (A) (A) (A) (A) (A) (A) (A) (A) (A) (A) (A)
                 (A) (A) (A) (A) (A) (A) (A) (A) (A) (A) (A) (A)
                 (A) (A) (A) (A) (A) (A) (A) (A) (A) (A) (A) (A)
                 (A) (A) (A) (A) (A) (A) (A) (A) (A) (A) (A) (A)
                 (A) (A) (A) (A) (A) (A) (A) (A) (A) (A) (A) (A)
                 (A) (A) (A) (A) (A) (A) (A) (A) (A) (A) (A) (A)
                 (A) (A) (A) (A) (A) (A) (A) (A) (A) (A) (A) (A)
                 (A) (A) (A) (A) (A) (A) (A) (A) (A) (A) (A) (A)
                 (A) (A) (A) (A) (A) (A) (A) (A) (A) (A) (A) (A)
                 (A) (A) (A) (A) (A) (A) (A) (A) (A) (A) (A) (A)
                 (A) (A) (A) (A) (A) (A) (A) (A) (A) (A) (A) (A)
                 (A) (A) (A) (A) (A) (A) (A) (A) (A) (A) (A) (A)
                 (A) (A) (A) (A) (A) (A) (A) (A) (A) (A) (A) (A)
                 (A) (A) (A) (A) (A) (A) (A) (A) (A) (A) (A) (A)
                 (A) (A) (A) (A) (A) (A) (A) (A) (A) (A)
       Virtual   (A) (A) (A) (A) (A) (A) (A) (A) (A) (A) (A) (A)
                 (A) (A) (A) (A) (A) (A) (A) (A) (A) (A) (A) (A)
                 (A) (A) (A) (A) (A) (A) (A) (A) (A) (A) (A) (A)
                 (A) (A) (A) (A) (A) (A) (A) (A) (A) (A) (A) (A)
                 (A) (A) (A) (A) (A) (A) (A) (A) (A) (A) (A) (A)
                 (A) (A) (A) (A) (A) (A) (A) (A) (A) (A) (A) (A)
                 (A) (A) (A) (A) (A) (A) (A) (A) (A) (A) (A) (A)
                 (A) (A) (A) (A) (A) (A) (A) (A) (A) (A) (A) (A)
                 (A) (A) (A) (A) (A) (A) (A) (A) (A) (A) (A) (A)
                 (A) (A) (A) (A) (A) (A) (A) (A) (A) (A) (A) (A)
                 (A) (A) (A) (A) (A) (A) (A) (A) (A) (A) (A) (A)
                 (A) (A) (A) (A) (A) (A) (A) (A) (A) (A) (A) (A)
                 (A) (A) (A) (A) (A) (A) (A) (A) (A) (A) (A) (A)
                 (A) (A) (A) (A) (A) (A) (A) (A) (A) (A) (A) (A)
                 (A) (A) (A) (A) (A) (A) (A) (A) (A) (A) (A) (A)
                 (A) (A) (A) (A) (A) (A) (A) (A) (A) (A) (A) (A)
                 (A) (A) (A) (A) (A) (A) (A) (A) (A) (A) (A) (A)
                 (A) (A) (A) (A) (A) (A) (A) (A) (A) (A) (A) (A)
                 (A) (A) (A) (A) (A) (A) (A) (A) (A) (A) (A) (A)
                 (A) (A) (A) (A) (A) (A) (A) (A) (A) (A) (A) (A)
                 (A) (A) (A) (A) (A) (A) (A) (A) (A) (A) (A) (A)
                 (A) (A) (A) (A) (A) (A) (A) (A) (A) (A) (A) (A)
                 (A) (A) (A) (A) (A) (A) (A) (A) (A) (A) (A) (A)
                 (A) (A) (A) (A) (A) (A) (A) (A) (A) (A) (A) (A)
                 (A) (A) (A) (A) (A) (A) (A) (A) (A) (A) (A) (A)
                 (A) (A) (A) (A) (A) (A) (A) (A) (A) (A) (A) (A)
                 (A) (A) (A) (A) (A) (A) (A) (A) (A) (A) (A) (A)
                 (A) (A) (A) (A) (A) (A) (A) (A) (A) (A) (A) (A)
                 (A) (A) (A) (A) (A) (A) (A) (A) (A) (A) (A) (A)
                 (A) (A) (A) (A) (A) (A) (A) (A) (A) (A) (A) (A)
                 (A) (A) (A) (A) (A) (A) (A) (A) (A) (A) (A) (A)
                 (A) (A) (A) (A) (A) (A) (A) (A) (A) (A) (A) (A)
                 (A) (A) (A) (A) (A) (A) (A) (A) (A) (A) (A) (A)
                 (A) (A) (A) (A) (A) (A) (A) (A) (A) (A) (A) (A)
                 (A) (A) (A) (A) (A) (A) (A) (A) (A) (A) (A) (A)
                 (A) (A) (A) (A) (A) (A) (A) (A) (A) (A) (A) (A)
                 (A) (A) (A) (A) (A) (A) (A) (A) (A) (A) (A) (A)
                 (A) (A) (A) (A) (A) (A) (A) (A) (A) (A) (A) (A)
                 (A) (A) (A) (A) (A) (A) (A) (A) (A) (A) (A) (A)
                 (A) (A) (A) (A) (A) (A) (A) (A) (A) (A) (A) (A)
                 (A) (A) (A) (A) (A) (A) (A) (A) (A) (A) (A) (A)
                 (A) (A) (A) (A) (A) (A) (A) (A) (A) (A) (A) (A)
                 (A) (A) (A) (A) (A) (A) (A) (A) (A) (A) (A) (A)
                 (A) (A) (A) (A) (A) (A) (A) (A) (A) (A) (A) (A)
                 (A) (A) (A) (A) (A) (A) (A) (A) (A) (A) (A) (A)
                 (A) (A) (A) (A) (A) (A) (A) (A) (A) (A) (A) (A)
                 (A) (A) (A) (A) (A) (A) (A) (A) (A) (A) (A) (A)
                 (A) (A) (A) (A) (A) (A) (A) (A) (A) (A) (A) (A)
                 (A) (A) (A) (A) (A) (A) (A) (A) (A) (A) (A) (A)
                 (A) (A) (A) (A) (A) (A) (A) (A) (A) (A) (A) (A)
                 (A) (A) (A) (A) (A) (A) (A) (A) (A) (A) (A) (A)
                 (A) (A) (A) (A) (A) (A) (A) (A) (A) (A) (A) (A)
                 (A) (A) (A) (A) (A) (A) (A) (A) (A) (A) (A) (A)
                 (A) (A) (A) (A) (A) (A) (A) (A) (A) (A) (A) (A)
                 (A) (A) (A) (A) (A) (A) (A) (A) (A) (A) (A) (A)
                 (A) (A) (A) (A) (A) (A) (A) (A) (A) (A) (A) (A)
                 (A) (A) (A) (A) (A) (A) (A) (A) (A) (A) (A) (A)
                 (A) (A) (A) (A) (A) (A) (A) (A) (A) (A) (A) (A)
                 (A) (A) (A) (A) (A) (A) (A) (A) (A) (A) (A) (A)
                 (A) (A) (A) (A) (A) (A) (A) (A) (A) (A) (A) (A)
                 (A) (A) (A) (A) (A) (A) (A) (A) (A) (A) (A) (A)
                 (A) (A) (A) (A) (A) (A) (A) (A) (A) (A) (A) (A)
                 (A) (A) (A) (A) (A) (A) (A) (A) (A) (A) (A) (A)
                 (A) (A) (A) (A) (A) (A) (A) (A) (A) (A) (A) (A)
                 (A) (A) (A) (A) (A) (A) (A) (A) (A) (A) (A) (A)
                 (A) (A) (A) (A) (A) (A) (A) (A) (A) (A) (A) (A)
                 (A) (A) (A) (A) (A) (A) (A) (A) (A) (A) (A) (A)
                 (A) (A) (A) (A) (A) (A) (A) (A) (A) (A) (A) (A)
                 (A) (A) (A) (A) (A) (A) (A) (A) (A) (A) (A) (A)
                 (A) (A) (A) (A) (A) (A) (A) (A) (A) (A) (A) (A)
                 (A) (A) (A) (A) (A) (A) (A) (A) (A) (A) (A) (A)
                 (A) (A) (A) (A) (A) (A) (A) (A) (A) (A) (A) (A)
                 (A) (A) (A) (A) (A) (A) (A) (A) (A) (A) (A) (A)
                 (A) (A) (A) (A) (A) (A) (A) (A) (A) (A) (A) (A)
                 (A) (A) (A) (A) (A) (A) (A) (A) (A) (A) (A) (A)
                 (A) (A) (A) (A) (A) (A) (A) (A) (A) (A) (A) (A)
                 (A) (A) (A) (A) (A) (A) (A) (A) (A) (A) (A) (A)
                 (A) (A) (A) (A) (A) (A) (A) (A) (A) (A) (A) (A)
                 (A) (A) (A) (A) (A) (A) (A) (A) (A) (A) (A) (A)
                 (A) (A) (A) (A) (A) (A) (A) (A) (A) (A) (A) (A)
                 (A) (A) (A) (A) (A) (A) (A) (A) (A) (A) (A) (A)
                 (A) (A) (A) (A) (A) (A) (A) (A) (A) (A) (A) (A)
                 (A) (A) (A) (A) (A) (A) (A) (A) (A) (A) (A) (A)
                 (A) (A) (A) (A) (A) (A) (A) (A) (A) (A) (A) (A)
                 (A) (A) (A) (A) (A) (A) (A) (A) (A) (A) (A) (A)
                 (A) (A) (A) (A) (A) (A) (A) (A) (A) (A) (A) (A)
                 (A) (A) (A) (A) (A) (A) (A) (A) (A) (A) (A) (A)
                 (A) (A) (A) (A) (A) (A) (A) (A) (A) (A) (A) (A)
                 (A) (A) (A) (A) (A) (A) (A) (A) (A) (A) (A) (A)
                 (A) (A) (A) (A) (A) (A) (A) (A) (A) (A) (A) (A)
                 (A) (A) (A) (A) (A) (A) (A) (A) (A) (A) (A) (A)
                 (A) (A) (A) (A) (A) (A) (A) (A) (A) (A) (A) (A)
                 (A) (A) (A) (A) (A) (A) (A) (A) (A) (A) (A) (A)
                 (A) (A) (A) (A) (A) (A) (A) (A) (A) (A) (A) (A)
                 (A) (A) (A) (A) (A) (A) (A) (A) (A) (A) (A) (A)
                 (A) (A) (A) (A) (A) (A) (A) (A) (A) (A) (A) (A)
                 (A) (A) (A) (A) (A) (A) (A) (A) (A) (A) (A) (A)
                 (A) (A) (A) (A) (A) (A) (A) (A) (A) (A) (A) (A)
                 (A) (A) (A) (A) (A) (A) (A) (A) (A) (A) (A) (A)
                 (A) (A) (A) (A) (A) (A) (A) (A) (A) (A) (A) (A)
                 (A) (A) (A) (A) (A) (A) (A) (A) (A) (A) (A) (A)
                 (A) (A) (A) (A) (A) (A) (A) (A) (A) (A) (A) (A)
                 (A) (A) (A) (A) (A) (A) (A) (A) (A) (A) (A) (A)
                 (A) (A) (A) (A) (A) (A) (A) (A) (A) (A) (A) (A)
                 (A) (A) (A) (A) (A) (A) (A) (A) (A) (A) (A) (A)
                 (A) (A) (A) (A) (A) (A) (A) (A) (A) (A) (A) (A)
                 (A) (A) (A) (A) (A) (A) (A) (A) (A) (A) (A) (A)
                 (A) (A) (A) (A) (A) (A) (A) (A) (A) (A) (A) (A)
                 (A) (A) (A) (A) (A) (A) (A) (A) (A) (A) (A) (A)
                 (A) (A) (A) (A) (A) (A) (A) (A) (A) (A) (A) (A)
                 (A) (A) (A) (A) (A) (A) (A) (A) (A) (A) (A) (A)
                 (A) (A) (A) (A) (A) (A) (A) (A) (A) (A) (A) (A)
                 (A) (A) (A) (A) (A) (A) (A) (A) (A) (A) (A) (A)
                 (A) (A) (A)
 The electronic state is 1-A.
 Alpha  occ. eigenvalues -- -145.34450 -19.19525 -19.14456 -19.14118 -19.13146
 Alpha  occ. eigenvalues --  -19.11279 -19.11197 -19.11116 -19.09312 -19.09028
 Alpha  occ. eigenvalues --  -19.08623 -19.07070 -19.06875 -19.06749 -19.06489
 Alpha  occ. eigenvalues --  -19.06466 -19.05365 -19.04754 -19.04631 -19.04457
 Alpha  occ. eigenvalues --  -19.04269 -19.04194 -19.02302 -19.01926 -15.40224
 Alpha  occ. eigenvalues --  -14.59001 -14.39184 -14.37969 -14.36206 -14.36157
 Alpha  occ. eigenvalues --  -14.35439 -14.34818 -14.33922 -14.32345 -14.32056
 Alpha  occ. eigenvalues --  -14.31915 -14.31614 -14.29700 -14.29487 -14.27931
 Alpha  occ. eigenvalues --  -12.53825 -12.53803 -12.53785 -10.34886 -10.31482
 Alpha  occ. eigenvalues --  -10.30211 -10.29658 -10.29032 -10.28203 -10.27939
 Alpha  occ. eigenvalues --  -10.26760 -10.26726 -10.26544 -10.25858 -10.25545
 Alpha  occ. eigenvalues --  -10.25496 -10.25404 -10.25180 -10.25027 -10.24977
 Alpha  occ. eigenvalues --  -10.24080 -10.23852 -10.23641 -10.23114 -10.22991
 Alpha  occ. eigenvalues --  -10.22961 -10.22689 -10.22610 -10.22306 -10.22158
 Alpha  occ. eigenvalues --  -10.21881 -10.21875 -10.21570 -10.21364 -10.20069
 Alpha  occ. eigenvalues --  -10.19971 -10.19900 -10.19695 -10.19451 -10.19106
 Alpha  occ. eigenvalues --  -10.18590 -10.18445 -10.18250 -10.17847 -10.17828
 Alpha  occ. eigenvalues --  -10.17402 -10.17383 -10.17242 -10.16996 -10.16886
 Alpha  occ. eigenvalues --  -10.16725 -10.16683 -10.16641 -10.16591 -10.16099
 Alpha  occ. eigenvalues --  -10.15202 -10.14708  -1.77267  -1.14358  -1.06229
 Alpha  occ. eigenvalues --   -1.05716  -1.05318  -1.05057  -1.04649  -1.04197
 Alpha  occ. eigenvalues --   -1.03774  -1.03693  -1.03264  -1.02990  -1.02476
 Alpha  occ. eigenvalues --   -1.02350  -1.02111  -1.00804  -1.00327  -1.00015
 Alpha  occ. eigenvalues --   -0.99136  -0.99093  -0.97939  -0.97421  -0.97220
 Alpha  occ. eigenvalues --   -0.97065  -0.95854  -0.95267  -0.94950  -0.93063
 Alpha  occ. eigenvalues --   -0.92704  -0.92209  -0.91443  -0.91352  -0.90061
 Alpha  occ. eigenvalues --   -0.89816  -0.89504  -0.88928  -0.88760  -0.88425
 Alpha  occ. eigenvalues --   -0.88289  -0.88260  -0.86634  -0.86058  -0.85098
 Alpha  occ. eigenvalues --   -0.82555  -0.82167  -0.81448  -0.80715  -0.79665
 Alpha  occ. eigenvalues --   -0.78132  -0.77510  -0.76995  -0.76633  -0.75420
 Alpha  occ. eigenvalues --   -0.75122  -0.74703  -0.74142  -0.74068  -0.72238
 Alpha  occ. eigenvalues --   -0.72189  -0.71964  -0.71458  -0.71353  -0.69614
 Alpha  occ. eigenvalues --   -0.69435  -0.68708  -0.68210  -0.67933  -0.67177
 Alpha  occ. eigenvalues --   -0.67150  -0.66093  -0.64912  -0.64013  -0.63538
 Alpha  occ. eigenvalues --   -0.63369  -0.62960  -0.62169  -0.61791  -0.61509
 Alpha  occ. eigenvalues --   -0.60607  -0.60407  -0.60301  -0.59584  -0.58943
 Alpha  occ. eigenvalues --   -0.58883  -0.58820  -0.58182  -0.58048  -0.57046
 Alpha  occ. eigenvalues --   -0.57020  -0.56932  -0.56592  -0.56110  -0.55923
 Alpha  occ. eigenvalues --   -0.55155  -0.55130  -0.55040  -0.54736  -0.54315
 Alpha  occ. eigenvalues --   -0.53896  -0.53765  -0.53161  -0.52662  -0.52582
 Alpha  occ. eigenvalues --   -0.52488  -0.52076  -0.51806  -0.51422  -0.51279
 Alpha  occ. eigenvalues --   -0.50276  -0.50095  -0.49894  -0.49787  -0.49102
 Alpha  occ. eigenvalues --   -0.48783  -0.48688  -0.48617  -0.48333  -0.48049
 Alpha  occ. eigenvalues --   -0.47800  -0.47634  -0.47481  -0.47401  -0.47196
 Alpha  occ. eigenvalues --   -0.46894  -0.46755  -0.46313  -0.46226  -0.45999
 Alpha  occ. eigenvalues --   -0.45884  -0.45666  -0.45452  -0.45271  -0.45219
 Alpha  occ. eigenvalues --   -0.45014  -0.44893  -0.44810  -0.44356  -0.44195
 Alpha  occ. eigenvalues --   -0.44067  -0.44021  -0.43706  -0.43592  -0.43542
 Alpha  occ. eigenvalues --   -0.43402  -0.43268  -0.42833  -0.42624  -0.42370
 Alpha  occ. eigenvalues --   -0.42164  -0.42106  -0.41890  -0.41852  -0.41702
 Alpha  occ. eigenvalues --   -0.41626  -0.41522  -0.41435  -0.41214  -0.41076
 Alpha  occ. eigenvalues --   -0.40885  -0.40728  -0.40629  -0.40359  -0.40167
 Alpha  occ. eigenvalues --   -0.40135  -0.40019  -0.39858  -0.39762  -0.39587
 Alpha  occ. eigenvalues --   -0.39495  -0.39270  -0.39121  -0.38984  -0.38865
 Alpha  occ. eigenvalues --   -0.38829  -0.38736  -0.38642  -0.38307  -0.38134
 Alpha  occ. eigenvalues --   -0.37887  -0.37766  -0.37716  -0.37577  -0.37505
 Alpha  occ. eigenvalues --   -0.37427  -0.37302  -0.37032  -0.36817  -0.36722
 Alpha  occ. eigenvalues --   -0.36675  -0.36590  -0.36477  -0.36264  -0.36112
 Alpha  occ. eigenvalues --   -0.35929  -0.35842  -0.35745  -0.35666  -0.35334
 Alpha  occ. eigenvalues --   -0.34986  -0.34770  -0.34535  -0.34260  -0.34221
 Alpha  occ. eigenvalues --   -0.34035  -0.33637  -0.33589  -0.33177  -0.33027
 Alpha  occ. eigenvalues --   -0.33008  -0.32803  -0.32657  -0.32563  -0.32436
 Alpha  occ. eigenvalues --   -0.31937  -0.31489  -0.31370  -0.31306  -0.31272
 Alpha  occ. eigenvalues --   -0.30965  -0.30655  -0.30050  -0.29485  -0.29359
 Alpha  occ. eigenvalues --   -0.29162  -0.28778  -0.28295  -0.27657  -0.27059
 Alpha  occ. eigenvalues --   -0.26872  -0.26790  -0.26370  -0.26296  -0.26159
 Alpha  occ. eigenvalues --   -0.25618  -0.25270  -0.24748  -0.24726  -0.24585
 Alpha  occ. eigenvalues --   -0.24298  -0.23737  -0.23627  -0.23478  -0.23157
 Alpha  occ. eigenvalues --   -0.22939  -0.22818  -0.22792  -0.22247  -0.22045
 Alpha  occ. eigenvalues --   -0.21995  -0.21835  -0.21596  -0.21319  -0.21065
 Alpha  occ. eigenvalues --   -0.20659  -0.20472  -0.19845  -0.19665  -0.19433
 Alpha  occ. eigenvalues --   -0.18730  -0.17827  -0.17587
 Alpha virt. eigenvalues --   -0.10907  -0.05059  -0.04144  -0.02643  -0.01865
 Alpha virt. eigenvalues --   -0.01079  -0.00820   0.00124   0.00628   0.00740
 Alpha virt. eigenvalues --    0.00998   0.01179   0.01456   0.01960   0.02846
 Alpha virt. eigenvalues --    0.02992   0.03097   0.03332   0.03837   0.04087
 Alpha virt. eigenvalues --    0.04258   0.04447   0.04586   0.05301   0.05411
 Alpha virt. eigenvalues --    0.05589   0.05732   0.06056   0.06334   0.06450
 Alpha virt. eigenvalues --    0.06487   0.06815   0.06995   0.07058   0.07194
 Alpha virt. eigenvalues --    0.07367   0.07695   0.07884   0.08128   0.08306
 Alpha virt. eigenvalues --    0.08410   0.08797   0.09057   0.09219   0.09441
 Alpha virt. eigenvalues --    0.09550   0.09799   0.10011   0.10167   0.10345
 Alpha virt. eigenvalues --    0.10396   0.10556   0.10707   0.10822   0.11143
 Alpha virt. eigenvalues --    0.11479   0.11661   0.11706   0.11980   0.12144
 Alpha virt. eigenvalues --    0.12431   0.12481   0.12911   0.12940   0.13075
 Alpha virt. eigenvalues --    0.13230   0.13367   0.13517   0.13621   0.13815
 Alpha virt. eigenvalues --    0.13851   0.13980   0.14182   0.14532   0.14616
 Alpha virt. eigenvalues --    0.14857   0.14908   0.15087   0.15221   0.15491
 Alpha virt. eigenvalues --    0.15688   0.15924   0.16151   0.16312   0.16588
 Alpha virt. eigenvalues --    0.16740   0.16990   0.17079   0.17229   0.17346
 Alpha virt. eigenvalues --    0.17525   0.17783   0.17957   0.18189   0.18336
 Alpha virt. eigenvalues --    0.18403   0.18646   0.18877   0.19019   0.19216
 Alpha virt. eigenvalues --    0.19268   0.19421   0.19687   0.20040   0.20148
 Alpha virt. eigenvalues --    0.20509   0.20588   0.20809   0.21025   0.21094
 Alpha virt. eigenvalues --    0.21334   0.21549   0.21614   0.22000   0.22287
 Alpha virt. eigenvalues --    0.22513   0.22592   0.22776   0.23131   0.23243
 Alpha virt. eigenvalues --    0.23364   0.23544   0.23616   0.23907   0.24020
 Alpha virt. eigenvalues --    0.24315   0.24513   0.24619   0.24944   0.25084
 Alpha virt. eigenvalues --    0.25304   0.25563   0.25791   0.26065   0.26095
 Alpha virt. eigenvalues --    0.26311   0.26559   0.26906   0.27290   0.27407
 Alpha virt. eigenvalues --    0.27638   0.27860   0.28057   0.28178   0.28622
 Alpha virt. eigenvalues --    0.29061   0.29138   0.29204   0.29451   0.29602
 Alpha virt. eigenvalues --    0.29914   0.30026   0.30356   0.30411   0.30872
 Alpha virt. eigenvalues --    0.31145   0.31267   0.31619   0.31915   0.32059
 Alpha virt. eigenvalues --    0.32215   0.32446   0.32479   0.33012   0.33412
 Alpha virt. eigenvalues --    0.33510   0.33716   0.33776   0.33982   0.34204
 Alpha virt. eigenvalues --    0.34477   0.34757   0.34925   0.35221   0.35455
 Alpha virt. eigenvalues --    0.35532   0.35755   0.36181   0.36497   0.36840
 Alpha virt. eigenvalues --    0.37032   0.37400   0.37460   0.37898   0.38043
 Alpha virt. eigenvalues --    0.38295   0.38777   0.39011   0.39337   0.39693
 Alpha virt. eigenvalues --    0.39802   0.39897   0.40164   0.40713   0.40843
 Alpha virt. eigenvalues --    0.41064   0.41219   0.41736   0.42106   0.42364
 Alpha virt. eigenvalues --    0.42673   0.42691   0.43003   0.43032   0.43071
 Alpha virt. eigenvalues --    0.43775   0.43978   0.43995   0.44424   0.44614
 Alpha virt. eigenvalues --    0.44713   0.45030   0.45297   0.45601   0.45842
 Alpha virt. eigenvalues --    0.46054   0.46172   0.46390   0.46517   0.46631
 Alpha virt. eigenvalues --    0.46682   0.47025   0.47342   0.47488   0.47681
 Alpha virt. eigenvalues --    0.47924   0.48071   0.48363   0.48421   0.48645
 Alpha virt. eigenvalues --    0.48886   0.49090   0.49246   0.49795   0.49861
 Alpha virt. eigenvalues --    0.50043   0.50207   0.50483   0.50785   0.50891
 Alpha virt. eigenvalues --    0.51152   0.51406   0.51610   0.51737   0.51829
 Alpha virt. eigenvalues --    0.52111   0.52378   0.52451   0.52791   0.52859
 Alpha virt. eigenvalues --    0.53227   0.53306   0.53464   0.53733   0.53920
 Alpha virt. eigenvalues --    0.54032   0.54412   0.54612   0.54640   0.54780
 Alpha virt. eigenvalues --    0.54956   0.55015   0.55074   0.55132   0.55622
 Alpha virt. eigenvalues --    0.55810   0.55972   0.56126   0.56202   0.56275
 Alpha virt. eigenvalues --    0.56397   0.56458   0.56747   0.56938   0.57432
 Alpha virt. eigenvalues --    0.57489   0.57601   0.57774   0.58002   0.58179
 Alpha virt. eigenvalues --    0.58289   0.58380   0.58581   0.58878   0.59066
 Alpha virt. eigenvalues --    0.59194   0.59387   0.59415   0.59457   0.59651
 Alpha virt. eigenvalues --    0.59855   0.59895   0.60403   0.60492   0.60653
 Alpha virt. eigenvalues --    0.60779   0.60902   0.60989   0.61207   0.61408
 Alpha virt. eigenvalues --    0.61577   0.61788   0.61967   0.61977   0.62173
 Alpha virt. eigenvalues --    0.62268   0.62393   0.62527   0.62598   0.62653
 Alpha virt. eigenvalues --    0.62765   0.63103   0.63157   0.63326   0.63502
 Alpha virt. eigenvalues --    0.63570   0.63750   0.63808   0.63843   0.64121
 Alpha virt. eigenvalues --    0.64155   0.64255   0.64283   0.64513   0.64613
 Alpha virt. eigenvalues --    0.64709   0.64835   0.65060   0.65222   0.65258
 Alpha virt. eigenvalues --    0.65385   0.65536   0.65589   0.65775   0.65886
 Alpha virt. eigenvalues --    0.65929   0.66075   0.66190   0.66251   0.66380
 Alpha virt. eigenvalues --    0.66661   0.66758   0.66896   0.67049   0.67068
 Alpha virt. eigenvalues --    0.67154   0.67276   0.67482   0.67528   0.67620
 Alpha virt. eigenvalues --    0.67634   0.67891   0.67973   0.68074   0.68142
 Alpha virt. eigenvalues --    0.68233   0.68260   0.68392   0.68401   0.68548
 Alpha virt. eigenvalues --    0.68735   0.68783   0.69070   0.69181   0.69368
 Alpha virt. eigenvalues --    0.69423   0.69518   0.69575   0.69865   0.69946
 Alpha virt. eigenvalues --    0.70195   0.70443   0.70466   0.70622   0.70858
 Alpha virt. eigenvalues --    0.70922   0.71012   0.71144   0.71289   0.71452
 Alpha virt. eigenvalues --    0.71702   0.71836   0.71933   0.72061   0.72069
 Alpha virt. eigenvalues --    0.72306   0.72352   0.72450   0.72653   0.72834
 Alpha virt. eigenvalues --    0.73064   0.73156   0.73333   0.73623   0.73750
 Alpha virt. eigenvalues --    0.73988   0.74001   0.74204   0.74245   0.74370
 Alpha virt. eigenvalues --    0.74651   0.74823   0.74989   0.75169   0.75255
 Alpha virt. eigenvalues --    0.75463   0.75683   0.75850   0.76063   0.76259
 Alpha virt. eigenvalues --    0.76329   0.76601   0.76702   0.76992   0.77314
 Alpha virt. eigenvalues --    0.77582   0.77796   0.77921   0.78397   0.78488
 Alpha virt. eigenvalues --    0.78733   0.78947   0.79194   0.79423   0.79537
 Alpha virt. eigenvalues --    0.79657   0.79811   0.80173   0.80319   0.80529
 Alpha virt. eigenvalues --    0.80939   0.81137   0.81398   0.81739   0.82061
 Alpha virt. eigenvalues --    0.82242   0.82318   0.82920   0.82973   0.83468
 Alpha virt. eigenvalues --    0.83502   0.83752   0.83898   0.84375   0.84831
 Alpha virt. eigenvalues --    0.84846   0.85657   0.85777   0.85937   0.86335
 Alpha virt. eigenvalues --    0.86527   0.87256   0.87423   0.87657   0.87986
 Alpha virt. eigenvalues --    0.88202   0.88275   0.89033   0.89170   0.89447
 Alpha virt. eigenvalues --    0.89795   0.90064   0.90332   0.90485   0.90873
 Alpha virt. eigenvalues --    0.90945   0.91246   0.91375   0.91530   0.91880
 Alpha virt. eigenvalues --    0.92461   0.92747   0.92895   0.93647   0.93745
 Alpha virt. eigenvalues --    0.94007   0.94227   0.94464   0.94678   0.94740
 Alpha virt. eigenvalues --    0.95200   0.95336   0.95610   0.95872   0.96094
 Alpha virt. eigenvalues --    0.96348   0.96616   0.97092   0.97428   0.97668
 Alpha virt. eigenvalues --    0.97880   0.98092   0.98260   0.98787   0.99021
 Alpha virt. eigenvalues --    0.99235   0.99637   0.99937   1.00135   1.00419
 Alpha virt. eigenvalues --    1.00667   1.01092   1.01116   1.01513   1.01936
 Alpha virt. eigenvalues --    1.02183   1.02386   1.02885   1.03310   1.03716
 Alpha virt. eigenvalues --    1.03981   1.04210   1.04392   1.04699   1.05200
 Alpha virt. eigenvalues --    1.05435   1.05745   1.06011   1.06275   1.06501
 Alpha virt. eigenvalues --    1.06579   1.06801   1.07123   1.07337   1.07794
 Alpha virt. eigenvalues --    1.07826   1.08086   1.08382   1.08742   1.09241
 Alpha virt. eigenvalues --    1.09442   1.09536   1.09782   1.10326   1.10753
 Alpha virt. eigenvalues --    1.11117   1.11488   1.11511   1.12077   1.12412
 Alpha virt. eigenvalues --    1.12789   1.12935   1.13044   1.13465   1.13645
 Alpha virt. eigenvalues --    1.14184   1.14572   1.14822   1.15304   1.15485
 Alpha virt. eigenvalues --    1.15590   1.16130   1.16399   1.16603   1.16710
 Alpha virt. eigenvalues --    1.16986   1.17477   1.17702   1.18133   1.18478
 Alpha virt. eigenvalues --    1.18966   1.19006   1.19172   1.19643   1.19864
 Alpha virt. eigenvalues --    1.19956   1.20082   1.20423   1.20520   1.20834
 Alpha virt. eigenvalues --    1.21013   1.21284   1.21450   1.21778   1.22383
 Alpha virt. eigenvalues --    1.22480   1.22757   1.22827   1.22977   1.23188
 Alpha virt. eigenvalues --    1.23458   1.23711   1.23964   1.24259   1.24488
 Alpha virt. eigenvalues --    1.24773   1.25044   1.25829   1.25900   1.26234
 Alpha virt. eigenvalues --    1.26361   1.26460   1.26680   1.27132   1.27175
 Alpha virt. eigenvalues --    1.27548   1.27652   1.27837   1.28245   1.28720
 Alpha virt. eigenvalues --    1.28930   1.28963   1.29241   1.29553   1.29752
 Alpha virt. eigenvalues --    1.29914   1.30056   1.30581   1.30692   1.30829
 Alpha virt. eigenvalues --    1.30961   1.31586   1.31741   1.31803   1.32192
 Alpha virt. eigenvalues --    1.32430   1.32741   1.33174   1.33315   1.33555
 Alpha virt. eigenvalues --    1.33588   1.34113   1.34502   1.34652   1.34937
 Alpha virt. eigenvalues --    1.35282   1.35304   1.35872   1.36047   1.36149
 Alpha virt. eigenvalues --    1.36228   1.36626   1.36739   1.36997   1.37172
 Alpha virt. eigenvalues --    1.37535   1.37883   1.38204   1.38321   1.38558
 Alpha virt. eigenvalues --    1.38760   1.39154   1.39321   1.39737   1.39821
 Alpha virt. eigenvalues --    1.40300   1.40687   1.41040   1.41173   1.41625
 Alpha virt. eigenvalues --    1.41708   1.42094   1.42357   1.42576   1.42761
 Alpha virt. eigenvalues --    1.42940   1.43223   1.43535   1.44317   1.44684
 Alpha virt. eigenvalues --    1.44935   1.45358   1.45440   1.45786   1.45866
 Alpha virt. eigenvalues --    1.46500   1.46698   1.46951   1.47278   1.47980
 Alpha virt. eigenvalues --    1.48191   1.48469   1.48761   1.49001   1.49573
 Alpha virt. eigenvalues --    1.49732   1.50028   1.50290   1.50532   1.50770
 Alpha virt. eigenvalues --    1.50950   1.51234   1.51450   1.51840   1.52110
 Alpha virt. eigenvalues --    1.52228   1.52383   1.52477   1.52733   1.53033
 Alpha virt. eigenvalues --    1.53178   1.53466   1.54054   1.54233   1.54468
 Alpha virt. eigenvalues --    1.54507   1.54936   1.55044   1.55301   1.55739
 Alpha virt. eigenvalues --    1.56155   1.56430   1.56742   1.57246   1.57341
 Alpha virt. eigenvalues --    1.58028   1.58259   1.58774   1.59056   1.59708
 Alpha virt. eigenvalues --    1.60044   1.60341   1.60434   1.60534   1.61033
 Alpha virt. eigenvalues --    1.61331   1.61427   1.61656   1.61990   1.62267
 Alpha virt. eigenvalues --    1.62449   1.62689   1.63076   1.63247   1.63717
 Alpha virt. eigenvalues --    1.63943   1.64276   1.64468   1.64614   1.65150
 Alpha virt. eigenvalues --    1.65324   1.66150   1.66552   1.66694   1.67126
 Alpha virt. eigenvalues --    1.67447   1.67895   1.68254   1.68667   1.68947
 Alpha virt. eigenvalues --    1.69398   1.69441   1.69746   1.69936   1.70395
 Alpha virt. eigenvalues --    1.70634   1.70760   1.71170   1.71361   1.71502
 Alpha virt. eigenvalues --    1.71685   1.72109   1.72428   1.72470   1.72704
 Alpha virt. eigenvalues --    1.72851   1.73004   1.73266   1.73393   1.73542
 Alpha virt. eigenvalues --    1.73753   1.73906   1.73934   1.74468   1.74694
 Alpha virt. eigenvalues --    1.74938   1.75214   1.75297   1.75543   1.75689
 Alpha virt. eigenvalues --    1.76073   1.76204   1.76483   1.76657   1.76762
 Alpha virt. eigenvalues --    1.76946   1.77039   1.77341   1.77417   1.77561
 Alpha virt. eigenvalues --    1.77793   1.77994   1.78272   1.78345   1.78406
 Alpha virt. eigenvalues --    1.78602   1.78669   1.78860   1.78941   1.79053
 Alpha virt. eigenvalues --    1.79279   1.79410   1.79622   1.79669   1.79897
 Alpha virt. eigenvalues --    1.80058   1.80233   1.80307   1.80547   1.80628
 Alpha virt. eigenvalues --    1.80976   1.81123   1.81308   1.81386   1.81527
 Alpha virt. eigenvalues --    1.81608   1.81984   1.82077   1.82441   1.82566
 Alpha virt. eigenvalues --    1.82750   1.82813   1.82918   1.83285   1.83333
 Alpha virt. eigenvalues --    1.83469   1.83624   1.83833   1.83994   1.84079
 Alpha virt. eigenvalues --    1.84326   1.84595   1.84725   1.84781   1.85137
 Alpha virt. eigenvalues --    1.85253   1.85613   1.85713   1.85752   1.85917
 Alpha virt. eigenvalues --    1.86422   1.86575   1.86798   1.86814   1.86946
 Alpha virt. eigenvalues --    1.87013   1.87673   1.87795   1.87966   1.88181
 Alpha virt. eigenvalues --    1.88450   1.88497   1.88795   1.89035   1.89201
 Alpha virt. eigenvalues --    1.89602   1.89769   1.90056   1.90140   1.90490
 Alpha virt. eigenvalues --    1.90734   1.90943   1.91230   1.91362   1.91636
 Alpha virt. eigenvalues --    1.92061   1.92121   1.92303   1.92506   1.92782
 Alpha virt. eigenvalues --    1.92963   1.93089   1.93324   1.93471   1.93772
 Alpha virt. eigenvalues --    1.94096   1.94223   1.94487   1.94658   1.94870
 Alpha virt. eigenvalues --    1.95217   1.95355   1.95499   1.95658   1.95901
 Alpha virt. eigenvalues --    1.96063   1.96235   1.96346   1.96589   1.96802
 Alpha virt. eigenvalues --    1.96876   1.97227   1.97350   1.97626   1.97787
 Alpha virt. eigenvalues --    1.98026   1.98332   1.98448   1.98656   1.98809
 Alpha virt. eigenvalues --    1.98941   1.99241   1.99667   2.00026   2.00349
 Alpha virt. eigenvalues --    2.00479   2.00640   2.00910   2.01109   2.01259
 Alpha virt. eigenvalues --    2.01512   2.01666   2.01776   2.02144   2.02398
 Alpha virt. eigenvalues --    2.02565   2.02655   2.02919   2.03162   2.03385
 Alpha virt. eigenvalues --    2.03734   2.03869   2.04032   2.04164   2.04371
 Alpha virt. eigenvalues --    2.04522   2.04778   2.04910   2.05115   2.05443
 Alpha virt. eigenvalues --    2.05868   2.05890   2.06398   2.06769   2.07222
 Alpha virt. eigenvalues --    2.07296   2.07670   2.08019   2.08385   2.08987
 Alpha virt. eigenvalues --    2.09144   2.09486   2.09910   2.10411   2.10564
 Alpha virt. eigenvalues --    2.10754   2.10919   2.11029   2.11363   2.11622
 Alpha virt. eigenvalues --    2.12194   2.12383   2.12686   2.12987   2.13228
 Alpha virt. eigenvalues --    2.13313   2.13943   2.14238   2.14448   2.14740
 Alpha virt. eigenvalues --    2.14793   2.14931   2.15525   2.15851   2.16231
 Alpha virt. eigenvalues --    2.16272   2.16399   2.16716   2.17065   2.17282
 Alpha virt. eigenvalues --    2.17726   2.18140   2.18376   2.18565   2.18664
 Alpha virt. eigenvalues --    2.18975   2.19029   2.19610   2.19936   2.20200
 Alpha virt. eigenvalues --    2.20240   2.20399   2.20645   2.20960   2.21175
 Alpha virt. eigenvalues --    2.21649   2.21995   2.22596   2.22884   2.23147
 Alpha virt. eigenvalues --    2.23250   2.23608   2.23830   2.23896   2.24294
 Alpha virt. eigenvalues --    2.24485   2.24620   2.25188   2.25212   2.25918
 Alpha virt. eigenvalues --    2.26509   2.26633   2.26787   2.27401   2.27876
 Alpha virt. eigenvalues --    2.27970   2.28202   2.28565   2.28745   2.28907
 Alpha virt. eigenvalues --    2.29423   2.29753   2.30075   2.30650   2.31064
 Alpha virt. eigenvalues --    2.31198   2.31523   2.31675   2.31863   2.32164
 Alpha virt. eigenvalues --    2.32551   2.32861   2.33426   2.34234   2.34644
 Alpha virt. eigenvalues --    2.35046   2.35123   2.35619   2.36169   2.36376
 Alpha virt. eigenvalues --    2.36504   2.36777   2.37147   2.37207   2.37580
 Alpha virt. eigenvalues --    2.37654   2.38421   2.38529   2.38629   2.38795
 Alpha virt. eigenvalues --    2.39040   2.39107   2.39338   2.40438   2.40680
 Alpha virt. eigenvalues --    2.40959   2.41169   2.41379   2.41436   2.41721
 Alpha virt. eigenvalues --    2.42140   2.43257   2.43558   2.43636   2.43954
 Alpha virt. eigenvalues --    2.44107   2.44176   2.44756   2.45053   2.45444
 Alpha virt. eigenvalues --    2.45651   2.45992   2.46182   2.46484   2.46797
 Alpha virt. eigenvalues --    2.47089   2.47871   2.48112   2.48234   2.48491
 Alpha virt. eigenvalues --    2.49159   2.49607   2.50185   2.50554   2.50894
 Alpha virt. eigenvalues --    2.51288   2.51518   2.51771   2.52137   2.52334
 Alpha virt. eigenvalues --    2.52699   2.52971   2.53072   2.53184   2.53663
 Alpha virt. eigenvalues --    2.54684   2.55668   2.55745   2.56072   2.56274
 Alpha virt. eigenvalues --    2.56415   2.56701   2.57085   2.57709   2.57891
 Alpha virt. eigenvalues --    2.58183   2.58675   2.58887   2.59066   2.59312
 Alpha virt. eigenvalues --    2.59567   2.59670   2.60128   2.60208   2.60872
 Alpha virt. eigenvalues --    2.61238   2.61408   2.61806   2.62105   2.62374
 Alpha virt. eigenvalues --    2.62471   2.62936   2.63194   2.63346   2.64015
 Alpha virt. eigenvalues --    2.64426   2.64512   2.65057   2.65436   2.65611
 Alpha virt. eigenvalues --    2.65682   2.66178   2.66502   2.66679   2.67178
 Alpha virt. eigenvalues --    2.67185   2.67602   2.68071   2.68803   2.69054
 Alpha virt. eigenvalues --    2.69277   2.69529   2.69827   2.70213   2.70438
 Alpha virt. eigenvalues --    2.70531   2.70678   2.71053   2.71372   2.71508
 Alpha virt. eigenvalues --    2.71623   2.71740   2.71899   2.72118   2.72276
 Alpha virt. eigenvalues --    2.72594   2.72916   2.73007   2.73200   2.73237
 Alpha virt. eigenvalues --    2.73448   2.74019   2.74125   2.74585   2.75026
 Alpha virt. eigenvalues --    2.75249   2.75605   2.75813   2.75935   2.76579
 Alpha virt. eigenvalues --    2.76606   2.76993   2.76999   2.77349   2.77482
 Alpha virt. eigenvalues --    2.77598   2.78004   2.78043   2.78449   2.78774
 Alpha virt. eigenvalues --    2.79122   2.79506   2.79582   2.79673   2.80294
 Alpha virt. eigenvalues --    2.80443   2.80569   2.80974   2.81331   2.81396
 Alpha virt. eigenvalues --    2.81778   2.82427   2.82611   2.82893   2.83038
 Alpha virt. eigenvalues --    2.83096   2.83367   2.83791   2.83885   2.84165
 Alpha virt. eigenvalues --    2.85052   2.85282   2.86190   2.86235   2.86519
 Alpha virt. eigenvalues --    2.86830   2.86884   2.87112   2.87387   2.87833
 Alpha virt. eigenvalues --    2.87939   2.88266   2.88715   2.88786   2.88869
 Alpha virt. eigenvalues --    2.89459   2.89590   2.89774   2.90520   2.90987
 Alpha virt. eigenvalues --    2.91156   2.91931   2.92215   2.92311   2.92641
 Alpha virt. eigenvalues --    2.93224   2.93364   2.93489   2.93678   2.93856
 Alpha virt. eigenvalues --    2.94005   2.94056   2.94743   2.94985   2.95174
 Alpha virt. eigenvalues --    2.95519   2.96163   2.96485   2.96751   2.97285
 Alpha virt. eigenvalues --    2.97608   2.97879   2.98079   2.98458   2.98644
 Alpha virt. eigenvalues --    2.98882   2.99211   2.99218   2.99827   3.00358
 Alpha virt. eigenvalues --    3.00643   3.01229   3.01284   3.01528   3.01857
 Alpha virt. eigenvalues --    3.02096   3.02267   3.02397   3.02844   3.03752
 Alpha virt. eigenvalues --    3.03909   3.04076   3.04409   3.04768   3.05100
 Alpha virt. eigenvalues --    3.05388   3.05630   3.06667   3.06752   3.07316
 Alpha virt. eigenvalues --    3.08567   3.08807   3.09181   3.09490   3.10490
 Alpha virt. eigenvalues --    3.10633   3.10913   3.11246   3.11491   3.12261
 Alpha virt. eigenvalues --    3.12462   3.12820   3.13580   3.13730   3.13830
 Alpha virt. eigenvalues --    3.13892   3.14627   3.15872   3.16565   3.17175
 Alpha virt. eigenvalues --    3.17614   3.17881   3.18178   3.18387   3.18741
 Alpha virt. eigenvalues --    3.19187   3.19438   3.19575   3.19924   3.20119
 Alpha virt. eigenvalues --    3.20201   3.20672   3.20980   3.21103   3.21959
 Alpha virt. eigenvalues --    3.22435   3.22964   3.23437   3.23873   3.24602
 Alpha virt. eigenvalues --    3.25039   3.25516   3.25667   3.26087   3.26378
 Alpha virt. eigenvalues --    3.26503   3.27251   3.28014   3.28423   3.28691
 Alpha virt. eigenvalues --    3.29372   3.30054   3.30464   3.30931   3.31219
 Alpha virt. eigenvalues --    3.31437   3.31668   3.32172   3.32479   3.32719
 Alpha virt. eigenvalues --    3.34371   3.34462   3.35914   3.38356   3.40618
 Alpha virt. eigenvalues --    3.40808   3.44378   3.46754   3.48780   3.49758
 Alpha virt. eigenvalues --    3.50727   3.52631   3.53275   3.53812   3.54628
 Alpha virt. eigenvalues --    3.59270   3.59526   3.59953   3.61057   3.61402
 Alpha virt. eigenvalues --    3.61988   3.63074   3.63253   3.63887   3.66373
 Alpha virt. eigenvalues --    3.66478   3.66662   3.67272   3.68185   3.68946
 Alpha virt. eigenvalues --    3.69561   3.69793   3.70249   3.70558   3.71000
 Alpha virt. eigenvalues --    3.71108   3.71285   3.71561   3.72357   3.72841
 Alpha virt. eigenvalues --    3.73631   3.74133   3.74317   3.75062   3.77745
 Alpha virt. eigenvalues --    3.79665   3.82135   3.83211   3.83445
          Condensed to atoms (all electrons):
 Mulliken charges:
               1
     1  C    0.083674
     2  C    0.018207
     3  O   -0.311332
     4  H    0.046113
     5  H    0.001174
     6  H    0.035201
     7  N   -0.115937
     8  C    0.091758
     9  C    0.059294
    10  O   -0.290089
    11  C    0.056231
    12  C    0.190457
    13  O   -0.378207
    14  O   -0.481479
    15  H    0.107872
    16  H    0.005217
    17  H    0.017281
    18  H    0.000172
    19  N   -0.116394
    20  C    0.130299
    21  C    0.044465
    22  O   -0.292669
    23  C   -0.017879
    24  C    0.026770
    25  C   -0.022229
    26  C   -0.026843
    27  N    0.097688
    28  H    0.156409
    29  H   -0.004506
    30  H    0.041135
    31  H    0.026857
    32  H    0.013866
    33  H    0.016766
    34  H    0.018125
    35  H    0.043761
    36  H    0.076187
    37  H    0.074860
    38  H    0.207670
    39  H    0.200442
    40  H    0.193175
    41  N   -0.171034
    42  C    0.097528
    43  C    0.077828
    44  O   -0.280001
    45  C    0.145277
    46  C    0.068593
    47  O   -0.420403
    48  O   -0.410116
    49  H    0.176479
    50  H    0.016765
    51  H   -0.028196
    52  H    0.004586
    53  N   -0.175694
    54  C    0.243229
    55  C    0.026082
    56  O   -0.331115
    57  H    0.150781
    58  H    0.014587
    59  H    0.027662
    60  N   -0.147269
    61  C    0.190923
    62  C    0.064286
    63  O   -0.332231
    64  C    0.009107
    65  C    0.098011
    66  N   -0.025807
    67  O   -0.371588
    68  H    0.165843
    69  H    0.018452
    70  H    0.053164
    71  H    0.024266
    72  H    0.133494
    73  H    0.085820
    74  N   -0.129408
    75  C    0.229928
    76  C    0.009477
    77  O   -0.317192
    78  H    0.154994
    79  H    0.038655
    80  H    0.031637
    81  N   -0.125555
    82  C    0.145826
    83  C    0.157045
    84  O   -0.356002
    85  C    0.136148
    86  C   -0.024082
    87  C    0.032064
    88  C    0.016288
    89  C   -0.042839
    90  C   -0.041899
    91  C    0.165749
    92  O   -0.180472
    93  H    0.153702
    94  H   -0.005467
    95  H   -0.017284
    96  H   -0.046957
    97  H   -0.043452
    98  H   -0.046352
    99  H   -0.032082
   100  H   -0.044347
   101  H    0.173422
   102  N   -0.116686
   103  C    0.125938
   104  C    0.053199
   105  O   -0.301577
   106  C   -0.095743
   107  C    0.010913
   108  C    0.079852
   109  C    0.026264
   110  H    0.136002
   111  H    0.026874
   112  H   -0.011597
   113  H   -0.002260
   114  H    0.017987
   115  H    0.032847
   116  H   -0.012190
   117  H   -0.002223
   118  H    0.002890
   119  H    0.006163
   120  H    0.006843
   121  N   -0.143911
   122  C    0.049916
   123  C    0.095180
   124  O   -0.270280
   125  C    0.267810
   126  O   -0.335174
   127  H    0.142607
   128  H    0.024742
   129  H   -0.008909
   130  H   -0.011816
   131  H    0.168248
   132  N   -0.111854
   133  C    0.060737
   134  C    0.065405
   135  O   -0.249868
   136  C    0.051303
   137  H    0.112154
   138  H    0.021358
   139  H    0.021762
   140  H    0.012334
   141  H    0.049064
   142  N   -0.138056
   143  C    0.103541
   144  C    0.077886
   145  O   -0.281231
   146  C    0.016058
   147  H    0.111503
   148  H    0.018492
   149  H    0.015672
   150  H    0.012937
   151  H    0.029267
   152  N   -0.143560
   153  C    0.140404
   154  C    0.072097
   155  O   -0.286326
   156  C   -0.006170
   157  C    0.092046
   158  C    0.171339
   159  O   -0.452748
   160  O   -0.367797
   161  H    0.119205
   162  H   -0.043613
   163  H    0.031291
   164  H    0.023114
   165  H   -0.051647
   166  H   -0.029296
   167  N   -0.169968
   168  C    0.162120
   169  H    0.024027
   170  H    0.019164
   171  H    0.006368
   172  H    0.138272
   173  Ca   1.266793
   174  O   -0.261707
   175  H    0.184836
   176  H    0.186961
 Sum of Mulliken charges =  -0.00000
 Mulliken charges with hydrogens summed into heavy atoms:
               1
     1  C    0.166162
     2  C    0.018207
     3  O   -0.311332
     7  N   -0.008065
     8  C    0.096975
     9  C    0.059294
    10  O   -0.290089
    11  C    0.073685
    12  C    0.190457
    13  O   -0.378207
    14  O   -0.481479
    19  N    0.040016
    20  C    0.125793
    21  C    0.044465
    22  O   -0.292669
    23  C    0.050113
    24  C    0.057402
    25  C    0.039657
    26  C    0.124204
    27  N    0.698976
    41  N    0.005445
    42  C    0.114293
    43  C    0.077828
    44  O   -0.280001
    45  C    0.121667
    46  C    0.068593
    47  O   -0.420403
    48  O   -0.410116
    53  N   -0.024913
    54  C    0.285479
    55  C    0.026082
    56  O   -0.331115
    60  N    0.018574
    61  C    0.209375
    62  C    0.064286
    63  O   -0.332231
    64  C    0.086537
    65  C    0.098011
    66  N    0.193508
    67  O   -0.371588
    74  N    0.025587
    75  C    0.300220
    76  C    0.009477
    77  O   -0.317192
    81  N    0.028147
    82  C    0.140358
    83  C    0.157045
    84  O   -0.356002
    85  C    0.071906
    86  C   -0.024082
    87  C   -0.011389
    88  C   -0.030064
    89  C   -0.074921
    90  C   -0.086246
    91  C    0.165749
    92  O   -0.007049
   102  N    0.019317
   103  C    0.152812
   104  C    0.053199
   105  O   -0.301577
   106  C   -0.107339
   107  C    0.026639
   108  C    0.098286
   109  C    0.042159
   121  N   -0.001304
   122  C    0.074658
   123  C    0.095180
   124  O   -0.270280
   125  C    0.247086
   126  O   -0.166926
   132  N    0.000300
   133  C    0.082096
   134  C    0.065405
   135  O   -0.249868
   136  C    0.134464
   142  N   -0.026553
   143  C    0.122034
   144  C    0.077886
   145  O   -0.281231
   146  C    0.073933
   152  N   -0.024355
   153  C    0.096791
   154  C    0.072097
   155  O   -0.286326
   156  C    0.048235
   157  C    0.011103
   158  C    0.171339
   159  O   -0.452748
   160  O   -0.367797
   167  N   -0.031695
   168  C    0.211679
   173  Ca   1.266793
   174  O    0.110090
 DipInt: DoE/N= T F RetVal/Mat= T F Init=T NMatP=  1 IDeriv=0 Min/MaxMlt=  0  4
 Entering OneElI...
 OneElI was handed  1333951383 working-precision words.
 Multipole integrals L=0 to 4 MinM= 0 MaxM= 0.
 Requested accuracy = 0.1000D-12
 ShPair: Thresh= 1.00D-13 NBox=     0 BxSize= 0.00D+00 RnKept= 2.55D+01
         NSMCal=               327645 NSMKep=              162774
 PrmmSu-InSpLW:  IPartL=    0 NPrtUS=    1 NPrtUL=    1 DoSpLW=F IThBeg=    0 IThEnd=    0 NThAct=    1.
 PrsmSu:  NPrtUS=   1 ThrOK=F IAlg=1 NPAlg=1 LenDen=           0 ISkipM=0 DoSpLW=F IThBeg=    0 IThEnd=    0.
 Prism:   IPart=     0 DynPar=F LinDyn=F Incr=         512.
 PRISM was handed  1323796027 working-precision words and162774 shell-pairs
 IPart=  0 NShTot=      162774 NBatch=         373 AvBLen=       436.4
 PrsmSu-ThDecC:  IPartSL=    0    0 NPrtUSL=    1    1 IThBeg=    0 IThEnd=    0 CPU=   -1 GPU=   -1 NThAct=    1.
 PrSmSu:  NxtVal=            513.
 Electronic moments (au):
       -716.00000000         13.65939315          1.57604563         -6.81546662
     -52461.33394222     -29179.52331828     -11774.15164823        123.68890385
        -26.39423113         -8.89410849     -20452.81876527     -35356.30804283
     -25359.55658989      -7866.13316938      88296.84316086      50637.93903814
     -15825.77932871       6301.41534691      15067.86989109      -8183.67164195
   -7888503.84096852   -2505146.33774955    -585901.90319028    -478808.89665716
     184081.55133731    -352578.45170464      57058.21474176     -83972.42162549
      31950.51159938   -2228544.49446133    -630879.88581277    -315589.23607152
    -181416.15558874     118181.98127627      73764.92249770
 Electronic spatial extent (au):  <R**2>=          93415.0089
 DipInt: DoE/N= F T RetVal/Mat= T F Init=T NMatP=  1 IDeriv=0 Min/MaxMlt=  0  4
 Nuclear    moments (au):
        716.00000000         -0.00000000          0.00000000          0.00000000
      52057.40011071      28833.39365313      11408.63023451          0.00000000
         -0.00000000         -0.00000000      22468.19681772      36144.82840845
      25219.74778272      10282.54296199     -86876.26867642     -51835.48984274
      15947.16060488      -6344.21547681     -15603.28107579       7840.46745129
    7704256.47782431    2413913.41012509     549050.10877032     499355.81165081
    -189251.30764274     372481.37655856     -60321.89632849      85104.63685537
     -31115.66416105    2200875.16802656     597697.03022726     293467.96501081
     178424.89630356    -124008.34581437     -73229.74733447
 Total      moments (au):
          0.00000000         13.65939315          1.57604563         -6.81546662
       -403.93383152       -346.12966516       -365.52141372        123.68890385
        -26.39423113         -8.89410849       2015.37805246        788.52036562
       -139.80880717       2416.40979261       1420.57448445      -1197.55080460
        121.38127617        -42.80012990       -535.41118470       -343.20419066
    -184247.36314421     -91232.92762445     -36851.79441996      20546.91499365
      -5169.75630543      19902.92485392      -3263.68158673       1132.21522987
        834.84743834     -27669.32643476     -33182.85558551     -22121.27106071
      -2991.25928519      -5826.36453810        535.17516323
 Traceless Quadrup. (au):
        -32.07219472         25.73197164          6.34022308        123.68890385
        -26.39423113         -8.89410849
 Charge=              0.0000 electrons
 Dipole moment (field-independent basis, Debye):
    X=             34.7187    Y=              4.0059    Z=            -17.3232  Tot=             39.0068
 Quadrupole moment (field-independent basis, Debye-Ang):
   XX=           -543.3048   YY=           -465.5563   ZZ=           -491.6388
   XY=            166.3658   XZ=            -35.5011   YZ=            -11.9629
 Traceless Quadrupole moment (field-independent basis, Debye-Ang):
   XX=            -43.1382   YY=             34.6104   ZZ=              8.5278
   XY=            166.3658   XZ=            -35.5011   YZ=            -11.9629
 Octapole moment (field-independent basis, Debye-Ang**2):
  XXX=           1434.4685  YYY=            561.2384  ZZZ=            -99.5105  XYY=           1719.9074
  XXY=           1011.1102  XXZ=           -852.3705  XZZ=             86.3945  YZZ=            -30.4635
  YYZ=           -381.0851  XYZ=           -244.2795
 Hexadecapole moment (field-independent basis, Debye-Ang**3):
 XXXX=         -69396.3919 YYYY=         -34362.6953 ZZZZ=         -13880.1529 XXXY=           7738.9534
 XXXZ=          -1947.1781 YYYX=           7496.3959 YYYZ=          -1229.2590 ZZZX=            426.4465
 ZZZY=            314.4436 XXYY=         -10421.5951 XXZZ=         -12498.2546 YYZZ=          -8331.9314
 XXYZ=          -1126.6517 YYXZ=          -2194.4883 ZZXY=            201.5726
 N-N= 2.187089939875D+04 E-N=-5.622769128254D+04  KE= 5.290394017035D+03
 Leave Link  601 at Wed Sep 18 16:09:10 2019, MaxMem=  1342177280 cpu:              48.9 elap:               1.6
 FitSet:  NAtFit=   176 NAtPot=   176 NAtFrz=     0 MDM=   180 TotChg=   0.00000
 Merz-Kollman atomic radii used.
 Read replacement radii for each type of atom:
 Rad(20) =   1.700000000000D+00
 Atom Element Radius
    1     6    1.50
    2     6    1.50
    3     8    1.40
    4     1    1.20
    5     1    1.20
    6     1    1.20
    7     7    1.50
    8     6    1.50
    9     6    1.50
   10     8    1.40
   11     6    1.50
   12     6    1.50
   13     8    1.40
   14     8    1.40
   15     1    1.20
   16     1    1.20
   17     1    1.20
   18     1    1.20
   19     7    1.50
   20     6    1.50
   21     6    1.50
   22     8    1.40
   23     6    1.50
   24     6    1.50
   25     6    1.50
   26     6    1.50
   27     7    1.50
   28     1    1.20
   29     1    1.20
   30     1    1.20
   31     1    1.20
   32     1    1.20
   33     1    1.20
   34     1    1.20
   35     1    1.20
   36     1    1.20
   37     1    1.20
   38     1    1.20
   39     1    1.20
   40     1    1.20
   41     7    1.50
   42     6    1.50
   43     6    1.50
   44     8    1.40
   45     6    1.50
   46     6    1.50
   47     8    1.40
   48     8    1.40
   49     1    1.20
   50     1    1.20
   51     1    1.20
   52     1    1.20
   53     7    1.50
   54     6    1.50
   55     6    1.50
   56     8    1.40
   57     1    1.20
   58     1    1.20
   59     1    1.20
   60     7    1.50
   61     6    1.50
   62     6    1.50
   63     8    1.40
   64     6    1.50
   65     6    1.50
   66     7    1.50
   67     8    1.40
   68     1    1.20
   69     1    1.20
   70     1    1.20
   71     1    1.20
   72     1    1.20
   73     1    1.20
   74     7    1.50
   75     6    1.50
   76     6    1.50
   77     8    1.40
   78     1    1.20
   79     1    1.20
   80     1    1.20
   81     7    1.50
   82     6    1.50
   83     6    1.50
   84     8    1.40
   85     6    1.50
   86     6    1.50
   87     6    1.50
   88     6    1.50
   89     6    1.50
   90     6    1.50
   91     6    1.50
   92     8    1.40
   93     1    1.20
   94     1    1.20
   95     1    1.20
   96     1    1.20
   97     1    1.20
   98     1    1.20
   99     1    1.20
  100     1    1.20
  101     1    1.20
  102     7    1.50
  103     6    1.50
  104     6    1.50
  105     8    1.40
  106     6    1.50
  107     6    1.50
  108     6    1.50
  109     6    1.50
  110     1    1.20
  111     1    1.20
  112     1    1.20
  113     1    1.20
  114     1    1.20
  115     1    1.20
  116     1    1.20
  117     1    1.20
  118     1    1.20
  119     1    1.20
  120     1    1.20
  121     7    1.50
  122     6    1.50
  123     6    1.50
  124     8    1.40
  125     6    1.50
  126     8    1.40
  127     1    1.20
  128     1    1.20
  129     1    1.20
  130     1    1.20
  131     1    1.20
  132     7    1.50
  133     6    1.50
  134     6    1.50
  135     8    1.40
  136     6    1.50
  137     1    1.20
  138     1    1.20
  139     1    1.20
  140     1    1.20
  141     1    1.20
  142     7    1.50
  143     6    1.50
  144     6    1.50
  145     8    1.40
  146     6    1.50
  147     1    1.20
  148     1    1.20
  149     1    1.20
  150     1    1.20
  151     1    1.20
  152     7    1.50
  153     6    1.50
  154     6    1.50
  155     8    1.40
  156     6    1.50
  157     6    1.50
  158     6    1.50
  159     8    1.40
  160     8    1.40
  161     1    1.20
  162     1    1.20
  163     1    1.20
  164     1    1.20
  165     1    1.20
  166     1    1.20
  167     7    1.50
  168     6    1.50
  169     1    1.20
  170     1    1.20
  171     1    1.20
  172     1    1.20
  173    20    1.70
  174     8    1.40
[...]
 **** Fit      -0.017080
 **** Fit      -0.021202
 **** Fit      -0.026671
 **** Fit      -0.034264
 **** Fit      -0.032820
 **** Fit      -0.030455
 **** Fit      -0.027332
 **** Fit      -0.023632
 **** Fit      -0.019571
 **** Fit      -0.015429
 **** Fit      -0.011545
 **** Fit      -0.008304
 **** Fit      -0.006060
 **** Fit      -0.005072
 **** Fit      -0.005458
 **** Fit      -0.007200
 **** Fit      -0.010162
 **** Fit      -0.014152
 **** Fit      -0.034597
 **** Fit      -0.036893
 **** Fit      -0.034836
 **** Fit      -0.031752
 **** Fit      -0.027783
 **** Fit      -0.023108
 **** Fit      -0.017961
 **** Fit      -0.012658
 **** Fit      -0.007608
 **** Fit      -0.003292
 **** Fit      -0.000160
 **** Fit       0.001472
 **** Fit       0.001458
 **** Fit      -0.037806
 **** Fit      -0.041034
 **** Fit      -0.038218
 **** Fit      -0.034165
 **** Fit      -0.029040
 **** Fit      -0.023061
 **** Fit      -0.016513
 **** Fit      -0.009789
 **** Fit      -0.003413
 **** Fit       0.002006
 **** Fit       0.005935
 **** Fit      -0.042701
 **** Fit      -0.042522
 **** Fit      -0.024531
 **** Fit      -0.016413
 **** Fit      -0.008189
 **** Fit      -0.000489
 **** Fit       0.005985
 **** Fit      -0.005900
 **** Fit       0.002960
 **** Fit      -0.019107
 **** Fit       0.015638
 **** Fit      -0.002085
 **** Fit      -0.009936
 **** Fit      -0.015363
 **** Fit       0.010143
 **** Fit       0.007010
 **** Fit       0.001263
 **** Fit      -0.005278
 **** Fit      -0.009207
 **** Fit      -0.009371
 **** Fit       0.004971
 **** Fit       0.003379
 **** Fit      -0.002100
 **** Fit      -0.005070
 **** Fit      -0.000282
 **** Fit      -0.017870
 **** Fit      -0.011642
 **** Fit      -0.016878
 **** Fit      -0.010147
 **** Fit      -0.014304
 **** Fit       0.009317
 **** Fit       0.005184
 **** Fit      -0.000853
 **** Fit       0.033071
 **** Fit       0.034624
 **** Fit       0.030134
 **** Fit       0.034062
 **** Fit       0.037464
 **** Fit       0.021032
 **** Fit      -0.019428
 **** Fit       0.028423
 **** Fit       0.030881
 **** Fit       0.031896
 **** Fit       0.030127
 **** Fit       0.024884
 **** Fit       0.016436
 **** Fit       0.005586
 **** Fit      -0.006653
 **** Fit      -0.018491
 **** Fit       0.022829
 **** Fit       0.024879
 **** Fit       0.025641
 **** Fit       0.023826
 **** Fit       0.018607
 **** Fit       0.010273
 **** Fit       0.000132
 **** Fit      -0.009526
 **** Fit       0.018570
 **** Fit       0.019737
 **** Fit       0.017683
 **** Fit       0.011581
 **** Fit       0.002883
 **** Fit      -0.004562
 **** Fit       0.013337
 **** Fit       0.012209
 **** Fit       0.005346
 **** Fit       0.007336
 **** Fit      -0.005993
 **** Fit      -0.003886
 **** Fit      -0.004240
 **** Fit      -0.004969
 **** Fit      -0.006376
 **** Fit      -0.007632
 **** Fit      -0.008913
 **** Fit      -0.003502
 **** Fit      -0.003355
 **** Fit      -0.003442
 **** Fit      -0.003813
 **** Fit      -0.004446
 **** Fit      -0.005304
 **** Fit      -0.006743
 **** Fit      -0.008108
 **** Fit      -0.009703
 **** Fit      -0.011345
 **** Fit      -0.003311
 **** Fit      -0.002968
 **** Fit      -0.002815
 **** Fit      -0.002936
 **** Fit      -0.003334
 **** Fit      -0.003945
 **** Fit      -0.004712
 **** Fit      -0.005629
 **** Fit      -0.007102
 **** Fit      -0.008433
 **** Fit      -0.010102
 **** Fit      -0.012071
 **** Fit      -0.014164
 **** Fit      -0.003596
 **** Fit      -0.003029
 **** Fit      -0.002546
 **** Fit      -0.002485
 **** Fit      -0.002992
 **** Fit      -0.003646
 **** Fit      -0.004377
 **** Fit      -0.005165
 **** Fit      -0.006046
 **** Fit      -0.015553
 **** Fit      -0.018434
 **** Fit      -0.021119
 **** Fit      -0.004056
 **** Fit      -0.003232
 **** Fit      -0.003248
 **** Fit      -0.004054
 **** Fit      -0.004843
 **** Fit      -0.005620
 **** Fit      -0.006453
 **** Fit      -0.024178
 **** Fit      -0.028010
 **** Fit      -0.004910
 **** Fit      -0.003743
 **** Fit      -0.003864
 **** Fit      -0.004740
 **** Fit      -0.005514
 **** Fit      -0.006220
 **** Fit      -0.004726
 **** Fit      -0.005633
 **** Fit      -0.006362
 **** Fit      -0.005999
 **** Fit      -0.006873
 **** Fit      -0.007644
 **** Fit      -0.008484
 **** Fit      -0.009704
 **** Fit      -0.010579
 **** Fit      -0.012640
 **** Fit      -0.013517
 **** Fit      -0.016831
 **** Fit      -0.017633
 **** Fit      -0.020988
 **** Fit      -0.022636
 **** Fit      -0.023380
 **** Fit      -0.008345
 **** Fit      -0.009905
 **** Fit      -0.011941
 **** Fit      -0.007186
 **** Fit      -0.008488
 **** Fit      -0.009915
 **** Fit      -0.011871
 **** Fit      -0.014425
 **** Fit      -0.017493
 **** Fit      -0.006660
 **** Fit      -0.007456
 **** Fit      -0.008786
 **** Fit      -0.010120
 **** Fit      -0.012006
 **** Fit      -0.014589
 **** Fit      -0.017979
 **** Fit      -0.022159
 **** Fit      -0.006560
 **** Fit      -0.007160
 **** Fit      -0.007850
 **** Fit      -0.009327
 **** Fit      -0.010551
 **** Fit      -0.012310
 **** Fit      -0.014772
 **** Fit      -0.018130
 **** Fit      -0.022578
 **** Fit      -0.028235
 **** Fit      -0.007426
 **** Fit      -0.007900
 **** Fit      -0.008489
 **** Fit      -0.010204
 **** Fit      -0.011400
 **** Fit      -0.013172
 **** Fit      -0.015717
 **** Fit      -0.019294
 **** Fit      -0.024241
 **** Fit      -0.008160
 **** Fit      -0.008543
 **** Fit      -0.008916
 **** Fit      -0.009423
 **** Fit      -0.011523
 **** Fit      -0.012677
 **** Fit      -0.014429
 **** Fit      -0.016986
 **** Fit      -0.020637
 **** Fit      -0.025805
 **** Fit      -0.009900
 **** Fit      -0.010136
 **** Fit      -0.010391
 **** Fit      -0.010808
 **** Fit      -0.013406
 **** Fit      -0.014546
 **** Fit      -0.016337
 **** Fit      -0.018998
 **** Fit      -0.022845
 **** Fit      -0.028372
 **** Fit      -0.012281
 **** Fit      -0.012338
 **** Fit      -0.012444
 **** Fit      -0.012753
 **** Fit      -0.015996
 **** Fit      -0.017190
 **** Fit      -0.019181
 **** Fit      -0.022225
 **** Fit      -0.026709
 **** Fit      -0.015613
 **** Fit      -0.015398
 **** Fit      -0.015267
 **** Fit      -0.015410
 **** Fit      -0.019461
 **** Fit      -0.020741
 **** Fit      -0.023056
 **** Fit      -0.026707
 **** Fit      -0.032164
 **** Fit      -0.020404
 **** Fit      -0.019703
 **** Fit      -0.019146
 **** Fit      -0.018995
 **** Fit      -0.023976
 **** Fit      -0.025309
 **** Fit      -0.027977
 **** Fit      -0.032283
 **** Fit      -0.038685
 **** Fit      -0.025682
 **** Fit      -0.024401
 **** Fit      -0.023747
 **** Fit      -0.029677
 **** Fit      -0.031129
 **** Fit      -0.034538
 **** Fit      -0.040168
 **** Fit      -0.029936
 **** Fit      -0.036518
 **** Fit      -0.037942
 **** Fit      -0.005427
 **** Fit      -0.005930
 **** Fit      -0.006623
 **** Fit      -0.006074
 **** Fit      -0.005036
 **** Fit      -0.004603
 **** Fit      -0.004957
 **** Fit      -0.006526
 **** Fit      -0.007656
 **** Fit      -0.008293
 **** Fit      -0.008026
 **** Fit      -0.006980
 **** Fit      -0.005749
 **** Fit      -0.004790
 **** Fit      -0.004262
 **** Fit      -0.004079
 **** Fit      -0.004170
 **** Fit      -0.004590
 **** Fit      -0.005402
 **** Fit      -0.007203
 **** Fit      -0.008586
 **** Fit      -0.009831
 **** Fit      -0.010585
 **** Fit      -0.010540
 **** Fit      -0.009638
 **** Fit      -0.008226
 **** Fit      -0.006827
 **** Fit      -0.005651
 **** Fit      -0.004769
 **** Fit      -0.004242
 **** Fit      -0.003957
 **** Fit      -0.003802
 **** Fit      -0.003758
 **** Fit      -0.003881
 **** Fit      -0.011362
 **** Fit      -0.012872
 **** Fit      -0.013817
 **** Fit      -0.013882
 **** Fit      -0.012938
 **** Fit      -0.011202
 **** Fit      -0.005562
 **** Fit      -0.004824
 **** Fit      -0.004379
 **** Fit      -0.004062
 **** Fit      -0.003801
 **** Fit      -0.003592
 **** Fit      -0.015347
 **** Fit      -0.017281
 **** Fit      -0.018460
 **** Fit      -0.018527
 **** Fit      -0.017318
 **** Fit      -0.005900
 **** Fit      -0.005272
 **** Fit      -0.004734
 **** Fit      -0.004244
 **** Fit      -0.003803
 **** Fit      -0.023554
 **** Fit      -0.025113
 **** Fit      -0.025254
 **** Fit      -0.023815
 **** Fit      -0.007186
 **** Fit      -0.006196
 **** Fit      -0.005283
 **** Fit      -0.010350
 **** Fit      -0.017956
 **** Fit      -0.002208
 **** Fit      -0.002494
 **** Fit      -0.001926
 **** Fit      -0.001656
 **** Fit      -0.001714
 **** Fit      -0.002078
 **** Fit      -0.002331
 **** Fit      -0.001665
 **** Fit      -0.001259
 **** Fit      -0.001134
 **** Fit      -0.001299
 **** Fit      -0.001731
 **** Fit      -0.002368
 **** Fit      -0.002643
 **** Fit      -0.001767
 **** Fit      -0.001157
 **** Fit      -0.000803
 **** Fit      -0.000722
 **** Fit      -0.000927
 **** Fit      -0.001400
 **** Fit      -0.002091
 **** Fit      -0.002922
 **** Fit      -0.002147
 **** Fit      -0.001336
 **** Fit      -0.000775
 **** Fit      -0.000466
 **** Fit      -0.000430
 **** Fit      -0.000679
 **** Fit      -0.001200
 **** Fit      -0.001950
 **** Fit      -0.002858
 **** Fit      -0.003841
 **** Fit      -0.001613
 **** Fit      -0.000867
 **** Fit      -0.000405
 **** Fit      -0.000244
 **** Fit      -0.000407
 **** Fit      -0.000894
 **** Fit      -0.001671
 **** Fit      -0.002673
 **** Fit      -0.003813
 **** Fit      -0.004990
 **** Fit      -0.002217
 **** Fit      -0.001239
 **** Fit      -0.000592
 **** Fit      -0.000277
 **** Fit      -0.000325
 **** Fit      -0.000751
 **** Fit      -0.001534
 **** Fit      -0.002615
 **** Fit      -0.003905
 **** Fit      -0.005295
 **** Fit      -0.006672
 **** Fit      -0.002365
 **** Fit      -0.001355
 **** Fit      -0.000715
 **** Fit      -0.000485
 **** Fit      -0.000711
 **** Fit      -0.001399
 **** Fit      -0.002509
 **** Fit      -0.003950
 **** Fit      -0.005598
 **** Fit      -0.007312
 **** Fit      -0.008952
 **** Fit      -0.002487
 **** Fit      -0.001510
 **** Fit      -0.001065
 **** Fit      -0.001243
 **** Fit      -0.002073
 **** Fit      -0.003505
 **** Fit      -0.005404
 **** Fit      -0.007581
 **** Fit      -0.009820
 **** Fit      -0.011919
 **** Fit      -0.003517
 **** Fit      -0.002400
 **** Fit      -0.002161
 **** Fit      -0.002913
 **** Fit      -0.004628
 **** Fit      -0.007124
 **** Fit      -0.010088
 **** Fit      -0.013157
 **** Fit      -0.015983
 **** Fit      -0.005285
 **** Fit      -0.004130
 **** Fit      -0.004458
 **** Fit      -0.006344
 **** Fit      -0.009571
 **** Fit      -0.013650
 **** Fit      -0.001336
 **** Fit       0.003684
 **** Fit       0.007368
 **** Fit       0.013792
 **** Fit       0.013388
 **** Fit       0.019840
 **** Fit       0.019893
 **** Fit       0.025954
 **** Fit       0.025992
 **** Fit       0.031457
 **** Fit       0.036665
 **** Fit       0.040622
 **** Fit       0.007282
 **** Fit       0.016144
 **** Fit       0.016147
 **** Fit       0.023878
 **** Fit       0.031324
 **** Fit       0.038350
 **** Fit       0.042951
 **** Fit       0.044473
 **** Fit       0.006484
 **** Fit       0.036668
 **** Fit       0.009544
 **** Fit       0.007291
 **** Fit       0.039578
 **** Fit       0.038022
 **** Fit       0.014615
 **** Fit       0.013600
 **** Fit       0.011617
 **** Fit       0.009717
 **** Fit       0.009245
 **** Fit       0.042181
 **** Fit       0.039990
 **** Fit       0.038323
 **** Fit       0.036454
 **** Fit       0.021783
 **** Fit       0.020465
 **** Fit       0.019892
 **** Fit       0.019036
 **** Fit       0.017657
 **** Fit       0.016330
 **** Fit       0.016054
 **** Fit       0.017615
 **** Fit       0.042852
 **** Fit       0.040569
 **** Fit       0.038598
 **** Fit       0.036305
 **** Fit       0.033135
 **** Fit       0.029006
 **** Fit       0.024767
 **** Fit       0.027192
 **** Fit       0.025437
 **** Fit       0.024181
 **** Fit       0.023002
 **** Fit       0.022045
 **** Fit       0.021971
 **** Fit       0.023469
 **** Fit       0.026838
 **** Fit       0.045591
 **** Fit       0.042870
 **** Fit       0.040616
 **** Fit       0.038479
 **** Fit       0.036013
 **** Fit       0.033011
 **** Fit       0.029825
 **** Fit       0.030804
 **** Fit       0.028932
 **** Fit       0.027580
 **** Fit       0.026798
 **** Fit       0.027085
 **** Fit       0.029027
 **** Fit       0.032778
 **** Fit       0.047233
 **** Fit       0.045263
 **** Fit       0.042931
 **** Fit       0.040682
 **** Fit       0.038434
 **** Fit       0.035941
 **** Fit       0.033251
 **** Fit       0.033399
 **** Fit       0.031581
 **** Fit       0.030840
 **** Fit       0.031797
 **** Fit       0.034828
 **** Fit       0.039068
 **** Fit       0.042537
 **** Fit       0.043739
 **** Fit       0.042815
 **** Fit       0.040831
 **** Fit       0.038467
 **** Fit       0.035875
 **** Fit       0.035490
 **** Fit       0.034365
 **** Fit       0.036370
 **** Fit       0.039685
 **** Fit       0.040250
 **** Fit       0.038156
 **** Fit       0.037467
 **** Fit       0.020491
 **** Fit       0.021333
 **** Fit       0.022145
 **** Fit       0.018654
 **** Fit       0.020403
 **** Fit       0.022126
 **** Fit       0.023603
 **** Fit       0.024837
 **** Fit       0.025997
 **** Fit       0.027361
 **** Fit       0.023950
 **** Fit       0.023069
 **** Fit       0.023390
 **** Fit       0.024415
 **** Fit       0.025725
 **** Fit       0.027068
 **** Fit       0.028379
 **** Fit       0.029750
 **** Fit       0.031395
 **** Fit       0.029313
 **** Fit       0.028308
 **** Fit       0.028337
 **** Fit       0.029010
 **** Fit       0.030028
 **** Fit       0.031231
 **** Fit       0.032611
 **** Fit       0.034297
 **** Fit       0.036520
 **** Fit       0.033728
 **** Fit       0.032661
 **** Fit       0.032511
 **** Fit       0.032977
 **** Fit       0.033851
 **** Fit       0.035045
 **** Fit       0.036600
 **** Fit       0.038668
 **** Fit       0.041501
 **** Fit       0.039037
 **** Fit       0.036958
 **** Fit       0.036082
 **** Fit       0.036069
 **** Fit       0.036680
 **** Fit       0.037795
 **** Fit       0.039431
 **** Fit       0.041737
 **** Fit       0.041096
 **** Fit       0.039457
 **** Fit       0.038907
 **** Fit       0.039194
 **** Fit       0.040171
 **** Fit       0.041823
 **** Fit       0.044270
 **** Fit       0.043371
 **** Fit       0.041779
 **** Fit       0.041341
 **** Fit       0.041893
 **** Fit       0.043339
 **** Fit       0.045688
 **** Fit       0.045762
 **** Fit       0.043970
 **** Fit       0.043352
 **** Fit       0.044117
 **** Fit       0.046095
 **** Fit       0.046276
 **** Fit       0.045622
 **** Fit       0.044952
 **** Fit       0.046157
 **** Fit       0.046108
 -----------------------------------------------------------------
 Leave Link  602 at Wed Sep 18 16:09:12 2019, MaxMem=  1342177280 cpu:             109.3 elap:               2.3

 Test job not archived.
 1\1\GINC-C490-121\SP\RB3LYP\SVP\C54H83Ca1N15O23\JAEBEOMH\18-Sep-2019\0
 \\#b3lyp/svp scf=(tight,noincore) Test #IOP(5/87=12) Density=Current P
 op=(MK,readradii) iop(6/33=2) iop(6/42=6)\\CaMKII_loop3_51.0\\0,1\C,0,
 79.63,58.77,19.91\C,0,79.29,57.4,19.36\O,0,80.23,56.67,19.04\H,0,80.53
 1,59.143,19.423\H,0,78.804,59.455,19.718\H,0,79.801,58.699,20.984\N,0,
 78.06,56.89,19.19\C,0,77.75,55.65,18.51\C,0,77.71,55.75,16.99\O,0,76.7
 2,56.08,16.35\C,0,76.44,55.04,19.\C,0,76.27,53.62,18.51\O,0,75.18,53.1
 1,18.85\O,0,77.14,53.09,17.77\H,0,77.26,57.45,19.45\H,0,78.54,54.93,18
 .72\H,0,75.68,55.77,18.72\H,0,76.49,55.03,20.09\N,0,78.79,55.39,16.3\C
 ,0,79.09,55.48,14.89\C,0,78.21,54.73,13.9\O,0,77.8,55.2,12.83\C,0,80.5
 7,55.2,14.66\C,0,81.13,55.63,13.31\C,0,82.65,55.7,13.17\C,0,83.06,56.0
 8,11.75\N,0,84.51,56.23,11.58\H,0,79.51,54.91,16.83\H,0,78.93,56.52,14
 .57\H,0,80.84,54.17,14.93\H,0,81.02,55.81,15.45\H,0,80.68,56.59,13.04\
 H,0,80.84,54.89,12.56\H,0,83.07,54.71,13.34\H,0,83.09,56.39,13.89\H,0,
 82.57,57.03,11.56\H,0,82.73,55.3,11.06\H,0,84.91,56.89,12.23\H,0,84.96
 ,55.32,11.58\H,0,84.56,56.57,10.63\N,0,77.85,53.52,14.32\C,0,77.02,52.
 61,13.56\C,0,75.59,52.54,14.08\O,0,74.78,51.92,13.4\C,0,77.65,51.23,13
 .68\C,0,77.86,50.77,15.12\O,0,76.91,50.68,15.92\O,0,79.03,50.58,15.51\
 H,0,78.2,53.3,15.24\H,0,77.05,52.87,12.5\H,0,78.58,51.22,13.1\H,0,77.0
 1,50.51,13.18\N,0,75.36,53.21,15.22\C,0,74.08,53.56,15.8\C,0,73.47,52.
 39,16.56\O,0,72.32,52.48,17.\H,0,76.14,53.75,15.55\H,0,73.35,53.94,15.
 09\H,0,74.23,54.45,16.41\N,0,74.11,51.23,16.65\C,0,73.59,49.99,17.2\C,
 0,73.17,50.03,18.67\O,0,72.75,48.95,19.1\C,0,74.57,48.85,16.94\C,0,75.
 74,48.73,17.91\N,0,76.45,47.62,17.73\O,0,76.23,49.64,18.58\H,0,75.05,5
 1.25,16.28\H,0,72.73,49.77,16.56\H,0,74.98,48.85,15.93\H,0,73.99,47.93
 ,17.05\H,0,76.13,47.07,16.94\H,0,77.19,47.45,18.39\N,0,73.36,51.07,19.
 48\C,0,73.15,51.22,20.91\C,0,74.32,51.24,21.88\O,0,74.07,51.32,23.09\H
 ,0,73.76,51.91,19.08\H,0,72.53,50.38,21.23\H,0,72.67,52.16,21.17\N,0,7
 5.57,51.13,21.43\C,0,76.71,50.94,22.3\C,0,77.97,51.59,21.75\O,0,78.25,
 51.56,20.55\C,0,76.99,49.44,22.33\C,0,75.85,48.57,22.8\C,0,75.53,48.5,
 24.16\C,0,74.99,47.99,21.86\C,0,74.4,47.8,24.6\C,0,73.89,47.29,22.34\C
 ,0,73.57,47.1,23.7\O,0,72.48,46.35,24.01\H,0,75.6,50.99,20.43\H,0,76.6
 1,51.4,23.29\H,0,77.73,49.17,23.08\H,0,77.4,49.14,21.37\H,0,76.22,48.9
 4,24.87\H,0,75.19,48.02,20.79\H,0,74.24,47.65,25.66\H,0,73.17,46.81,21
 .68\H,0,72.16,45.93,23.21\N,0,78.76,52.16,22.66\C,0,80.,52.82,22.3\C,0
 ,81.12,51.8,22.47\O,0,81.28,51.32,23.59\C,0,80.16,54.02,23.23\C,0,79.0
 6,55.05,23.03\C,0,81.51,54.62,22.84\C,0,78.97,56.02,24.21\H,0,78.62,52
 .08,23.66\H,0,80.04,53.13,21.25\H,0,80.2,53.7,24.27\H,0,78.06,54.61,23
 .11\H,0,79.12,55.65,22.12\H,0,81.7,54.58,21.77\H,0,81.58,55.59,23.34\H
 ,0,82.38,54.15,23.29\H,0,79.84,56.67,24.19\H,0,78.12,56.69,24.08\H,0,7
 8.85,55.4,25.09\N,0,81.99,51.58,21.49\C,0,83.32,51.,21.58\C,0,84.48,51
 .94,21.3\O,0,84.35,53.13,21.01\C,0,83.29,49.75,20.7\O,0,83.02,50.07,19
 .35\H,0,81.72,51.99,20.6\H,0,83.45,50.74,22.63\H,0,82.42,49.21,21.07\H
 ,0,84.15,49.1,20.87\H,0,82.18,50.52,19.3\N,0,85.67,51.44,21.63\C,0,86.
 94,52.13,21.58\C,0,87.29,52.89,20.31\O,0,87.52,54.09,20.45\C,0,88.09,5
 1.4,22.27\H,0,85.57,50.53,22.06\H,0,86.81,52.98,22.26\H,0,87.81,50.9,2
 3.19\H,0,88.41,50.68,21.51\H,0,88.83,52.14,22.59\N,0,87.11,52.29,19.13
 \C,0,87.23,52.9,17.82\C,0,86.26,54.05,17.59\O,0,86.55,55.06,16.95\C,0,
 87.09,51.71,16.87\H,0,86.71,51.37,19.13\H,0,88.26,53.22,17.68\H,0,86.1
 6,51.18,17.07\H,0,87.02,52.01,15.83\H,0,87.91,51.,16.99\N,0,85.04,54.,
 18.13\C,0,84.,55.,17.96\C,0,84.31,56.29,18.71\O,0,84.36,57.37,18.12\C,
 0,82.64,54.37,18.22\C,0,82.36,53.07,17.48\C,0,80.96,52.54,17.75\O,0,80
 .78,51.84,18.77\O,0,80.03,52.83,16.98\H,0,84.8,53.13,18.58\H,0,84.03,5
 5.31,16.91\H,0,81.87,55.,17.78\H,0,82.57,54.29,19.31\H,0,83.06,52.32,1
 7.84\H,0,82.59,53.17,16.42\N,0,84.64,56.14,19.99\C,0,84.97,57.3,20.8\H
 ,0,85.845,57.798,20.382\H,0,84.127,57.992,20.806\H,0,85.187,56.982,21.
 82\H,0,84.66,55.18,20.32\Ca,0,78.32,50.93,18.01\O,0,79.17,48.58,19.33\
 H,0,80.04,48.29,19.05\H,0,78.79,47.82,19.77\\Version=ES64L-G16RevA.03\
 State=1-A\HF=-5333.5795443\RMSD=8.158e-09\Dipole=14.1306343,-0.1627796
 ,-5.9843297\Quadrupole=-72.0055047,13.6434837,58.362021,-2.3035237,-10
 1.5469591,-47.2711564\PG=C01 [X(C54H83Ca1N15O23)]\\@


 When I told the people of Northern Ireland that I was
 an atheist, a woman in the audience stood up and said,
 "Yes, but is it the God of the Catholics or the God
 of the Protestants in whom you don't believe?"
                               -- Quentin Crisp
 Job cpu time:       0 days  8 hours 25 minutes 47.0 seconds.
 Elapsed time:       0 days  0 hours 10 minutes 39.4 seconds.
 File lengths (MBytes):  RWF=   1517 Int=      0 D2E=      0 Chk=    171 Scr=      1
 Normal termination of Gaussian 16 at Wed Sep 18 16:09:13 2019.
