 Entering Gaussian System, Link 0=g09
 Initial command:
 /home/pcieplak/g09/g09/l1.exe "/scratch1/pcieplak/fullloop_6.0/Gau-7263.inp" -scrdir="/scratch1/pcieplak/fullloop_6.0/"
 Entering Link 1 = /home/pcieplak/g09/g09/l1.exe PID=      7264.
  
 Copyright (c) 1988,1990,1992,1993,1995,1998,2003,2009,2013,
            Gaussian, Inc.  All Rights Reserved.
  
 This is part of the Gaussian(R) 09 program.  It is based on
 the Gaussian(R) 03 system (copyright 2003, Gaussian, Inc.),
 the Gaussian(R) 98 system (copyright 1998, Gaussian, Inc.),
 the Gaussian(R) 94 system (copyright 1995, Gaussian, Inc.),
 the Gaussian 92(TM) system (copyright 1992, Gaussian, Inc.),
 the Gaussian 90(TM) system (copyright 1990, Gaussian, Inc.),
 the Gaussian 88(TM) system (copyright 1988, Gaussian, Inc.),
 the Gaussian 86(TM) system (copyright 1986, Carnegie Mellon
 University), and the Gaussian 82(TM) system (copyright 1983,
 Carnegie Mellon University). Gaussian is a federally registered
 trademark of Gaussian, Inc.
  
 This software contains proprietary and confidential information,
 including trade secrets, belonging to Gaussian, Inc.
  
 This software is provided under written license and may be
 used, copied, transmitted, or stored only in accord with that
 written license.
  
 The following legend is applicable only to US Government
 contracts under FAR:
  
                    RESTRICTED RIGHTS LEGEND
  
 Use, reproduction and disclosure by the US Government is
 subject to restrictions as set forth in subparagraphs (a)
 and (c) of the Commercial Computer Software - Restricted
 Rights clause in FAR 52.227-19.
  
 Gaussian, Inc.
 340 Quinnipiac St., Bldg. 40, Wallingford CT 06492
  
  
 ---------------------------------------------------------------
 Warning -- This program may not be used in any manner that
 competes with the business of Gaussian, Inc. or will provide
 assistance to any competitor of Gaussian, Inc.  The licensee
 of this program is prohibited from giving any competitor of
 Gaussian, Inc. access to this program.  By using this program,
 the user acknowledges that Gaussian, Inc. is engaged in the
 business of creating and licensing software in the field of
 computational chemistry and represents and warrants to the
 licensee that it is not a competitor of Gaussian, Inc. and that
 it will not use this program in any manner prohibited above.
 ---------------------------------------------------------------
  

 Cite this work as:
 Gaussian 09, Revision D.01,
 M. J. Frisch, G. W. Trucks, H. B. Schlegel, G. E. Scuseria, 
 M. A. Robb, J. R. Cheeseman, G. Scalmani, V. Barone, B. Mennucci, 
 G. A. Petersson, H. Nakatsuji, M. Caricato, X. Li, H. P. Hratchian, 
 A. F. Izmaylov, J. Bloino, G. Zheng, J. L. Sonnenberg, M. Hada, 
 M. Ehara, K. Toyota, R. Fukuda, J. Hasegawa, M. Ishida, T. Nakajima, 
 Y. Honda, O. Kitao, H. Nakai, T. Vreven, J. A. Montgomery, Jr., 
 J. E. Peralta, F. Ogliaro, M. Bearpark, J. J. Heyd, E. Brothers, 
 K. N. Kudin, V. N. Staroverov, T. Keith, R. Kobayashi, J. Normand, 
 K. Raghavachari, A. Rendell, J. C. Burant, S. S. Iyengar, J. Tomasi, 
 M. Cossi, N. Rega, J. M. Millam, M. Klene, J. E. Knox, J. B. Cross, 
 V. Bakken, C. Adamo, J. Jaramillo, R. Gomperts, R. E. Stratmann, 
 O. Yazyev, A. J. Austin, R. Cammi, C. Pomelli, J. W. Ochterski, 
 R. L. Martin, K. Morokuma, V. G. Zakrzewski, G. A. Voth, 
 P. Salvador, J. J. Dannenberg, S. Dapprich, A. D. Daniels, 
 O. Farkas, J. B. Foresman, J. V. Ortiz, J. Cioslowski, 
 and D. J. Fox, Gaussian, Inc., Wallingford CT, 2013.
 
 ******************************************
 Gaussian 09:  ES64L-G09RevD.01 24-Apr-2013
                16-Sep-2019 
 ******************************************
 %Nproc=12
 Will use up to   12 processors via shared memory.
 %chk=chk1mol
 %mem=32GB
 ----------------------------------------------------------------------
 #maxdisk=50GB #B3LYP/SVP Density=Current scf=(tight) #IOP(5/87=12)Pop=
 (MK,readradii) iop(6/33=2) iop(6/42=6)
 ----------------------------------------------------------------------
 1/30=1,38=1/1;
 2/12=2,17=6,18=5,40=1/2;
 3/5=18,7=101,11=2,16=1,25=1,30=1,74=-5/1,2,3;
 4//1;
 5/5=2,32=2,38=5,87=12/2;
 6/7=2,8=2,9=2,10=2,15=8,20=101,22=-1,28=1,33=2,42=6/1,2;
 99/5=1,9=1/99;
 ------------
 SOL molecule
 ------------
 Symbolic Z-matrix:
 Charge =  0 Multiplicity = 1
 C                     77.72     61.51     20.54 
 C                     77.41     60.05     20.25 
 O                     78.3      59.2      20.23 
 H                     78.639    61.795    20.027 
 H                     76.899    62.134    20.186 
 H                     77.846    61.649    21.614 
 N                     76.15     59.62     20.15 
 C                     75.82     58.37     19.49 
 C                     75.99     58.52     17.99 
 O                     75.03     58.69     17.25 
 C                     74.44     57.89     19.9 
 C                     74.05     56.59     19.22 
 O                     72.84     56.37     19.01 
 O                     74.91     55.7      19.02 
 H                     75.44     60.34     20.18 
 H                     76.6      57.65     19.74 
 H                     73.7      58.62     19.57 
 H                     74.32     57.64     20.96 
 N                     77.23     58.48     17.49 
 C                     77.62     58.68     16.11 
 C                     76.83     57.88     15.09 
 O                     76.37     58.37     14.06 
 C                     79.1      58.35     15.94 
 C                     79.73     58.49     14.56 
 C                     81.24     58.45     14.78 
 C                     81.96     58.6      13.44 
 N                     83.42     58.49     13.59 
 H                     77.94     58.59     18.21 
 H                     77.47     59.74     15.88 
 H                     79.33     57.35     16.31 
 H                     79.64     58.99     16.64 
 H                     79.4      59.4      14.06 
 H                     79.39     57.64     13.97 
 H                     81.47     57.47     15.19 
 H                     81.43     59.26     15.49 
 H                     81.69     59.56     12.99 
 H                     81.67     57.74     12.84 
 H                     83.71     57.78     14.25 
 H                     83.81     58.23     12.69 
 H                     83.87     59.37     13.77 
 N                     76.73     56.57     15.35 
 C                     76.05     55.67     14.45 
 C                     74.55     55.63     14.73 
 O                     73.85     54.98     13.97 
 C                     76.61     54.26     14.37 
 C                     76.5      53.37     15.6 
 O                     75.96     53.78     16.64 
 O                     76.89     52.18     15.54 
 H                     77.21     56.12     16.12 
 H                     76.17     56.06     13.43 
 H                     77.66     54.33     14.08 
 H                     76.16     53.78     13.49 
 N                     74.08     56.37     15.74 
 C                     72.66     56.59     15.86 
 C                     71.87     55.32     16.19 
 O                     70.66     55.32     15.98 
 H                     74.69     56.75     16.45 
 H                     72.23     57.08     14.99 
 H                     72.5      57.37     16.6 
 N                     72.48     54.27     16.73 
 C                     71.84     53.05     17.18 
 C                     71.18     53.11     18.55 
 O                     70.58     52.09     18.89 
 C                     72.83     51.89     17.01 
 C                     73.79     51.73     18.18 
 N                     74.41     50.56     18.31 
 O                     74.04     52.58     19.02 
 H                     73.41     54.49     17.07 
 H                     71.04     52.9      16.46 
 H                     73.5      52.11     16.18 
 H                     72.37     50.93     16.81 
 H                     74.1      49.76     17.78 
 H                     75.       50.47     19.12 
 N                     71.27     54.22     19.29 
 C                     70.6      54.44     20.55 
 C                     71.54     54.37     21.74 
 O                     71.04     54.38     22.87 
 H                     71.74     55.       18.85 
 H                     69.74     53.78     20.69 
 H                     70.1      55.41     20.55 
 N                     72.86     54.31     21.56 
 C                     73.82     54.05     22.62 
 C                     75.1      54.81     22.32 
 O                     75.69     54.53     21.28 
 C                     74.01     52.54     22.63 
 C                     72.77     51.73     22.94 
 C                     72.34     51.51     24.25 
 C                     72.04     51.06     21.95 
 C                     71.16     50.82     24.56 
 C                     70.83     50.39     22.19 
 C                     70.38     50.28     23.52 
 O                     69.16     49.72     23.76 
 H                     73.2      54.53     20.64 
 H                     73.39     54.31     23.59 
 H                     74.74     52.25     23.39 
 H                     74.47     52.25     21.68 
 H                     72.82     52.09     25.03 
 H                     72.4      51.21     20.94 
 H                     70.8      50.73     25.58 
 H                     70.24     50.05     21.35 
 H                     68.77     49.36     22.96 
 N                     75.69     55.62     23.21 
 C                     77.       56.2      23.04 
 C                     78.11     55.25     23.48 
 O                     77.91     54.49     24.42 
 C                     77.07     57.51     23.81 
 C                     76.03     58.57     23.47 
 C                     78.42     58.21     23.71 
 C                     75.82     59.66     24.52 
 H                     75.3      55.6      24.14 
 H                     77.14     56.35     21.97 
 H                     77.06     57.25     24.87 
 H                     75.06     58.09     23.4 
 H                     76.3      58.98     22.5 
 H                     78.58     58.46     22.66 
 H                     78.5      59.13     24.28 
 H                     79.22     57.53     24.02 
 H                     74.93     60.25     24.3 
 H                     75.9      59.2      25.5 
 H                     76.71     60.3      24.48 
 N                     79.21     55.19     22.73 
 C                     80.45     54.53     23.1 
 C                     81.71     55.38     23.06 
 O                     81.72     56.54     22.67 
 C                     80.53     53.22     22.33 
 O                     80.85     53.48     20.98 
 H                     79.15     55.67     21.85 
 H                     80.48     54.18     24.13 
 H                     79.6      52.66     22.48 
 H                     81.35     52.69     22.81 
 H                     80.18     54.11     20.7 
 N                     82.79     54.78     23.56 
 C                     84.       55.53     23.83 
 C                     84.72     56.16     22.65 
 O                     84.81     57.39     22.59 
 C                     84.93     54.65     24.67 
 H                     82.81     53.79     23.76 
 H                     83.79     56.36     24.5 
 H                     85.22     53.81     24.05 
 H                     85.81     55.18     25.02 
 H                     84.3      54.23     25.46 
 N                     84.98     55.45     21.55 
 C                     85.36     55.87     20.22 
 C                     84.32     56.74     19.53 
 O                     84.73     57.51     18.67 
 C                     85.63     54.61     19.4 
 H                     84.58     54.52     21.56 
 H                     86.28     56.45     20.29 
 H                     86.47     54.07     19.85 
 H                     84.77     53.95     19.48 
 H                     85.8      54.77     18.34 
 N                     83.03     56.7      19.89 
 C                     82.1      57.64     19.31 
 C                     82.18     59.01     19.96 
 O                     82.05     60.09     19.38 
 C                     80.68     57.09     19.36 
 C                     80.59     55.76     18.63 
 C                     79.15     55.29     18.82 
 O                     78.23     55.48     18. 
 O                     78.79     54.68     19.85 
 H                     82.81     56.13     20.7 
 H                     82.36     57.8      18.26 
 H                     80.09     57.9      18.94 
 H                     80.35     56.85     20.38 
 H                     81.28     55.02     19.04 
 H                     80.75     55.93     17.56 
 N                     82.42     58.94     21.27 
 C                     82.61     60.12     22.09 
 H                     83.404    60.733    21.665 
 H                     81.685    60.695    22.12 
 H                     82.885    59.82     23.101 
 H                     82.43     57.99     21.62 
 CA                    76.6      53.86     19.06 
 O                     78.09     51.98     17.89 
 H                     79.04     51.91     17.8 
 H                     77.75     51.74     17.03 
 
 Stoichiometry    C54H83CaN15O23
 Framework group  C1[X(C54H83CaN15O23)]
 Deg. of freedom   522
 Full point group                 C1      NOp   1
 Largest Abelian subgroup         C1      NOp   1
 Largest concise Abelian subgroup C1      NOp   1
                         Standard orientation:                         
 ---------------------------------------------------------------------
 Center     Atomic      Atomic             Coordinates (Angstroms)
 Number     Number       Type             X           Y           Z
 ---------------------------------------------------------------------
      1          6           0        2.619865    0.754778    5.350738
      2          6           0        1.801646    0.647969    4.073667
      3          8           0        2.327662    0.351003    3.001231
      4          1           0        3.569007    1.245794    5.133968
      5          1           0        2.069495    1.339629    6.088149
      6          1           0        2.809775   -0.243435    5.745932
      7          7           0        0.469420    0.731484    4.100081
      8          6           0       -0.300036    1.039097    2.908312
      9          6           0       -0.119095    2.500161    2.542316
     10          8           0       -0.969870    3.338200    2.810593
     11          6           0       -1.751485    0.631509    3.081707
     12          6           0       -2.595271    0.949356    1.860438
     13          8           0       -3.807939    1.192759    2.024117
     14          8           0       -2.115356    0.815757    0.709988
     15          1           0        0.065090    0.966758    4.997056
     16          1           0        0.175508    0.530175    2.069172
     17          1           0       -2.187788    1.216244    3.892340
     18          1           0       -1.930786   -0.441501    3.212095
     19          7           0        1.013593    2.859566    1.928275
     20          6           0        1.420315    4.200994    1.565441
     21          6           0        0.375042    5.019031    0.828746
     22          8           0        0.099496    6.181032    1.122735
     23          6           0        2.680118    4.142680    0.706549
     24          6           0        3.289388    5.446480    0.206754
     25          6           0        4.689210    5.094437   -0.289898
     26          6           0        5.386912    6.355042   -0.800375
     27          7           0        6.713529    6.054526   -1.362494
     28          1           0        1.730838    2.141029    1.990435
     29          1           0        1.655012    4.731998    2.493855
     30          1           0        2.544517    3.487842   -0.155194
     31          1           0        3.428025    3.607065    1.293875
     32          1           0        3.296691    6.208883    0.985014
     33          1           0        2.655289    5.800596   -0.604862
     34          1           0        4.561610    4.406998   -1.122091
     35          1           0        5.171484    4.627350    0.573550
     36          1           0        5.469174    7.078540    0.016193
     37          1           0        4.795695    6.711579   -1.641235
     38          1           0        6.743854    5.198937   -1.901797
     39          1           0        6.965611    6.807798   -1.993950
     40          1           0        7.452453    6.091181   -0.682826
     41          7           0       -0.181907    4.410632   -0.226412
     42          6           0       -1.157788    5.076341   -1.055199
     43          6           0       -2.566434    4.927160   -0.486464
     44          8           0       -3.468534    5.531135   -1.044612
     45          6           0       -1.141586    4.707693   -2.528948
     46          6           0       -1.537143    3.291288   -2.921928
     47          8           0       -1.872600    2.459387   -2.063611
     48          8           0       -1.600438    2.980117   -4.134762
     49          1           0        0.121178    3.506640   -0.568081
     50          1           0       -0.927520    6.150511   -1.049201
     51          1           0       -0.142466    4.913772   -2.917266
     52          1           0       -1.751967    5.452569   -3.057998
     53          7           0       -2.719019    4.210722    0.632479
     54          6           0       -3.963249    4.280687    1.357873
     55          6           0       -5.148498    3.676290    0.599064
     56          8           0       -6.282394    3.981589    0.958610
     57          1           0       -1.998655    3.586349    0.966895
     58          1           0       -4.207436    5.287181    1.688391
     59          1           0       -3.817801    3.806744    2.325253
     60          7           0       -4.943720    2.812066   -0.389562
     61          6           0       -5.968530    2.094085   -1.120841
     62          6           0       -6.534402    0.858704   -0.435478
     63          8           0       -7.452568    0.298661   -1.034913
     64          6           0       -5.463311    1.844614   -2.548118
     65          6           0       -4.599938    0.598435   -2.681254
     66          7           0       -4.437391    0.091424   -3.900565
     67          8           0       -4.044608    0.013173   -1.764915
     68          1           0       -3.989696    2.468626   -0.417609
     69          1           0       -6.784109    2.809148   -1.187285
     70          1           0       -4.776524    2.641826   -2.829145
     71          1           0       -6.240634    1.805430   -3.301400
     72          1           0       -5.024325    0.399671   -4.660494
     73          1           0       -3.901885   -0.759022   -3.948272
     74          7           0       -6.037428    0.455993    0.738678
     75          6           0       -6.557653   -0.628381    1.537677
     76          6           0       -5.680305   -1.866624    1.497501
     77          8           0       -6.119759   -2.900534    2.012195
     78          1           0       -5.328643    1.055322    1.140335
     79          1           0       -7.593814   -0.873522    1.290540
     80          1           0       -6.677070   -0.312254    2.575320
     81          7           0       -4.473390   -1.825587    0.931751
     82          6           0       -3.648130   -2.994772    0.677291
     83          6           0       -2.187464   -2.604891    0.820284
     84          8           0       -1.758786   -1.740737    0.060302
     85          6           0       -4.011228   -3.445584   -0.730271
     86          6           0       -5.452248   -3.862547   -0.928768
     87          6           0       -5.904938   -5.139245   -0.590367
     88          6           0       -6.394337   -3.041793   -1.561802
     89          6           0       -7.246984   -5.527634   -0.702913
     90          6           0       -7.758694   -3.355062   -1.666649
     91          6           0       -8.190247   -4.618197   -1.217482
     92          8           0       -9.524552   -4.899654   -1.220915
     93          1           0       -4.096533   -0.913834    0.739174
     94          1           0       -3.936082   -3.811485    1.343221
     95          1           0       -3.417697   -4.316615   -1.019451
     96          1           0       -3.705593   -2.659019   -1.427482
     97          1           0       -5.232845   -5.763010   -0.012087
     98          1           0       -6.025762   -2.065450   -1.850084
     99          1           0       -7.593866   -6.496653   -0.358277
    100          1           0       -8.448793   -2.596923   -2.010580
    101          1           0      -10.034281   -4.202660   -1.640528
    102          7           0       -1.328029   -3.278584    1.597337
    103          6           0        0.098917   -3.066179    1.607798
    104          6           0        0.804135   -3.849922    0.504795
    105          8           0        0.365032   -4.944817    0.173746
    106          6           0        0.649462   -3.439563    2.975783
    107          6           0        0.051069   -2.726495    4.181710
    108          6           0        2.158181   -3.263755    3.099707
    109          6           0        0.267343   -3.405167    5.533498
    110          1           0       -1.679738   -4.139302    1.988315
    111          1           0        0.260871   -2.013476    1.378482
    112          1           0        0.569262   -4.524896    3.058977
    113          1           0       -1.027727   -2.710787    4.071468
    114          1           0        0.429566   -1.707450    4.167979
    115          1           0        2.375030   -2.203760    2.958332
    116          1           0        2.574224   -3.556586    4.058278
    117          1           0        2.667975   -3.820495    2.306832
    118          1           0       -0.356800   -2.951981    6.303996
    119          1           0        0.197866   -4.478092    5.383816
    120          1           0        1.326444   -3.263816    5.781743
    121          7           0        1.793734   -3.245115   -0.151713
    122          6           0        2.722672   -3.891607   -1.062330
    123          6           0        4.202346   -3.723159   -0.755917
    124          8           0        4.618848   -3.024939    0.158859
    125          6           0        2.312146   -3.531190   -2.482530
    126          8           0        2.675638   -2.195501   -2.758771
    127          1           0        1.891139   -2.263862    0.038171
    128          1           0        2.646956   -4.977047   -1.081995
    129          1           0        1.246658   -3.751703   -2.613333
    130          1           0        2.897883   -4.209927   -3.098914
    131          1           0        2.269921   -1.692738   -2.046856
    132          7           0        5.006139   -4.463180   -1.519255
    133          6           0        6.409835   -4.614813   -1.193459
    134          6           0        7.282759   -3.372075   -1.229619
    135          8           0        7.805923   -2.976460   -0.183488
    136          6           0        6.980483   -5.745583   -2.054052
    137          1           0        4.674526   -4.934580   -2.348903
    138          1           0        6.525046   -5.003466   -0.184710
    139          1           0        6.937418   -5.414444   -3.084873
    140          1           0        7.999042   -6.007041   -1.785764
    141          1           0        6.258584   -6.564293   -1.976752
    142          7           0        7.248171   -2.543030   -2.275174
    143          6           0        7.725380   -1.186627   -2.423981
    144          6           0        7.051616   -0.192517   -1.489964
    145          8           0        7.692005    0.810581   -1.199627
    146          6           0        7.509067   -0.780782   -3.880484
    147          1           0        6.542002   -2.779658   -2.960982
    148          1           0        8.793308   -1.169878   -2.207304
    149          1           0        8.109263   -1.435391   -4.521540
    150          1           0        6.471648   -0.968582   -4.145235
    151          1           0        7.702816    0.262584   -4.108403
    152          7           0        5.840675   -0.436308   -0.970844
    153          6           0        5.296963    0.462859    0.019497
    154          6           0        5.875810    0.220176    1.402191
    155          8           0        6.128998    1.089574    2.238697
    156          6           0        3.775561    0.383089    0.038807
    157          6           0        3.200025    0.714347   -1.328280
    158          6           0        1.691534    0.525014   -1.189683
    159          8           0        0.883582    1.441678   -0.941009
    160          8           0        1.158673   -0.599861   -1.305069
    161          1           0        5.448207   -1.351778   -1.163938
    162          1           0        5.574933    1.488889   -0.236815
    163          1           0        3.506036    1.063377    0.842028
    164          1           0        3.402975   -0.630726    0.239455
    165          1           0        3.587751    0.054665   -2.106925
    166          1           0        3.387810    1.770948   -1.546751
    167          7           0        6.102250   -1.072239    1.640913
    168          6           0        6.719311   -1.540357    2.866066
    169          1           0        7.671058   -1.030357    3.010663
    170          1           0        6.062369   -1.327292    3.708788
    171          1           0        6.889799   -2.614751    2.800055
    172          1           0        5.778770   -1.674877    0.894395
    173         20           0       -1.195788    0.113762   -1.504712
    174          8           0       -0.502609    0.574205   -4.040633
    175          1           0        0.357230    0.558400   -4.460068
    176          1           0       -0.923956    1.357981   -4.388429
 ---------------------------------------------------------------------
 Rotational constants (GHZ):      0.0258497      0.0150841      0.0122423
 Standard basis: SVP (5D, 7F)
 There are  1809 symmetry adapted cartesian basis functions of A   symmetry.
 There are  1717 symmetry adapted basis functions of A   symmetry.
  1717 basis functions,  2922 primitive gaussians,  1809 cartesian basis functions
   358 alpha electrons      358 beta electrons
       nuclear repulsion energy     22074.4385827990 Hartrees.
 NAtoms=  176 NActive=  176 NUniq=  176 SFac= 1.00D+00 NAtFMM=   60 NAOKFM=T Big=T
 Integral buffers will be    131072 words long.
 Raffenetti 2 integral format.
 Two-electron integral symmetry is turned on.
 One-electron integrals computed using PRISM.
 NBasis=  1717 RedAO= T EigKep=  2.76D-04  NBF=  1717
 NBsUse=  1717 1.00D-06 EigRej= -1.00D+00 NBFU=  1717
 ExpMin= 1.98D-02 ExpMax= 3.51D+04 ExpMxC= 5.28D+03 IAcc=3 IRadAn=         5 AccDes= 0.00D+00
 Harris functional with IExCor=  402 and IRadAn=       5 diagonalized for initial guess.
 HarFok:  IExCor=  402 AccDes= 0.00D+00 IRadAn=         5 IDoV= 1 UseB2=F ITyADJ=14
 ICtDFT=  3500011 ScaDFX=  1.000000  1.000000  1.000000  1.000000
 FoFCou: FMM=F IPFlag=           0 FMFlag=      100000 FMFlg1=        2001
         NFxFlg=           0 DoJE=T BraDBF=F KetDBF=T FulRan=T
         wScrn=  0.000000 ICntrl=     500 IOpCl=  0 I1Cent=   200000004 NGrid=           0
         NMat0=    1 NMatS0=      1 NMatT0=    0 NMatD0=    1 NMtDS0=    0 NMtDT0=    0
 Petite list used in FoFCou.
 Requested convergence on RMS density matrix=1.00D-08 within 128 cycles.
 Requested convergence on MAX density matrix=1.00D-06.
 Requested convergence on             energy=1.00D-06.
 No special actions if energy rises.
 EnCoef did     4 forward-backward iterations
 EnCoef did     6 forward-backward iterations
 Restarting incremental Fock formation.
 SCF Done:  E(RB3LYP) =  -5333.62450443     A.U. after   21 cycles
            NFock= 21  Conv=0.18D-08     -V/T= 2.0081

 **********************************************************************

            Population analysis using the SCF density.

 **********************************************************************

 Orbital symmetries:
 BldTbl:  Degeneracy threshold= 1.00D-02
       Occupied  (A) (A) (A) (A) (A) (A) (A) (A) (A) (A) (A) (A)
                 (A) (A) (A) (A) (A) (A) (A) (A) (A) (A) (A) (A)
                 (A) (A) (A) (A) (A) (A) (A) (A) (A) (A) (A) (A)
                 (A) (A) (A) (A) (A) (A) (A) (A) (A) (A) (A) (A)
                 (A) (A) (A) (A) (A) (A) (A) (A) (A) (A) (A) (A)
                 (A) (A) (A) (A) (A) (A) (A) (A) (A) (A) (A) (A)
                 (A) (A) (A) (A) (A) (A) (A) (A) (A) (A) (A) (A)
                 (A) (A) (A) (A) (A) (A) (A) (A) (A) (A) (A) (A)
                 (A) (A) (A) (A) (A) (A) (A) (A) (A) (A) (A) (A)
                 (A) (A) (A) (A) (A) (A) (A) (A) (A) (A) (A) (A)
                 (A) (A) (A) (A) (A) (A) (A) (A) (A) (A) (A) (A)
                 (A) (A) (A) (A) (A) (A) (A) (A) (A) (A) (A) (A)
                 (A) (A) (A) (A) (A) (A) (A) (A) (A) (A) (A) (A)
                 (A) (A) (A) (A) (A) (A) (A) (A) (A) (A) (A) (A)
                 (A) (A) (A) (A) (A) (A) (A) (A) (A) (A) (A) (A)
                 (A) (A) (A) (A) (A) (A) (A) (A) (A) (A) (A) (A)
                 (A) (A) (A) (A) (A) (A) (A) (A) (A) (A) (A) (A)
                 (A) (A) (A) (A) (A) (A) (A) (A) (A) (A) (A) (A)
                 (A) (A) (A) (A) (A) (A) (A) (A) (A) (A) (A) (A)
                 (A) (A) (A) (A) (A) (A) (A) (A) (A) (A) (A) (A)
                 (A) (A) (A) (A) (A) (A) (A) (A) (A) (A) (A) (A)
                 (A) (A) (A) (A) (A) (A) (A) (A) (A) (A) (A) (A)
                 (A) (A) (A) (A) (A) (A) (A) (A) (A) (A) (A) (A)
                 (A) (A) (A) (A) (A) (A) (A) (A) (A) (A) (A) (A)
                 (A) (A) (A) (A) (A) (A) (A) (A) (A) (A) (A) (A)
                 (A) (A) (A) (A) (A) (A) (A) (A) (A) (A) (A) (A)
                 (A) (A) (A) (A) (A) (A) (A) (A) (A) (A) (A) (A)
                 (A) (A) (A) (A) (A) (A) (A) (A) (A) (A) (A) (A)
                 (A) (A) (A) (A) (A) (A) (A) (A) (A) (A) (A) (A)
                 (A) (A) (A) (A) (A) (A) (A) (A) (A) (A)
       Virtual   (A) (A) (A) (A) (A) (A) (A) (A) (A) (A) (A) (A)
                 (A) (A) (A) (A) (A) (A) (A) (A) (A) (A) (A) (A)
                 (A) (A) (A) (A) (A) (A) (A) (A) (A) (A) (A) (A)
                 (A) (A) (A) (A) (A) (A) (A) (A) (A) (A) (A) (A)
                 (A) (A) (A) (A) (A) (A) (A) (A) (A) (A) (A) (A)
                 (A) (A) (A) (A) (A) (A) (A) (A) (A) (A) (A) (A)
                 (A) (A) (A) (A) (A) (A) (A) (A) (A) (A) (A) (A)
                 (A) (A) (A) (A) (A) (A) (A) (A) (A) (A) (A) (A)
                 (A) (A) (A) (A) (A) (A) (A) (A) (A) (A) (A) (A)
                 (A) (A) (A) (A) (A) (A) (A) (A) (A) (A) (A) (A)
                 (A) (A) (A) (A) (A) (A) (A) (A) (A) (A) (A) (A)
                 (A) (A) (A) (A) (A) (A) (A) (A) (A) (A) (A) (A)
                 (A) (A) (A) (A) (A) (A) (A) (A) (A) (A) (A) (A)
                 (A) (A) (A) (A) (A) (A) (A) (A) (A) (A) (A) (A)
                 (A) (A) (A) (A) (A) (A) (A) (A) (A) (A) (A) (A)
                 (A) (A) (A) (A) (A) (A) (A) (A) (A) (A) (A) (A)
                 (A) (A) (A) (A) (A) (A) (A) (A) (A) (A) (A) (A)
                 (A) (A) (A) (A) (A) (A) (A) (A) (A) (A) (A) (A)
                 (A) (A) (A) (A) (A) (A) (A) (A) (A) (A) (A) (A)
                 (A) (A) (A) (A) (A) (A) (A) (A) (A) (A) (A) (A)
                 (A) (A) (A) (A) (A) (A) (A) (A) (A) (A) (A) (A)
                 (A) (A) (A) (A) (A) (A) (A) (A) (A) (A) (A) (A)
                 (A) (A) (A) (A) (A) (A) (A) (A) (A) (A) (A) (A)
                 (A) (A) (A) (A) (A) (A) (A) (A) (A) (A) (A) (A)
                 (A) (A) (A) (A) (A) (A) (A) (A) (A) (A) (A) (A)
                 (A) (A) (A) (A) (A) (A) (A) (A) (A) (A) (A) (A)
                 (A) (A) (A) (A) (A) (A) (A) (A) (A) (A) (A) (A)
                 (A) (A) (A) (A) (A) (A) (A) (A) (A) (A) (A) (A)
                 (A) (A) (A) (A) (A) (A) (A) (A) (A) (A) (A) (A)
                 (A) (A) (A) (A) (A) (A) (A) (A) (A) (A) (A) (A)
                 (A) (A) (A) (A) (A) (A) (A) (A) (A) (A) (A) (A)
                 (A) (A) (A) (A) (A) (A) (A) (A) (A) (A) (A) (A)
                 (A) (A) (A) (A) (A) (A) (A) (A) (A) (A) (A) (A)
                 (A) (A) (A) (A) (A) (A) (A) (A) (A) (A) (A) (A)
                 (A) (A) (A) (A) (A) (A) (A) (A) (A) (A) (A) (A)
                 (A) (A) (A) (A) (A) (A) (A) (A) (A) (A) (A) (A)
                 (A) (A) (A) (A) (A) (A) (A) (A) (A) (A) (A) (A)
                 (A) (A) (A) (A) (A) (A) (A) (A) (A) (A) (A) (A)
                 (A) (A) (A) (A) (A) (A) (A) (A) (A) (A) (A) (A)
                 (A) (A) (A) (A) (A) (A) (A) (A) (A) (A) (A) (A)
                 (A) (A) (A) (A) (A) (A) (A) (A) (A) (A) (A) (A)
                 (A) (A) (A) (A) (A) (A) (A) (A) (A) (A) (A) (A)
                 (A) (A) (A) (A) (A) (A) (A) (A) (A) (A) (A) (A)
                 (A) (A) (A) (A) (A) (A) (A) (A) (A) (A) (A) (A)
                 (A) (A) (A) (A) (A) (A) (A) (A) (A) (A) (A) (A)
                 (A) (A) (A) (A) (A) (A) (A) (A) (A) (A) (A) (A)
                 (A) (A) (A) (A) (A) (A) (A) (A) (A) (A) (A) (A)
                 (A) (A) (A) (A) (A) (A) (A) (A) (A) (A) (A) (A)
                 (A) (A) (A) (A) (A) (A) (A) (A) (A) (A) (A) (A)
                 (A) (A) (A) (A) (A) (A) (A) (A) (A) (A) (A) (A)
                 (A) (A) (A) (A) (A) (A) (A) (A) (A) (A) (A) (A)
                 (A) (A) (A) (A) (A) (A) (A) (A) (A) (A) (A) (A)
                 (A) (A) (A) (A) (A) (A) (A) (A) (A) (A) (A) (A)
                 (A) (A) (A) (A) (A) (A) (A) (A) (A) (A) (A) (A)
                 (A) (A) (A) (A) (A) (A) (A) (A) (A) (A) (A) (A)
                 (A) (A) (A) (A) (A) (A) (A) (A) (A) (A) (A) (A)
                 (A) (A) (A) (A) (A) (A) (A) (A) (A) (A) (A) (A)
                 (A) (A) (A) (A) (A) (A) (A) (A) (A) (A) (A) (A)
                 (A) (A) (A) (A) (A) (A) (A) (A) (A) (A) (A) (A)
                 (A) (A) (A) (A) (A) (A) (A) (A) (A) (A) (A) (A)
                 (A) (A) (A) (A) (A) (A) (A) (A) (A) (A) (A) (A)
                 (A) (A) (A) (A) (A) (A) (A) (A) (A) (A) (A) (A)
                 (A) (A) (A) (A) (A) (A) (A) (A) (A) (A) (A) (A)
                 (A) (A) (A) (A) (A) (A) (A) (A) (A) (A) (A) (A)
                 (A) (A) (A) (A) (A) (A) (A) (A) (A) (A) (A) (A)
                 (A) (A) (A) (A) (A) (A) (A) (A) (A) (A) (A) (A)
                 (A) (A) (A) (A) (A) (A) (A) (A) (A) (A) (A) (A)
                 (A) (A) (A) (A) (A) (A) (A) (A) (A) (A) (A) (A)
                 (A) (A) (A) (A) (A) (A) (A) (A) (A) (A) (A) (A)
                 (A) (A) (A) (A) (A) (A) (A) (A) (A) (A) (A) (A)
                 (A) (A) (A) (A) (A) (A) (A) (A) (A) (A) (A) (A)
                 (A) (A) (A) (A) (A) (A) (A) (A) (A) (A) (A) (A)
                 (A) (A) (A) (A) (A) (A) (A) (A) (A) (A) (A) (A)
                 (A) (A) (A) (A) (A) (A) (A) (A) (A) (A) (A) (A)
                 (A) (A) (A) (A) (A) (A) (A) (A) (A) (A) (A) (A)
                 (A) (A) (A) (A) (A) (A) (A) (A) (A) (A) (A) (A)
                 (A) (A) (A) (A) (A) (A) (A) (A) (A) (A) (A) (A)
                 (A) (A) (A) (A) (A) (A) (A) (A) (A) (A) (A) (A)
                 (A) (A) (A) (A) (A) (A) (A) (A) (A) (A) (A) (A)
                 (A) (A) (A) (A) (A) (A) (A) (A) (A) (A) (A) (A)
                 (A) (A) (A) (A) (A) (A) (A) (A) (A) (A) (A) (A)
                 (A) (A) (A) (A) (A) (A) (A) (A) (A) (A) (A) (A)
                 (A) (A) (A) (A) (A) (A) (A) (A) (A) (A) (A) (A)
                 (A) (A) (A) (A) (A) (A) (A) (A) (A) (A) (A) (A)
                 (A) (A) (A) (A) (A) (A) (A) (A) (A) (A) (A) (A)
                 (A) (A) (A) (A) (A) (A) (A) (A) (A) (A) (A) (A)
                 (A) (A) (A) (A) (A) (A) (A) (A) (A) (A) (A) (A)
                 (A) (A) (A) (A) (A) (A) (A) (A) (A) (A) (A) (A)
                 (A) (A) (A) (A) (A) (A) (A) (A) (A) (A) (A) (A)
                 (A) (A) (A) (A) (A) (A) (A) (A) (A) (A) (A) (A)
                 (A) (A) (A) (A) (A) (A) (A) (A) (A) (A) (A) (A)
                 (A) (A) (A) (A) (A) (A) (A) (A) (A) (A) (A) (A)
                 (A) (A) (A) (A) (A) (A) (A) (A) (A) (A) (A) (A)
                 (A) (A) (A) (A) (A) (A) (A) (A) (A) (A) (A) (A)
                 (A) (A) (A) (A) (A) (A) (A) (A) (A) (A) (A) (A)
                 (A) (A) (A) (A) (A) (A) (A) (A) (A) (A) (A) (A)
                 (A) (A) (A) (A) (A) (A) (A) (A) (A) (A) (A) (A)
                 (A) (A) (A) (A) (A) (A) (A) (A) (A) (A) (A) (A)
                 (A) (A) (A) (A) (A) (A) (A) (A) (A) (A) (A) (A)
                 (A) (A) (A) (A) (A) (A) (A) (A) (A) (A) (A) (A)
                 (A) (A) (A) (A) (A) (A) (A) (A) (A) (A) (A) (A)
                 (A) (A) (A) (A) (A) (A) (A) (A) (A) (A) (A) (A)
                 (A) (A) (A) (A) (A) (A) (A) (A) (A) (A) (A) (A)
                 (A) (A) (A) (A) (A) (A) (A) (A) (A) (A) (A) (A)
                 (A) (A) (A) (A) (A) (A) (A) (A) (A) (A) (A) (A)
                 (A) (A) (A) (A) (A) (A) (A) (A) (A) (A) (A) (A)
                 (A) (A) (A) (A) (A) (A) (A) (A) (A) (A) (A) (A)
                 (A) (A) (A) (A) (A) (A) (A) (A) (A) (A) (A) (A)
                 (A) (A) (A) (A) (A) (A) (A) (A) (A) (A) (A) (A)
                 (A) (A) (A) (A) (A) (A) (A) (A) (A) (A) (A) (A)
                 (A) (A) (A) (A) (A) (A) (A) (A) (A) (A) (A) (A)
                 (A) (A) (A) (A) (A) (A) (A) (A) (A) (A) (A) (A)
                 (A) (A) (A) (A) (A) (A) (A) (A) (A) (A) (A) (A)
                 (A) (A) (A)
 The electronic state is 1-A.
 Alpha  occ. eigenvalues -- -145.34900 -19.15148 -19.13284 -19.12938 -19.12140
 Alpha  occ. eigenvalues --  -19.12069 -19.11691 -19.11184 -19.10550 -19.10426
 Alpha  occ. eigenvalues --  -19.10297 -19.09021 -19.08810 -19.08727 -19.08179
 Alpha  occ. eigenvalues --  -19.07263 -19.04108 -19.03914 -19.03802 -19.03606
 Alpha  occ. eigenvalues --  -19.03532 -19.02585 -19.02230 -19.01798 -15.40746
 Alpha  occ. eigenvalues --  -14.59177 -14.40757 -14.38844 -14.37180 -14.36667
 Alpha  occ. eigenvalues --  -14.36481 -14.36327 -14.34514 -14.33854 -14.32851
 Alpha  occ. eigenvalues --  -14.31997 -14.31051 -14.28711 -14.28347 -14.28027
 Alpha  occ. eigenvalues --  -12.54358 -12.54304 -12.54292 -10.35670 -10.33295
 Alpha  occ. eigenvalues --  -10.31203 -10.29798 -10.29787 -10.29463 -10.28871
 Alpha  occ. eigenvalues --  -10.28850 -10.27606 -10.27342 -10.27127 -10.27094
 Alpha  occ. eigenvalues --  -10.26417 -10.26352 -10.26103 -10.25720 -10.25651
 Alpha  occ. eigenvalues --  -10.23779 -10.23731 -10.23716 -10.23385 -10.23325
 Alpha  occ. eigenvalues --  -10.23178 -10.23110 -10.22726 -10.22581 -10.22338
 Alpha  occ. eigenvalues --  -10.22110 -10.21962 -10.21959 -10.21665 -10.21504
 Alpha  occ. eigenvalues --  -10.20982 -10.20570 -10.20471 -10.20355 -10.20271
 Alpha  occ. eigenvalues --  -10.19414 -10.18482 -10.18415 -10.17867 -10.17669
 Alpha  occ. eigenvalues --  -10.17561 -10.17110 -10.16952 -10.16895 -10.16302
 Alpha  occ. eigenvalues --  -10.15795 -10.15650 -10.15523 -10.15430 -10.15161
 Alpha  occ. eigenvalues --  -10.15071 -10.15058  -1.77832  -1.14509  -1.08411
 Alpha  occ. eigenvalues --   -1.07167  -1.05699  -1.05567  -1.05387  -1.04547
 Alpha  occ. eigenvalues --   -1.04402  -1.04237  -1.04126  -1.03464  -1.02451
 Alpha  occ. eigenvalues --   -1.02199  -1.02135  -1.01557  -1.00670  -1.00033
 Alpha  occ. eigenvalues --   -0.98922  -0.98166  -0.97819  -0.97689  -0.97469
 Alpha  occ. eigenvalues --   -0.96873  -0.96376  -0.95577  -0.94993  -0.93968
 Alpha  occ. eigenvalues --   -0.93742  -0.93431  -0.93153  -0.92716  -0.91784
 Alpha  occ. eigenvalues --   -0.89476  -0.89281  -0.88966  -0.88789  -0.88384
 Alpha  occ. eigenvalues --   -0.87996  -0.87461  -0.86225  -0.85523  -0.84639
 Alpha  occ. eigenvalues --   -0.83366  -0.82472  -0.82023  -0.81389  -0.81216
 Alpha  occ. eigenvalues --   -0.80001  -0.78236  -0.78157  -0.76352  -0.76167
 Alpha  occ. eigenvalues --   -0.74404  -0.74352  -0.74244  -0.74131  -0.73463
 Alpha  occ. eigenvalues --   -0.73129  -0.72285  -0.71284  -0.70268  -0.70193
 Alpha  occ. eigenvalues --   -0.69727  -0.68951  -0.68332  -0.68233  -0.68016
 Alpha  occ. eigenvalues --   -0.67094  -0.66788  -0.65348  -0.64822  -0.64399
 Alpha  occ. eigenvalues --   -0.63626  -0.63392  -0.63212  -0.62647  -0.62287
 Alpha  occ. eigenvalues --   -0.62170  -0.60940  -0.60816  -0.60341  -0.59750
 Alpha  occ. eigenvalues --   -0.59582  -0.58421  -0.58374  -0.57944  -0.57621
 Alpha  occ. eigenvalues --   -0.57230  -0.56774  -0.56693  -0.56250  -0.56174
 Alpha  occ. eigenvalues --   -0.55746  -0.55010  -0.54834  -0.54422  -0.54053
 Alpha  occ. eigenvalues --   -0.53980  -0.53794  -0.53486  -0.53257  -0.52181
 Alpha  occ. eigenvalues --   -0.52115  -0.52026  -0.51901  -0.51734  -0.51650
 Alpha  occ. eigenvalues --   -0.51082  -0.51012  -0.50611  -0.50208  -0.49881
 Alpha  occ. eigenvalues --   -0.49835  -0.49688  -0.49621  -0.49331  -0.49129
 Alpha  occ. eigenvalues --   -0.48812  -0.48711  -0.48652  -0.47964  -0.47856
 Alpha  occ. eigenvalues --   -0.47541  -0.46863  -0.46438  -0.46330  -0.46286
 Alpha  occ. eigenvalues --   -0.46011  -0.45944  -0.45854  -0.45682  -0.45536
 Alpha  occ. eigenvalues --   -0.45174  -0.45155  -0.45097  -0.45024  -0.44941
 Alpha  occ. eigenvalues --   -0.44763  -0.44571  -0.44232  -0.44056  -0.44022
 Alpha  occ. eigenvalues --   -0.43560  -0.43427  -0.43098  -0.43025  -0.42964
 Alpha  occ. eigenvalues --   -0.42812  -0.42773  -0.42645  -0.42322  -0.42091
 Alpha  occ. eigenvalues --   -0.41978  -0.41850  -0.41763  -0.41666  -0.41455
 Alpha  occ. eigenvalues --   -0.41410  -0.41226  -0.41079  -0.40989  -0.40709
 Alpha  occ. eigenvalues --   -0.40466  -0.40436  -0.40340  -0.40185  -0.40078
 Alpha  occ. eigenvalues --   -0.39998  -0.39884  -0.39732  -0.39395  -0.39260
 Alpha  occ. eigenvalues --   -0.39122  -0.38961  -0.38831  -0.38743  -0.38470
 Alpha  occ. eigenvalues --   -0.38416  -0.38328  -0.38278  -0.38238  -0.38020
 Alpha  occ. eigenvalues --   -0.37860  -0.37702  -0.37556  -0.37421  -0.37303
 Alpha  occ. eigenvalues --   -0.37171  -0.37104  -0.36778  -0.36639  -0.36177
 Alpha  occ. eigenvalues --   -0.36143  -0.36089  -0.35966  -0.35621  -0.35451
 Alpha  occ. eigenvalues --   -0.35274  -0.35148  -0.35003  -0.34666  -0.34519
 Alpha  occ. eigenvalues --   -0.34179  -0.33988  -0.33846  -0.33711  -0.33062
 Alpha  occ. eigenvalues --   -0.32861  -0.32817  -0.32483  -0.32405  -0.32379
 Alpha  occ. eigenvalues --   -0.31806  -0.31694  -0.30982  -0.30971  -0.30780
 Alpha  occ. eigenvalues --   -0.30378  -0.30223  -0.30207  -0.30090  -0.29569
 Alpha  occ. eigenvalues --   -0.29300  -0.29262  -0.29028  -0.28692  -0.28486
 Alpha  occ. eigenvalues --   -0.28066  -0.27657  -0.27469  -0.27452  -0.26632
 Alpha  occ. eigenvalues --   -0.26543  -0.26442  -0.26300  -0.25656  -0.25565
 Alpha  occ. eigenvalues --   -0.24841  -0.24748  -0.24532  -0.24045  -0.23668
 Alpha  occ. eigenvalues --   -0.23408  -0.23134  -0.22568  -0.22181  -0.21827
 Alpha  occ. eigenvalues --   -0.21643  -0.21518  -0.21156  -0.21085  -0.20794
 Alpha  occ. eigenvalues --   -0.20647  -0.19051  -0.18904  -0.18724  -0.18451
 Alpha  occ. eigenvalues --   -0.18219  -0.17731  -0.17133
 Alpha virt. eigenvalues --   -0.11143  -0.05452  -0.04792  -0.03258  -0.02448
 Alpha virt. eigenvalues --   -0.02110  -0.00956  -0.00656  -0.00552  -0.00078
 Alpha virt. eigenvalues --    0.00518   0.00928   0.01410   0.02020   0.02131
 Alpha virt. eigenvalues --    0.02284   0.02548   0.02842   0.03507   0.03686
 Alpha virt. eigenvalues --    0.04024   0.04234   0.04607   0.04838   0.05021
 Alpha virt. eigenvalues --    0.05397   0.05511   0.05753   0.05957   0.06390
 Alpha virt. eigenvalues --    0.06551   0.06571   0.06780   0.06861   0.07548
 Alpha virt. eigenvalues --    0.07675   0.07806   0.08023   0.08187   0.08263
 Alpha virt. eigenvalues --    0.08481   0.08514   0.08621   0.08925   0.09072
 Alpha virt. eigenvalues --    0.09196   0.09356   0.09566   0.09719   0.09788
 Alpha virt. eigenvalues --    0.10111   0.10199   0.10387   0.10566   0.10692
 Alpha virt. eigenvalues --    0.11012   0.11138   0.11308   0.11372   0.11834
 Alpha virt. eigenvalues --    0.12142   0.12433   0.12567   0.12745   0.12895
 Alpha virt. eigenvalues --    0.13071   0.13288   0.13384   0.13626   0.13788
 Alpha virt. eigenvalues --    0.13900   0.14057   0.14154   0.14216   0.14584
 Alpha virt. eigenvalues --    0.14777   0.14965   0.15187   0.15420   0.15491
 Alpha virt. eigenvalues --    0.15625   0.15807   0.15919   0.16274   0.16441
 Alpha virt. eigenvalues --    0.16729   0.17041   0.17174   0.17480   0.17537
 Alpha virt. eigenvalues --    0.17777   0.17824   0.18037   0.18189   0.18238
 Alpha virt. eigenvalues --    0.18383   0.18582   0.18629   0.18891   0.19170
 Alpha virt. eigenvalues --    0.19250   0.19407   0.19544   0.19692   0.19872
 Alpha virt. eigenvalues --    0.20099   0.20358   0.20422   0.20538   0.20814
 Alpha virt. eigenvalues --    0.20844   0.21039   0.21436   0.21510   0.21704
 Alpha virt. eigenvalues --    0.21918   0.22597   0.22714   0.23012   0.23096
 Alpha virt. eigenvalues --    0.23362   0.23520   0.23756   0.24063   0.24182
 Alpha virt. eigenvalues --    0.24266   0.24514   0.24773   0.24789   0.25124
 Alpha virt. eigenvalues --    0.25415   0.25645   0.25864   0.25897   0.26074
 Alpha virt. eigenvalues --    0.26215   0.26431   0.26649   0.26969   0.27253
 Alpha virt. eigenvalues --    0.27561   0.27662   0.27806   0.27855   0.27944
 Alpha virt. eigenvalues --    0.28057   0.28645   0.29010   0.29245   0.29402
 Alpha virt. eigenvalues --    0.29675   0.29762   0.30020   0.30401   0.30666
 Alpha virt. eigenvalues --    0.30786   0.30903   0.31224   0.31391   0.32040
 Alpha virt. eigenvalues --    0.32522   0.32625   0.32656   0.32886   0.33392
 Alpha virt. eigenvalues --    0.33841   0.33948   0.34043   0.34230   0.34505
 Alpha virt. eigenvalues --    0.34828   0.34879   0.35021   0.35481   0.35703
 Alpha virt. eigenvalues --    0.36091   0.36217   0.36518   0.36791   0.36828
 Alpha virt. eigenvalues --    0.36995   0.37528   0.37724   0.38114   0.38493
 Alpha virt. eigenvalues --    0.38570   0.38731   0.38897   0.39388   0.39570
 Alpha virt. eigenvalues --    0.39694   0.39876   0.40285   0.40300   0.40644
 Alpha virt. eigenvalues --    0.40825   0.41226   0.41335   0.41683   0.42021
 Alpha virt. eigenvalues --    0.42282   0.42428   0.42830   0.42974   0.43266
 Alpha virt. eigenvalues --    0.43391   0.43762   0.44139   0.44331   0.44418
 Alpha virt. eigenvalues --    0.44661   0.44719   0.44840   0.45412   0.45567
 Alpha virt. eigenvalues --    0.45727   0.45930   0.45997   0.46269   0.46418
 Alpha virt. eigenvalues --    0.46517   0.46612   0.46922   0.47156   0.47203
 Alpha virt. eigenvalues --    0.47342   0.47554   0.47823   0.48116   0.48365
 Alpha virt. eigenvalues --    0.48630   0.48879   0.48959   0.49100   0.49308
 Alpha virt. eigenvalues --    0.49631   0.49886   0.50332   0.50451   0.50649
 Alpha virt. eigenvalues --    0.50694   0.50851   0.51025   0.51425   0.51621
 Alpha virt. eigenvalues --    0.51738   0.51890   0.52152   0.52401   0.52483
 Alpha virt. eigenvalues --    0.52823   0.53013   0.53175   0.53211   0.53548
 Alpha virt. eigenvalues --    0.53828   0.53979   0.54113   0.54236   0.54594
 Alpha virt. eigenvalues --    0.54807   0.54837   0.55190   0.55470   0.55788
 Alpha virt. eigenvalues --    0.55892   0.55985   0.56214   0.56282   0.56373
 Alpha virt. eigenvalues --    0.56573   0.56785   0.56863   0.57096   0.57272
 Alpha virt. eigenvalues --    0.57395   0.57465   0.57605   0.57840   0.57922
 Alpha virt. eigenvalues --    0.57977   0.58485   0.58581   0.58781   0.58864
 Alpha virt. eigenvalues --    0.59031   0.59122   0.59406   0.59550   0.59587
 Alpha virt. eigenvalues --    0.59831   0.60024   0.60038   0.60251   0.60503
 Alpha virt. eigenvalues --    0.60621   0.60948   0.60976   0.61095   0.61351
 Alpha virt. eigenvalues --    0.61633   0.61769   0.61892   0.61965   0.62170
 Alpha virt. eigenvalues --    0.62254   0.62329   0.62486   0.62577   0.62651
 Alpha virt. eigenvalues --    0.62999   0.63091   0.63189   0.63356   0.63421
 Alpha virt. eigenvalues --    0.63534   0.63611   0.63729   0.63826   0.63920
 Alpha virt. eigenvalues --    0.64011   0.64274   0.64310   0.64423   0.64538
 Alpha virt. eigenvalues --    0.64665   0.64836   0.65079   0.65154   0.65237
 Alpha virt. eigenvalues --    0.65265   0.65458   0.65510   0.65570   0.65764
 Alpha virt. eigenvalues --    0.65870   0.65974   0.66022   0.66130   0.66337
 Alpha virt. eigenvalues --    0.66373   0.66567   0.66669   0.66790   0.66941
 Alpha virt. eigenvalues --    0.67031   0.67085   0.67284   0.67452   0.67471
 Alpha virt. eigenvalues --    0.67613   0.67630   0.67736   0.67931   0.68029
 Alpha virt. eigenvalues --    0.68193   0.68274   0.68476   0.68547   0.68738
 Alpha virt. eigenvalues --    0.68894   0.68918   0.68968   0.69139   0.69358
 Alpha virt. eigenvalues --    0.69493   0.69592   0.69719   0.69842   0.69929
 Alpha virt. eigenvalues --    0.70061   0.70179   0.70232   0.70398   0.70557
 Alpha virt. eigenvalues --    0.70694   0.70835   0.70869   0.71028   0.71140
 Alpha virt. eigenvalues --    0.71312   0.71599   0.71747   0.71957   0.72047
 Alpha virt. eigenvalues --    0.72386   0.72568   0.72663   0.72801   0.72876
 Alpha virt. eigenvalues --    0.73200   0.73245   0.73434   0.73711   0.73810
 Alpha virt. eigenvalues --    0.73901   0.74050   0.74181   0.74399   0.74518
 Alpha virt. eigenvalues --    0.74797   0.75019   0.75244   0.75525   0.75542
 Alpha virt. eigenvalues --    0.75726   0.75962   0.76211   0.76469   0.76591
 Alpha virt. eigenvalues --    0.76648   0.76885   0.77011   0.77207   0.77360
 Alpha virt. eigenvalues --    0.77507   0.77655   0.78098   0.78252   0.78563
 Alpha virt. eigenvalues --    0.78617   0.78854   0.79083   0.79287   0.80038
 Alpha virt. eigenvalues --    0.80286   0.80513   0.80601   0.80826   0.81114
 Alpha virt. eigenvalues --    0.81357   0.81611   0.81851   0.82440   0.82639
 Alpha virt. eigenvalues --    0.82902   0.83069   0.83352   0.83694   0.84060
 Alpha virt. eigenvalues --    0.84095   0.84553   0.84576   0.84841   0.84998
 Alpha virt. eigenvalues --    0.85281   0.85645   0.85997   0.86112   0.86236
 Alpha virt. eigenvalues --    0.86678   0.86887   0.87363   0.88054   0.88152
 Alpha virt. eigenvalues --    0.88518   0.88803   0.89242   0.89316   0.89858
 Alpha virt. eigenvalues --    0.90095   0.90328   0.91024   0.91109   0.91281
 Alpha virt. eigenvalues --    0.91571   0.92284   0.92394   0.92790   0.93033
 Alpha virt. eigenvalues --    0.93344   0.93427   0.93797   0.94102   0.94306
 Alpha virt. eigenvalues --    0.94562   0.94849   0.94893   0.95218   0.95507
 Alpha virt. eigenvalues --    0.95576   0.95868   0.96154   0.96377   0.96777
 Alpha virt. eigenvalues --    0.96921   0.97222   0.97626   0.97641   0.97921
 Alpha virt. eigenvalues --    0.98073   0.98459   0.98814   0.99046   0.99319
 Alpha virt. eigenvalues --    0.99427   0.99855   1.00139   1.00445   1.01120
 Alpha virt. eigenvalues --    1.01279   1.01632   1.01872   1.02160   1.02617
 Alpha virt. eigenvalues --    1.02882   1.02978   1.03359   1.03774   1.04111
 Alpha virt. eigenvalues --    1.04225   1.04466   1.04884   1.05079   1.05432
 Alpha virt. eigenvalues --    1.05589   1.06013   1.06124   1.06636   1.06832
 Alpha virt. eigenvalues --    1.06952   1.07445   1.07513   1.07944   1.08657
 Alpha virt. eigenvalues --    1.08751   1.09405   1.09463   1.09822   1.10090
 Alpha virt. eigenvalues --    1.10324   1.10704   1.10862   1.11203   1.11463
 Alpha virt. eigenvalues --    1.11589   1.11768   1.11947   1.12163   1.12597
 Alpha virt. eigenvalues --    1.12943   1.13001   1.13179   1.13621   1.13859
 Alpha virt. eigenvalues --    1.14191   1.14466   1.14673   1.14816   1.15215
 Alpha virt. eigenvalues --    1.15573   1.15766   1.15994   1.16152   1.16612
 Alpha virt. eigenvalues --    1.16842   1.17214   1.17415   1.17871   1.18048
 Alpha virt. eigenvalues --    1.18625   1.19020   1.19110   1.19252   1.19579
 Alpha virt. eigenvalues --    1.20018   1.20157   1.20297   1.20416   1.20829
 Alpha virt. eigenvalues --    1.21189   1.21409   1.21525   1.21883   1.22081
 Alpha virt. eigenvalues --    1.22263   1.22449   1.22938   1.23330   1.23579
 Alpha virt. eigenvalues --    1.23942   1.24081   1.24410   1.24718   1.24832
 Alpha virt. eigenvalues --    1.25138   1.25279   1.25548   1.25664   1.25812
 Alpha virt. eigenvalues --    1.26493   1.26662   1.26977   1.27095   1.27434
 Alpha virt. eigenvalues --    1.27816   1.27875   1.28247   1.28476   1.28538
 Alpha virt. eigenvalues --    1.28696   1.29061   1.29262   1.29386   1.29756
 Alpha virt. eigenvalues --    1.29914   1.30108   1.30248   1.30596   1.30791
 Alpha virt. eigenvalues --    1.31083   1.31430   1.31606   1.31832   1.32051
 Alpha virt. eigenvalues --    1.32378   1.32763   1.32942   1.33487   1.33747
 Alpha virt. eigenvalues --    1.34009   1.34118   1.34322   1.34610   1.34673
 Alpha virt. eigenvalues --    1.34904   1.35092   1.35146   1.35837   1.35928
 Alpha virt. eigenvalues --    1.36335   1.36736   1.37021   1.37161   1.37531
 Alpha virt. eigenvalues --    1.37655   1.38087   1.38422   1.38660   1.38772
 Alpha virt. eigenvalues --    1.39068   1.39150   1.39455   1.39635   1.40223
 Alpha virt. eigenvalues --    1.40411   1.40667   1.41021   1.41212   1.41375
 Alpha virt. eigenvalues --    1.41597   1.41762   1.42334   1.42401   1.42771
 Alpha virt. eigenvalues --    1.43387   1.43616   1.43948   1.44228   1.44690
 Alpha virt. eigenvalues --    1.44701   1.45112   1.45160   1.45283   1.45849
 Alpha virt. eigenvalues --    1.45908   1.46644   1.46993   1.47282   1.47539
 Alpha virt. eigenvalues --    1.47833   1.47922   1.48112   1.48550   1.48891
 Alpha virt. eigenvalues --    1.49516   1.49659   1.49841   1.50087   1.50211
 Alpha virt. eigenvalues --    1.50598   1.50844   1.51303   1.51372   1.51643
 Alpha virt. eigenvalues --    1.52740   1.53051   1.53173   1.53415   1.53498
 Alpha virt. eigenvalues --    1.53980   1.54083   1.54849   1.55108   1.55716
 Alpha virt. eigenvalues --    1.55855   1.56023   1.56307   1.56422   1.57095
 Alpha virt. eigenvalues --    1.57258   1.57620   1.57910   1.58254   1.58662
 Alpha virt. eigenvalues --    1.58921   1.59141   1.59250   1.59500   1.59671
 Alpha virt. eigenvalues --    1.59903   1.60075   1.60276   1.60416   1.60961
 Alpha virt. eigenvalues --    1.61078   1.61808   1.62516   1.62865   1.63336
 Alpha virt. eigenvalues --    1.63433   1.63699   1.63975   1.64005   1.64233
 Alpha virt. eigenvalues --    1.64676   1.64837   1.65023   1.65302   1.65566
 Alpha virt. eigenvalues --    1.65919   1.66002   1.66557   1.66913   1.67289
 Alpha virt. eigenvalues --    1.67523   1.67934   1.68171   1.68627   1.68748
 Alpha virt. eigenvalues --    1.69050   1.69312   1.69816   1.69873   1.70069
 Alpha virt. eigenvalues --    1.70190   1.70523   1.70837   1.70957   1.71283
 Alpha virt. eigenvalues --    1.71585   1.71689   1.72023   1.72246   1.72522
 Alpha virt. eigenvalues --    1.72681   1.72818   1.73225   1.73478   1.73731
 Alpha virt. eigenvalues --    1.74095   1.74471   1.74578   1.74948   1.75248
 Alpha virt. eigenvalues --    1.75353   1.75511   1.75521   1.75682   1.75838
 Alpha virt. eigenvalues --    1.76089   1.76281   1.76661   1.76755   1.76839
 Alpha virt. eigenvalues --    1.77025   1.77155   1.77550   1.77585   1.77745
 Alpha virt. eigenvalues --    1.77894   1.78036   1.78234   1.78419   1.78658
 Alpha virt. eigenvalues --    1.78853   1.78880   1.79024   1.79174   1.79342
 Alpha virt. eigenvalues --    1.79423   1.79645   1.79722   1.79795   1.80472
 Alpha virt. eigenvalues --    1.80555   1.80726   1.80812   1.80951   1.81124
 Alpha virt. eigenvalues --    1.81270   1.81303   1.81674   1.81768   1.82093
 Alpha virt. eigenvalues --    1.82252   1.82442   1.82590   1.82847   1.82968
 Alpha virt. eigenvalues --    1.83350   1.83381   1.83466   1.83590   1.83826
 Alpha virt. eigenvalues --    1.83873   1.83954   1.84097   1.84202   1.84434
 Alpha virt. eigenvalues --    1.84626   1.84887   1.84956   1.85242   1.85282
 Alpha virt. eigenvalues --    1.85377   1.85518   1.85680   1.85781   1.86070
 Alpha virt. eigenvalues --    1.86208   1.86493   1.86723   1.86893   1.86968
 Alpha virt. eigenvalues --    1.87107   1.87195   1.87306   1.87671   1.87837
 Alpha virt. eigenvalues --    1.88122   1.88283   1.88369   1.88550   1.88751
 Alpha virt. eigenvalues --    1.89123   1.89542   1.89857   1.89966   1.90253
 Alpha virt. eigenvalues --    1.90328   1.90599   1.90835   1.91004   1.91238
 Alpha virt. eigenvalues --    1.91722   1.91822   1.92003   1.92427   1.92499
 Alpha virt. eigenvalues --    1.92558   1.92997   1.93170   1.93489   1.93594
 Alpha virt. eigenvalues --    1.93610   1.93905   1.94372   1.94657   1.94674
 Alpha virt. eigenvalues --    1.94965   1.95025   1.95263   1.95288   1.95560
 Alpha virt. eigenvalues --    1.96001   1.96047   1.96095   1.96270   1.96473
 Alpha virt. eigenvalues --    1.96603   1.96687   1.96885   1.97237   1.97482
 Alpha virt. eigenvalues --    1.97955   1.98095   1.98305   1.98525   1.98645
 Alpha virt. eigenvalues --    1.98828   1.98984   1.99492   1.99693   1.99956
 Alpha virt. eigenvalues --    2.00102   2.00363   2.00680   2.00898   2.00984
 Alpha virt. eigenvalues --    2.01154   2.01730   2.01783   2.02050   2.02318
 Alpha virt. eigenvalues --    2.02622   2.02787   2.02810   2.02928   2.03073
 Alpha virt. eigenvalues --    2.03372   2.03552   2.03557   2.03793   2.04213
 Alpha virt. eigenvalues --    2.04396   2.04459   2.05137   2.05594   2.05706
 Alpha virt. eigenvalues --    2.06160   2.06464   2.06795   2.07248   2.07305
 Alpha virt. eigenvalues --    2.07474   2.07799   2.08033   2.08324   2.08488
 Alpha virt. eigenvalues --    2.08793   2.09018   2.09368   2.09444   2.09764
 Alpha virt. eigenvalues --    2.09905   2.10278   2.10630   2.10818   2.11130
 Alpha virt. eigenvalues --    2.11274   2.11379   2.11790   2.11838   2.12107
 Alpha virt. eigenvalues --    2.12361   2.12630   2.13274   2.13488   2.13742
 Alpha virt. eigenvalues --    2.14356   2.14765   2.15050   2.15466   2.16056
 Alpha virt. eigenvalues --    2.16147   2.16638   2.16737   2.17412   2.17579
 Alpha virt. eigenvalues --    2.17779   2.17925   2.18035   2.18295   2.18659
 Alpha virt. eigenvalues --    2.19032   2.19626   2.19759   2.20009   2.20389
 Alpha virt. eigenvalues --    2.20671   2.21014   2.21275   2.21577   2.21717
 Alpha virt. eigenvalues --    2.22017   2.22494   2.22909   2.23374   2.23588
 Alpha virt. eigenvalues --    2.23726   2.23773   2.23959   2.24244   2.25021
 Alpha virt. eigenvalues --    2.25201   2.25364   2.25648   2.25938   2.26031
 Alpha virt. eigenvalues --    2.26422   2.26478   2.26942   2.27475   2.27549
 Alpha virt. eigenvalues --    2.28174   2.28264   2.28841   2.28972   2.29287
 Alpha virt. eigenvalues --    2.29351   2.30367   2.30447   2.30614   2.31097
 Alpha virt. eigenvalues --    2.31417   2.31797   2.32335   2.32496   2.33209
 Alpha virt. eigenvalues --    2.33543   2.33850   2.34258   2.34657   2.35126
 Alpha virt. eigenvalues --    2.35382   2.35566   2.35736   2.36399   2.36611
 Alpha virt. eigenvalues --    2.36778   2.36861   2.37087   2.37381   2.37626
 Alpha virt. eigenvalues --    2.38184   2.38308   2.38721   2.38931   2.39111
 Alpha virt. eigenvalues --    2.39375   2.39849   2.39967   2.40484   2.40615
 Alpha virt. eigenvalues --    2.41056   2.41172   2.41539   2.42063   2.42349
 Alpha virt. eigenvalues --    2.42573   2.42931   2.43240   2.43490   2.44025
 Alpha virt. eigenvalues --    2.44276   2.44407   2.44709   2.45047   2.45649
 Alpha virt. eigenvalues --    2.45943   2.46384   2.46622   2.46889   2.47191
 Alpha virt. eigenvalues --    2.47376   2.47633   2.48009   2.48364   2.48756
 Alpha virt. eigenvalues --    2.49177   2.49398   2.49512   2.49716   2.49848
 Alpha virt. eigenvalues --    2.50682   2.50927   2.51066   2.51458   2.52075
 Alpha virt. eigenvalues --    2.52374   2.52401   2.52538   2.53105   2.54028
 Alpha virt. eigenvalues --    2.54325   2.54432   2.54556   2.54785   2.55186
 Alpha virt. eigenvalues --    2.55674   2.56194   2.56746   2.56904   2.57174
 Alpha virt. eigenvalues --    2.57228   2.57473   2.57650   2.57908   2.58157
 Alpha virt. eigenvalues --    2.58580   2.58720   2.58910   2.59973   2.60632
 Alpha virt. eigenvalues --    2.60782   2.60999   2.61227   2.61419   2.61603
 Alpha virt. eigenvalues --    2.62092   2.62717   2.62848   2.63099   2.63267
 Alpha virt. eigenvalues --    2.64439   2.64524   2.64883   2.65139   2.65773
 Alpha virt. eigenvalues --    2.65985   2.66152   2.66581   2.66935   2.67144
 Alpha virt. eigenvalues --    2.67449   2.67722   2.68170   2.68481   2.68764
 Alpha virt. eigenvalues --    2.69204   2.69632   2.70137   2.70212   2.70371
 Alpha virt. eigenvalues --    2.70640   2.71006   2.71110   2.71311   2.71487
 Alpha virt. eigenvalues --    2.71875   2.72138   2.72467   2.72636   2.72706
 Alpha virt. eigenvalues --    2.73416   2.73608   2.73850   2.73905   2.74325
 Alpha virt. eigenvalues --    2.74547   2.74902   2.75187   2.75412   2.75890
 Alpha virt. eigenvalues --    2.76138   2.76565   2.76791   2.77085   2.77170
 Alpha virt. eigenvalues --    2.77237   2.77565   2.77823   2.77961   2.78123
 Alpha virt. eigenvalues --    2.78162   2.78598   2.78785   2.78909   2.79180
 Alpha virt. eigenvalues --    2.79288   2.79419   2.79742   2.80077   2.80159
 Alpha virt. eigenvalues --    2.80457   2.80639   2.80989   2.81317   2.81495
 Alpha virt. eigenvalues --    2.81538   2.82567   2.82826   2.83130   2.83403
 Alpha virt. eigenvalues --    2.83559   2.83682   2.83857   2.84261   2.84732
 Alpha virt. eigenvalues --    2.84871   2.85262   2.86113   2.86355   2.86589
 Alpha virt. eigenvalues --    2.86713   2.87467   2.87683   2.87766   2.88159
 Alpha virt. eigenvalues --    2.88317   2.88519   2.88548   2.89197   2.89490
 Alpha virt. eigenvalues --    2.90025   2.90128   2.90196   2.90561   2.90582
 Alpha virt. eigenvalues --    2.90848   2.90945   2.91176   2.91580   2.91662
 Alpha virt. eigenvalues --    2.92568   2.93037   2.93237   2.93626   2.93708
 Alpha virt. eigenvalues --    2.94103   2.94394   2.94604   2.94803   2.95088
 Alpha virt. eigenvalues --    2.95372   2.95698   2.96066   2.96332   2.96627
 Alpha virt. eigenvalues --    2.96915   2.97395   2.97540   2.97901   2.98853
 Alpha virt. eigenvalues --    2.99223   2.99554   2.99909   3.00737   3.01195
 Alpha virt. eigenvalues --    3.01479   3.01830   3.02056   3.02628   3.02821
 Alpha virt. eigenvalues --    3.02937   3.03081   3.03320   3.03609   3.04043
 Alpha virt. eigenvalues --    3.04232   3.04450   3.04758   3.05356   3.05663
 Alpha virt. eigenvalues --    3.05822   3.06182   3.06259   3.06804   3.08173
 Alpha virt. eigenvalues --    3.08475   3.09010   3.09310   3.09568   3.09863
 Alpha virt. eigenvalues --    3.09989   3.10918   3.11402   3.12000   3.12885
 Alpha virt. eigenvalues --    3.13771   3.13873   3.13990   3.14616   3.14662
 Alpha virt. eigenvalues --    3.15047   3.15344   3.15849   3.16520   3.16736
 Alpha virt. eigenvalues --    3.17140   3.17942   3.18010   3.18279   3.18457
 Alpha virt. eigenvalues --    3.18909   3.19038   3.19509   3.20071   3.20574
 Alpha virt. eigenvalues --    3.20680   3.20820   3.20958   3.21281   3.21559
 Alpha virt. eigenvalues --    3.21947   3.22005   3.22108   3.23131   3.23357
 Alpha virt. eigenvalues --    3.23572   3.24089   3.25198   3.25875   3.26162
 Alpha virt. eigenvalues --    3.26695   3.26967   3.27123   3.27797   3.28151
 Alpha virt. eigenvalues --    3.28654   3.29167   3.29657   3.30087   3.30425
 Alpha virt. eigenvalues --    3.30719   3.30815   3.31879   3.32594   3.34315
 Alpha virt. eigenvalues --    3.34778   3.35446   3.36756   3.37939   3.41159
 Alpha virt. eigenvalues --    3.42203   3.45081   3.49108   3.51390   3.51671
 Alpha virt. eigenvalues --    3.54160   3.54313   3.55912   3.56280   3.57411
 Alpha virt. eigenvalues --    3.57630   3.58775   3.59057   3.59867   3.60553
 Alpha virt. eigenvalues --    3.61270   3.62653   3.63457   3.63719   3.63831
 Alpha virt. eigenvalues --    3.64628   3.65755   3.66125   3.67113   3.68110
 Alpha virt. eigenvalues --    3.68183   3.69280   3.70175   3.70301   3.70732
 Alpha virt. eigenvalues --    3.70910   3.71803   3.72433   3.72597   3.72851
 Alpha virt. eigenvalues --    3.74386   3.74984   3.75963   3.76383   3.76635
 Alpha virt. eigenvalues --    3.79118   3.83569   3.85979   3.87334
          Condensed to atoms (all electrons):
 Mulliken charges:
               1
     1  C    0.086106
     2  C    0.031255
     3  O   -0.316700
     4  H    0.050309
     5  H    0.006566
     6  H    0.046556
     7  N   -0.113672
     8  C    0.072192
     9  C    0.031062
    10  O   -0.274741
    11  C    0.145786
    12  C    0.115106
    13  O   -0.385611
    14  O   -0.470082
    15  H    0.117653
    16  H    0.028198
    17  H    0.000755
    18  H    0.014234
    19  N   -0.117399
    20  C    0.217384
    21  C    0.052934
    22  O   -0.266158
    23  C   -0.089929
    24  C    0.037332
    25  C   -0.078341
    26  C    0.045268
    27  N    0.093687
    28  H    0.141634
    29  H   -0.009182
    30  H    0.018444
    31  H    0.014938
    32  H    0.022445
    33  H    0.033885
    34  H    0.028992
    35  H    0.059925
    36  H    0.083183
    37  H    0.066896
    38  H    0.199772
    39  H    0.185092
    40  H    0.193063
    41  N   -0.185311
    42  C    0.143250
    43  C    0.063032
    44  O   -0.280155
    45  C    0.053507
    46  C    0.142931
    47  O   -0.453739
    48  O   -0.410731
    49  H    0.152891
    50  H    0.000494
    51  H   -0.032192
    52  H    0.030740
    53  N   -0.172978
    54  C    0.238436
    55  C    0.035142
    56  O   -0.308776
    57  H    0.166824
    58  H    0.000690
    59  H    0.022566
    60  N   -0.168828
    61  C    0.174902
    62  C    0.058409
    63  O   -0.319918
    64  C    0.088024
    65  C    0.031668
    66  N   -0.023885
    67  O   -0.325054
    68  H    0.148957
    69  H    0.018770
    70  H    0.067692
    71  H    0.005813
    72  H    0.121289
    73  H    0.116384
    74  N   -0.148831
    75  C    0.239034
    76  C    0.033317
    77  O   -0.312142
    78  H    0.158093
    79  H    0.028933
    80  H    0.021643
    81  N   -0.164638
    82  C    0.149161
    83  C    0.143845
    84  O   -0.381521
    85  C    0.168014
    86  C   -0.032222
    87  C    0.000130
    88  C   -0.011350
    89  C   -0.011662
    90  C   -0.032270
    91  C    0.165668
    92  O   -0.203723
    93  H    0.165251
    94  H   -0.010363
    95  H   -0.014054
    96  H   -0.030328
    97  H   -0.041358
    98  H   -0.025552
    99  H   -0.035381
   100  H   -0.031482
   101  H    0.172443
   102  N   -0.098117
   103  C    0.167049
   104  C    0.044190
   105  O   -0.278609
   106  C   -0.115027
   107  C    0.021450
   108  C    0.028129
   109  C    0.045901
   110  H    0.131476
   111  H    0.008270
   112  H   -0.018258
   113  H   -0.003323
   114  H    0.000494
   115  H    0.019011
   116  H    0.001576
   117  H    0.002651
   118  H    0.022548
   119  H    0.003446
   120  H   -0.007674
   121  N   -0.120434
   122  C    0.023487
   123  C    0.135428
   124  O   -0.267504
   125  C    0.273640
   126  O   -0.345540
   127  H    0.158820
   128  H    0.020418
   129  H    0.026488
   130  H   -0.042466
   131  H    0.173241
   132  N   -0.137492
   133  C    0.084184
   134  C    0.042971
   135  O   -0.255516
   136  C    0.034201
   137  H    0.125655
   138  H    0.024965
   139  H    0.000228
   140  H    0.047162
   141  H    0.028480
   142  N   -0.135437
   143  C    0.113787
   144  C    0.071045
   145  O   -0.299039
   146  C    0.030046
   147  H    0.106650
   148  H    0.030937
   149  H    0.028502
   150  H    0.009480
   151  H    0.025945
   152  N   -0.164128
   153  C    0.137940
   154  C    0.062705
   155  O   -0.299245
   156  C   -0.014545
   157  C    0.111085
   158  C    0.153052
   159  O   -0.390302
   160  O   -0.493233
   161  H    0.129681
   162  H   -0.039177
   163  H    0.032339
   164  H   -0.000225
   165  H    0.008130
   166  H   -0.028078
   167  N   -0.156838
   168  C    0.167155
   169  H    0.018330
   170  H    0.013174
   171  H    0.014553
   172  H    0.129915
   173  Ca   1.334257
   174  O   -0.319573
   175  H    0.166170
   176  H    0.161012
 Sum of Mulliken charges =   0.00000
 Mulliken charges with hydrogens summed into heavy atoms:
               1
     1  C    0.189538
     2  C    0.031255
     3  O   -0.316700
     7  N    0.003981
     8  C    0.100389
     9  C    0.031062
    10  O   -0.274741
    11  C    0.160775
    12  C    0.115106
    13  O   -0.385611
    14  O   -0.470082
    19  N    0.024235
    20  C    0.208202
    21  C    0.052934
    22  O   -0.266158
    23  C   -0.056548
    24  C    0.093662
    25  C    0.010576
    26  C    0.195347
    27  N    0.671613
    41  N   -0.032420
    42  C    0.143744
    43  C    0.063032
    44  O   -0.280155
    45  C    0.052055
    46  C    0.142931
    47  O   -0.453739
    48  O   -0.410731
    53  N   -0.006154
    54  C    0.261692
    55  C    0.035142
    56  O   -0.308776
    60  N   -0.019871
    61  C    0.193673
    62  C    0.058409
    63  O   -0.319918
    64  C    0.161529
    65  C    0.031668
    66  N    0.213788
    67  O   -0.325054
    74  N    0.009262
    75  C    0.289610
    76  C    0.033317
    77  O   -0.312142
    81  N    0.000613
    82  C    0.138799
    83  C    0.143845
    84  O   -0.381521
    85  C    0.123632
    86  C   -0.032222
    87  C   -0.041228
    88  C   -0.036901
    89  C   -0.047044
    90  C   -0.063752
    91  C    0.165668
    92  O   -0.031280
   102  N    0.033359
   103  C    0.175319
   104  C    0.044190
   105  O   -0.278609
   106  C   -0.133285
   107  C    0.018621
   108  C    0.051367
   109  C    0.064221
   121  N    0.038385
   122  C    0.043905
   123  C    0.135428
   124  O   -0.267504
   125  C    0.257662
   126  O   -0.172299
   132  N   -0.011837
   133  C    0.109149
   134  C    0.042971
   135  O   -0.255516
   136  C    0.110070
   142  N   -0.028787
   143  C    0.144724
   144  C    0.071045
   145  O   -0.299039
   146  C    0.093974
   152  N   -0.034447
   153  C    0.098764
   154  C    0.062705
   155  O   -0.299245
   156  C    0.017569
   157  C    0.091137
   158  C    0.153052
   159  O   -0.390302
   160  O   -0.493233
   167  N   -0.026923
   168  C    0.213211
   173  Ca   1.334257
   174  O    0.007609
 DipInt: DoE/N= T F RetVal/Mat= T F Init=T NMatP=  1 IDeriv=0 Min/MaxMlt=  0  4
 Entering OneElI...
 OneElI was handed  4286741430 working-precision words.
 Multipole integrals L=0 to 4 MinM= 0 MaxM= 0.
 Requested accuracy = 0.1000D-12
 ShPair: Thresh= 1.00D-13 NBox=     0 BxSize= 0.00D+00 RnKept= 2.55D+01
         NSMCal=               327645 NSMKep=              165738
 PrsmSu:  NPrtUS=   1 ThrOK=F IAlg=1 NPAlg=1 LenDen=           0.
 Prism:   IPart=     0 DynPar=F LinDyn=F Incr=         512.
 PRISM was handed  4276452222 working-precision words and165738 shell-pairs
 IPart=  0 NShTot=      165738 NBatch=         465 AvBLen=       356.4
 PrSmSu:  NxtVal=            513.
 Electronic moments (au):
       -716.00000000         16.57906204          1.73898847         -4.17656444
     -53004.89181859     -26688.73483065     -12066.42313864        112.11149336
        -34.56088127        -11.03491732      -6291.90484363     -29199.68128557
     -18581.23644504      -2581.19222057      94293.82278220      58790.91908991
     -12727.50974590       5350.65290341      10413.38817343      -5713.23024774
   -8167893.08237877   -2129131.96045776    -598716.38022624    -507930.11466525
     177222.20338386    -304284.46955208     -22570.53412837     -71010.44747621
      89698.35365513   -2105877.35375595    -632111.94769654    -289035.47865973
    -247534.55423157      65552.20190349      72215.52321074
 Electronic spatial extent (au):  <R**2>=          91760.0498
 DipInt: DoE/N= F T RetVal/Mat= T F Init=T NMatP=  1 IDeriv=0 Min/MaxMlt=  0  4
 Nuclear    moments (au):
        716.00000000          0.00000000          0.00000000          0.00000000
      52604.16322608      26329.42942287      11685.33641314          0.00000000
          0.00000000          0.00000000       8350.52306870      29936.13604926
      18621.05400852       4954.82036177     -93132.52399460     -59842.79973537
      12941.20523261      -5395.74413082     -10851.95443288       5497.01973741
    7985765.29153360    2045228.39629785     559813.54755969     523868.77183722
    -181889.28186070     320642.46634110      18966.62026496      71268.63378302
     -88903.69408216    2074643.22497436     598176.50379912     267148.86800731
     245331.37458068     -70760.46938083     -71827.25692584
 Total      moments (au):
          0.00000000         16.57906204          1.73898847         -4.17656444
       -400.72859251       -359.30540779       -381.08672550        112.11149336
        -34.56088127        -11.03491732       2058.61822507        736.45476369
         39.81756348       2373.62814120       1161.29878760      -1051.88064545
        213.69548671        -45.09122741       -438.56625944       -216.21051033
    -182127.79084517     -83903.56415991     -38902.83266655      15938.65717197
      -4667.07847683      16357.99678902      -3603.91386342        258.18630681
        794.65957297     -31234.12878159     -33935.44389742     -21886.61065242
      -2203.17965089      -5208.26747734        388.26628490
 Traceless Quadrup. (au):
        -20.35501724         21.06816748         -0.71315024        112.11149336
        -34.56088127        -11.03491732
 Charge=              0.0000 electrons
 Dipole moment (field-independent basis, Debye):
    X=             42.1398    Y=              4.4201    Z=            -10.6158  Tot=             43.6806
 Quadrupole moment (field-independent basis, Debye-Ang):
   XX=           -538.9937   YY=           -483.2781   ZZ=           -512.5747
   XY=            150.7938   XZ=            -46.4856   YZ=            -14.8423
 Traceless Quadrupole moment (field-independent basis, Debye-Ang):
   XX=            -27.3782   YY=             28.3374   ZZ=             -0.9592
   XY=            150.7938   XZ=            -46.4856   YZ=            -14.8423
 Octapole moment (field-independent basis, Debye-Ang**2):
  XXX=           1465.2451  YYY=            524.1801  ZZZ=             28.3406  XYY=           1689.4570
  XXY=            826.5677  XXZ=           -748.6881  XZZ=            152.1002  YZZ=            -32.0942
  YYZ=           -312.1545  XYZ=           -153.8903
 Hexadecapole moment (field-independent basis, Debye-Ang**3):
 XXXX=         -68598.0548 YYYY=         -31602.1035 ZZZZ=         -14652.6713 XXXY=           6003.2622
 XXXZ=          -1757.8454 YYYX=           6161.2056 YYYZ=          -1357.4067 ZZZX=             97.2453
 ZZZY=            299.3069 XXYY=         -11764.2698 XXZZ=         -12781.7146 YYZZ=          -8243.5465
 XXYZ=           -829.8230 YYXZ=          -1961.6831 ZZXY=            146.2397
 N-N= 2.207443858280D+04 E-N=-5.663270085449D+04  KE= 5.290789518731D+03
 Leave Link  601 at Mon Sep 16 16:33:06 2019, MaxMem=  4294967296 cpu:        22.2
 FitSet:  NAtFit=   176 NAtPot=   176 NAtFrz=     0 MDM=   180 TotChg=   0.00000
 Merz-Kollman atomic radii used.
 Read replacement radii for each type of atom:
 Rad(20) =   1.700000000000D+00
 Atom Element Radius
    1     6    1.50
    2     6    1.50
    3     8    1.40
    4     1    1.20
    5     1    1.20
    6     1    1.20
    7     7    1.50
    8     6    1.50
    9     6    1.50
   10     8    1.40
   11     6    1.50
   12     6    1.50
   13     8    1.40
   14     8    1.40
   15     1    1.20
   16     1    1.20
   17     1    1.20
   18     1    1.20
   19     7    1.50
   20     6    1.50
   21     6    1.50
   22     8    1.40
   23     6    1.50
   24     6    1.50
   25     6    1.50
   26     6    1.50
   27     7    1.50
   28     1    1.20
   29     1    1.20
   30     1    1.20
   31     1    1.20
   32     1    1.20
   33     1    1.20
   34     1    1.20
   35     1    1.20
   36     1    1.20
   37     1    1.20
   38     1    1.20
   39     1    1.20
   40     1    1.20
   41     7    1.50
   42     6    1.50
   43     6    1.50
   44     8    1.40
   45     6    1.50
   46     6    1.50
   47     8    1.40
   48     8    1.40
   49     1    1.20
   50     1    1.20
   51     1    1.20
   52     1    1.20
   53     7    1.50
   54     6    1.50
   55     6    1.50
   56     8    1.40
   57     1    1.20
   58     1    1.20
   59     1    1.20
   60     7    1.50
   61     6    1.50
   62     6    1.50
   63     8    1.40
   64     6    1.50
   65     6    1.50
   66     7    1.50
   67     8    1.40
   68     1    1.20
   69     1    1.20
   70     1    1.20
   71     1    1.20
   72     1    1.20
   73     1    1.20
   74     7    1.50
   75     6    1.50
   76     6    1.50
   77     8    1.40
   78     1    1.20
   79     1    1.20
   80     1    1.20
   81     7    1.50
   82     6    1.50
   83     6    1.50
   84     8    1.40
   85     6    1.50
   86     6    1.50
   87     6    1.50
   88     6    1.50
   89     6    1.50
   90     6    1.50
   91     6    1.50
   92     8    1.40
   93     1    1.20
   94     1    1.20
   95     1    1.20
   96     1    1.20
   97     1    1.20
   98     1    1.20
   99     1    1.20
  100     1    1.20
  101     1    1.20
  102     7    1.50
  103     6    1.50
  104     6    1.50
  105     8    1.40
  106     6    1.50
  107     6    1.50
  108     6    1.50
  109     6    1.50
  110     1    1.20
  111     1    1.20
  112     1    1.20
  113     1    1.20
  114     1    1.20
  115     1    1.20
  116     1    1.20
  117     1    1.20
  118     1    1.20
  119     1    1.20
  120     1    1.20
  121     7    1.50
  122     6    1.50
  123     6    1.50
  124     8    1.40
  125     6    1.50
  126     8    1.40
  127     1    1.20
  128     1    1.20
  129     1    1.20
  130     1    1.20
  131     1    1.20
  132     7    1.50
  133     6    1.50
  134     6    1.50
  135     8    1.40
  136     6    1.50
  137     1    1.20
  138     1    1.20
  139     1    1.20
  140     1    1.20
  141     1    1.20
  142     7    1.50
  143     6    1.50
  144     6    1.50
  145     8    1.40
  146     6    1.50
  147     1    1.20
  148     1    1.20
  149     1    1.20
  150     1    1.20
  151     1    1.20
  152     7    1.50
  153     6    1.50
  154     6    1.50
  155     8    1.40
  156     6    1.50
  157     6    1.50
  158     6    1.50
  159     8    1.40
  160     8    1.40
  161     1    1.20
  162     1    1.20
  163     1    1.20
  164     1    1.20
  165     1    1.20
  166     1    1.20
  167     7    1.50
  168     6    1.50
  169     1    1.20
  170     1    1.20
  171     1    1.20
  172     1    1.20
  173    20    1.70
  174     8    1.40
  175     1    1.20
  176     1    1.20
 Generate VDW surfaces: Layer= 4 Dens= 6 Start= 1.400 Inc= 0.200

 **********************************************************************

            Electrostatic Properties Using The SCF Density

 **********************************************************************

       Atomic Center    1 is at   2.619865  0.754778  5.350738
       Atomic Center    2 is at   1.801646  0.647969  4.073667
[...]
 **** Fit      -0.017799
 **** Fit      -0.016040
 **** Fit      -0.013105
 **** Fit      -0.009104
 **** Fit      -0.004205
 **** Fit       0.001351
 **** Fit       0.007233
 **** Fit       0.013032
 **** Fit       0.018337
 **** Fit      -0.020101
 **** Fit      -0.017691
 **** Fit      -0.013883
 **** Fit      -0.008771
 **** Fit      -0.002556
 **** Fit       0.004453
 **** Fit       0.011820
 **** Fit       0.019003
 **** Fit      -0.016299
 **** Fit      -0.009860
 **** Fit      -0.002120
 **** Fit       0.006487
 **** Fit       0.015383
 **** Fit       0.023867
 **** Fit       0.009366
 **** Fit       0.020117
 **** Fit       0.041947
 **** Fit       0.037803
 **** Fit       0.041037
 **** Fit       0.036481
 **** Fit       0.038405
 **** Fit       0.014228
 **** Fit       0.034192
 **** Fit       0.034803
 **** Fit       0.033890
 **** Fit       0.026764
 **** Fit       0.022124
 **** Fit       0.018898
 **** Fit       0.030984
 **** Fit       0.030302
 **** Fit       0.028070
 **** Fit       0.024949
 **** Fit       0.022602
 **** Fit       0.027306
 **** Fit       0.025542
 **** Fit       0.023996
 **** Fit       0.024840
 **** Fit       0.023807
 **** Fit       0.022440
 **** Fit       0.006759
 **** Fit       0.006460
 **** Fit       0.004021
 **** Fit       0.001554
 **** Fit      -0.000287
 **** Fit       0.058570
 **** Fit       0.048503
 **** Fit       0.033073
 **** Fit       0.032774
 **** Fit       0.030221
 **** Fit       0.029317
 **** Fit       0.027007
 **** Fit       0.026384
 **** Fit       0.024682
 **** Fit       0.022680
 **** Fit       0.020399
 **** Fit       0.021831
 **** Fit       0.022930
 **** Fit       0.020712
 **** Fit       0.015920
 **** Fit       0.018290
 **** Fit       0.046471
 **** Fit       0.055788
 **** Fit       0.038413
 **** Fit       0.026446
 **** Fit       0.014648
 **** Fit       0.046199
 **** Fit       0.053261
 **** Fit       0.058911
 **** Fit       0.043898
 **** Fit       0.033516
 **** Fit       0.022843
 **** Fit       0.012747
 **** Fit       0.043973
 **** Fit       0.048731
 **** Fit       0.051359
 **** Fit       0.050487
 **** Fit       0.045911
 **** Fit       0.038527
 **** Fit       0.029718
 **** Fit       0.020887
 **** Fit       0.013466
 **** Fit       0.040605
 **** Fit       0.043153
 **** Fit       0.042752
 **** Fit       0.038851
 **** Fit       0.032337
 **** Fit       0.024995
 **** Fit       0.018926
 **** Fit       0.036469
 **** Fit       0.036194
 **** Fit       0.032148
 **** Fit       0.026239
 **** Fit      -0.022814
 **** Fit       0.001324
 **** Fit       0.000363
 **** Fit       0.002726
 **** Fit       0.002123
 **** Fit       0.001113
 **** Fit       0.000133
 **** Fit      -0.001070
 **** Fit      -0.002234
 **** Fit       0.003517
 **** Fit       0.003237
 **** Fit       0.002895
 **** Fit       0.002440
 **** Fit       0.001859
 **** Fit       0.000996
 **** Fit       0.000060
 **** Fit      -0.001249
 **** Fit      -0.002905
 **** Fit      -0.004621
 **** Fit       0.003708
 **** Fit       0.003558
 **** Fit       0.003382
 **** Fit       0.003099
 **** Fit       0.002703
 **** Fit       0.002225
 **** Fit       0.001676
 **** Fit       0.000922
 **** Fit      -0.007215
 **** Fit      -0.009362
 **** Fit       0.003682
 **** Fit       0.003694
 **** Fit       0.003672
 **** Fit       0.003524
 **** Fit       0.003225
 **** Fit       0.002818
 **** Fit       0.002366
 **** Fit       0.001915
 **** Fit       0.001459
 **** Fit      -0.011443
 **** Fit      -0.014738
 **** Fit       0.003455
 **** Fit       0.003643
 **** Fit       0.003849
 **** Fit       0.003487
 **** Fit       0.003000
 **** Fit       0.002466
 **** Fit       0.001972
 **** Fit       0.001561
 **** Fit       0.001214
 **** Fit       0.002826
 **** Fit       0.003235
 **** Fit       0.002488
 **** Fit       0.001854
 **** Fit       0.001361
 **** Fit       0.001035
 **** Fit       0.002034
 **** Fit       0.000972
 **** Fit       0.000500
 **** Fit       0.000277
 **** Fit       0.000962
 **** Fit      -0.000336
 **** Fit      -0.000736
 **** Fit      -0.002158
 **** Fit      -0.002458
 **** Fit      -0.004682
 **** Fit      -0.004872
 **** Fit      -0.008367
 **** Fit      -0.008293
 **** Fit      -0.013783
 **** Fit      -0.013156
 **** Fit      -0.012055
 **** Fit      -0.000082
 **** Fit      -0.001355
 **** Fit      -0.003136
 **** Fit       0.000171
 **** Fit      -0.000800
 **** Fit      -0.002324
 **** Fit      -0.004440
 **** Fit      -0.006874
 **** Fit       0.000775
 **** Fit       0.000316
 **** Fit      -0.000440
 **** Fit      -0.001706
 **** Fit      -0.003645
 **** Fit      -0.006336
 **** Fit      -0.009639
 **** Fit       0.001048
 **** Fit       0.000749
 **** Fit       0.000295
 **** Fit      -0.000284
 **** Fit      -0.001344
 **** Fit      -0.003077
 **** Fit      -0.005680
 **** Fit      -0.009305
 **** Fit      -0.013927
 **** Fit       0.000714
 **** Fit       0.000571
 **** Fit       0.000046
 **** Fit      -0.000358
 **** Fit      -0.001198
 **** Fit      -0.002652
 **** Fit      -0.004944
 **** Fit      -0.008338
 **** Fit      -0.013116
 **** Fit       0.000148
 **** Fit       0.000153
 **** Fit       0.000168
 **** Fit      -0.000502
 **** Fit      -0.000768
 **** Fit      -0.001483
 **** Fit      -0.002832
 **** Fit      -0.005065
 **** Fit      -0.008529
 **** Fit      -0.013695
 **** Fit      -0.000915
 **** Fit      -0.000721
 **** Fit      -0.000533
 **** Fit      -0.001428
 **** Fit      -0.001550
 **** Fit      -0.002127
 **** Fit      -0.003333
 **** Fit      -0.005414
 **** Fit      -0.008740
 **** Fit      -0.013876
 **** Fit      -0.002436
 **** Fit      -0.002007
 **** Fit      -0.001624
 **** Fit      -0.002833
 **** Fit      -0.002812
 **** Fit      -0.003286
 **** Fit      -0.004418
 **** Fit      -0.006451
 **** Fit      -0.009772
 **** Fit      -0.015015
 **** Fit      -0.004598
 **** Fit      -0.003856
 **** Fit      -0.003221
 **** Fit      -0.004837
 **** Fit      -0.004665
 **** Fit      -0.005109
 **** Fit      -0.006339
 **** Fit      -0.008622
 **** Fit      -0.012419
 **** Fit      -0.007785
 **** Fit      -0.006532
 **** Fit      -0.005500
 **** Fit      -0.007586
 **** Fit      -0.007227
 **** Fit      -0.007698
 **** Fit      -0.009164
 **** Fit      -0.011917
 **** Fit      -0.016494
 **** Fit      -0.012474
 **** Fit      -0.010341
 **** Fit      -0.008660
 **** Fit      -0.011238
 **** Fit      -0.010626
 **** Fit      -0.011140
 **** Fit      -0.012895
 **** Fit      -0.016119
 **** Fit      -0.015597
 **** Fit      -0.012914
 **** Fit      -0.015929
 **** Fit      -0.014938
 **** Fit      -0.015685
 **** Fit      -0.018144
 **** Fit      -0.020060
 **** Fit      -0.021038
 **** Fit       0.003346
 **** Fit       0.002435
 **** Fit       0.002100
 **** Fit       0.003195
 **** Fit       0.004392
 **** Fit       0.004200
 **** Fit       0.003357
 **** Fit       0.001655
 **** Fit       0.000770
 **** Fit       0.000392
 **** Fit       0.001088
 **** Fit       0.002794
 **** Fit       0.004629
 **** Fit       0.005574
 **** Fit       0.005380
 **** Fit       0.004696
 **** Fit       0.003987
 **** Fit       0.003309
 **** Fit       0.002554
 **** Fit      -0.000123
 **** Fit      -0.001234
 **** Fit      -0.001903
 **** Fit      -0.001632
 **** Fit      -0.000202
 **** Fit       0.002011
 **** Fit       0.006429
 **** Fit       0.005622
 **** Fit       0.004856
 **** Fit       0.004236
 **** Fit       0.003735
 **** Fit       0.003260
 **** Fit      -0.004016
 **** Fit      -0.005115
 **** Fit      -0.005171
 **** Fit      -0.003819
 **** Fit       0.006623
 **** Fit       0.005680
 **** Fit       0.004920
 **** Fit       0.004343
 **** Fit       0.003934
 **** Fit      -0.009907
 **** Fit      -0.010254
 **** Fit      -0.008701
 **** Fit       0.005449
 **** Fit       0.004797
 **** Fit       0.004268
 **** Fit       0.003906
 **** Fit       0.003682
 **** Fit       0.003450
 **** Fit       0.003976
 **** Fit       0.003946
 **** Fit       0.003678
 **** Fit       0.003713
 **** Fit       0.004105
 **** Fit       0.004273
 **** Fit       0.004172
 **** Fit       0.003825
 **** Fit       0.003310
 **** Fit       0.003189
 **** Fit       0.003885
 **** Fit       0.004364
 **** Fit       0.004549
 **** Fit       0.004417
 **** Fit       0.004002
 **** Fit       0.003385
 **** Fit       0.002669
 **** Fit       0.001969
 **** Fit       0.002121
 **** Fit       0.003219
 **** Fit       0.004083
 **** Fit       0.004627
 **** Fit       0.004805
 **** Fit       0.004618
 **** Fit       0.004112
 **** Fit       0.003373
 **** Fit       0.002505
 **** Fit       0.001619
 **** Fit       0.000818
 **** Fit       0.000665
 **** Fit       0.002348
 **** Fit       0.003689
 **** Fit       0.004592
 **** Fit       0.005007
 **** Fit       0.004933
 **** Fit       0.004418
 **** Fit       0.003560
 **** Fit       0.002484
 **** Fit       0.001327
 **** Fit       0.000214
 **** Fit      -0.000746
 **** Fit       0.000977
 **** Fit       0.002950
 **** Fit       0.004342
 **** Fit       0.005095
 **** Fit       0.005201
 **** Fit       0.004708
 **** Fit       0.003726
 **** Fit       0.002407
 **** Fit       0.000923
 **** Fit      -0.000565
 **** Fit      -0.001918
 **** Fit      -0.003028
 **** Fit      -0.002308
 **** Fit       0.000790
 **** Fit       0.003172
 **** Fit       0.004718
 **** Fit       0.005374
 **** Fit       0.005153
 **** Fit       0.004157
 **** Fit       0.002577
 **** Fit       0.000647
 **** Fit      -0.001392
 **** Fit      -0.003333
 **** Fit      -0.005011
 **** Fit      -0.006317
 **** Fit       0.001617
 **** Fit       0.004182
 **** Fit       0.005391
 **** Fit       0.005215
 **** Fit       0.003787
 **** Fit       0.001428
 **** Fit      -0.001448
 **** Fit      -0.004433
 **** Fit      -0.007184
 **** Fit      -0.009458
 **** Fit      -0.011113
 **** Fit       0.008475
 **** Fit       0.012508
 **** Fit       0.013678
 **** Fit       0.015628
 **** Fit       0.015950
 **** Fit       0.016471
 **** Fit       0.019105
 **** Fit       0.017742
 **** Fit       0.017030
 **** Fit       0.016491
 **** Fit       0.018161
 **** Fit       0.016171
 **** Fit       0.014496
 **** Fit       0.012438
 **** Fit       0.016325
 **** Fit       0.013019
 **** Fit       0.009310
 **** Fit       0.010564
 **** Fit       0.008222
 **** Fit       0.006555
 **** Fit       0.005005
 **** Fit       0.002910
 **** Fit       0.005688
 **** Fit       0.003832
 **** Fit       0.002883
 **** Fit       0.002367
 **** Fit       0.001807
 **** Fit       0.000766
 **** Fit       0.001833
 **** Fit       0.000575
 **** Fit       0.000201
 **** Fit       0.000424
 **** Fit       0.000947
 **** Fit       0.001535
 **** Fit       0.002165
 **** Fit      -0.000718
 **** Fit      -0.001670
 **** Fit      -0.001938
 **** Fit      -0.001478
 **** Fit      -0.000417
 **** Fit       0.001088
 **** Fit       0.002964
 **** Fit      -0.004633
 **** Fit      -0.004161
 **** Fit      -0.004041
 **** Fit      -0.003581
 **** Fit      -0.002500
 **** Fit      -0.000765
 **** Fit       0.001573
 **** Fit      -0.015579
 **** Fit      -0.011377
 **** Fit      -0.008566
 **** Fit      -0.006928
 **** Fit      -0.005853
 **** Fit      -0.004695
 **** Fit      -0.003047
 **** Fit      -0.000745
 **** Fit       0.002237
 **** Fit      -0.016324
 **** Fit      -0.012594
 **** Fit      -0.009805
 **** Fit      -0.007768
 **** Fit      -0.005989
 **** Fit      -0.003944
 **** Fit      -0.001299
 **** Fit       0.002056
 **** Fit      -0.013881
 **** Fit      -0.010816
 **** Fit      -0.008196
 **** Fit      -0.005716
 **** Fit      -0.002861
 **** Fit       0.000684
 **** Fit      -0.000993
 **** Fit      -0.010763
 **** Fit      -0.008004
 **** Fit      -0.004905
 **** Fit      -0.001214
 **** Fit       0.003005
 **** Fit      -0.001581
 **** Fit      -0.006639
 **** Fit      -0.006987
 **** Fit      -0.003785
 **** Fit       0.000548
 **** Fit      -0.002594
 **** Fit       0.005636
 **** Fit       0.021361
 **** Fit       0.017493
 **** Fit       0.011544
 **** Fit       0.003434
 **** Fit       0.021918
 **** Fit       0.024189
 **** Fit       0.024525
 **** Fit       0.023070
 **** Fit       0.019766
 **** Fit       0.014478
 **** Fit       0.007010
 **** Fit      -0.003056
 **** Fit       0.017338
 **** Fit       0.022927
 **** Fit       0.024748
 **** Fit       0.024853
 **** Fit       0.023247
 **** Fit       0.019824
 **** Fit       0.014411
 **** Fit       0.006748
 **** Fit       0.013974
 **** Fit       0.019305
 **** Fit       0.023309
 **** Fit       0.024562
 **** Fit       0.024245
 **** Fit       0.022259
 **** Fit       0.018457
 **** Fit       0.012649
 **** Fit       0.004566
 **** Fit       0.004013
 **** Fit       0.004773
 **** Fit       0.005924
 **** Fit       0.008394
 **** Fit       0.012261
 **** Fit       0.016677
 **** Fit       0.020587
 **** Fit       0.022916
 **** Fit       0.023600
 **** Fit       0.022855
 **** Fit       0.020531
 **** Fit       0.016478
 **** Fit       0.010551
 **** Fit       0.002600
 **** Fit       0.005523
 **** Fit       0.007612
 **** Fit       0.009596
 **** Fit       0.011988
 **** Fit       0.014959
 **** Fit       0.018165
 **** Fit       0.020995
 **** Fit       0.021754
 **** Fit       0.021913
 **** Fit       0.020571
 **** Fit       0.017548
 **** Fit       0.012729
 **** Fit       0.006099
 **** Fit      -0.002167
 **** Fit       0.004065
 **** Fit       0.007281
 **** Fit       0.010054
 **** Fit       0.012681
 **** Fit       0.015382
 **** Fit       0.018068
 **** Fit       0.020348
 **** Fit       0.019894
 **** Fit       0.019574
 **** Fit       0.017661
 **** Fit       0.014022
 **** Fit       0.008706
 **** Fit       0.002062
 **** Fit       0.005140
 **** Fit       0.008602
 **** Fit       0.011674
 **** Fit       0.014461
 **** Fit       0.016951
 **** Fit       0.018894
 **** Fit       0.017421
 **** Fit       0.016604
 **** Fit       0.013943
 **** Fit       0.009512
 **** Fit       0.003877
 **** Fit      -0.001770
 **** Fit       0.004993
 **** Fit       0.008694
 **** Fit       0.011968
 **** Fit       0.014693
 **** Fit       0.016644
 **** Fit       0.014406
 **** Fit       0.012891
 **** Fit       0.009023
 **** Fit       0.003925
 **** Fit       0.003398
 **** Fit       0.007377
 **** Fit       0.010999
 **** Fit       0.013571
 **** Fit       0.010908
 **** Fit       0.008186
 **** Fit       0.003822
 **** Fit       0.002641
 **** Fit       0.005372
 **** Fit       0.009335
 **** Fit       0.006973
 **** Fit      -0.025122
 **** Fit      -0.019275
 **** Fit      -0.009977
 **** Fit      -0.025241
 **** Fit      -0.019371
 **** Fit      -0.007811
 **** Fit      -0.016837
 **** Fit      -0.021411
 **** Fit      -0.016040
 **** Fit      -0.007353
 **** Fit      -0.014224
 **** Fit      -0.019559
 **** Fit      -0.017206
 **** Fit      -0.011743
 **** Fit      -0.012553
 -----------------------------------------------------------------
 Leave Link  602 at Mon Sep 16 16:33:19 2019, MaxMem=  4294967296 cpu:       156.0

 Test job not archived.
 1\1\GINC-N003\SP\RB3LYP\SVP\C54H83Ca1N15O23\PCIEPLAK\16-Sep-2019\0\\#m
 axdisk=50GB #B3LYP/SVP Density=Current scf=(tight) #IOP(5/87=12)Pop=(M
 K,readradii) iop(6/33=2) iop(6/42=6)\\SOL molecule\\0,1\C,0,77.72,61.5
 1,20.54\C,0,77.41,60.05,20.25\O,0,78.3,59.2,20.23\H,0,78.639,61.795,20
 .027\H,0,76.899,62.134,20.186\H,0,77.846,61.649,21.614\N,0,76.15,59.62
 ,20.15\C,0,75.82,58.37,19.49\C,0,75.99,58.52,17.99\O,0,75.03,58.69,17.
 25\C,0,74.44,57.89,19.9\C,0,74.05,56.59,19.22\O,0,72.84,56.37,19.01\O,
 0,74.91,55.7,19.02\H,0,75.44,60.34,20.18\H,0,76.6,57.65,19.74\H,0,73.7
 ,58.62,19.57\H,0,74.32,57.64,20.96\N,0,77.23,58.48,17.49\C,0,77.62,58.
 68,16.11\C,0,76.83,57.88,15.09\O,0,76.37,58.37,14.06\C,0,79.1,58.35,15
 .94\C,0,79.73,58.49,14.56\C,0,81.24,58.45,14.78\C,0,81.96,58.6,13.44\N
 ,0,83.42,58.49,13.59\H,0,77.94,58.59,18.21\H,0,77.47,59.74,15.88\H,0,7
 9.33,57.35,16.31\H,0,79.64,58.99,16.64\H,0,79.4,59.4,14.06\H,0,79.39,5
 7.64,13.97\H,0,81.47,57.47,15.19\H,0,81.43,59.26,15.49\H,0,81.69,59.56
 ,12.99\H,0,81.67,57.74,12.84\H,0,83.71,57.78,14.25\H,0,83.81,58.23,12.
 69\H,0,83.87,59.37,13.77\N,0,76.73,56.57,15.35\C,0,76.05,55.67,14.45\C
 ,0,74.55,55.63,14.73\O,0,73.85,54.98,13.97\C,0,76.61,54.26,14.37\C,0,7
 6.5,53.37,15.6\O,0,75.96,53.78,16.64\O,0,76.89,52.18,15.54\H,0,77.21,5
 6.12,16.12\H,0,76.17,56.06,13.43\H,0,77.66,54.33,14.08\H,0,76.16,53.78
 ,13.49\N,0,74.08,56.37,15.74\C,0,72.66,56.59,15.86\C,0,71.87,55.32,16.
 19\O,0,70.66,55.32,15.98\H,0,74.69,56.75,16.45\H,0,72.23,57.08,14.99\H
 ,0,72.5,57.37,16.6\N,0,72.48,54.27,16.73\C,0,71.84,53.05,17.18\C,0,71.
 18,53.11,18.55\O,0,70.58,52.09,18.89\C,0,72.83,51.89,17.01\C,0,73.79,5
 1.73,18.18\N,0,74.41,50.56,18.31\O,0,74.04,52.58,19.02\H,0,73.41,54.49
 ,17.07\H,0,71.04,52.9,16.46\H,0,73.5,52.11,16.18\H,0,72.37,50.93,16.81
 \H,0,74.1,49.76,17.78\H,0,75.,50.47,19.12\N,0,71.27,54.22,19.29\C,0,70
 .6,54.44,20.55\C,0,71.54,54.37,21.74\O,0,71.04,54.38,22.87\H,0,71.74,5
 5.,18.85\H,0,69.74,53.78,20.69\H,0,70.1,55.41,20.55\N,0,72.86,54.31,21
 .56\C,0,73.82,54.05,22.62\C,0,75.1,54.81,22.32\O,0,75.69,54.53,21.28\C
 ,0,74.01,52.54,22.63\C,0,72.77,51.73,22.94\C,0,72.34,51.51,24.25\C,0,7
 2.04,51.06,21.95\C,0,71.16,50.82,24.56\C,0,70.83,50.39,22.19\C,0,70.38
 ,50.28,23.52\O,0,69.16,49.72,23.76\H,0,73.2,54.53,20.64\H,0,73.39,54.3
 1,23.59\H,0,74.74,52.25,23.39\H,0,74.47,52.25,21.68\H,0,72.82,52.09,25
 .03\H,0,72.4,51.21,20.94\H,0,70.8,50.73,25.58\H,0,70.24,50.05,21.35\H,
 0,68.77,49.36,22.96\N,0,75.69,55.62,23.21\C,0,77.,56.2,23.04\C,0,78.11
 ,55.25,23.48\O,0,77.91,54.49,24.42\C,0,77.07,57.51,23.81\C,0,76.03,58.
 57,23.47\C,0,78.42,58.21,23.71\C,0,75.82,59.66,24.52\H,0,75.3,55.6,24.
 14\H,0,77.14,56.35,21.97\H,0,77.06,57.25,24.87\H,0,75.06,58.09,23.4\H,
 0,76.3,58.98,22.5\H,0,78.58,58.46,22.66\H,0,78.5,59.13,24.28\H,0,79.22
 ,57.53,24.02\H,0,74.93,60.25,24.3\H,0,75.9,59.2,25.5\H,0,76.71,60.3,24
 .48\N,0,79.21,55.19,22.73\C,0,80.45,54.53,23.1\C,0,81.71,55.38,23.06\O
 ,0,81.72,56.54,22.67\C,0,80.53,53.22,22.33\O,0,80.85,53.48,20.98\H,0,7
 9.15,55.67,21.85\H,0,80.48,54.18,24.13\H,0,79.6,52.66,22.48\H,0,81.35,
 52.69,22.81\H,0,80.18,54.11,20.7\N,0,82.79,54.78,23.56\C,0,84.,55.53,2
 3.83\C,0,84.72,56.16,22.65\O,0,84.81,57.39,22.59\C,0,84.93,54.65,24.67
 \H,0,82.81,53.79,23.76\H,0,83.79,56.36,24.5\H,0,85.22,53.81,24.05\H,0,
 85.81,55.18,25.02\H,0,84.3,54.23,25.46\N,0,84.98,55.45,21.55\C,0,85.36
 ,55.87,20.22\C,0,84.32,56.74,19.53\O,0,84.73,57.51,18.67\C,0,85.63,54.
 61,19.4\H,0,84.58,54.52,21.56\H,0,86.28,56.45,20.29\H,0,86.47,54.07,19
 .85\H,0,84.77,53.95,19.48\H,0,85.8,54.77,18.34\N,0,83.03,56.7,19.89\C,
 0,82.1,57.64,19.31\C,0,82.18,59.01,19.96\O,0,82.05,60.09,19.38\C,0,80.
 68,57.09,19.36\C,0,80.59,55.76,18.63\C,0,79.15,55.29,18.82\O,0,78.23,5
 5.48,18.\O,0,78.79,54.68,19.85\H,0,82.81,56.13,20.7\H,0,82.36,57.8,18.
 26\H,0,80.09,57.9,18.94\H,0,80.35,56.85,20.38\H,0,81.28,55.02,19.04\H,
 0,80.75,55.93,17.56\N,0,82.42,58.94,21.27\C,0,82.61,60.12,22.09\H,0,83
 .404,60.733,21.665\H,0,81.685,60.695,22.12\H,0,82.885,59.82,23.101\H,0
 ,82.43,57.99,21.62\Ca,0,76.6,53.86,19.06\O,0,78.09,51.98,17.89\H,0,79.
 04,51.91,17.8\H,0,77.75,51.74,17.03\\Version=ES64L-G09RevD.01\State=1-
 A\HF=-5333.6245044\RMSD=1.777e-09\Dipole=16.7794814,2.7070901,-2.54042
 06\Quadrupole=-13.9630084,-6.4823515,20.4453598,-3.6064517,-111.414698
 5,-39.5072299\PG=C01 [X(C54H83Ca1N15O23)]\\@


 THOSE WHO ASPIRE NOT TO GUESS AND DIVINE,
 BUT TO DISCOVER AND KNOW, WHO PROPOSE NOT TO DEVISE 
 MIMIC AND FABULOUS WORLDS OF THEIR OWN, BUT TO 
 EXAMINE AND DISSECT THE NATURE OF THIS VERY WORLD 
 ITSELF, MUST GO TO THE FACTS THEMSELVES FOR EVERYTHING.

                               -- FRANCIS BACON, 1620
 Job cpu time:       0 days 19 hours 59 minutes 37.8 seconds.
 File lengths (MBytes):  RWF=   1513 Int=      0 D2E=      0 Chk=    103 Scr=      1
 Normal termination of Gaussian 09 at Mon Sep 16 16:33:20 2019.
