 Entering Gaussian System, Link 0=g09
 Initial command:
 /home/pcieplak/g09/g09/l1.exe "/scratch1/pcieplak/fullloop_8.0/Gau-26409.inp" -scrdir="/scratch1/pcieplak/fullloop_8.0/"
 Entering Link 1 = /home/pcieplak/g09/g09/l1.exe PID=     26410.
  
 Copyright (c) 1988,1990,1992,1993,1995,1998,2003,2009,2013,
            Gaussian, Inc.  All Rights Reserved.
  
 This is part of the Gaussian(R) 09 program.  It is based on
 the Gaussian(R) 03 system (copyright 2003, Gaussian, Inc.),
 the Gaussian(R) 98 system (copyright 1998, Gaussian, Inc.),
 the Gaussian(R) 94 system (copyright 1995, Gaussian, Inc.),
 the Gaussian 92(TM) system (copyright 1992, Gaussian, Inc.),
 the Gaussian 90(TM) system (copyright 1990, Gaussian, Inc.),
 the Gaussian 88(TM) system (copyright 1988, Gaussian, Inc.),
 the Gaussian 86(TM) system (copyright 1986, Carnegie Mellon
 University), and the Gaussian 82(TM) system (copyright 1983,
 Carnegie Mellon University). Gaussian is a federally registered
 trademark of Gaussian, Inc.
  
 This software contains proprietary and confidential information,
 including trade secrets, belonging to Gaussian, Inc.
  
 This software is provided under written license and may be
 used, copied, transmitted, or stored only in accord with that
 written license.
  
 The following legend is applicable only to US Government
 contracts under FAR:
  
                    RESTRICTED RIGHTS LEGEND
  
 Use, reproduction and disclosure by the US Government is
 subject to restrictions as set forth in subparagraphs (a)
 and (c) of the Commercial Computer Software - Restricted
 Rights clause in FAR 52.227-19.
  
 Gaussian, Inc.
 340 Quinnipiac St., Bldg. 40, Wallingford CT 06492
  
  
 ---------------------------------------------------------------
 Warning -- This program may not be used in any manner that
 competes with the business of Gaussian, Inc. or will provide
 assistance to any competitor of Gaussian, Inc.  The licensee
 of this program is prohibited from giving any competitor of
 Gaussian, Inc. access to this program.  By using this program,
 the user acknowledges that Gaussian, Inc. is engaged in the
 business of creating and licensing software in the field of
 computational chemistry and represents and warrants to the
 licensee that it is not a competitor of Gaussian, Inc. and that
 it will not use this program in any manner prohibited above.
 ---------------------------------------------------------------
  

 Cite this work as:
 Gaussian 09, Revision D.01,
 M. J. Frisch, G. W. Trucks, H. B. Schlegel, G. E. Scuseria, 
 M. A. Robb, J. R. Cheeseman, G. Scalmani, V. Barone, B. Mennucci, 
 G. A. Petersson, H. Nakatsuji, M. Caricato, X. Li, H. P. Hratchian, 
 A. F. Izmaylov, J. Bloino, G. Zheng, J. L. Sonnenberg, M. Hada, 
 M. Ehara, K. Toyota, R. Fukuda, J. Hasegawa, M. Ishida, T. Nakajima, 
 Y. Honda, O. Kitao, H. Nakai, T. Vreven, J. A. Montgomery, Jr., 
 J. E. Peralta, F. Ogliaro, M. Bearpark, J. J. Heyd, E. Brothers, 
 K. N. Kudin, V. N. Staroverov, T. Keith, R. Kobayashi, J. Normand, 
 K. Raghavachari, A. Rendell, J. C. Burant, S. S. Iyengar, J. Tomasi, 
 M. Cossi, N. Rega, J. M. Millam, M. Klene, J. E. Knox, J. B. Cross, 
 V. Bakken, C. Adamo, J. Jaramillo, R. Gomperts, R. E. Stratmann, 
 O. Yazyev, A. J. Austin, R. Cammi, C. Pomelli, J. W. Ochterski, 
 R. L. Martin, K. Morokuma, V. G. Zakrzewski, G. A. Voth, 
 P. Salvador, J. J. Dannenberg, S. Dapprich, A. D. Daniels, 
 O. Farkas, J. B. Foresman, J. V. Ortiz, J. Cioslowski, 
 and D. J. Fox, Gaussian, Inc., Wallingford CT, 2013.
 
 ******************************************
 Gaussian 09:  ES64L-G09RevD.01 24-Apr-2013
                16-Sep-2019 
 ******************************************
 %Nproc=12
 Will use up to   12 processors via shared memory.
 %chk=chk1mol
 %mem=32GB
 ----------------------------------------------------------------------
 #maxdisk=50GB #B3LYP/SVP Density=Current scf=(tight) #IOP(5/87=12)Pop=
 (MK,readradii) iop(6/33=2) iop(6/42=6)
 ----------------------------------------------------------------------
 1/30=1,38=1/1;
 2/12=2,17=6,18=5,40=1/2;
 3/5=18,7=101,11=2,16=1,25=1,30=1,74=-5/1,2,3;
 4//1;
 5/5=2,32=2,38=5,87=12/2;
 6/7=2,8=2,9=2,10=2,15=8,20=101,22=-1,28=1,33=2,42=6/1,2;
 99/5=1,9=1/99;
 ------------
 SOL molecule
 ------------
 Symbolic Z-matrix:
 Charge =  0 Multiplicity = 1
 C                     76.85     55.24     15.95 
 C                     76.9      53.89     15.24 
 O                     77.97     53.51     14.75 
 H                     75.818    55.587    15.997 
 H                     77.244    55.134    16.961 
 H                     77.451    55.963    15.399 
 N                     75.86     53.06     15.14 
 C                     75.81     51.84     14.36 
 C                     75.7      52.19     12.88 
 O                     74.71     52.8      12.46 
 C                     74.62     51.04     14.89 
 C                     74.58     49.61     14.37 
 O                     73.62     48.91     14.78 
 O                     75.34     49.24     13.45 
 H                     75.02     53.44     15.56 
 H                     76.72     51.27     14.49 
 H                     73.68     51.45     14.55 
 H                     74.69     50.94     15.98 
 N                     76.67     51.84     12.04 
 C                     76.79     52.31     10.67 
 C                     75.98     51.4      9.75 
 O                     75.53     51.8      8.68 
 C                     78.26     52.53     10.33 
 C                     78.37     53.52     9.18 
 C                     79.85     53.73     8.87 
 C                     80.04     54.44     7.53 
 N                     81.48     54.5      7.26 
 H                     77.49     51.35     12.37 
 H                     76.38     53.31     10.54 
 H                     78.61     51.56     9.98 
 H                     78.7      52.9      11.26 
 H                     78.01     54.51     9.47 
 H                     77.88     53.17     8.28 
 H                     80.25     52.72     8.82 
 H                     80.35     54.3      9.66 
 H                     79.7      55.47     7.62 
 H                     79.45     53.89     6.79 
 H                     81.89     55.14     7.92 
 H                     81.97     53.61     7.29 
 H                     81.63     54.9      6.34 
 N                     75.76     50.13     10.12 
 C                     75.06     49.12     9.35 
 C                     73.7      48.8      9.94 
 O                     72.86     48.28     9.2 
 C                     76.04     47.94     9.35 
 C                     76.5      47.45     10.71 
 O                     77.53     47.89     11.28 
 O                     75.75     46.71     11.37 
 H                     76.19     49.76     10.95 
 H                     74.8      49.53     8.38 
 H                     76.86     48.26     8.7 
 H                     75.46     47.17     8.85 
 N                     73.49     48.99     11.24 
 C                     72.18     49.18     11.82 
 C                     71.55     47.82     12.14 
 O                     70.53     47.48     11.54 
 H                     74.24     49.32     11.84 
 H                     71.62     49.79     11.12 
 H                     72.22     49.68     12.79 
 N                     72.22     47.09     13.02 
 C                     71.95     45.72     13.43 
 C                     71.56     45.66     14.9 
 O                     70.66     44.87     15.17 
 C                     73.       44.77     12.88 
 C                     74.35     44.95     13.56 
 N                     75.16     43.89     13.58 
 O                     74.7      45.93     14.22 
 H                     73.06     47.48     13.43 
 H                     71.01     45.58     12.89 
 H                     73.06     44.8      11.79 
 H                     72.62     43.79     13.14 
 H                     74.94     43.15     12.93 
 H                     76.07     43.93     14. 
 N                     72.04     46.61     15.7 
 C                     71.91     46.88     17.12 
 C                     73.11     46.56     17.99 
 O                     72.97     46.19     19.16 
 H                     72.48     47.35     15.17 
 H                     70.98     46.51     17.56 
 H                     71.81     47.95     17.32 
 N                     74.31     46.72     17.43 
 C                     75.59     46.65     18.1 
 C                     76.43     47.79     17.56 
 O                     76.54     47.91     16.34 
 C                     76.27     45.29     17.96 
 C                     76.01     44.21     18.98 
 C                     76.43     44.36     20.31 
 C                     75.31     43.06     18.59 
 C                     76.17     43.34     21.23 
 C                     74.96     42.06     19.5 
 C                     75.39     42.23     20.83 
 O                     75.01     41.34     21.79 
 H                     74.34     47.07     16.48 
 H                     75.47     46.82     19.17 
 H                     77.35     45.44     18. 
 H                     76.05     44.82     17. 
 H                     76.94     45.24     20.66 
 H                     75.08     42.93     17.54 
 H                     76.42     43.42     22.28 
 H                     74.42     41.15     19.32 
 H                     74.4      40.73     21.39 
 N                     77.09     48.62     18.37 
 C                     78.22     49.43     17.98 
 C                     79.5      48.62     18.14 
 O                     79.65     47.86     19.1 
 C                     78.28     50.68     18.85 
 C                     76.93     51.31     19.17 
 C                     79.12     51.68     18.06 
 C                     77.05     52.33     20.31 
 H                     77.08     48.38     19.35 
 H                     78.22     49.72     16.93 
 H                     78.8      50.44     19.78 
 H                     76.29     50.49     19.5 
 H                     76.56     51.72     18.23 
 H                     80.15     51.34     18.13 
 H                     78.8      51.94     17.05 
 H                     79.16     52.63     18.59 
 H                     77.98     52.88     20.45 
 H                     76.24     53.06     20.32 
 H                     77.       51.76     21.24 
 N                     80.47     48.75     17.23 
 C                     81.85     48.3      17.27 
 C                     82.88     49.38     16.99 
 O                     82.52     50.54     16.79 
 C                     81.97     47.06     16.4 
 O                     82.07     47.32     15.01 
 H                     80.28     49.25     16.37 
 H                     82.03     47.89     18.27 
 H                     81.11     46.41     16.55 
 H                     82.82     46.51     16.81 
 H                     81.17     47.58     14.77 
 N                     84.19     49.11     17.06 
 C                     85.24     50.1      17.17 
 C                     85.44     50.99     15.95 
 O                     85.62     52.19     16.16 
 C                     86.57     49.5      17.59 
 H                     84.36     48.14     17.3 
 H                     84.92     50.89     17.86 
 H                     86.85     48.57     17.09 
 H                     87.24     50.34     17.38 
 H                     86.58     49.44     18.67 
 N                     85.44     50.38     14.76 
 C                     85.46     51.06     13.48 
 C                     84.31     52.01     13.17 
 O                     84.42     53.08     12.58 
 C                     85.59     50.01     12.38 
 H                     85.38     49.38     14.9 
 H                     86.34     51.69     13.4 
 H                     84.6      49.6      12.2 
 H                     85.93     50.45     11.44 
 H                     86.3      49.23     12.65 
 N                     83.15     51.69     13.76 
 C                     81.93     52.46     13.66 
 C                     81.91     53.65     14.61 
 O                     81.55     54.78     14.29 
 C                     80.72     51.58     13.95 
 C                     80.7      50.25     13.2 
 C                     79.51     49.35     13.49 
 O                     79.75     48.22     13.97 
 O                     78.32     49.68     13.35 
 H                     83.13     50.91     14.4 
 H                     81.8      52.86     12.65 
 H                     79.86     52.15     13.59 
 H                     80.5      51.42     15. 
 H                     81.56     49.64     13.49 
 H                     80.81     50.34     12.11 
 N                     82.22     53.4      15.89 
 C                     82.48     54.49     16.81 
 H                     83.311    55.089    16.438 
 H                     81.591    55.116    16.893 
 H                     82.734    54.086    17.79 
 H                     82.27     52.45     16.22 
 CA                    77.07     47.44     13.67 
 O                     78.69     45.83     15.12 
 H                     78.6      45.19     15.83 
 H                     79.6      45.72     14.82 
 
 Stoichiometry    C54H83CaN15O23
 Framework group  C1[X(C54H83CaN15O23)]
 Deg. of freedom   522
 Full point group                 C1      NOp   1
 Largest Abelian subgroup         C1      NOp   1
 Largest concise Abelian subgroup C1      NOp   1
                         Standard orientation:                         
 ---------------------------------------------------------------------
 Center     Atomic      Atomic             Coordinates (Angstroms)
 Number     Number       Type             X           Y           Z
 ---------------------------------------------------------------------
      1          6           0        2.472673    1.318730    5.568162
      2          6           0        1.876859    1.437942    4.168200
      3          8           0        2.606667    1.247220    3.188197
      4          1           0        1.839776    1.850733    6.278131
      5          1           0        2.530832    0.267256    5.850319
      6          1           0        3.471832    1.753642    5.576250
      7          7           0        0.592267    1.703421    3.923569
      8          6           0        0.004681    1.968434    2.625951
      9          6           0        0.403049    3.366662    2.166319
     10          8           0        0.044310    4.356886    2.813899
     11          6           0       -1.503894    1.785273    2.792238
     12          6           0       -2.253901    1.759238    1.467960
     13          8           0       -3.498778    1.607894    1.552086
     14          8           0       -1.682414    2.066884    0.400413
     15          1           0        0.059267    1.850957    4.772418
     16          1           0        0.378542    1.268448    1.891004
     17          1           0       -1.952707    2.620088    3.310844
     18          1           0       -1.715759    0.812972    3.253481
     19          7           0        1.137899    3.521654    1.068606
     20          6           0        1.767015    4.766759    0.661020
     21          6           0        0.778220    5.587184   -0.163472
     22          8           0        0.855102    6.810570   -0.232878
     23          6           0        3.130074    4.474642    0.043251
     24          6           0        4.006391    5.714297    0.143367
     25          6           0        5.365905    5.389440   -0.470467
     26          6           0        6.182387    6.658698   -0.711589
     27          7           0        7.416444    6.268146   -1.400555
     28          1           0        1.447218    2.721449    0.534384
     29          1           0        2.037749    5.389489    1.511849
     30          1           0        2.921353    4.288276   -1.009177
     31          1           0        3.512983    3.629089    0.621021
     32          1           0        4.230172    5.961731    1.183799
     33          1           0        3.589291    6.563594   -0.383247
     34          1           0        5.116224    4.917744   -1.417970
     35          1           0        5.938133    4.700737    0.159805
     36          1           0        6.483610    7.077262    0.246884
     37          1           0        5.540230    7.352135   -1.263838
     38          1           0        7.982109    5.750806   -0.748112
     39          1           0        7.291731    5.730104   -2.253818
     40          1           0        7.942534    7.101781   -1.639685
     41          7           0       -0.195459    4.952501   -0.832298
     42          6           0       -1.182785    5.566070   -1.699316
     43          6           0       -2.563678    5.568023   -1.072236
     44          8           0       -3.387899    6.381794   -1.498895
     45          6           0       -1.077197    4.740064   -2.987479
     46          6           0       -1.253606    3.240658   -2.839290
     47          8           0       -0.290941    2.457982   -2.639051
     48          8           0       -2.402280    2.775027   -2.742153
     49          1           0       -0.224779    3.947887   -0.856579
     50          1           0       -0.968064    6.625633   -1.787762
     51          1           0       -0.115069    5.026407   -3.422930
     52          1           0       -1.883639    5.155781   -3.584247
     53          7           0       -2.873233    4.641055   -0.169403
     54          6           0       -3.920433    4.799353    0.813914
     55          6           0       -5.262719    4.357249    0.220862
     56          8           0       -6.154385    5.193853    0.075858
     57          1           0       -2.202464    3.920272    0.079476
     58          1           0       -3.882438    5.833075    1.138990
     59          1           0       -3.789611    4.140355    1.674791
     60          7           0       -5.316484    3.085008   -0.146171
     61          6           0       -6.394970    2.405719   -0.848549
     62          6           0       -7.023886    1.333191    0.029375
     63          8           0       -8.245435    1.241985   -0.051239
     64          6           0       -5.995777    2.083719   -2.278395
     65          6           0       -4.948145    0.981476   -2.347892
     66          7           0       -4.913212    0.253850   -3.465676
     67          8           0       -4.235686    0.604001   -1.416005
     68          1           0       -4.502971    2.502801    0.012042
     69          1           0       -7.119986    3.223730   -0.845626
     70          1           0       -5.720377    2.975304   -2.845696
     71          1           0       -6.909740    1.707997   -2.721006
     72          1           0       -5.386628    0.645661   -4.266215
     73          1           0       -4.246178   -0.484301   -3.593340
     74          7           0       -6.252021    0.771709    0.957740
     75          6           0       -6.475194   -0.263854    1.949709
     76          6           0       -5.869973   -1.624930    1.666019
     77          8           0       -6.419182   -2.661244    2.053090
     78          1           0       -5.375493    1.265847    1.055857
     79          1           0       -7.513067   -0.343379    2.284217
     80          1           0       -5.981045   -0.029506    2.896174
     81          7           0       -4.713962   -1.634623    1.000627
     82          6           0       -3.863283   -2.781016    0.767542
     83          6           0       -2.437095   -2.321677    0.995131
     84          8           0       -2.045238   -1.313843    0.407238
     85          6           0       -4.072781   -3.418024   -0.604293
     86          6           0       -5.095059   -4.513195   -0.777347
     87          6           0       -4.931228   -5.756523   -0.148782
     88          6           0       -6.235873   -4.262885   -1.552259
     89          6           0       -5.899859   -6.748376   -0.328727
     90          6           0       -7.262851   -5.200020   -1.685284
     91          6           0       -7.079603   -6.441091   -1.045861
     92          8           0       -8.077179   -7.369956   -1.058191
     93          1           0       -4.306333   -0.739713    0.757987
     94          1           0       -4.068161   -3.562763    1.499045
     95          1           0       -3.133950   -3.877943   -0.916656
     96          1           0       -4.331811   -2.677916   -1.363268
     97          1           0       -4.088654   -5.979701    0.481505
     98          1           0       -6.290889   -3.330000   -2.099067
     99          1           0       -5.857524   -7.706762    0.172376
    100          1           0       -8.179321   -5.115230   -2.237546
    101          1           0       -8.835251   -6.970950   -1.470891
    102          7           0       -1.592397   -3.010945    1.764543
    103          6           0       -0.152939   -2.914602    1.703067
    104          6           0        0.372626   -3.882905    0.651273
    105          8           0       -0.128162   -5.002313    0.517719
    106          6           0        0.442414   -3.249001    3.065687
    107          6           0       -0.334625   -2.709714    4.260333
    108          6           0        1.836727   -2.628080    3.058808
    109          6           0        0.124775   -3.372226    5.565871
    110          1           0       -1.926916   -3.902990    2.096887
    111          1           0        0.215743   -1.943154    1.376017
    112          1           0        0.539924   -4.333288    3.153505
    113          1           0       -1.377724   -2.975651    4.081107
    114          1           0       -0.213359   -1.626599    4.232810
    115          1           0        2.449452   -3.254337    2.415557
    116          1           0        1.925495   -1.558739    2.862009
    117          1           0        2.310059   -2.770451    4.028698
    118          1           0        1.153715   -3.715861    5.666858
    119          1           0       -0.104836   -2.779644    6.452001
    120          1           0       -0.420856   -4.315016    5.641590
    121          7           0        1.395732   -3.509521   -0.123155
    122          6           0        2.230215   -4.301929   -1.008722
    123          6           0        3.723288   -4.163051   -0.769672
    124          8           0        4.138963   -3.450714    0.144106
    125          6           0        1.784035   -4.043632   -2.438095
    126          8           0        2.280872   -2.843072   -3.005111
    127          1           0        1.696519   -2.542476   -0.116033
    128          1           0        1.945948   -5.351179   -0.871727
    129          1           0        0.697661   -4.005832   -2.492537
    130          1           0        2.067476   -4.943733   -2.988168
    131          1           0        1.758776   -2.159242   -2.563533
    132          7           0        4.599222   -4.889532   -1.475976
    133          6           0        5.981435   -5.114396   -1.110429
    134          6           0        6.885752   -3.889493   -1.158631
    135          8           0        7.675523   -3.743690   -0.225089
    136          6           0        6.616858   -6.251333   -1.890757
    137          1           0        4.133160   -5.487980   -2.148319
    138          1           0        6.045401   -5.284546   -0.028968
    139          1           0        6.404203   -6.268505   -2.962104
    140          1           0        7.672148   -6.091935   -1.646718
    141          1           0        6.382003   -7.175484   -1.379986
    142          7           0        6.766313   -3.101554   -2.232450
    143          6           0        7.418562   -1.817262   -2.394823
    144          6           0        7.105689   -0.734679   -1.369530
    145          8           0        7.919696    0.065128   -0.919197
    146          6           0        7.133504   -1.308406   -3.805216
    147          1           0        6.119087   -3.525196   -2.884237
    148          1           0        8.495914   -1.928874   -2.327326
    149          1           0        6.144603   -0.858281   -3.797315
    150          1           0        7.837768   -0.528621   -4.103118
    151          1           0        7.200751   -2.106794   -4.542410
    152          7           0        5.884183   -0.820990   -0.824944
    153          6           0        5.371957    0.057509    0.203241
    154          6           0        5.853768   -0.328240    1.595381
    155          8           0        6.275436    0.474063    2.424481
    156          6           0        3.847981    0.056435    0.193439
    157          6           0        3.215550    0.246532   -1.183403
    158          6           0        1.696065    0.229962   -1.216436
    159          8           0        1.147878   -0.652676   -1.913100
    160          8           0        0.963619    0.981810   -0.550967
    161          1           0        5.298240   -1.605458   -1.069239
    162          1           0        5.692277    1.089689    0.032948
    163          1           0        3.558365    0.925965    0.788538
    164          1           0        3.378382   -0.774570    0.708616
    165          1           0        3.495782   -0.578021   -1.844751
    166          1           0        3.565140    1.136061   -1.726381
    167          7           0        5.710634   -1.614765    1.943757
    168          6           0        6.364141   -2.132439    3.129945
    169          1           0        7.441067   -1.989505    3.043065
    170          1           0        5.997952   -1.600492    4.008593
    171          1           0        6.146143   -3.195683    3.230544
    172          1           0        5.143013   -2.228563    1.382545
    173         20           0       -1.376468    0.519850   -1.547504
    174          8           0       -1.286870   -1.939967   -2.670123
    175          1           0       -1.861978   -2.705171   -2.744384
    176          1           0       -0.566706   -2.128323   -3.283381
 ---------------------------------------------------------------------
 Rotational constants (GHZ):      0.0219768      0.0155972      0.0113682
 Standard basis: SVP (5D, 7F)
 There are  1809 symmetry adapted cartesian basis functions of A   symmetry.
 There are  1717 symmetry adapted basis functions of A   symmetry.
  1717 basis functions,  2922 primitive gaussians,  1809 cartesian basis functions
   358 alpha electrons      358 beta electrons
       nuclear repulsion energy     21540.4188568643 Hartrees.
 NAtoms=  176 NActive=  176 NUniq=  176 SFac= 1.00D+00 NAtFMM=   60 NAOKFM=T Big=T
 Integral buffers will be    131072 words long.
 Raffenetti 2 integral format.
 Two-electron integral symmetry is turned on.
 One-electron integrals computed using PRISM.
 NBasis=  1717 RedAO= T EigKep=  2.92D-04  NBF=  1717
 NBsUse=  1717 1.00D-06 EigRej= -1.00D+00 NBFU=  1717
 ExpMin= 1.98D-02 ExpMax= 3.51D+04 ExpMxC= 5.28D+03 IAcc=3 IRadAn=         5 AccDes= 0.00D+00
 Harris functional with IExCor=  402 and IRadAn=       5 diagonalized for initial guess.
 HarFok:  IExCor=  402 AccDes= 0.00D+00 IRadAn=         5 IDoV= 1 UseB2=F ITyADJ=14
 ICtDFT=  3500011 ScaDFX=  1.000000  1.000000  1.000000  1.000000
 FoFCou: FMM=F IPFlag=           0 FMFlag=      100000 FMFlg1=        2001
         NFxFlg=           0 DoJE=T BraDBF=F KetDBF=T FulRan=T
         wScrn=  0.000000 ICntrl=     500 IOpCl=  0 I1Cent=   200000004 NGrid=           0
         NMat0=    1 NMatS0=      1 NMatT0=    0 NMatD0=    1 NMtDS0=    0 NMtDT0=    0
 Petite list used in FoFCou.
 Requested convergence on RMS density matrix=1.00D-08 within 128 cycles.
 Requested convergence on MAX density matrix=1.00D-06.
 Requested convergence on             energy=1.00D-06.
 No special actions if energy rises.
 EnCoef did     4 forward-backward iterations
 SCF Done:  E(RB3LYP) =  -5333.58225429     A.U. after   17 cycles
            NFock= 17  Conv=0.66D-08     -V/T= 2.0081

 **********************************************************************

            Population analysis using the SCF density.

 **********************************************************************

 Orbital symmetries:
 BldTbl:  Degeneracy threshold= 1.00D-02
       Occupied  (A) (A) (A) (A) (A) (A) (A) (A) (A) (A) (A) (A)
                 (A) (A) (A) (A) (A) (A) (A) (A) (A) (A) (A) (A)
                 (A) (A) (A) (A) (A) (A) (A) (A) (A) (A) (A) (A)
                 (A) (A) (A) (A) (A) (A) (A) (A) (A) (A) (A) (A)
                 (A) (A) (A) (A) (A) (A) (A) (A) (A) (A) (A) (A)
                 (A) (A) (A) (A) (A) (A) (A) (A) (A) (A) (A) (A)
                 (A) (A) (A) (A) (A) (A) (A) (A) (A) (A) (A) (A)
                 (A) (A) (A) (A) (A) (A) (A) (A) (A) (A) (A) (A)
                 (A) (A) (A) (A) (A) (A) (A) (A) (A) (A) (A) (A)
                 (A) (A) (A) (A) (A) (A) (A) (A) (A) (A) (A) (A)
                 (A) (A) (A) (A) (A) (A) (A) (A) (A) (A) (A) (A)
                 (A) (A) (A) (A) (A) (A) (A) (A) (A) (A) (A) (A)
                 (A) (A) (A) (A) (A) (A) (A) (A) (A) (A) (A) (A)
                 (A) (A) (A) (A) (A) (A) (A) (A) (A) (A) (A) (A)
                 (A) (A) (A) (A) (A) (A) (A) (A) (A) (A) (A) (A)
                 (A) (A) (A) (A) (A) (A) (A) (A) (A) (A) (A) (A)
                 (A) (A) (A) (A) (A) (A) (A) (A) (A) (A) (A) (A)
                 (A) (A) (A) (A) (A) (A) (A) (A) (A) (A) (A) (A)
                 (A) (A) (A) (A) (A) (A) (A) (A) (A) (A) (A) (A)
                 (A) (A) (A) (A) (A) (A) (A) (A) (A) (A) (A) (A)
                 (A) (A) (A) (A) (A) (A) (A) (A) (A) (A) (A) (A)
                 (A) (A) (A) (A) (A) (A) (A) (A) (A) (A) (A) (A)
                 (A) (A) (A) (A) (A) (A) (A) (A) (A) (A) (A) (A)
                 (A) (A) (A) (A) (A) (A) (A) (A) (A) (A) (A) (A)
                 (A) (A) (A) (A) (A) (A) (A) (A) (A) (A) (A) (A)
                 (A) (A) (A) (A) (A) (A) (A) (A) (A) (A) (A) (A)
                 (A) (A) (A) (A) (A) (A) (A) (A) (A) (A) (A) (A)
                 (A) (A) (A) (A) (A) (A) (A) (A) (A) (A) (A) (A)
                 (A) (A) (A) (A) (A) (A) (A) (A) (A) (A) (A) (A)
                 (A) (A) (A) (A) (A) (A) (A) (A) (A) (A)
       Virtual   (A) (A) (A) (A) (A) (A) (A) (A) (A) (A) (A) (A)
                 (A) (A) (A) (A) (A) (A) (A) (A) (A) (A) (A) (A)
                 (A) (A) (A) (A) (A) (A) (A) (A) (A) (A) (A) (A)
                 (A) (A) (A) (A) (A) (A) (A) (A) (A) (A) (A) (A)
                 (A) (A) (A) (A) (A) (A) (A) (A) (A) (A) (A) (A)
                 (A) (A) (A) (A) (A) (A) (A) (A) (A) (A) (A) (A)
                 (A) (A) (A) (A) (A) (A) (A) (A) (A) (A) (A) (A)
                 (A) (A) (A) (A) (A) (A) (A) (A) (A) (A) (A) (A)
                 (A) (A) (A) (A) (A) (A) (A) (A) (A) (A) (A) (A)
                 (A) (A) (A) (A) (A) (A) (A) (A) (A) (A) (A) (A)
                 (A) (A) (A) (A) (A) (A) (A) (A) (A) (A) (A) (A)
                 (A) (A) (A) (A) (A) (A) (A) (A) (A) (A) (A) (A)
                 (A) (A) (A) (A) (A) (A) (A) (A) (A) (A) (A) (A)
                 (A) (A) (A) (A) (A) (A) (A) (A) (A) (A) (A) (A)
                 (A) (A) (A) (A) (A) (A) (A) (A) (A) (A) (A) (A)
                 (A) (A) (A) (A) (A) (A) (A) (A) (A) (A) (A) (A)
                 (A) (A) (A) (A) (A) (A) (A) (A) (A) (A) (A) (A)
                 (A) (A) (A) (A) (A) (A) (A) (A) (A) (A) (A) (A)
                 (A) (A) (A) (A) (A) (A) (A) (A) (A) (A) (A) (A)
                 (A) (A) (A) (A) (A) (A) (A) (A) (A) (A) (A) (A)
                 (A) (A) (A) (A) (A) (A) (A) (A) (A) (A) (A) (A)
                 (A) (A) (A) (A) (A) (A) (A) (A) (A) (A) (A) (A)
                 (A) (A) (A) (A) (A) (A) (A) (A) (A) (A) (A) (A)
                 (A) (A) (A) (A) (A) (A) (A) (A) (A) (A) (A) (A)
                 (A) (A) (A) (A) (A) (A) (A) (A) (A) (A) (A) (A)
                 (A) (A) (A) (A) (A) (A) (A) (A) (A) (A) (A) (A)
                 (A) (A) (A) (A) (A) (A) (A) (A) (A) (A) (A) (A)
                 (A) (A) (A) (A) (A) (A) (A) (A) (A) (A) (A) (A)
                 (A) (A) (A) (A) (A) (A) (A) (A) (A) (A) (A) (A)
                 (A) (A) (A) (A) (A) (A) (A) (A) (A) (A) (A) (A)
                 (A) (A) (A) (A) (A) (A) (A) (A) (A) (A) (A) (A)
                 (A) (A) (A) (A) (A) (A) (A) (A) (A) (A) (A) (A)
                 (A) (A) (A) (A) (A) (A) (A) (A) (A) (A) (A) (A)
                 (A) (A) (A) (A) (A) (A) (A) (A) (A) (A) (A) (A)
                 (A) (A) (A) (A) (A) (A) (A) (A) (A) (A) (A) (A)
                 (A) (A) (A) (A) (A) (A) (A) (A) (A) (A) (A) (A)
                 (A) (A) (A) (A) (A) (A) (A) (A) (A) (A) (A) (A)
                 (A) (A) (A) (A) (A) (A) (A) (A) (A) (A) (A) (A)
                 (A) (A) (A) (A) (A) (A) (A) (A) (A) (A) (A) (A)
                 (A) (A) (A) (A) (A) (A) (A) (A) (A) (A) (A) (A)
                 (A) (A) (A) (A) (A) (A) (A) (A) (A) (A) (A) (A)
                 (A) (A) (A) (A) (A) (A) (A) (A) (A) (A) (A) (A)
                 (A) (A) (A) (A) (A) (A) (A) (A) (A) (A) (A) (A)
                 (A) (A) (A) (A) (A) (A) (A) (A) (A) (A) (A) (A)
                 (A) (A) (A) (A) (A) (A) (A) (A) (A) (A) (A) (A)
                 (A) (A) (A) (A) (A) (A) (A) (A) (A) (A) (A) (A)
                 (A) (A) (A) (A) (A) (A) (A) (A) (A) (A) (A) (A)
                 (A) (A) (A) (A) (A) (A) (A) (A) (A) (A) (A) (A)
                 (A) (A) (A) (A) (A) (A) (A) (A) (A) (A) (A) (A)
                 (A) (A) (A) (A) (A) (A) (A) (A) (A) (A) (A) (A)
                 (A) (A) (A) (A) (A) (A) (A) (A) (A) (A) (A) (A)
                 (A) (A) (A) (A) (A) (A) (A) (A) (A) (A) (A) (A)
                 (A) (A) (A) (A) (A) (A) (A) (A) (A) (A) (A) (A)
                 (A) (A) (A) (A) (A) (A) (A) (A) (A) (A) (A) (A)
                 (A) (A) (A) (A) (A) (A) (A) (A) (A) (A) (A) (A)
                 (A) (A) (A) (A) (A) (A) (A) (A) (A) (A) (A) (A)
                 (A) (A) (A) (A) (A) (A) (A) (A) (A) (A) (A) (A)
                 (A) (A) (A) (A) (A) (A) (A) (A) (A) (A) (A) (A)
                 (A) (A) (A) (A) (A) (A) (A) (A) (A) (A) (A) (A)
                 (A) (A) (A) (A) (A) (A) (A) (A) (A) (A) (A) (A)
                 (A) (A) (A) (A) (A) (A) (A) (A) (A) (A) (A) (A)
                 (A) (A) (A) (A) (A) (A) (A) (A) (A) (A) (A) (A)
                 (A) (A) (A) (A) (A) (A) (A) (A) (A) (A) (A) (A)
                 (A) (A) (A) (A) (A) (A) (A) (A) (A) (A) (A) (A)
                 (A) (A) (A) (A) (A) (A) (A) (A) (A) (A) (A) (A)
                 (A) (A) (A) (A) (A) (A) (A) (A) (A) (A) (A) (A)
                 (A) (A) (A) (A) (A) (A) (A) (A) (A) (A) (A) (A)
                 (A) (A) (A) (A) (A) (A) (A) (A) (A) (A) (A) (A)
                 (A) (A) (A) (A) (A) (A) (A) (A) (A) (A) (A) (A)
                 (A) (A) (A) (A) (A) (A) (A) (A) (A) (A) (A) (A)
                 (A) (A) (A) (A) (A) (A) (A) (A) (A) (A) (A) (A)
                 (A) (A) (A) (A) (A) (A) (A) (A) (A) (A) (A) (A)
                 (A) (A) (A) (A) (A) (A) (A) (A) (A) (A) (A) (A)
                 (A) (A) (A) (A) (A) (A) (A) (A) (A) (A) (A) (A)
                 (A) (A) (A) (A) (A) (A) (A) (A) (A) (A) (A) (A)
                 (A) (A) (A) (A) (A) (A) (A) (A) (A) (A) (A) (A)
                 (A) (A) (A) (A) (A) (A) (A) (A) (A) (A) (A) (A)
                 (A) (A) (A) (A) (A) (A) (A) (A) (A) (A) (A) (A)
                 (A) (A) (A) (A) (A) (A) (A) (A) (A) (A) (A) (A)
                 (A) (A) (A) (A) (A) (A) (A) (A) (A) (A) (A) (A)
                 (A) (A) (A) (A) (A) (A) (A) (A) (A) (A) (A) (A)
                 (A) (A) (A) (A) (A) (A) (A) (A) (A) (A) (A) (A)
                 (A) (A) (A) (A) (A) (A) (A) (A) (A) (A) (A) (A)
                 (A) (A) (A) (A) (A) (A) (A) (A) (A) (A) (A) (A)
                 (A) (A) (A) (A) (A) (A) (A) (A) (A) (A) (A) (A)
                 (A) (A) (A) (A) (A) (A) (A) (A) (A) (A) (A) (A)
                 (A) (A) (A) (A) (A) (A) (A) (A) (A) (A) (A) (A)
                 (A) (A) (A) (A) (A) (A) (A) (A) (A) (A) (A) (A)
                 (A) (A) (A) (A) (A) (A) (A) (A) (A) (A) (A) (A)
                 (A) (A) (A) (A) (A) (A) (A) (A) (A) (A) (A) (A)
                 (A) (A) (A) (A) (A) (A) (A) (A) (A) (A) (A) (A)
                 (A) (A) (A) (A) (A) (A) (A) (A) (A) (A) (A) (A)
                 (A) (A) (A) (A) (A) (A) (A) (A) (A) (A) (A) (A)
                 (A) (A) (A) (A) (A) (A) (A) (A) (A) (A) (A) (A)
                 (A) (A) (A) (A) (A) (A) (A) (A) (A) (A) (A) (A)
                 (A) (A) (A) (A) (A) (A) (A) (A) (A) (A) (A) (A)
                 (A) (A) (A) (A) (A) (A) (A) (A) (A) (A) (A) (A)
                 (A) (A) (A) (A) (A) (A) (A) (A) (A) (A) (A) (A)
                 (A) (A) (A) (A) (A) (A) (A) (A) (A) (A) (A) (A)
                 (A) (A) (A) (A) (A) (A) (A) (A) (A) (A) (A) (A)
                 (A) (A) (A) (A) (A) (A) (A) (A) (A) (A) (A) (A)
                 (A) (A) (A) (A) (A) (A) (A) (A) (A) (A) (A) (A)
                 (A) (A) (A) (A) (A) (A) (A) (A) (A) (A) (A) (A)
                 (A) (A) (A) (A) (A) (A) (A) (A) (A) (A) (A) (A)
                 (A) (A) (A) (A) (A) (A) (A) (A) (A) (A) (A) (A)
                 (A) (A) (A) (A) (A) (A) (A) (A) (A) (A) (A) (A)
                 (A) (A) (A) (A) (A) (A) (A) (A) (A) (A) (A) (A)
                 (A) (A) (A) (A) (A) (A) (A) (A) (A) (A) (A) (A)
                 (A) (A) (A) (A) (A) (A) (A) (A) (A) (A) (A) (A)
                 (A) (A) (A) (A) (A) (A) (A) (A) (A) (A) (A) (A)
                 (A) (A) (A) (A) (A) (A) (A) (A) (A) (A) (A) (A)
                 (A) (A) (A) (A) (A) (A) (A) (A) (A) (A) (A) (A)
                 (A) (A) (A) (A) (A) (A) (A) (A) (A) (A) (A) (A)
                 (A) (A) (A)
 The electronic state is 1-A.
 Alpha  occ. eigenvalues -- -145.35944 -19.19073 -19.15521 -19.14203 -19.13234
 Alpha  occ. eigenvalues --  -19.12323 -19.11293 -19.11065 -19.10550 -19.09867
 Alpha  occ. eigenvalues --  -19.08064 -19.07283 -19.06799 -19.06604 -19.06491
 Alpha  occ. eigenvalues --  -19.06178 -19.06006 -19.05786 -19.05069 -19.04511
 Alpha  occ. eigenvalues --  -19.04232 -19.03790 -19.03334 -19.02861 -15.41710
 Alpha  occ. eigenvalues --  -14.58904 -14.39845 -14.38169 -14.37466 -14.37179
 Alpha  occ. eigenvalues --  -14.35758 -14.34982 -14.33730 -14.33013 -14.31848
 Alpha  occ. eigenvalues --  -14.31744 -14.31012 -14.30964 -14.28782 -14.28717
 Alpha  occ. eigenvalues --  -12.55318 -12.55286 -12.55268 -10.34937 -10.32756
 Alpha  occ. eigenvalues --  -10.30527 -10.29835 -10.29759 -10.29238 -10.28523
 Alpha  occ. eigenvalues --  -10.26675 -10.26654 -10.26448 -10.26173 -10.26038
 Alpha  occ. eigenvalues --  -10.25756 -10.25552 -10.25148 -10.25087 -10.25025
 Alpha  occ. eigenvalues --  -10.24829 -10.24677 -10.24308 -10.24212 -10.24152
 Alpha  occ. eigenvalues --  -10.23768 -10.23442 -10.22792 -10.22321 -10.22200
 Alpha  occ. eigenvalues --  -10.22039 -10.21762 -10.21389 -10.21183 -10.20734
 Alpha  occ. eigenvalues --  -10.20367 -10.19998 -10.19791 -10.19669 -10.19517
 Alpha  occ. eigenvalues --  -10.19006 -10.18899 -10.18839 -10.18738 -10.18637
 Alpha  occ. eigenvalues --  -10.18548 -10.18542 -10.18478 -10.18351 -10.18082
 Alpha  occ. eigenvalues --  -10.18073 -10.18005 -10.17906 -10.17065 -10.16507
 Alpha  occ. eigenvalues --  -10.16069 -10.15242  -1.78630  -1.14162  -1.07389
 Alpha  occ. eigenvalues --   -1.06370  -1.06214  -1.06163  -1.05409  -1.04677
 Alpha  occ. eigenvalues --   -1.04499  -1.04166  -1.03874  -1.03329  -1.02967
 Alpha  occ. eigenvalues --   -1.02682  -1.01667  -1.00500  -0.99853  -0.99677
 Alpha  occ. eigenvalues --   -0.99508  -0.99401  -0.99350  -0.98555  -0.97997
 Alpha  occ. eigenvalues --   -0.96383  -0.96344  -0.95325  -0.94791  -0.94393
 Alpha  occ. eigenvalues --   -0.93553  -0.92133  -0.91820  -0.90558  -0.90336
 Alpha  occ. eigenvalues --   -0.89987  -0.89837  -0.89440  -0.88747  -0.88334
 Alpha  occ. eigenvalues --   -0.88306  -0.87930  -0.87921  -0.86461  -0.85296
 Alpha  occ. eigenvalues --   -0.84370  -0.82917  -0.82253  -0.81438  -0.79935
 Alpha  occ. eigenvalues --   -0.78623  -0.78433  -0.77907  -0.76439  -0.75727
 Alpha  occ. eigenvalues --   -0.75163  -0.74999  -0.73931  -0.73840  -0.73456
 Alpha  occ. eigenvalues --   -0.73198  -0.72207  -0.72127  -0.71302  -0.70877
 Alpha  occ. eigenvalues --   -0.69815  -0.69432  -0.67933  -0.67893  -0.67141
 Alpha  occ. eigenvalues --   -0.66866  -0.66413  -0.65487  -0.64655  -0.64406
 Alpha  occ. eigenvalues --   -0.63847  -0.63445  -0.63148  -0.62041  -0.61935
 Alpha  occ. eigenvalues --   -0.61713  -0.60803  -0.60585  -0.60386  -0.60027
 Alpha  occ. eigenvalues --   -0.59340  -0.58850  -0.58367  -0.58110  -0.57816
 Alpha  occ. eigenvalues --   -0.57799  -0.57638  -0.57052  -0.56664  -0.55924
 Alpha  occ. eigenvalues --   -0.55867  -0.55757  -0.55418  -0.55368  -0.54988
 Alpha  occ. eigenvalues --   -0.54560  -0.53856  -0.53733  -0.53320  -0.53118
 Alpha  occ. eigenvalues --   -0.52990  -0.52481  -0.52404  -0.51430  -0.51294
 Alpha  occ. eigenvalues --   -0.51241  -0.51026  -0.50408  -0.49930  -0.49841
 Alpha  occ. eigenvalues --   -0.49525  -0.49097  -0.48865  -0.48688  -0.48565
 Alpha  occ. eigenvalues --   -0.48131  -0.48123  -0.47762  -0.47677  -0.47537
 Alpha  occ. eigenvalues --   -0.47436  -0.47269  -0.46970  -0.46637  -0.46443
 Alpha  occ. eigenvalues --   -0.46084  -0.45989  -0.45700  -0.45652  -0.45273
 Alpha  occ. eigenvalues --   -0.44978  -0.44902  -0.44676  -0.44439  -0.44407
 Alpha  occ. eigenvalues --   -0.44229  -0.44127  -0.44021  -0.43986  -0.43682
 Alpha  occ. eigenvalues --   -0.43653  -0.43273  -0.43193  -0.43104  -0.42739
 Alpha  occ. eigenvalues --   -0.42638  -0.42356  -0.42327  -0.42246  -0.42062
 Alpha  occ. eigenvalues --   -0.41949  -0.41738  -0.41579  -0.41482  -0.41298
 Alpha  occ. eigenvalues --   -0.41246  -0.41160  -0.41044  -0.40808  -0.40748
 Alpha  occ. eigenvalues --   -0.40632  -0.40414  -0.40366  -0.40173  -0.40129
 Alpha  occ. eigenvalues --   -0.39911  -0.39792  -0.39606  -0.39601  -0.39442
 Alpha  occ. eigenvalues --   -0.39285  -0.39104  -0.38978  -0.38951  -0.38675
 Alpha  occ. eigenvalues --   -0.38566  -0.38424  -0.38154  -0.37857  -0.37795
 Alpha  occ. eigenvalues --   -0.37757  -0.37657  -0.37604  -0.37495  -0.37383
 Alpha  occ. eigenvalues --   -0.36960  -0.36748  -0.36537  -0.36519  -0.36352
 Alpha  occ. eigenvalues --   -0.36304  -0.36245  -0.36084  -0.35909  -0.35743
 Alpha  occ. eigenvalues --   -0.35522  -0.35152  -0.35036  -0.34737  -0.34710
 Alpha  occ. eigenvalues --   -0.34601  -0.34217  -0.34196  -0.33773  -0.33615
 Alpha  occ. eigenvalues --   -0.33548  -0.33468  -0.33336  -0.33099  -0.32928
 Alpha  occ. eigenvalues --   -0.32657  -0.32427  -0.32321  -0.32221  -0.32051
 Alpha  occ. eigenvalues --   -0.31817  -0.31738  -0.31060  -0.30382  -0.30083
 Alpha  occ. eigenvalues --   -0.29316  -0.29248  -0.28978  -0.28319  -0.28155
 Alpha  occ. eigenvalues --   -0.27216  -0.27131  -0.26571  -0.26494  -0.26423
 Alpha  occ. eigenvalues --   -0.26258  -0.25389  -0.25343  -0.25279  -0.25259
 Alpha  occ. eigenvalues --   -0.24270  -0.24200  -0.24031  -0.23780  -0.23488
 Alpha  occ. eigenvalues --   -0.23300  -0.23137  -0.22932  -0.22618  -0.22549
 Alpha  occ. eigenvalues --   -0.22301  -0.21819  -0.21713  -0.21571  -0.21243
 Alpha  occ. eigenvalues --   -0.20972  -0.20889  -0.20586  -0.20472  -0.19410
 Alpha  occ. eigenvalues --   -0.18902  -0.18515  -0.17311
 Alpha virt. eigenvalues --   -0.10689  -0.04763  -0.04676  -0.02856  -0.01999
 Alpha virt. eigenvalues --   -0.01284  -0.01247  -0.00893  -0.00459   0.00186
 Alpha virt. eigenvalues --    0.00681   0.00981   0.01168   0.01517   0.01892
 Alpha virt. eigenvalues --    0.03014   0.03140   0.03319   0.03617   0.03720
 Alpha virt. eigenvalues --    0.03951   0.04211   0.04298   0.04771   0.05237
 Alpha virt. eigenvalues --    0.05299   0.05506   0.05616   0.05739   0.05788
 Alpha virt. eigenvalues --    0.05987   0.06085   0.06237   0.06554   0.06640
 Alpha virt. eigenvalues --    0.06867   0.07021   0.07573   0.07648   0.07737
 Alpha virt. eigenvalues --    0.07834   0.08184   0.08372   0.08522   0.08625
 Alpha virt. eigenvalues --    0.09041   0.09206   0.09309   0.09398   0.09625
 Alpha virt. eigenvalues --    0.09941   0.10071   0.10326   0.10546   0.10648
 Alpha virt. eigenvalues --    0.10940   0.11056   0.11208   0.11695   0.11873
 Alpha virt. eigenvalues --    0.11989   0.12139   0.12490   0.12675   0.12688
 Alpha virt. eigenvalues --    0.12836   0.13006   0.13186   0.13316   0.13430
 Alpha virt. eigenvalues --    0.13675   0.13835   0.14125   0.14250   0.14344
 Alpha virt. eigenvalues --    0.14521   0.14761   0.14846   0.15023   0.15123
 Alpha virt. eigenvalues --    0.15291   0.15471   0.15576   0.15721   0.16059
 Alpha virt. eigenvalues --    0.16126   0.16165   0.16572   0.16622   0.16816
 Alpha virt. eigenvalues --    0.16887   0.16939   0.17140   0.17441   0.17614
 Alpha virt. eigenvalues --    0.17640   0.17843   0.18053   0.18171   0.18414
 Alpha virt. eigenvalues --    0.18580   0.18758   0.19100   0.19538   0.19755
 Alpha virt. eigenvalues --    0.19864   0.20097   0.20280   0.20410   0.20629
 Alpha virt. eigenvalues --    0.20693   0.21022   0.21153   0.21577   0.21702
 Alpha virt. eigenvalues --    0.21922   0.22069   0.22398   0.22677   0.22839
 Alpha virt. eigenvalues --    0.22869   0.23031   0.23182   0.23503   0.23577
 Alpha virt. eigenvalues --    0.23978   0.24043   0.24564   0.24640   0.24836
 Alpha virt. eigenvalues --    0.25087   0.25211   0.25473   0.25527   0.25596
 Alpha virt. eigenvalues --    0.25817   0.25897   0.26117   0.26199   0.26526
 Alpha virt. eigenvalues --    0.27021   0.27182   0.27383   0.27488   0.27558
 Alpha virt. eigenvalues --    0.27641   0.28037   0.28420   0.28590   0.28617
 Alpha virt. eigenvalues --    0.28742   0.29147   0.29369   0.29451   0.29635
 Alpha virt. eigenvalues --    0.29894   0.30175   0.30521   0.31021   0.31120
 Alpha virt. eigenvalues --    0.31301   0.31625   0.31752   0.31899   0.32204
 Alpha virt. eigenvalues --    0.32605   0.32946   0.33138   0.33369   0.33478
 Alpha virt. eigenvalues --    0.33706   0.34500   0.34911   0.34983   0.35133
 Alpha virt. eigenvalues --    0.35567   0.35647   0.36104   0.36501   0.36589
 Alpha virt. eigenvalues --    0.36937   0.37203   0.37439   0.37569   0.38020
 Alpha virt. eigenvalues --    0.38109   0.38602   0.38761   0.39140   0.39401
 Alpha virt. eigenvalues --    0.39558   0.39929   0.40093   0.40267   0.40677
 Alpha virt. eigenvalues --    0.40974   0.41233   0.41538   0.41653   0.41798
 Alpha virt. eigenvalues --    0.41861   0.42181   0.42721   0.42892   0.43013
 Alpha virt. eigenvalues --    0.43340   0.43421   0.43535   0.43795   0.43898
 Alpha virt. eigenvalues --    0.44182   0.44520   0.44779   0.44804   0.45002
 Alpha virt. eigenvalues --    0.45216   0.45433   0.45474   0.45754   0.46073
 Alpha virt. eigenvalues --    0.46173   0.46728   0.46877   0.46927   0.47081
 Alpha virt. eigenvalues --    0.47237   0.47339   0.47735   0.48011   0.48050
 Alpha virt. eigenvalues --    0.48293   0.48386   0.48529   0.48697   0.48885
 Alpha virt. eigenvalues --    0.48918   0.49169   0.49500   0.49767   0.49860
 Alpha virt. eigenvalues --    0.50374   0.50443   0.50551   0.50677   0.50810
 Alpha virt. eigenvalues --    0.51066   0.51207   0.51513   0.51581   0.51840
 Alpha virt. eigenvalues --    0.51967   0.52065   0.52243   0.52517   0.52750
 Alpha virt. eigenvalues --    0.52988   0.53365   0.53428   0.53764   0.53891
 Alpha virt. eigenvalues --    0.54001   0.54129   0.54234   0.54415   0.54661
 Alpha virt. eigenvalues --    0.54761   0.54914   0.55217   0.55338   0.55537
 Alpha virt. eigenvalues --    0.55927   0.56116   0.56257   0.56396   0.56661
 Alpha virt. eigenvalues --    0.56889   0.56954   0.57216   0.57348   0.57555
 Alpha virt. eigenvalues --    0.57886   0.58213   0.58411   0.58499   0.58520
 Alpha virt. eigenvalues --    0.58932   0.58989   0.59062   0.59244   0.59301
 Alpha virt. eigenvalues --    0.59458   0.59614   0.59808   0.60109   0.60164
 Alpha virt. eigenvalues --    0.60322   0.60562   0.60694   0.60796   0.60841
 Alpha virt. eigenvalues --    0.60964   0.61236   0.61283   0.61432   0.61599
 Alpha virt. eigenvalues --    0.61652   0.61854   0.61910   0.62016   0.62072
 Alpha virt. eigenvalues --    0.62238   0.62404   0.62514   0.62592   0.62681
 Alpha virt. eigenvalues --    0.63024   0.63292   0.63362   0.63451   0.63669
 Alpha virt. eigenvalues --    0.63806   0.63841   0.63906   0.63961   0.64093
 Alpha virt. eigenvalues --    0.64267   0.64472   0.64560   0.64742   0.64806
 Alpha virt. eigenvalues --    0.64840   0.64936   0.64964   0.65153   0.65296
 Alpha virt. eigenvalues --    0.65385   0.65562   0.65661   0.65737   0.65818
 Alpha virt. eigenvalues --    0.65997   0.66030   0.66204   0.66308   0.66430
 Alpha virt. eigenvalues --    0.66542   0.66626   0.66707   0.66775   0.66952
 Alpha virt. eigenvalues --    0.67130   0.67230   0.67352   0.67548   0.67631
 Alpha virt. eigenvalues --    0.67724   0.67851   0.67909   0.68129   0.68183
 Alpha virt. eigenvalues --    0.68314   0.68371   0.68497   0.68594   0.68623
 Alpha virt. eigenvalues --    0.68791   0.68913   0.69038   0.69092   0.69309
 Alpha virt. eigenvalues --    0.69450   0.69579   0.69608   0.69713   0.69722
 Alpha virt. eigenvalues --    0.69967   0.70117   0.70369   0.70435   0.70589
 Alpha virt. eigenvalues --    0.70779   0.70832   0.70895   0.71121   0.71401
 Alpha virt. eigenvalues --    0.71416   0.71676   0.71811   0.71871   0.72168
 Alpha virt. eigenvalues --    0.72202   0.72238   0.72375   0.72502   0.72681
 Alpha virt. eigenvalues --    0.72927   0.73028   0.73189   0.73483   0.73646
 Alpha virt. eigenvalues --    0.73742   0.73906   0.74158   0.74218   0.74486
 Alpha virt. eigenvalues --    0.74728   0.74799   0.74879   0.75109   0.75427
 Alpha virt. eigenvalues --    0.75684   0.75795   0.76011   0.76150   0.76240
 Alpha virt. eigenvalues --    0.76328   0.76644   0.76773   0.76892   0.77043
 Alpha virt. eigenvalues --    0.77296   0.77520   0.77636   0.77934   0.78297
 Alpha virt. eigenvalues --    0.78525   0.78775   0.78897   0.79320   0.79413
 Alpha virt. eigenvalues --    0.79758   0.79914   0.80334   0.80365   0.80779
 Alpha virt. eigenvalues --    0.80816   0.81518   0.81844   0.81952   0.82242
 Alpha virt. eigenvalues --    0.82556   0.83032   0.83179   0.83453   0.83735
 Alpha virt. eigenvalues --    0.83960   0.84229   0.84262   0.84516   0.84846
 Alpha virt. eigenvalues --    0.85291   0.85545   0.85986   0.86202   0.86669
 Alpha virt. eigenvalues --    0.86836   0.87070   0.87552   0.87730   0.88193
 Alpha virt. eigenvalues --    0.88392   0.88793   0.89078   0.89314   0.89949
 Alpha virt. eigenvalues --    0.90333   0.90500   0.90638   0.90911   0.91100
 Alpha virt. eigenvalues --    0.91339   0.91660   0.91977   0.92147   0.92355
 Alpha virt. eigenvalues --    0.92669   0.93006   0.93416   0.93775   0.93869
 Alpha virt. eigenvalues --    0.93985   0.94461   0.94604   0.94979   0.95135
 Alpha virt. eigenvalues --    0.95350   0.95723   0.96250   0.96402   0.96491
 Alpha virt. eigenvalues --    0.96762   0.97152   0.97357   0.97815   0.97996
 Alpha virt. eigenvalues --    0.98410   0.98602   0.98822   0.99296   0.99418
 Alpha virt. eigenvalues --    0.99721   0.99774   1.00051   1.00167   1.00370
 Alpha virt. eigenvalues --    1.00738   1.01110   1.01299   1.01439   1.02095
 Alpha virt. eigenvalues --    1.02211   1.02856   1.03236   1.03499   1.03806
 Alpha virt. eigenvalues --    1.04217   1.04461   1.04932   1.05274   1.05712
 Alpha virt. eigenvalues --    1.06059   1.06334   1.06828   1.06859   1.07194
 Alpha virt. eigenvalues --    1.07713   1.07803   1.08273   1.08396   1.08547
 Alpha virt. eigenvalues --    1.09051   1.09390   1.09576   1.09803   1.10315
 Alpha virt. eigenvalues --    1.10547   1.10923   1.11279   1.11463   1.11752
 Alpha virt. eigenvalues --    1.12008   1.12150   1.12234   1.12837   1.13249
 Alpha virt. eigenvalues --    1.13550   1.13946   1.14127   1.14339   1.14447
 Alpha virt. eigenvalues --    1.14756   1.14909   1.15427   1.15863   1.15968
 Alpha virt. eigenvalues --    1.16326   1.16411   1.16893   1.17290   1.17763
 Alpha virt. eigenvalues --    1.17899   1.18254   1.18442   1.18557   1.18730
 Alpha virt. eigenvalues --    1.18819   1.19059   1.19416   1.19435   1.19747
 Alpha virt. eigenvalues --    1.19821   1.20013   1.20499   1.20936   1.21122
 Alpha virt. eigenvalues --    1.21507   1.21705   1.21988   1.22049   1.22348
 Alpha virt. eigenvalues --    1.22825   1.23014   1.23035   1.23459   1.23589
 Alpha virt. eigenvalues --    1.24027   1.24072   1.24209   1.24423   1.24732
 Alpha virt. eigenvalues --    1.25072   1.25293   1.25384   1.25467   1.26018
 Alpha virt. eigenvalues --    1.26121   1.26367   1.26531   1.26645   1.26986
 Alpha virt. eigenvalues --    1.27686   1.27762   1.28158   1.28380   1.28439
 Alpha virt. eigenvalues --    1.28642   1.29071   1.29286   1.29425   1.29771
 Alpha virt. eigenvalues --    1.29943   1.30268   1.30647   1.30691   1.30952
 Alpha virt. eigenvalues --    1.31363   1.31711   1.31938   1.32159   1.32311
 Alpha virt. eigenvalues --    1.32808   1.33062   1.33140   1.33406   1.33867
 Alpha virt. eigenvalues --    1.34082   1.34312   1.34616   1.34717   1.35086
 Alpha virt. eigenvalues --    1.35192   1.35527   1.36118   1.36203   1.36635
 Alpha virt. eigenvalues --    1.36785   1.36942   1.37380   1.37742   1.37882
 Alpha virt. eigenvalues --    1.38119   1.38170   1.38460   1.38693   1.38821
 Alpha virt. eigenvalues --    1.39255   1.39284   1.39503   1.39772   1.40170
 Alpha virt. eigenvalues --    1.40756   1.40973   1.41178   1.41423   1.41663
 Alpha virt. eigenvalues --    1.42082   1.42403   1.42843   1.43152   1.43528
 Alpha virt. eigenvalues --    1.43588   1.44203   1.44516   1.44781   1.45081
 Alpha virt. eigenvalues --    1.45247   1.45745   1.45967   1.46274   1.46591
 Alpha virt. eigenvalues --    1.46753   1.46806   1.47457   1.47610   1.48420
 Alpha virt. eigenvalues --    1.48735   1.49077   1.49147   1.49424   1.49603
 Alpha virt. eigenvalues --    1.49714   1.49913   1.50253   1.50483   1.50854
 Alpha virt. eigenvalues --    1.51227   1.51416   1.52003   1.52233   1.52736
 Alpha virt. eigenvalues --    1.52955   1.53249   1.53292   1.53428   1.54082
 Alpha virt. eigenvalues --    1.54207   1.54312   1.54603   1.55108   1.55184
 Alpha virt. eigenvalues --    1.55675   1.55792   1.56014   1.56169   1.56341
 Alpha virt. eigenvalues --    1.56700   1.57147   1.57347   1.58107   1.58361
 Alpha virt. eigenvalues --    1.58737   1.58907   1.59066   1.59629   1.59922
 Alpha virt. eigenvalues --    1.60586   1.60852   1.61233   1.61484   1.61656
 Alpha virt. eigenvalues --    1.62365   1.62615   1.62783   1.62960   1.63128
 Alpha virt. eigenvalues --    1.63692   1.63997   1.64192   1.64503   1.65023
 Alpha virt. eigenvalues --    1.65577   1.65678   1.66128   1.66263   1.66729
 Alpha virt. eigenvalues --    1.66840   1.67052   1.67227   1.67398   1.67686
 Alpha virt. eigenvalues --    1.67991   1.68214   1.68426   1.68823   1.68983
 Alpha virt. eigenvalues --    1.69287   1.69492   1.69579   1.69888   1.70084
 Alpha virt. eigenvalues --    1.70413   1.70815   1.71211   1.71352   1.71614
 Alpha virt. eigenvalues --    1.72133   1.72237   1.72451   1.72579   1.72653
 Alpha virt. eigenvalues --    1.72890   1.73082   1.73134   1.73464   1.73592
 Alpha virt. eigenvalues --    1.74109   1.74485   1.74613   1.74686   1.74896
 Alpha virt. eigenvalues --    1.75027   1.75610   1.75658   1.75787   1.76028
 Alpha virt. eigenvalues --    1.76368   1.76530   1.76734   1.76813   1.76896
 Alpha virt. eigenvalues --    1.77206   1.77272   1.77701   1.77764   1.77975
 Alpha virt. eigenvalues --    1.78260   1.78318   1.78493   1.78624   1.78873
 Alpha virt. eigenvalues --    1.79035   1.79335   1.79447   1.79556   1.79823
 Alpha virt. eigenvalues --    1.79874   1.79973   1.80010   1.80394   1.80576
 Alpha virt. eigenvalues --    1.80710   1.80868   1.81012   1.81097   1.81168
 Alpha virt. eigenvalues --    1.81328   1.81431   1.81487   1.81647   1.81696
 Alpha virt. eigenvalues --    1.81891   1.82068   1.82277   1.82332   1.82564
 Alpha virt. eigenvalues --    1.82755   1.82950   1.83150   1.83454   1.83475
 Alpha virt. eigenvalues --    1.83641   1.83900   1.83965   1.84081   1.84179
 Alpha virt. eigenvalues --    1.84407   1.84576   1.84623   1.84867   1.85043
 Alpha virt. eigenvalues --    1.85305   1.85414   1.85565   1.85880   1.86082
 Alpha virt. eigenvalues --    1.86503   1.86644   1.86757   1.86926   1.87251
 Alpha virt. eigenvalues --    1.87462   1.87651   1.87825   1.88189   1.88228
 Alpha virt. eigenvalues --    1.88465   1.88509   1.88728   1.88895   1.89193
 Alpha virt. eigenvalues --    1.89307   1.89780   1.89843   1.90033   1.90217
 Alpha virt. eigenvalues --    1.90286   1.90405   1.90515   1.90960   1.91003
 Alpha virt. eigenvalues --    1.91186   1.91310   1.91460   1.92056   1.92264
 Alpha virt. eigenvalues --    1.92460   1.92605   1.92715   1.92925   1.93171
 Alpha virt. eigenvalues --    1.93518   1.93685   1.94141   1.94302   1.94452
 Alpha virt. eigenvalues --    1.94992   1.95305   1.95469   1.95626   1.95756
 Alpha virt. eigenvalues --    1.95965   1.96250   1.96693   1.97029   1.97370
 Alpha virt. eigenvalues --    1.97511   1.97811   1.98249   1.98510   1.98682
 Alpha virt. eigenvalues --    1.99049   1.99252   1.99482   1.99909   2.00007
 Alpha virt. eigenvalues --    2.00192   2.00444   2.00599   2.00723   2.00936
 Alpha virt. eigenvalues --    2.01046   2.01117   2.01301   2.01523   2.01977
 Alpha virt. eigenvalues --    2.02295   2.02546   2.02664   2.02832   2.02852
 Alpha virt. eigenvalues --    2.03219   2.03672   2.03733   2.03826   2.04151
 Alpha virt. eigenvalues --    2.04649   2.05133   2.05243   2.05608   2.06135
 Alpha virt. eigenvalues --    2.06228   2.06295   2.06758   2.06960   2.07286
 Alpha virt. eigenvalues --    2.07484   2.07686   2.08148   2.08271   2.08338
 Alpha virt. eigenvalues --    2.08497   2.08875   2.09112   2.09621   2.10067
 Alpha virt. eigenvalues --    2.10348   2.10382   2.10423   2.10743   2.11061
 Alpha virt. eigenvalues --    2.11229   2.12033   2.12091   2.12455   2.12684
 Alpha virt. eigenvalues --    2.12738   2.13051   2.13179   2.13732   2.13845
 Alpha virt. eigenvalues --    2.13983   2.14391   2.14642   2.15304   2.15447
 Alpha virt. eigenvalues --    2.15750   2.15862   2.16024   2.16300   2.16396
 Alpha virt. eigenvalues --    2.16583   2.17227   2.17427   2.17671   2.17897
 Alpha virt. eigenvalues --    2.18342   2.18694   2.18782   2.19039   2.19390
 Alpha virt. eigenvalues --    2.19497   2.19890   2.20058   2.20149   2.20296
 Alpha virt. eigenvalues --    2.21012   2.21317   2.21587   2.22016   2.22409
 Alpha virt. eigenvalues --    2.22802   2.23075   2.23146   2.23869   2.24100
 Alpha virt. eigenvalues --    2.24350   2.24476   2.24650   2.24774   2.25224
 Alpha virt. eigenvalues --    2.25487   2.25628   2.26468   2.27197   2.27489
 Alpha virt. eigenvalues --    2.28044   2.28300   2.28428   2.28885   2.29140
 Alpha virt. eigenvalues --    2.29257   2.29862   2.30073   2.30430   2.30617
 Alpha virt. eigenvalues --    2.30783   2.31273   2.31546   2.31801   2.31920
 Alpha virt. eigenvalues --    2.32269   2.32365   2.33246   2.33330   2.33751
 Alpha virt. eigenvalues --    2.33993   2.34408   2.35246   2.35463   2.35636
 Alpha virt. eigenvalues --    2.36038   2.36282   2.36676   2.36775   2.37045
 Alpha virt. eigenvalues --    2.37306   2.37570   2.37752   2.37875   2.38489
 Alpha virt. eigenvalues --    2.38522   2.38789   2.38955   2.39036   2.39271
 Alpha virt. eigenvalues --    2.40093   2.40469   2.40588   2.41058   2.41475
 Alpha virt. eigenvalues --    2.42328   2.42455   2.42594   2.42980   2.43097
 Alpha virt. eigenvalues --    2.43532   2.43955   2.44233   2.44418   2.44488
 Alpha virt. eigenvalues --    2.44868   2.45083   2.45543   2.45555   2.46390
 Alpha virt. eigenvalues --    2.46858   2.47010   2.47174   2.47718   2.48300
 Alpha virt. eigenvalues --    2.48575   2.48738   2.49024   2.49438   2.50279
 Alpha virt. eigenvalues --    2.50550   2.50610   2.50820   2.51153   2.51494
 Alpha virt. eigenvalues --    2.51671   2.52282   2.52410   2.52645   2.52797
 Alpha virt. eigenvalues --    2.53101   2.53415   2.53790   2.54055   2.54328
 Alpha virt. eigenvalues --    2.55281   2.55747   2.56013   2.56113   2.56629
 Alpha virt. eigenvalues --    2.56915   2.57188   2.57742   2.57923   2.58182
 Alpha virt. eigenvalues --    2.58545   2.59212   2.59311   2.59655   2.60058
 Alpha virt. eigenvalues --    2.60346   2.60422   2.60809   2.61085   2.61417
 Alpha virt. eigenvalues --    2.61471   2.61766   2.62058   2.62267   2.62637
 Alpha virt. eigenvalues --    2.63111   2.63384   2.63655   2.63837   2.64134
 Alpha virt. eigenvalues --    2.64829   2.65400   2.65673   2.65889   2.66020
 Alpha virt. eigenvalues --    2.66130   2.66626   2.66935   2.67145   2.67498
 Alpha virt. eigenvalues --    2.68548   2.69470   2.69563   2.69641   2.69956
 Alpha virt. eigenvalues --    2.70191   2.70293   2.70608   2.70784   2.70950
 Alpha virt. eigenvalues --    2.71110   2.71266   2.71526   2.71750   2.71901
 Alpha virt. eigenvalues --    2.72603   2.72654   2.73206   2.73263   2.73464
 Alpha virt. eigenvalues --    2.73812   2.73840   2.74133   2.74386   2.74583
 Alpha virt. eigenvalues --    2.74855   2.75014   2.75198   2.75400   2.75659
 Alpha virt. eigenvalues --    2.76356   2.76498   2.76806   2.77167   2.77317
 Alpha virt. eigenvalues --    2.77666   2.77844   2.78255   2.78486   2.78619
 Alpha virt. eigenvalues --    2.78919   2.79068   2.79500   2.79722   2.79873
 Alpha virt. eigenvalues --    2.80206   2.80636   2.80753   2.80807   2.81191
 Alpha virt. eigenvalues --    2.81471   2.81619   2.81887   2.82136   2.82271
 Alpha virt. eigenvalues --    2.82477   2.82766   2.83313   2.83661   2.83998
 Alpha virt. eigenvalues --    2.84218   2.84937   2.85320   2.85577   2.85816
 Alpha virt. eigenvalues --    2.86066   2.86999   2.87238   2.87259   2.87669
 Alpha virt. eigenvalues --    2.87920   2.88059   2.88984   2.89231   2.89340
 Alpha virt. eigenvalues --    2.89618   2.90149   2.90559   2.90661   2.90759
 Alpha virt. eigenvalues --    2.91031   2.91260   2.91636   2.91717   2.92225
 Alpha virt. eigenvalues --    2.92595   2.92868   2.93149   2.93291   2.93414
 Alpha virt. eigenvalues --    2.93584   2.94076   2.94307   2.94421   2.94911
 Alpha virt. eigenvalues --    2.95168   2.95391   2.96106   2.96488   2.96692
 Alpha virt. eigenvalues --    2.96825   2.97053   2.97337   2.98388   2.98522
 Alpha virt. eigenvalues --    2.98615   2.99177   2.99692   2.99802   2.99924
 Alpha virt. eigenvalues --    3.00114   3.00525   3.00732   3.00872   3.01329
 Alpha virt. eigenvalues --    3.01573   3.01653   3.02019   3.02200   3.02621
 Alpha virt. eigenvalues --    3.02742   3.02866   3.03255   3.03461   3.03727
 Alpha virt. eigenvalues --    3.04441   3.04588   3.05227   3.06192   3.06306
 Alpha virt. eigenvalues --    3.06590   3.07986   3.08275   3.08415   3.08723
 Alpha virt. eigenvalues --    3.09165   3.10141   3.10330   3.11539   3.12012
 Alpha virt. eigenvalues --    3.12108   3.12801   3.13174   3.13595   3.13682
 Alpha virt. eigenvalues --    3.14314   3.14503   3.15244   3.16227   3.16327
 Alpha virt. eigenvalues --    3.16608   3.16849   3.16936   3.17053   3.17523
 Alpha virt. eigenvalues --    3.17729   3.18164   3.18250   3.19132   3.19285
 Alpha virt. eigenvalues --    3.19421   3.19700   3.20020   3.20321   3.20943
 Alpha virt. eigenvalues --    3.21043   3.21603   3.21942   3.22372   3.22420
 Alpha virt. eigenvalues --    3.22790   3.23245   3.23646   3.23744   3.23911
 Alpha virt. eigenvalues --    3.24251   3.24514   3.25100   3.26059   3.26698
 Alpha virt. eigenvalues --    3.27100   3.27719   3.28177   3.29220   3.29851
 Alpha virt. eigenvalues --    3.29978   3.30295   3.30700   3.31904   3.32849
 Alpha virt. eigenvalues --    3.34969   3.35194   3.36608   3.37595   3.41027
 Alpha virt. eigenvalues --    3.42017   3.43129   3.47524   3.49848   3.50374
 Alpha virt. eigenvalues --    3.51749   3.52121   3.54179   3.55128   3.56396
 Alpha virt. eigenvalues --    3.58547   3.58944   3.59257   3.59632   3.59712
 Alpha virt. eigenvalues --    3.61055   3.61440   3.61955   3.63075   3.63501
 Alpha virt. eigenvalues --    3.64424   3.66378   3.67103   3.67362   3.67966
 Alpha virt. eigenvalues --    3.68441   3.69234   3.69641   3.69973   3.70364
 Alpha virt. eigenvalues --    3.70550   3.70735   3.71474   3.72033   3.72242
 Alpha virt. eigenvalues --    3.72716   3.73303   3.74009   3.75190   3.75323
 Alpha virt. eigenvalues --    3.79368   3.80907   3.83393   3.86246
          Condensed to atoms (all electrons):
 Mulliken charges:
               1
     1  C    0.081427
     2  C    0.007718
     3  O   -0.316819
     4  H   -0.000386
     5  H    0.037308
     6  H    0.044502
     7  N   -0.115701
     8  C    0.158517
     9  C    0.061754
    10  O   -0.301617
    11  C    0.068895
    12  C    0.154823
    13  O   -0.398181
    14  O   -0.468155
    15  H    0.112349
    16  H    0.000215
    17  H    0.025717
    18  H    0.011553
    19  N   -0.125952
    20  C    0.123729
    21  C    0.060856
    22  O   -0.295283
    23  C    0.023704
    24  C    0.006697
    25  C   -0.076371
    26  C    0.033631
    27  N    0.087986
    28  H    0.146168
    29  H   -0.000751
    30  H    0.017831
    31  H    0.049168
    32  H    0.015841
    33  H    0.025758
    34  H    0.018200
    35  H    0.043690
    36  H    0.071085
    37  H    0.089258
    38  H    0.196467
    39  H    0.197277
    40  H    0.187504
    41  N   -0.153070
    42  C    0.069245
    43  C    0.075852
    44  O   -0.284619
    45  C    0.186201
    46  C    0.060892
    47  O   -0.458002
    48  O   -0.389748
    49  H    0.142810
    50  H    0.014483
    51  H   -0.022724
    52  H    0.000447
    53  N   -0.159155
    54  C    0.215608
    55  C    0.034087
    56  O   -0.277544
    57  H    0.142908
    58  H    0.001507
    59  H    0.021242
    60  N   -0.195852
    61  C    0.107500
    62  C    0.047339
    63  O   -0.273921
    64  C    0.094308
    65  C    0.088685
    66  N   -0.038771
    67  O   -0.339698
    68  H    0.154936
    69  H    0.016141
    70  H    0.066965
    71  H    0.019432
    72  H    0.123455
    73  H    0.107762
    74  N   -0.147581
    75  C    0.225327
    76  C    0.012739
    77  O   -0.286234
    78  H    0.155932
    79  H    0.024131
    80  H    0.024741
    81  N   -0.153327
    82  C    0.175962
    83  C    0.091499
    84  O   -0.353109
    85  C    0.145228
    86  C   -0.018078
    87  C   -0.000060
    88  C    0.012264
    89  C   -0.009539
    90  C   -0.005353
    91  C    0.117084
    92  O   -0.184770
    93  H    0.149648
    94  H   -0.009227
    95  H   -0.007717
    96  H   -0.023262
    97  H   -0.034337
    98  H   -0.031908
    99  H   -0.023509
   100  H   -0.049735
   101  H    0.164412
   102  N   -0.086659
   103  C    0.156497
   104  C    0.052732
   105  O   -0.297637
   106  C   -0.126453
   107  C    0.071794
   108  C    0.018873
   109  C    0.025686
   110  H    0.133429
   111  H    0.013048
   112  H   -0.015138
   113  H   -0.012629
   114  H    0.004065
   115  H    0.002828
   116  H    0.057521
   117  H   -0.012274
   118  H    0.008049
   119  H    0.014368
   120  H   -0.000640
   121  N   -0.121904
   122  C    0.058874
   123  C    0.119072
   124  O   -0.281920
   125  C    0.246898
   126  O   -0.340495
   127  H    0.138139
   128  H    0.027120
   129  H   -0.033622
   130  H   -0.019242
   131  H    0.169518
   132  N   -0.110167
   133  C    0.046319
   134  C    0.023156
   135  O   -0.254808
   136  C    0.064822
   137  H    0.116217
   138  H    0.027190
   139  H    0.025979
   140  H    0.038071
   141  H    0.029730
   142  N   -0.128295
   143  C    0.116765
   144  C    0.061573
   145  O   -0.268475
   146  C    0.031302
   147  H    0.116769
   148  H    0.016864
   149  H    0.021857
   150  H    0.022220
   151  H    0.018459
   152  N   -0.151143
   153  C    0.141155
   154  C    0.092876
   155  O   -0.275519
   156  C   -0.012768
   157  C    0.078312
   158  C    0.158830
   159  O   -0.454801
   160  O   -0.379911
   161  H    0.135938
   162  H   -0.033881
   163  H    0.041799
   164  H   -0.006239
   165  H   -0.036730
   166  H   -0.006939
   167  N   -0.190266
   168  C    0.159913
   169  H    0.022003
   170  H    0.016903
   171  H    0.000431
   172  H    0.124555
   173  Ca   1.285649
   174  O   -0.289187
   175  H    0.177839
   176  H    0.195399
 Sum of Mulliken charges =   0.00000
 Mulliken charges with hydrogens summed into heavy atoms:
               1
     1  C    0.162852
     2  C    0.007718
     3  O   -0.316819
     7  N   -0.003352
     8  C    0.158732
     9  C    0.061754
    10  O   -0.301617
    11  C    0.106166
    12  C    0.154823
    13  O   -0.398181
    14  O   -0.468155
    19  N    0.020216
    20  C    0.122978
    21  C    0.060856
    22  O   -0.295283
    23  C    0.090703
    24  C    0.048296
    25  C   -0.014481
    26  C    0.193973
    27  N    0.669234
    41  N   -0.010260
    42  C    0.083727
    43  C    0.075852
    44  O   -0.284619
    45  C    0.163925
    46  C    0.060892
    47  O   -0.458002
    48  O   -0.389748
    53  N   -0.016247
    54  C    0.238357
    55  C    0.034087
    56  O   -0.277544
    60  N   -0.040915
    61  C    0.123641
    62  C    0.047339
    63  O   -0.273921
    64  C    0.180705
    65  C    0.088685
    66  N    0.192446
    67  O   -0.339698
    74  N    0.008351
    75  C    0.274199
    76  C    0.012739
    77  O   -0.286234
    81  N   -0.003679
    82  C    0.166735
    83  C    0.091499
    84  O   -0.353109
    85  C    0.114249
    86  C   -0.018078
    87  C   -0.034397
    88  C   -0.019643
    89  C   -0.033048
    90  C   -0.055088
    91  C    0.117084
    92  O   -0.020357
   102  N    0.046770
   103  C    0.169545
   104  C    0.052732
   105  O   -0.297637
   106  C   -0.141592
   107  C    0.063230
   108  C    0.066948
   109  C    0.047463
   121  N    0.016235
   122  C    0.085994
   123  C    0.119072
   124  O   -0.281920
   125  C    0.194035
   126  O   -0.170977
   132  N    0.006050
   133  C    0.073510
   134  C    0.023156
   135  O   -0.254808
   136  C    0.158602
   142  N   -0.011526
   143  C    0.133629
   144  C    0.061573
   145  O   -0.268475
   146  C    0.093838
   152  N   -0.015205
   153  C    0.107274
   154  C    0.092876
   155  O   -0.275519
   156  C    0.022792
   157  C    0.034643
   158  C    0.158830
   159  O   -0.454801
   160  O   -0.379911
   167  N   -0.065711
   168  C    0.199250
   173  Ca   1.285649
   174  O    0.084051
 DipInt: DoE/N= T F RetVal/Mat= T F Init=T NMatP=  1 IDeriv=0 Min/MaxMlt=  0  4
 Entering OneElI...
 OneElI was handed  4286741430 working-precision words.
 Multipole integrals L=0 to 4 MinM= 0 MaxM= 0.
 Requested accuracy = 0.1000D-12
 ShPair: Thresh= 1.00D-13 NBox=     0 BxSize= 0.00D+00 RnKept= 2.55D+01
         NSMCal=               327645 NSMKep=              159105
 PrsmSu:  NPrtUS=   1 ThrOK=F IAlg=1 NPAlg=1 LenDen=           0.
 Prism:   IPart=     0 DynPar=F LinDyn=F Incr=         512.
 PRISM was handed  4276736904 working-precision words and159105 shell-pairs
 IPart=  0 NShTot=      159105 NBatch=         447 AvBLen=       355.9
 PrSmSu:  NxtVal=            513.
 Electronic moments (au):
       -716.00000000         13.71136387         -1.08684284         -5.25041911
     -51703.69205678     -33964.22229063     -11278.45493484        160.81096760
        -31.58828122         -1.73198004     -19576.05422389     -16325.01667206
     -26170.91823492      15011.52403520      79879.02579396      44072.13031033
     -15127.21612040       6871.00371745      25991.20435160      -9116.10984201
   -7496455.85878917   -3429031.34946649    -555112.03128353    -324060.84348990
     235654.43561336    -727662.98876044     -15135.49245685     -72029.71492941
      46763.56386281   -2788306.86520982    -578639.73215452    -338057.32026988
    -190931.55455153      19572.60115736      58617.48442956
 Electronic spatial extent (au):  <R**2>=          96946.3693
 DipInt: DoE/N= F T RetVal/Mat= T F Init=T NMatP=  1 IDeriv=0 Min/MaxMlt=  0  4
 Nuclear    moments (au):
        716.00000000          0.00000000          0.00000000          0.00000000
      51316.15865066      33592.41616264      10903.14120097          0.00000000
          0.00000000          0.00000000      21991.16104836      16581.59389126
      26105.16600222     -12376.42989408     -78552.11290450     -45244.83209056
      15150.11621241      -6926.98583074     -26432.26477990       8695.85983599
    7319594.73650066    3314029.57360643     518822.00207860     359453.25319056
    -240718.21793868     750081.64242176      13478.72858860      72602.54453267
     -46576.19580908    2759948.47154683     546619.59554361     313372.91307561
     189520.00275720     -25205.65598666     -58144.33256951
 Total      moments (au):
          0.00000000         13.71136387         -1.08684284         -5.25041911
       -387.53340612       -371.80612799       -375.31373387        160.81096760
        -31.58828122         -1.73198004       2415.10682447        256.57721920
        -65.75223271       2635.09414112       1326.91288946      -1172.70178023
         22.90009201        -55.98211329       -441.06042830       -420.25000601
    -176861.12228851    -115001.77586006     -36290.02920493      35392.40970066
      -5063.78232532      22418.65366132      -1656.76386825        572.82960326
        187.36805373     -28358.39366299     -32020.13661090     -24684.40719426
      -1411.55179432      -5633.05482930        473.15186005
 Traceless Quadrup. (au):
         -9.31565013          6.41162801          2.90402212        160.81096760
        -31.58828122         -1.73198004
 Charge=              0.0000 electrons
 Dipole moment (field-independent basis, Debye):
    X=             34.8508    Y=             -2.7625    Z=            -13.3452  Tot=             37.4207
 Quadrupole moment (field-independent basis, Debye-Ang):
   XX=           -521.2457   YY=           -500.0919   ZZ=           -504.8098
   XY=            216.2962   XZ=            -42.4873   YZ=             -2.3296
 Traceless Quadrupole moment (field-independent basis, Debye-Ang):
   XX=            -12.5299   YY=              8.6239   ZZ=              3.9060
   XY=            216.2962   XZ=            -42.4873   YZ=             -2.3296
 Octapole moment (field-independent basis, Debye-Ang**2):
  XXX=           1718.9799  YYY=            182.6218  ZZZ=            -46.7999  XYY=           1875.5584
  XXY=            944.4454  XXZ=           -834.6839  XZZ=             16.2994  YZZ=            -39.8459
  YYZ=           -313.9298  XYZ=           -299.1177
 Hexadecapole moment (field-independent basis, Debye-Ang**3):
 XXXX=         -66614.3750 YYYY=         -43315.1804 ZZZZ=         -13668.5643 XXXY=          13330.4777
 XXXZ=          -1907.2631 YYYX=           8443.9394 YYYZ=           -624.0167 ZZZX=            215.7551
 ZZZY=             70.5718 XXYY=         -10681.1302 XXZZ=         -12060.3181 YYZZ=          -9297.3308
 XXYZ=           -531.6581 YYXZ=          -2121.6784 ZZXY=            178.2117
 N-N= 2.154041885686D+04 E-N=-5.556368103037D+04  KE= 5.290524283143D+03
 Leave Link  601 at Mon Sep 16 17:04:54 2019, MaxMem=  4294967296 cpu:        21.8
 FitSet:  NAtFit=   176 NAtPot=   176 NAtFrz=     0 MDM=   180 TotChg=   0.00000
 Merz-Kollman atomic radii used.
 Read replacement radii for each type of atom:
 Rad(20) =   1.700000000000D+00
 Atom Element Radius
    1     6    1.50
    2     6    1.50
    3     8    1.40
    4     1    1.20
    5     1    1.20
    6     1    1.20
    7     7    1.50
    8     6    1.50
    9     6    1.50
   10     8    1.40
   11     6    1.50
   12     6    1.50
   13     8    1.40
   14     8    1.40
   15     1    1.20
   16     1    1.20
   17     1    1.20
   18     1    1.20
   19     7    1.50
   20     6    1.50
   21     6    1.50
   22     8    1.40
   23     6    1.50
   24     6    1.50
   25     6    1.50
   26     6    1.50
   27     7    1.50
   28     1    1.20
   29     1    1.20
   30     1    1.20
   31     1    1.20
   32     1    1.20
   33     1    1.20
   34     1    1.20
   35     1    1.20
   36     1    1.20
   37     1    1.20
   38     1    1.20
   39     1    1.20
   40     1    1.20
   41     7    1.50
   42     6    1.50
   43     6    1.50
   44     8    1.40
   45     6    1.50
   46     6    1.50
   47     8    1.40
   48     8    1.40
   49     1    1.20
   50     1    1.20
   51     1    1.20
   52     1    1.20
   53     7    1.50
   54     6    1.50
   55     6    1.50
   56     8    1.40
   57     1    1.20
   58     1    1.20
   59     1    1.20
   60     7    1.50
   61     6    1.50
   62     6    1.50
   63     8    1.40
   64     6    1.50
   65     6    1.50
   66     7    1.50
   67     8    1.40
   68     1    1.20
   69     1    1.20
   70     1    1.20
   71     1    1.20
   72     1    1.20
   73     1    1.20
   74     7    1.50
   75     6    1.50
   76     6    1.50
   77     8    1.40
   78     1    1.20
   79     1    1.20
   80     1    1.20
   81     7    1.50
   82     6    1.50
   83     6    1.50
   84     8    1.40
   85     6    1.50
   86     6    1.50
   87     6    1.50
   88     6    1.50
   89     6    1.50
   90     6    1.50
   91     6    1.50
   92     8    1.40
   93     1    1.20
   94     1    1.20
   95     1    1.20
   96     1    1.20
   97     1    1.20
   98     1    1.20
   99     1    1.20
  100     1    1.20
  101     1    1.20
  102     7    1.50
  103     6    1.50
  104     6    1.50
  105     8    1.40
  106     6    1.50
  107     6    1.50
  108     6    1.50
  109     6    1.50
  110     1    1.20
  111     1    1.20
  112     1    1.20
  113     1    1.20
  114     1    1.20
  115     1    1.20
  116     1    1.20
  117     1    1.20
  118     1    1.20
  119     1    1.20
  120     1    1.20
  121     7    1.50
  122     6    1.50
  123     6    1.50
  124     8    1.40
  125     6    1.50
  126     8    1.40
  127     1    1.20
  128     1    1.20
  129     1    1.20
  130     1    1.20
  131     1    1.20
  132     7    1.50
  133     6    1.50
  134     6    1.50
  135     8    1.40
  136     6    1.50
  137     1    1.20
  138     1    1.20
  139     1    1.20
  140     1    1.20
  141     1    1.20
  142     7    1.50
  143     6    1.50
  144     6    1.50
  145     8    1.40
  146     6    1.50
  147     1    1.20
  148     1    1.20
  149     1    1.20
  150     1    1.20
  151     1    1.20
  152     7    1.50
  153     6    1.50
  154     6    1.50
  155     8    1.40
  156     6    1.50
  157     6    1.50
  158     6    1.50
  159     8    1.40
  160     8    1.40
  161     1    1.20
  162     1    1.20
  163     1    1.20
  164     1    1.20
  165     1    1.20
  166     1    1.20
  167     7    1.50
  168     6    1.50
  169     1    1.20
  170     1    1.20
  171     1    1.20
  172     1    1.20
  173    20    1.70
  174     8    1.40
  175     1    1.20
  176     1    1.20
 Generate VDW surfaces: Layer= 4 Dens= 6 Start= 1.400 Inc= 0.200

 **********************************************************************

            Electrostatic Properties Using The SCF Density

 **********************************************************************

       Atomic Center    1 is at   2.472673  1.318730  5.568162
       Atomic Center    2 is at   1.876859  1.437942  4.168200
       Atomic Center    3 is at   2.606667  1.247220  3.188197
       Atomic Center    4 is at   1.839776  1.850733  6.278131
[...]
 **** Fit      -0.025643
 **** Fit      -0.022212
 **** Fit      -0.018565
 **** Fit      -0.015008
 **** Fit      -0.011898
 **** Fit      -0.009604
 **** Fit      -0.008459
 **** Fit      -0.008718
 **** Fit      -0.010534
 **** Fit      -0.013984
 **** Fit      -0.019204
 **** Fit      -0.026656
 **** Fit      -0.032852
 **** Fit      -0.034318
 **** Fit      -0.032328
 **** Fit      -0.029351
 **** Fit      -0.025561
 **** Fit      -0.021182
 **** Fit      -0.016500
 **** Fit      -0.011874
 **** Fit      -0.007728
 **** Fit      -0.004505
 **** Fit      -0.002602
 **** Fit      -0.002322
 **** Fit      -0.003828
 **** Fit      -0.007088
 **** Fit      -0.011967
 **** Fit      -0.035183
 **** Fit      -0.037670
 **** Fit      -0.035002
 **** Fit      -0.031091
 **** Fit      -0.026169
 **** Fit      -0.020532
 **** Fit      -0.014547
 **** Fit      -0.008663
 **** Fit      -0.003398
 **** Fit       0.000723
 **** Fit       0.003255
 **** Fit      -0.038811
 **** Fit      -0.038949
 **** Fit      -0.028283
 **** Fit      -0.021150
 **** Fit      -0.013710
 **** Fit      -0.006504
 **** Fit      -0.000120
 **** Fit       0.004893
 **** Fit      -0.012268
 **** Fit      -0.003548
 **** Fit       0.003741
 **** Fit      -0.011746
 **** Fit       0.006810
 **** Fit       0.006603
 **** Fit      -0.008270
 **** Fit      -0.013702
 **** Fit       0.001395
 **** Fit      -0.000084
 **** Fit      -0.005852
 **** Fit      -0.010073
 **** Fit      -0.008812
 **** Fit      -0.004172
 **** Fit      -0.017093
 **** Fit      -0.018145
 **** Fit      -0.015341
 **** Fit      -0.020100
 **** Fit      -0.027458
 **** Fit      -0.013435
 **** Fit      -0.013893
 **** Fit      -0.016398
 **** Fit      -0.020816
 **** Fit      -0.026421
 **** Fit      -0.014749
 **** Fit      -0.016048
 **** Fit      -0.018936
 **** Fit      -0.021971
 **** Fit      -0.022326
 **** Fit      -0.017141
 **** Fit      -0.014611
 **** Fit      -0.016020
 **** Fit      -0.016223
 **** Fit      -0.011849
 **** Fit      -0.002701
 **** Fit      -0.011216
 **** Fit      -0.012009
 **** Fit      -0.008395
 **** Fit      -0.000363
 **** Fit      -0.006614
 **** Fit       0.004136
 **** Fit       0.011400
 **** Fit       0.035561
 **** Fit       0.044155
 **** Fit       0.035860
 **** Fit       0.039836
 **** Fit       0.028963
 **** Fit       0.032867
 **** Fit       0.000860
 **** Fit      -0.005197
 **** Fit      -0.004117
 **** Fit       0.034096
 **** Fit       0.029041
 **** Fit       0.034455
 **** Fit       0.038393
 **** Fit       0.024972
 **** Fit       0.029012
 **** Fit       0.032765
 **** Fit       0.034949
 **** Fit       0.034609
 **** Fit       0.031294
 **** Fit       0.025135
 **** Fit       0.024750
 **** Fit       0.027597
 **** Fit       0.029620
 **** Fit       0.029612
 **** Fit       0.026830
 **** Fit       0.021145
 **** Fit       0.012852
 **** Fit       0.002281
 **** Fit      -0.010221
 **** Fit       0.022781
 **** Fit       0.024368
 **** Fit       0.024549
 **** Fit       0.022348
 **** Fit       0.017369
 **** Fit       0.009807
 **** Fit       0.000223
 **** Fit      -0.010404
 **** Fit      -0.020144
 **** Fit       0.018061
 **** Fit       0.019414
 **** Fit       0.019599
 **** Fit       0.017542
 **** Fit       0.012677
 **** Fit       0.005314
 **** Fit      -0.003388
 **** Fit      -0.011387
 **** Fit       0.014048
 **** Fit       0.014747
 **** Fit       0.012612
 **** Fit       0.007114
 **** Fit      -0.000386
 **** Fit      -0.006752
 **** Fit       0.011326
 **** Fit       0.009254
 **** Fit       0.008077
 **** Fit       0.001993
 **** Fit      -0.002363
 **** Fit       0.005208
 **** Fit       0.003796
 **** Fit      -0.004132
 **** Fit      -0.004817
 **** Fit      -0.005917
 **** Fit      -0.007837
 **** Fit      -0.003018
 **** Fit      -0.003089
 **** Fit      -0.003510
 **** Fit      -0.004245
 **** Fit      -0.005229
 **** Fit      -0.006428
 **** Fit      -0.008338
 **** Fit      -0.010060
 **** Fit      -0.012005
 **** Fit      -0.002493
 **** Fit      -0.002137
 **** Fit      -0.002051
 **** Fit      -0.002280
 **** Fit      -0.002823
 **** Fit      -0.003612
 **** Fit      -0.004567
 **** Fit      -0.005650
 **** Fit      -0.006885
 **** Fit      -0.008805
 **** Fit      -0.010507
 **** Fit      -0.012568
 **** Fit      -0.014937
 **** Fit      -0.002043
 **** Fit      -0.001500
 **** Fit      -0.001147
 **** Fit      -0.002364
 **** Fit      -0.003251
 **** Fit      -0.004212
 **** Fit      -0.005207
 **** Fit      -0.006253
 **** Fit      -0.007419
 **** Fit      -0.009239
 **** Fit      -0.010982
 **** Fit      -0.013218
 **** Fit      -0.015973
 **** Fit      -0.019179
 **** Fit      -0.001539
 **** Fit      -0.000877
 **** Fit      -0.002687
 **** Fit      -0.003766
 **** Fit      -0.004806
 **** Fit      -0.005796
 **** Fit      -0.006789
 **** Fit      -0.007890
 **** Fit      -0.020384
 **** Fit      -0.024753
 **** Fit      -0.029579
 **** Fit      -0.003484
 **** Fit      -0.004647
 **** Fit      -0.005670
 **** Fit      -0.006575
 **** Fit      -0.026827
 **** Fit      -0.004558
 **** Fit      -0.005760
 **** Fit      -0.006727
 **** Fit      -0.006152
 **** Fit      -0.007311
 **** Fit      -0.008190
 **** Fit      -0.009310
 **** Fit      -0.010704
 **** Fit      -0.011912
 **** Fit      -0.014404
 **** Fit      -0.015682
 **** Fit      -0.017470
 **** Fit      -0.019897
 **** Fit      -0.021178
 **** Fit      -0.009815
 **** Fit      -0.011692
 **** Fit      -0.009918
 **** Fit      -0.011616
 **** Fit      -0.013961
 **** Fit      -0.017060
 **** Fit      -0.007770
 **** Fit      -0.008697
 **** Fit      -0.010181
 **** Fit      -0.011735
 **** Fit      -0.013952
 **** Fit      -0.017033
 **** Fit      -0.021161
 **** Fit      -0.007650
 **** Fit      -0.008310
 **** Fit      -0.009097
 **** Fit      -0.010702
 **** Fit      -0.012082
 **** Fit      -0.014089
 **** Fit      -0.016943
 **** Fit      -0.020921
 **** Fit      -0.026343
 **** Fit      -0.008135
 **** Fit      -0.008632
 **** Fit      -0.009129
 **** Fit      -0.009770
 **** Fit      -0.011589
 **** Fit      -0.012875
 **** Fit      -0.014818
 **** Fit      -0.017663
 **** Fit      -0.021758
 **** Fit      -0.027597
 **** Fit      -0.009130
 **** Fit      -0.009607
 **** Fit      -0.009934
 **** Fit      -0.010272
 **** Fit      -0.010774
 **** Fit      -0.012958
 **** Fit      -0.014118
 **** Fit      -0.015943
 **** Fit      -0.018672
 **** Fit      -0.022663
 **** Fit      -0.028477
 **** Fit      -0.011465
 **** Fit      -0.011704
 **** Fit      -0.011809
 **** Fit      -0.011952
 **** Fit      -0.012286
 **** Fit      -0.014946
 **** Fit      -0.015992
 **** Fit      -0.017743
 **** Fit      -0.020430
 **** Fit      -0.024408
 **** Fit      -0.030268
 **** Fit      -0.014707
 **** Fit      -0.014634
 **** Fit      -0.014439
 **** Fit      -0.014318
 **** Fit      -0.014437
 **** Fit      -0.017709
 **** Fit      -0.018674
 **** Fit      -0.020484
 **** Fit      -0.023375
 **** Fit      -0.027725
 **** Fit      -0.019413
 **** Fit      -0.018874
 **** Fit      -0.018191
 **** Fit      -0.017633
 **** Fit      -0.017415
 **** Fit      -0.021421
 **** Fit      -0.022277
 **** Fit      -0.024215
 **** Fit      -0.027452
 **** Fit      -0.032345
 **** Fit      -0.025190
 **** Fit      -0.023615
 **** Fit      -0.022280
 **** Fit      -0.021478
 **** Fit      -0.026250
 **** Fit      -0.026876
 **** Fit      -0.028891
 **** Fit      -0.032407
 **** Fit      -0.037577
 **** Fit      -0.028680
 **** Fit      -0.026902
 **** Fit      -0.032289
 **** Fit      -0.032530
 **** Fit      -0.034797
 **** Fit      -0.038741
 **** Fit      -0.006721
 **** Fit      -0.007414
 **** Fit      -0.008388
 **** Fit      -0.007695
 **** Fit      -0.006115
 **** Fit      -0.005424
 **** Fit      -0.006024
 **** Fit      -0.008200
 **** Fit      -0.009646
 **** Fit      -0.010540
 **** Fit      -0.010370
 **** Fit      -0.009076
 **** Fit      -0.007214
 **** Fit      -0.005596
 **** Fit      -0.004664
 **** Fit      -0.004407
 **** Fit      -0.004712
 **** Fit      -0.005505
 **** Fit      -0.006717
 **** Fit      -0.009087
 **** Fit      -0.010753
 **** Fit      -0.012287
 **** Fit      -0.013339
 **** Fit      -0.013544
 **** Fit      -0.012733
 **** Fit      -0.011060
 **** Fit      -0.008901
 **** Fit      -0.006784
 **** Fit      -0.005189
 **** Fit      -0.004201
 **** Fit      -0.003703
 **** Fit      -0.003591
 **** Fit      -0.003795
 **** Fit      -0.004292
 **** Fit      -0.005084
 **** Fit      -0.006167
 **** Fit      -0.007519
 **** Fit      -0.010073
 **** Fit      -0.012012
 **** Fit      -0.014021
 **** Fit      -0.015862
 **** Fit      -0.017187
 **** Fit      -0.017636
 **** Fit      -0.017012
 **** Fit      -0.015410
 **** Fit      -0.013126
 **** Fit      -0.010433
 **** Fit      -0.007781
 **** Fit      -0.005745
 **** Fit      -0.004401
 **** Fit      -0.003545
 **** Fit      -0.003073
 **** Fit      -0.002909
 **** Fit      -0.002976
 **** Fit      -0.015979
 **** Fit      -0.018588
 **** Fit      -0.020956
 **** Fit      -0.022660
 **** Fit      -0.023280
 **** Fit      -0.022605
 **** Fit      -0.020783
 **** Fit      -0.004568
 **** Fit      -0.003446
 **** Fit      -0.002754
 **** Fit      -0.002416
 **** Fit      -0.021442
 **** Fit      -0.024936
 **** Fit      -0.028102
 **** Fit      -0.030394
 **** Fit      -0.030614
 **** Fit      -0.028566
 **** Fit      -0.001076
 **** Fit      -0.001270
 **** Fit      -0.000266
 **** Fit       0.000042
 **** Fit      -0.000105
 **** Fit      -0.000663
 **** Fit      -0.001542
 **** Fit      -0.000024
 **** Fit       0.000700
 **** Fit       0.001035
 **** Fit       0.001005
 **** Fit       0.000622
 **** Fit      -0.000086
 **** Fit      -0.001053
 **** Fit      -0.002177
 **** Fit       0.000458
 **** Fit       0.001300
 **** Fit       0.001794
 **** Fit       0.001966
 **** Fit       0.001816
 **** Fit       0.001337
 **** Fit       0.000541
 **** Fit      -0.000520
 **** Fit      -0.001754
 **** Fit      -0.003045
 **** Fit       0.001606
 **** Fit       0.002277
 **** Fit       0.002648
 **** Fit       0.002725
 **** Fit       0.002493
 **** Fit       0.001932
 **** Fit       0.001048
 **** Fit      -0.000115
 **** Fit      -0.001475
 **** Fit      -0.002922
 **** Fit       0.002553
 **** Fit       0.003113
 **** Fit       0.003357
 **** Fit       0.003266
 **** Fit       0.002803
 **** Fit       0.001947
 **** Fit       0.000723
 **** Fit      -0.000799
 **** Fit      -0.002501
 **** Fit      -0.004241
 **** Fit       0.002482
 **** Fit       0.003273
 **** Fit       0.003744
 **** Fit       0.003864
 **** Fit       0.003567
 **** Fit       0.002803
 **** Fit       0.001566
 **** Fit      -0.000088
 **** Fit      -0.002047
 **** Fit      -0.004154
 **** Fit      -0.006229
 **** Fit       0.002615
 **** Fit       0.003521
 **** Fit       0.004101
 **** Fit       0.004231
 **** Fit       0.003802
 **** Fit       0.002753
 **** Fit       0.001089
 **** Fit      -0.001099
 **** Fit      -0.003644
 **** Fit      -0.006323
 **** Fit      -0.008893
 **** Fit       0.002588
 **** Fit       0.003794
 **** Fit       0.004430
 **** Fit       0.004292
 **** Fit       0.003242
 **** Fit       0.001248
 **** Fit      -0.001584
 **** Fit      -0.005003
 **** Fit      -0.008657
 **** Fit      -0.012153
 **** Fit       0.003563
 **** Fit       0.004501
 **** Fit       0.004081
 **** Fit       0.002107
 **** Fit      -0.001384
 **** Fit      -0.006043
 **** Fit      -0.011276
 **** Fit      -0.016376
 **** Fit      -0.004563
 **** Fit      -0.008001
 **** Fit       0.001980
 **** Fit      -0.002810
 **** Fit      -0.001600
 **** Fit       0.010086
 **** Fit       0.018448
 **** Fit       0.021124
 **** Fit       0.015310
 **** Fit       0.007004
 **** Fit       0.001409
 **** Fit      -0.005078
 **** Fit      -0.002293
 **** Fit       0.007548
 **** Fit       0.013524
 **** Fit       0.010445
 **** Fit       0.004774
 **** Fit       0.016858
 **** Fit       0.018791
 **** Fit       0.021817
 **** Fit       0.025924
 **** Fit       0.038238
 **** Fit       0.038243
 **** Fit       0.020765
 **** Fit       0.022507
 **** Fit       0.025687
 **** Fit       0.029544
 **** Fit       0.032764
 **** Fit       0.034666
 **** Fit       0.035897
 **** Fit       0.037123
 **** Fit       0.038333
 **** Fit       0.024565
 **** Fit       0.026641
 **** Fit       0.029766
 **** Fit       0.032463
 **** Fit       0.034485
 **** Fit       0.036103
 **** Fit       0.028560
 **** Fit       0.031389
 **** Fit       0.023539
 **** Fit       0.027065
 **** Fit       0.028504
 **** Fit       0.026877
 **** Fit       0.028409
 **** Fit       0.029985
 **** Fit       0.031802
 **** Fit       0.028230
 **** Fit       0.028161
 **** Fit       0.028986
 **** Fit       0.030298
 **** Fit       0.031867
 **** Fit       0.033682
 **** Fit       0.035904
 **** Fit       0.038087
 **** Fit       0.034484
 **** Fit       0.032302
 **** Fit       0.031329
 **** Fit       0.031370
 **** Fit       0.032142
 **** Fit       0.033391
 **** Fit       0.034986
 **** Fit       0.036931
 **** Fit       0.039324
 **** Fit       0.038761
 **** Fit       0.035866
 **** Fit       0.034293
 **** Fit       0.033812
 **** Fit       0.034199
 **** Fit       0.035222
 **** Fit       0.036723
 **** Fit       0.038655
 **** Fit       0.041055
 **** Fit       0.038723
 **** Fit       0.036773
 **** Fit       0.035869
 **** Fit       0.035889
 **** Fit       0.036659
 **** Fit       0.038021
 **** Fit       0.039898
 **** Fit       0.042310
 **** Fit       0.039069
 **** Fit       0.037762
 **** Fit       0.037181
 **** Fit       0.037464
 **** Fit       0.038526
 **** Fit       0.040256
 **** Fit       0.038322
 **** Fit       0.038028
 **** Fit       0.038430
 **** Fit       0.039783
 **** Fit       0.040223
 **** Fit       0.002650
 **** Fit       0.003870
 **** Fit       0.006175
 **** Fit       0.009843
 **** Fit       0.040591
 **** Fit       0.038281
 **** Fit       0.035454
 **** Fit       0.009074
 **** Fit       0.009783
 **** Fit       0.011161
 **** Fit       0.013539
 **** Fit       0.016813
 **** Fit       0.039565
 **** Fit       0.038254
 **** Fit       0.036251
 **** Fit       0.033416
 **** Fit       0.029313
 **** Fit       0.023614
 **** Fit       0.016192
 **** Fit       0.015032
 **** Fit       0.014994
 **** Fit       0.015840
 **** Fit       0.017689
 **** Fit       0.020455
 **** Fit       0.023790
 **** Fit       0.036447
 **** Fit       0.036134
 **** Fit       0.034719
 **** Fit       0.032209
 **** Fit       0.028471
 **** Fit       0.023726
 **** Fit       0.019149
 **** Fit       0.021101
 **** Fit       0.019741
 **** Fit       0.020083
 **** Fit       0.021940
 **** Fit       0.024937
 **** Fit       0.028351
 **** Fit       0.031322
 **** Fit       0.033089
 **** Fit       0.033194
 **** Fit       0.031553
 **** Fit       0.028327
 **** Fit       0.024293
 **** Fit       0.024560
 **** Fit       0.023803
 **** Fit       0.026126
 **** Fit       0.029288
 **** Fit       0.030241
 **** Fit       0.027897
 **** Fit       0.027149
 -----------------------------------------------------------------
 Leave Link  602 at Mon Sep 16 17:05:08 2019, MaxMem=  4294967296 cpu:       158.3

 Test job not archived.
 1\1\GINC-N005\SP\RB3LYP\SVP\C54H83Ca1N15O23\PCIEPLAK\16-Sep-2019\0\\#m
 axdisk=50GB #B3LYP/SVP Density=Current scf=(tight) #IOP(5/87=12)Pop=(M
 K,readradii) iop(6/33=2) iop(6/42=6)\\SOL molecule\\0,1\C,0,76.85,55.2
 4,15.95\C,0,76.9,53.89,15.24\O,0,77.97,53.51,14.75\H,0,75.818,55.587,1
 5.997\H,0,77.244,55.134,16.961\H,0,77.451,55.963,15.399\N,0,75.86,53.0
 6,15.14\C,0,75.81,51.84,14.36\C,0,75.7,52.19,12.88\O,0,74.71,52.8,12.4
 6\C,0,74.62,51.04,14.89\C,0,74.58,49.61,14.37\O,0,73.62,48.91,14.78\O,
 0,75.34,49.24,13.45\H,0,75.02,53.44,15.56\H,0,76.72,51.27,14.49\H,0,73
 .68,51.45,14.55\H,0,74.69,50.94,15.98\N,0,76.67,51.84,12.04\C,0,76.79,
 52.31,10.67\C,0,75.98,51.4,9.75\O,0,75.53,51.8,8.68\C,0,78.26,52.53,10
 .33\C,0,78.37,53.52,9.18\C,0,79.85,53.73,8.87\C,0,80.04,54.44,7.53\N,0
 ,81.48,54.5,7.26\H,0,77.49,51.35,12.37\H,0,76.38,53.31,10.54\H,0,78.61
 ,51.56,9.98\H,0,78.7,52.9,11.26\H,0,78.01,54.51,9.47\H,0,77.88,53.17,8
 .28\H,0,80.25,52.72,8.82\H,0,80.35,54.3,9.66\H,0,79.7,55.47,7.62\H,0,7
 9.45,53.89,6.79\H,0,81.89,55.14,7.92\H,0,81.97,53.61,7.29\H,0,81.63,54
 .9,6.34\N,0,75.76,50.13,10.12\C,0,75.06,49.12,9.35\C,0,73.7,48.8,9.94\
 O,0,72.86,48.28,9.2\C,0,76.04,47.94,9.35\C,0,76.5,47.45,10.71\O,0,77.5
 3,47.89,11.28\O,0,75.75,46.71,11.37\H,0,76.19,49.76,10.95\H,0,74.8,49.
 53,8.38\H,0,76.86,48.26,8.7\H,0,75.46,47.17,8.85\N,0,73.49,48.99,11.24
 \C,0,72.18,49.18,11.82\C,0,71.55,47.82,12.14\O,0,70.53,47.48,11.54\H,0
 ,74.24,49.32,11.84\H,0,71.62,49.79,11.12\H,0,72.22,49.68,12.79\N,0,72.
 22,47.09,13.02\C,0,71.95,45.72,13.43\C,0,71.56,45.66,14.9\O,0,70.66,44
 .87,15.17\C,0,73.,44.77,12.88\C,0,74.35,44.95,13.56\N,0,75.16,43.89,13
 .58\O,0,74.7,45.93,14.22\H,0,73.06,47.48,13.43\H,0,71.01,45.58,12.89\H
 ,0,73.06,44.8,11.79\H,0,72.62,43.79,13.14\H,0,74.94,43.15,12.93\H,0,76
 .07,43.93,14.\N,0,72.04,46.61,15.7\C,0,71.91,46.88,17.12\C,0,73.11,46.
 56,17.99\O,0,72.97,46.19,19.16\H,0,72.48,47.35,15.17\H,0,70.98,46.51,1
 7.56\H,0,71.81,47.95,17.32\N,0,74.31,46.72,17.43\C,0,75.59,46.65,18.1\
 C,0,76.43,47.79,17.56\O,0,76.54,47.91,16.34\C,0,76.27,45.29,17.96\C,0,
 76.01,44.21,18.98\C,0,76.43,44.36,20.31\C,0,75.31,43.06,18.59\C,0,76.1
 7,43.34,21.23\C,0,74.96,42.06,19.5\C,0,75.39,42.23,20.83\O,0,75.01,41.
 34,21.79\H,0,74.34,47.07,16.48\H,0,75.47,46.82,19.17\H,0,77.35,45.44,1
 8.\H,0,76.05,44.82,17.\H,0,76.94,45.24,20.66\H,0,75.08,42.93,17.54\H,0
 ,76.42,43.42,22.28\H,0,74.42,41.15,19.32\H,0,74.4,40.73,21.39\N,0,77.0
 9,48.62,18.37\C,0,78.22,49.43,17.98\C,0,79.5,48.62,18.14\O,0,79.65,47.
 86,19.1\C,0,78.28,50.68,18.85\C,0,76.93,51.31,19.17\C,0,79.12,51.68,18
 .06\C,0,77.05,52.33,20.31\H,0,77.08,48.38,19.35\H,0,78.22,49.72,16.93\
 H,0,78.8,50.44,19.78\H,0,76.29,50.49,19.5\H,0,76.56,51.72,18.23\H,0,80
 .15,51.34,18.13\H,0,78.8,51.94,17.05\H,0,79.16,52.63,18.59\H,0,77.98,5
 2.88,20.45\H,0,76.24,53.06,20.32\H,0,77.,51.76,21.24\N,0,80.47,48.75,1
 7.23\C,0,81.85,48.3,17.27\C,0,82.88,49.38,16.99\O,0,82.52,50.54,16.79\
 C,0,81.97,47.06,16.4\O,0,82.07,47.32,15.01\H,0,80.28,49.25,16.37\H,0,8
 2.03,47.89,18.27\H,0,81.11,46.41,16.55\H,0,82.82,46.51,16.81\H,0,81.17
 ,47.58,14.77\N,0,84.19,49.11,17.06\C,0,85.24,50.1,17.17\C,0,85.44,50.9
 9,15.95\O,0,85.62,52.19,16.16\C,0,86.57,49.5,17.59\H,0,84.36,48.14,17.
 3\H,0,84.92,50.89,17.86\H,0,86.85,48.57,17.09\H,0,87.24,50.34,17.38\H,
 0,86.58,49.44,18.67\N,0,85.44,50.38,14.76\C,0,85.46,51.06,13.48\C,0,84
 .31,52.01,13.17\O,0,84.42,53.08,12.58\C,0,85.59,50.01,12.38\H,0,85.38,
 49.38,14.9\H,0,86.34,51.69,13.4\H,0,84.6,49.6,12.2\H,0,85.93,50.45,11.
 44\H,0,86.3,49.23,12.65\N,0,83.15,51.69,13.76\C,0,81.93,52.46,13.66\C,
 0,81.91,53.65,14.61\O,0,81.55,54.78,14.29\C,0,80.72,51.58,13.95\C,0,80
 .7,50.25,13.2\C,0,79.51,49.35,13.49\O,0,79.75,48.22,13.97\O,0,78.32,49
 .68,13.35\H,0,83.13,50.91,14.4\H,0,81.8,52.86,12.65\H,0,79.86,52.15,13
 .59\H,0,80.5,51.42,15.\H,0,81.56,49.64,13.49\H,0,80.81,50.34,12.11\N,0
 ,82.22,53.4,15.89\C,0,82.48,54.49,16.81\H,0,83.311,55.089,16.438\H,0,8
 1.591,55.116,16.893\H,0,82.734,54.086,17.79\H,0,82.27,52.45,16.22\Ca,0
 ,77.07,47.44,13.67\O,0,78.69,45.83,15.12\H,0,78.6,45.19,15.83\H,0,79.6
 ,45.72,14.82\\Version=ES64L-G09RevD.01\State=1-A\HF=-5333.5822543\RMSD
 =6.592e-09\Dipole=13.5723906,3.5525895,-4.4630649\Quadrupole=-97.15220
 22,32.729174,64.4230281,-14.5619928,-105.6594816,-90.681491\PG=C01 [X(
 C54H83Ca1N15O23)]\\@


 NO HUMAN INVESTIGATION CAN BECOME REAL SCIENCE
 WITHOUT GOING THROUGH MATHEMATICAL PEOPLE.
 -- LEONARDO DA VINCI, IN "PENSIERI" CA. 1492
 Job cpu time:       0 days 13 hours 57 minutes 32.8 seconds.
 File lengths (MBytes):  RWF=   1513 Int=      0 D2E=      0 Chk=    103 Scr=      1
 Normal termination of Gaussian 09 at Mon Sep 16 17:05:08 2019.
