 Entering Gaussian System, Link 0=g16
 Initial command:
 /home1/apps/gaussian/16rA.03/g16/l1.exe "/scratch/01990/pengzhi/4329082/Gau-9457.inp" -scrdir="/scratch/01990/pengzhi/4329082/"
 Entering Link 1 = /home1/apps/gaussian/16rA.03/g16/l1.exe PID=      9458.
  
 Copyright (c) 1988,1990,1992,1993,1995,1998,2003,2009,2016,
            Gaussian, Inc.  All Rights Reserved.
  
 This is part of the Gaussian(R) 16 program.  It is based on
 the Gaussian(R) 09 system (copyright 2009, Gaussian, Inc.),
 the Gaussian(R) 03 system (copyright 2003, Gaussian, Inc.),
 the Gaussian(R) 98 system (copyright 1998, Gaussian, Inc.),
 the Gaussian(R) 94 system (copyright 1995, Gaussian, Inc.),
 the Gaussian 92(TM) system (copyright 1992, Gaussian, Inc.),
 the Gaussian 90(TM) system (copyright 1990, Gaussian, Inc.),
 the Gaussian 88(TM) system (copyright 1988, Gaussian, Inc.),
 the Gaussian 86(TM) system (copyright 1986, Carnegie Mellon
 University), and the Gaussian 82(TM) system (copyright 1983,
 Carnegie Mellon University). Gaussian is a federally registered
 trademark of Gaussian, Inc.
  
 This software contains proprietary and confidential information,
 including trade secrets, belonging to Gaussian, Inc.
  
 This software is provided under written license and may be
 used, copied, transmitted, or stored only in accord with that
 written license.
  
 The following legend is applicable only to US Government
 contracts under FAR:
  
                    RESTRICTED RIGHTS LEGEND
  
 Use, reproduction and disclosure by the US Government is
 subject to restrictions as set forth in subparagraphs (a)
 and (c) of the Commercial Computer Software - Restricted
 Rights clause in FAR 52.227-19.
  
 Gaussian, Inc.
 340 Quinnipiac St., Bldg. 40, Wallingford CT 06492
  
  
 ---------------------------------------------------------------
 Warning -- This program may not be used in any manner that
 competes with the business of Gaussian, Inc. or will provide
 assistance to any competitor of Gaussian, Inc.  The licensee
 of this program is prohibited from giving any competitor of
 Gaussian, Inc. access to this program.  By using this program,
 the user acknowledges that Gaussian, Inc. is engaged in the
 business of creating and licensing software in the field of
 computational chemistry and represents and warrants to the
 licensee that it is not a competitor of Gaussian, Inc. and that
 it will not use this program in any manner prohibited above.
 ---------------------------------------------------------------
  

 Cite this work as:
 Gaussian 16, Revision A.03,
 M. J. Frisch, G. W. Trucks, H. B. Schlegel, G. E. Scuseria, 
 M. A. Robb, J. R. Cheeseman, G. Scalmani, V. Barone, 
 G. A. Petersson, H. Nakatsuji, X. Li, M. Caricato, A. V. Marenich, 
 J. Bloino, B. G. Janesko, R. Gomperts, B. Mennucci, H. P. Hratchian, 
 J. V. Ortiz, A. F. Izmaylov, J. L. Sonnenberg, D. Williams-Young, 
 F. Ding, F. Lipparini, F. Egidi, J. Goings, B. Peng, A. Petrone, 
 T. Henderson, D. Ranasinghe, V. G. Zakrzewski, J. Gao, N. Rega, 
 G. Zheng, W. Liang, M. Hada, M. Ehara, K. Toyota, R. Fukuda, 
 J. Hasegawa, M. Ishida, T. Nakajima, Y. Honda, O. Kitao, H. Nakai, 
 T. Vreven, K. Throssell, J. A. Montgomery, Jr., J. E. Peralta, 
 F. Ogliaro, M. J. Bearpark, J. J. Heyd, E. N. Brothers, K. N. Kudin, 
 V. N. Staroverov, T. A. Keith, R. Kobayashi, J. Normand, 
 K. Raghavachari, A. P. Rendell, J. C. Burant, S. S. Iyengar, 
 J. Tomasi, M. Cossi, J. M. Millam, M. Klene, C. Adamo, R. Cammi, 
 J. W. Ochterski, R. L. Martin, K. Morokuma, O. Farkas, 
 J. B. Foresman, and D. J. Fox, Gaussian, Inc., Wallingford CT, 2016.
 
 ******************************************
 Gaussian 16:  ES64L-G16RevA.03 25-Dec-2016
                15-Sep-2019 
 ******************************************
 %chk=CaMKII_loop3_95.0.chk
 %nprocshared=48
 Will use up to   48 processors via shared memory.
 %mem=10GB
 %nosave
 ----------------------------------------------------------------------
 #b3lyp/svp scf=(tight,noincore) Test #IOP(5/87=12) Density=Current Pop
 =(MK,readradii) iop(6/33=2) iop(6/42=6)
 ----------------------------------------------------------------------
 1/30=1,38=1,172=1/1;
 2/12=2,17=6,18=5,40=1/2;
 3/5=18,7=101,11=2,25=1,30=1,74=-5/1,2,3;
 4//1;
 5/5=4,32=2,38=5,87=12/2;
 6/7=2,8=2,9=2,10=2,15=8,20=101,22=-1,28=1,33=2,42=6/1,2;
 99/5=1,9=1/99;
 -----------------
 CaMKII_loop3_95.0
 -----------------
 Symbolic Z-matrix:
 Charge =  0 Multiplicity = 1
 C                     62.5      44.89     40.74 
 C                     61.86     44.53     42.08 
 O                     62.2      43.47     42.59 
 H                     63.513    44.491    40.703 
 H                     61.911    44.461    39.929 
 H                     62.533    45.974    40.632 
 N                     60.81     45.21     42.54 
 C                     60.19     44.79     43.78 
 C                     59.21     43.65     43.53 
 O                     58.13     43.85     42.98 
 C                     59.54     46.04     44.37 
 C                     58.84     45.66     45.66 
 O                     57.95     46.39     46.15 
 O                     59.17     44.61     46.26 
 H                     60.53     46.11     42.18 
 H                     60.98     44.57     44.5 
 H                     58.8      46.48     43.7 
 H                     60.34     46.75     44.54 
 N                     59.44     42.42     43.99 
 C                     58.89     41.12     43.62 
 C                     57.68     40.66     44.43 
 O                     56.88     39.84     44. 
 C                     59.91     39.99     43.55 
 C                     61.08     40.31     42.63 
 C                     60.71     40.55     41.17 
 C                     61.86     40.54     40.17 
 N                     61.45     40.84     38.79 
 H                     60.28     42.43     44.55 
 H                     58.59     41.16     42.58 
 H                     59.42     39.05     43.31 
 H                     60.34     39.87     44.55 
 H                     61.79     39.48     42.63 
 H                     61.78     40.99     43.12 
 H                     60.28     41.55     41.11 
 H                     59.98     39.79     40.86 
 H                     62.38     39.58     40.17 
 H                     62.64     41.2      40.53 
 H                     62.18     40.76     38.09 
 H                     60.74     40.21     38.44 
 H                     61.28     41.83     38.72 
 N                     57.33     41.33     45.53 
 C                     56.21     41.01     46.39 
 C                     55.4      42.25     46.75 
 O                     54.39     42.07     47.43 
 C                     56.71     40.31     47.65 
 C                     57.63     41.12     48.56 
 O                     57.98     40.65     49.66 
 O                     58.2      42.16     48.18 
 H                     57.95     42.11     45.67 
 H                     55.49     40.39     45.87 
 H                     57.35     39.5      47.3 
 H                     55.82     39.95     48.16 
 N                     55.84     43.41     46.25 
 C                     55.14     44.68     46.25 
 C                     55.15     45.38     47.6 
 O                     54.42     46.33     47.85 
 H                     56.77     43.46     45.85 
 H                     54.12     44.56     45.88 
 H                     55.69     45.31     45.55 
 N                     55.98     44.88     48.51 
 C                     56.16     45.38     49.86 
 C                     56.75     46.78     49.88 
 O                     56.54     47.49     50.86 
 C                     56.96     44.34     50.65 
 C                     58.41     44.77     50.74 
 N                     59.07     44.81     51.9 
 O                     59.07     45.08     49.75 
 H                     56.44     43.99     48.33 
 H                     55.2      45.38     50.38 
 H                     56.93     43.38     50.14 
 H                     56.57     44.25     51.66 
 H                     58.48     44.71     52.71 
 H                     60.03     45.13     51.95 
 N                     57.31     47.23     48.76 
 C                     57.79     48.59     48.58 
 C                     59.3      48.79     48.61 
 O                     59.66     49.95     48.37 
 H                     57.19     46.66     47.93 
 H                     57.51     49.15     49.47 
 H                     57.33     49.07     47.72 
 N                     60.13     47.75     48.7 
 C                     61.56     47.92     48.49 
 C                     62.2      46.65     47.96 
 O                     61.6      45.58     47.89 
 C                     62.34     48.44     49.69 
 C                     62.19     47.52     50.88 
 C                     61.44     47.98     51.97 
 C                     62.85     46.29     50.96 
 C                     61.21     47.15     53.08 
 C                     62.73     45.5      52.11 
 C                     61.91     45.93     53.17 
 O                     61.59     45.04     54.15 
 H                     59.81     46.84     48.97 
 H                     61.69     48.67     47.71 
 H                     61.97     49.45     49.9 
 H                     63.41     48.6      49.59 
 H                     60.83     48.87     51.89 
 H                     63.54     45.96     50.2 
 H                     60.44     47.35     53.8 
 H                     63.2      44.53     52.13 
 H                     62.29     44.39     54.27 
 N                     63.41     46.9      47.43 
 C                     64.13     45.98     46.57 
 C                     65.32     45.45     47.35 
 O                     66.11     46.21     47.9 
 C                     64.6      46.69     45.31 
 C                     63.59     47.62     44.65 
 C                     65.17     45.66     44.34 
 C                     64.24     48.7      43.79 
 H                     63.74     47.85     47.44 
 H                     63.56     45.12     46.22 
 H                     65.46     47.31     45.59 
 H                     62.98     48.12     45.4 
 H                     62.81     47.08     44.11 
 H                     66.1      45.24     44.73 
 H                     64.38     44.95     44.08 
 H                     65.53     46.17     43.45 
 H                     64.8      48.2      43. 
 H                     63.53     49.44     43.43 
 H                     64.88     49.27     44.48 
 N                     65.42     44.12     47.37 
 C                     66.42     43.43     48.16 
 C                     67.4      42.67     47.29 
 O                     67.21     42.56     46.08 
 C                     65.72     42.6      49.23 
 O                     65.17     41.47     48.59 
 H                     64.87     43.52     46.76 
 H                     67.03     44.1      48.76 
 H                     64.84     43.15     49.57 
 H                     66.35     42.36     50.09 
 H                     64.36     41.82     48.22 
 N                     68.52     42.21     47.85 
 C                     69.53     41.46     47.14 
 C                     69.03     40.22     46.4 
 O                     69.38     40.02     45.24 
 C                     70.64     41.09     48.11 
 H                     68.67     42.32     48.84 
 H                     69.94     42.08     46.34 
 H                     71.26     40.31     47.67 
 H                     71.22     41.98     48.36 
 H                     70.14     40.74     49.01 
 N                     68.16     39.47     47.08 
 C                     67.39     38.39     46.49 
 C                     66.57     38.79     45.28 
 O                     66.45     38.       44.34 
 C                     66.42     38.05     47.63 
 H                     67.91     39.71     48.03 
 H                     68.02     37.53     46.28 
 H                     66.03     38.94     48.11 
 H                     65.68     37.39     47.19 
 H                     66.93     37.4      48.34 
 N                     66.07     40.03     45.23 
 C                     65.27     40.45     44.1 
 C                     66.12     41.02     42.98 
 O                     65.77     40.88     41.81 
 C                     64.28     41.54     44.5 
 C                     63.29     41.02     45.54 
 C                     62.52     42.16     46.2 
 O                     61.4      42.6      45.85 
 O                     63.       42.61     47.26 
 H                     66.09     40.62     46.05 
 H                     64.65     39.63     43.73 
 H                     63.72     41.71     43.58 
 H                     64.85     42.41     44.83 
 H                     63.83     40.57     46.37 
 H                     62.68     40.28     45.01 
 N                     67.26     41.64     43.26 
 C                     68.24     42.13     42.31 
 H                     69.173    41.582    42.436 
 H                     67.868    41.984    41.296 
 H                     68.416    43.191    42.484 
 H                     67.46     41.72     44.25 
 Ca                    60.45     43.3      48.06 
 O                     60.82     41.99     50.45 
 H                     61.39     41.22     50.5 
 H                     60.15     41.83     51.12 
 
 Stoichiometry    C54H83CaN15O23
 Framework group  C1[X(C54H83CaN15O23)]
 Deg. of freedom   522
 Full point group                 C1      NOp   1
 Largest Abelian subgroup         C1      NOp   1
 Largest concise Abelian subgroup C1      NOp   1
                         Standard orientation:                         
 ---------------------------------------------------------------------
 Center     Atomic      Atomic             Coordinates (Angstroms)
 Number     Number       Type             X           Y           Z
 ---------------------------------------------------------------------
      1          6           0        2.231400    3.520935    4.484946
      2          6           0        1.360029    2.990395    3.347387
      3          8           0        1.888189    2.883128    2.247915
      4          1           0        3.262210    3.204334    4.330239
      5          1           0        2.184665    4.610082    4.500969
      6          1           0        1.869662    3.127042    5.434579
      7          7           0        0.038644    2.889067    3.489424
      8          6           0       -0.757012    2.448909    2.361775
      9          6           0       -1.052051    3.615172    1.426209
     10          8           0       -1.855475    4.490946    1.736741
     11          6           0       -2.009076    1.806280    2.955461
     12          6           0       -2.905992    1.352160    1.820641
     13          8           0       -4.121716    1.126104    2.010415
     14          8           0       -2.421822    1.178101    0.677539
     15          1           0       -0.428021    2.920877    4.383411
     16          1           0       -0.251620    1.600740    1.896923
     17          1           0       -2.576315    2.498532    3.579261
     18          1           0       -1.669250    0.973117    3.558253
     19          7           0       -0.532731    3.673074    0.199688
     20          6           0       -0.357342    4.779355   -0.735609
     21          6           0       -1.487611    4.978078   -1.742983
     22          8           0       -1.692892    6.053124   -2.290189
     23          6           0        0.979357    4.793085   -1.467215
     24          6           0        2.169443    4.756476   -0.518503
     25          6           0        2.272336    5.939514    0.438541
     26          6           0        3.603663    6.112680    1.159777
     27          7           0        3.620864    7.230496    2.115126
     28          1           0       -0.019510    2.822560    0.019324
     29          1           0       -0.263337    5.695896   -0.166122
     30          1           0        1.018117    5.619074   -2.172580
     31          1           0        1.041356    3.874578   -2.060345
     32          1           0        3.099941    4.747782   -1.090427
     33          1           0        2.323979    3.746189   -0.133873
     34          1           0        1.533638    5.779589    1.224193
     35          1           0        2.060773    6.863563   -0.116415
     36          1           0        4.424061    6.255192    0.453634
     37          1           0        3.879616    5.168015    1.612611
     38          1           0        4.517886    7.420567    2.549319
     39          1           0        3.389028    8.119505    1.691553
     40          1           0        3.110459    6.950618    2.936744
     41          7           0       -2.434846    4.045491   -1.863092
     42          6           0       -3.561428    4.101860   -2.770857
     43          6           0       -4.864816    3.717334   -2.080482
     44          8           0       -5.890089    3.794050   -2.757113
     45          6           0       -3.302317    3.197757   -3.972130
     46          6           0       -3.159441    1.705465   -3.683597
     47          8           0       -3.062380    0.900322   -4.630024
     48          8           0       -2.952340    1.262564   -2.538238
     49          1           0       -2.265008    3.296448   -1.213099
     50          1           0       -3.746104    5.119451   -3.092731
     51          1           0       -2.316463    3.479067   -4.342477
     52          1           0       -4.095055    3.417542   -4.682806
     53          7           0       -4.773405    3.379716   -0.789413
     54          6           0       -5.868987    3.197306    0.142965
     55          6           0       -6.609920    1.881826   -0.039054
     56          8           0       -7.692391    1.662053    0.488068
     57          1           0       -3.862962    3.188085   -0.387206
     58          1           0       -6.558314    4.042730    0.100707
     59          1           0       -5.404945    3.178351    1.129730
     60          7           0       -6.026705    0.989011   -0.832616
     61          6           0       -6.544343   -0.328014   -1.152609
     62          6           0       -6.602503   -1.233835    0.065836
     63          8           0       -7.404534   -2.164075    0.066184
     64          6           0       -5.731514   -0.887141   -2.324097
     65          6           0       -4.701078   -1.871040   -1.808691
     66          7           0       -4.562930   -3.093927   -2.326631
     67          8           0       -3.915697   -1.592493   -0.904595
     68          1           0       -5.221781    1.267576   -1.389930
     69          1           0       -7.542062   -0.232501   -1.585545
     70          1           0       -5.199487   -0.082808   -2.826686
     71          1           0       -6.381359   -1.410497   -3.019871
     72          1           0       -5.308593   -3.361463   -2.948412
     73          1           0       -3.891279   -3.753063   -1.951230
     74          7           0       -5.911715   -0.866143    1.141994
     75          6           0       -5.977412   -1.549045    2.423293
     76          6           0       -4.784244   -2.421001    2.793485
     77          8           0       -4.851935   -2.913471    3.927369
     78          1           0       -5.497800    0.059340    1.123112
     79          1           0       -6.748174   -2.312776    2.341196
     80          1           0       -6.255991   -0.872758    3.227426
     81          7           0       -3.700527   -2.469316    2.017713
     82          6           0       -2.479336   -3.107720    2.485723
     83          6           0       -1.248911   -2.496656    1.840700
     84          8           0       -1.311899   -1.687728    0.917950
     85          6           0       -2.442642   -4.624400    2.354814
     86          6           0       -2.624307   -5.053643    0.916848
     87          6           0       -3.824951   -5.687315    0.571718
     88          6           0       -1.606528   -4.928000   -0.033541
     89          6           0       -4.082026   -6.053975   -0.759963
     90          6           0       -1.799972   -5.397347   -1.338643
     91          6           0       -3.037721   -5.960335   -1.701854
     92          8           0       -3.301997   -6.158351   -3.023159
     93          1           0       -3.708001   -2.125354    1.076950
     94          1           0       -2.391333   -2.904558    3.552859
     95          1           0       -3.228977   -5.021833    3.006600
     96          1           0       -1.561852   -5.158886    2.699826
     97          1           0       -4.666133   -5.694527    1.252130
     98          1           0       -0.623823   -4.566877    0.224301
     99          1           0       -5.067375   -6.289551   -1.113362
    100          1           0       -1.025111   -5.240310   -2.071534
    101          1           0       -2.493070   -6.328260   -3.516788
    102          7           0       -0.133961   -2.816990    2.520238
    103          6           0        1.142034   -2.146458    2.357073
    104          6           0        2.088441   -3.111250    1.665055
    105          8           0        2.266829   -4.246036    2.094754
    106          6           0        1.702889   -1.737910    3.710266
    107          6           0        0.709506   -1.123591    4.688224
    108          6           0        2.933434   -0.862231    3.496612
    109          6           0        1.137058   -1.263235    6.146373
    110          1           0       -0.231936   -3.393332    3.338609
    111          1           0        1.119847   -1.231114    1.766605
    112          1           0        2.090620   -2.646069    4.187039
    113          1           0       -0.268805   -1.589599    4.586522
    114          1           0        0.449319   -0.094405    4.433904
    115          1           0        3.752331   -1.448776    3.073797
    116          1           0        2.633654    0.033495    2.945609
    117          1           0        3.350040   -0.591435    4.463519
    118          1           0        2.086923   -0.741843    6.263023
    119          1           0        0.368273   -0.945969    6.846096
    120          1           0        1.213909   -2.346908    6.320576
    121          7           0        2.691044   -2.614586    0.583624
    122          6           0        3.535680   -3.423003   -0.272678
    123          6           0        4.972905   -2.944303   -0.261184
    124          8           0        5.279116   -1.892312    0.297252
    125          6           0        2.893413   -3.521539   -1.651657
    126          8           0        3.096395   -2.284248   -2.297342
    127          1           0        2.674428   -1.623931    0.353568
    128          1           0        3.579152   -4.466132    0.028970
    129          1           0        1.809779   -3.563837   -1.523410
    130          1           0        3.221711   -4.385411   -2.234793
    131          1           0        2.400028   -1.743918   -1.925030
    132          7           0        5.909367   -3.737919   -0.783497
    133          6           0        7.312036   -3.398874   -0.848832
    134          6           0        7.635939   -2.065255   -1.520954
    135          8           0        8.418798   -1.286305   -0.983860
    136          6           0        8.060763   -4.533568   -1.528374
    137          1           0        5.646308   -4.604332   -1.224891
    138          1           0        7.696165   -3.267543    0.164922
    139          1           0        9.049346   -4.187183   -1.826903
    140          1           0        8.114667   -5.391518   -0.856052
    141          1           0        7.458617   -4.808616   -2.391084
    142          7           0        6.954443   -1.818447   -2.641868
    143          6           0        6.933304   -0.528433   -3.307314
    144          6           0        6.503206    0.627031   -2.426168
    145          8           0        7.042473    1.728191   -2.563050
    146          6           0        5.843859   -0.749989   -4.365673
    147          1           0        6.314365   -2.507159   -3.014126
    148          1           0        7.881308   -0.326119   -3.798189
    149          1           0        4.993219   -1.289442   -3.965671
    150          1           0        5.629928    0.234530   -4.767862
    151          1           0        6.284559   -1.267007   -5.217245
    152          7           0        5.606867    0.393572   -1.460676
    153          6           0        5.157820    1.470334   -0.604966
    154          6           0        6.047593    1.640396    0.612073
    155          8           0        6.215713    2.756057    1.099962
    156          6           0        3.746692    1.210347   -0.086003
    157          6           0        2.746325    1.150172   -1.238282
    158          6           0        1.411188    0.562234   -0.791250
    159          8           0        0.408993    1.206505   -0.402635
    160          8           0        1.269760   -0.667689   -0.945475
    161          1           0        5.103629   -0.482200   -1.434709
    162          1           0        5.084395    2.409120   -1.159032
    163          1           0        3.526501    2.113445    0.483935
    164          1           0        3.771946    0.305803    0.523804
    165          1           0        3.091539    0.443222   -1.989314
    166          1           0        2.705927    2.170298   -1.636165
    167          7           0        6.673154    0.590411    1.130344
    168          6           0        7.645308    0.600705    2.206359
    169          1           0        8.609802    0.265141    1.827125
    170          1           0        7.742418    1.612823    2.598896
    171          1           0        7.315244   -0.067801    3.000796
    172          1           0        6.464399   -0.288644    0.671885
    173         20           0       -1.448857   -0.268950   -1.207635
    174          8           0       -1.455681   -1.698414   -3.557462
    175          1           0       -0.685296   -1.699136   -4.129132
    176          1           0       -2.196544   -1.794857   -4.161797
 ---------------------------------------------------------------------
 Rotational constants (GHZ):           0.0249869           0.0159696           0.0131787
 Standard basis: SVP (5D, 7F)
 There are  1809 symmetry adapted cartesian basis functions of A   symmetry.
 There are  1717 symmetry adapted basis functions of A   symmetry.
  1717 basis functions,  2922 primitive gaussians,  1809 cartesian basis functions
   358 alpha electrons      358 beta electrons
       nuclear repulsion energy     22171.3959264138 Hartrees.
 NAtoms=  176 NActive=  176 NUniq=  176 SFac= 1.00D+00 NAtFMM=   60 NAOKFM=T Big=T
 Integral buffers will be    131072 words long.
 Raffenetti 2 integral format.
 Two-electron integral symmetry is turned on.
 One-electron integrals computed using PRISM.
 NBasis=  1717 RedAO= T EigKep=  2.89D-04  NBF=  1717
 NBsUse=  1717 1.00D-06 EigRej= -1.00D+00 NBFU=  1717
 ExpMin= 1.98D-02 ExpMax= 3.51D+04 ExpMxC= 5.28D+03 IAcc=3 IRadAn=         5 AccDes= 0.00D+00
 Harris functional with IExCor=  402 and IRadAn=       5 diagonalized for initial guess.
 HarFok:  IExCor=  402 AccDes= 0.00D+00 IRadAn=         5 IDoV= 1 UseB2=F ITyADJ=14
 ICtDFT=  3500011 ScaDFX=  1.000000  1.000000  1.000000  1.000000
 FoFCou: FMM=F IPFlag=           0 FMFlag=      100000 FMFlg1=        2001
         NFxFlg=           0 DoJE=T BraDBF=F KetDBF=T FulRan=T
         wScrn=  0.000000 ICntrl=       500 IOpCl=  0 I1Cent=   200000004 NGrid=           0
         NMat0=    1 NMatS0=      1 NMatT0=    0 NMatD0=    1 NMtDS0=    0 NMtDT0=    0
 Petite list used in FoFCou.
 Requested convergence on RMS density matrix=1.00D-08 within 128 cycles.
 Requested convergence on MAX density matrix=1.00D-06.
 Requested convergence on             energy=1.00D-06.
 No special actions if energy rises.
 EnCoef did     3 forward-backward iterations
 EnCoef did   100 forward-backward iterations
 SCF Done:  E(RB3LYP) =  -5333.58981902     A.U. after   19 cycles
            NFock= 19  Conv=0.16D-08     -V/T= 2.0081
 SCF density gives NOpUse=  1 NOpAll=  1.
 Hyperfine terms turned off by default for NAtoms > 100.

 **********************************************************************

            Population analysis using the SCF density.

 **********************************************************************

 Orbital symmetries:
 BldTbl:  Degeneracy threshold= 1.00D-02
       Occupied  (A) (A) (A) (A) (A) (A) (A) (A) (A) (A) (A) (A)
                 (A) (A) (A) (A) (A) (A) (A) (A) (A) (A) (A) (A)
                 (A) (A) (A) (A) (A) (A) (A) (A) (A) (A) (A) (A)
                 (A) (A) (A) (A) (A) (A) (A) (A) (A) (A) (A) (A)
                 (A) (A) (A) (A) (A) (A) (A) (A) (A) (A) (A) (A)
                 (A) (A) (A) (A) (A) (A) (A) (A) (A) (A) (A) (A)
                 (A) (A) (A) (A) (A) (A) (A) (A) (A) (A) (A) (A)
                 (A) (A) (A) (A) (A) (A) (A) (A) (A) (A) (A) (A)
                 (A) (A) (A) (A) (A) (A) (A) (A) (A) (A) (A) (A)
                 (A) (A) (A) (A) (A) (A) (A) (A) (A) (A) (A) (A)
                 (A) (A) (A) (A) (A) (A) (A) (A) (A) (A) (A) (A)
                 (A) (A) (A) (A) (A) (A) (A) (A) (A) (A) (A) (A)
                 (A) (A) (A) (A) (A) (A) (A) (A) (A) (A) (A) (A)
                 (A) (A) (A) (A) (A) (A) (A) (A) (A) (A) (A) (A)
                 (A) (A) (A) (A) (A) (A) (A) (A) (A) (A) (A) (A)
                 (A) (A) (A) (A) (A) (A) (A) (A) (A) (A) (A) (A)
                 (A) (A) (A) (A) (A) (A) (A) (A) (A) (A) (A) (A)
                 (A) (A) (A) (A) (A) (A) (A) (A) (A) (A) (A) (A)
                 (A) (A) (A) (A) (A) (A) (A) (A) (A) (A) (A) (A)
                 (A) (A) (A) (A) (A) (A) (A) (A) (A) (A) (A) (A)
                 (A) (A) (A) (A) (A) (A) (A) (A) (A) (A) (A) (A)
                 (A) (A) (A) (A) (A) (A) (A) (A) (A) (A) (A) (A)
                 (A) (A) (A) (A) (A) (A) (A) (A) (A) (A) (A) (A)
                 (A) (A) (A) (A) (A) (A) (A) (A) (A) (A) (A) (A)
                 (A) (A) (A) (A) (A) (A) (A) (A) (A) (A) (A) (A)
                 (A) (A) (A) (A) (A) (A) (A) (A) (A) (A) (A) (A)
                 (A) (A) (A) (A) (A) (A) (A) (A) (A) (A) (A) (A)
                 (A) (A) (A) (A) (A) (A) (A) (A) (A) (A) (A) (A)
                 (A) (A) (A) (A) (A) (A) (A) (A) (A) (A) (A) (A)
                 (A) (A) (A) (A) (A) (A) (A) (A) (A) (A)
       Virtual   (A) (A) (A) (A) (A) (A) (A) (A) (A) (A) (A) (A)
                 (A) (A) (A) (A) (A) (A) (A) (A) (A) (A) (A) (A)
                 (A) (A) (A) (A) (A) (A) (A) (A) (A) (A) (A) (A)
                 (A) (A) (A) (A) (A) (A) (A) (A) (A) (A) (A) (A)
                 (A) (A) (A) (A) (A) (A) (A) (A) (A) (A) (A) (A)
                 (A) (A) (A) (A) (A) (A) (A) (A) (A) (A) (A) (A)
                 (A) (A) (A) (A) (A) (A) (A) (A) (A) (A) (A) (A)
                 (A) (A) (A) (A) (A) (A) (A) (A) (A) (A) (A) (A)
                 (A) (A) (A) (A) (A) (A) (A) (A) (A) (A) (A) (A)
                 (A) (A) (A) (A) (A) (A) (A) (A) (A) (A) (A) (A)
                 (A) (A) (A) (A) (A) (A) (A) (A) (A) (A) (A) (A)
                 (A) (A) (A) (A) (A) (A) (A) (A) (A) (A) (A) (A)
                 (A) (A) (A) (A) (A) (A) (A) (A) (A) (A) (A) (A)
                 (A) (A) (A) (A) (A) (A) (A) (A) (A) (A) (A) (A)
                 (A) (A) (A) (A) (A) (A) (A) (A) (A) (A) (A) (A)
                 (A) (A) (A) (A) (A) (A) (A) (A) (A) (A) (A) (A)
                 (A) (A) (A) (A) (A) (A) (A) (A) (A) (A) (A) (A)
                 (A) (A) (A) (A) (A) (A) (A) (A) (A) (A) (A) (A)
                 (A) (A) (A) (A) (A) (A) (A) (A) (A) (A) (A) (A)
                 (A) (A) (A) (A) (A) (A) (A) (A) (A) (A) (A) (A)
                 (A) (A) (A) (A) (A) (A) (A) (A) (A) (A) (A) (A)
                 (A) (A) (A) (A) (A) (A) (A) (A) (A) (A) (A) (A)
                 (A) (A) (A) (A) (A) (A) (A) (A) (A) (A) (A) (A)
                 (A) (A) (A) (A) (A) (A) (A) (A) (A) (A) (A) (A)
                 (A) (A) (A) (A) (A) (A) (A) (A) (A) (A) (A) (A)
                 (A) (A) (A) (A) (A) (A) (A) (A) (A) (A) (A) (A)
                 (A) (A) (A) (A) (A) (A) (A) (A) (A) (A) (A) (A)
                 (A) (A) (A) (A) (A) (A) (A) (A) (A) (A) (A) (A)
                 (A) (A) (A) (A) (A) (A) (A) (A) (A) (A) (A) (A)
                 (A) (A) (A) (A) (A) (A) (A) (A) (A) (A) (A) (A)
                 (A) (A) (A) (A) (A) (A) (A) (A) (A) (A) (A) (A)
                 (A) (A) (A) (A) (A) (A) (A) (A) (A) (A) (A) (A)
                 (A) (A) (A) (A) (A) (A) (A) (A) (A) (A) (A) (A)
                 (A) (A) (A) (A) (A) (A) (A) (A) (A) (A) (A) (A)
                 (A) (A) (A) (A) (A) (A) (A) (A) (A) (A) (A) (A)
                 (A) (A) (A) (A) (A) (A) (A) (A) (A) (A) (A) (A)
                 (A) (A) (A) (A) (A) (A) (A) (A) (A) (A) (A) (A)
                 (A) (A) (A) (A) (A) (A) (A) (A) (A) (A) (A) (A)
                 (A) (A) (A) (A) (A) (A) (A) (A) (A) (A) (A) (A)
                 (A) (A) (A) (A) (A) (A) (A) (A) (A) (A) (A) (A)
                 (A) (A) (A) (A) (A) (A) (A) (A) (A) (A) (A) (A)
                 (A) (A) (A) (A) (A) (A) (A) (A) (A) (A) (A) (A)
                 (A) (A) (A) (A) (A) (A) (A) (A) (A) (A) (A) (A)
                 (A) (A) (A) (A) (A) (A) (A) (A) (A) (A) (A) (A)
                 (A) (A) (A) (A) (A) (A) (A) (A) (A) (A) (A) (A)
                 (A) (A) (A) (A) (A) (A) (A) (A) (A) (A) (A) (A)
                 (A) (A) (A) (A) (A) (A) (A) (A) (A) (A) (A) (A)
                 (A) (A) (A) (A) (A) (A) (A) (A) (A) (A) (A) (A)
                 (A) (A) (A) (A) (A) (A) (A) (A) (A) (A) (A) (A)
                 (A) (A) (A) (A) (A) (A) (A) (A) (A) (A) (A) (A)
                 (A) (A) (A) (A) (A) (A) (A) (A) (A) (A) (A) (A)
                 (A) (A) (A) (A) (A) (A) (A) (A) (A) (A) (A) (A)
                 (A) (A) (A) (A) (A) (A) (A) (A) (A) (A) (A) (A)
                 (A) (A) (A) (A) (A) (A) (A) (A) (A) (A) (A) (A)
                 (A) (A) (A) (A) (A) (A) (A) (A) (A) (A) (A) (A)
                 (A) (A) (A) (A) (A) (A) (A) (A) (A) (A) (A) (A)
                 (A) (A) (A) (A) (A) (A) (A) (A) (A) (A) (A) (A)
                 (A) (A) (A) (A) (A) (A) (A) (A) (A) (A) (A) (A)
                 (A) (A) (A) (A) (A) (A) (A) (A) (A) (A) (A) (A)
                 (A) (A) (A) (A) (A) (A) (A) (A) (A) (A) (A) (A)
                 (A) (A) (A) (A) (A) (A) (A) (A) (A) (A) (A) (A)
                 (A) (A) (A) (A) (A) (A) (A) (A) (A) (A) (A) (A)
                 (A) (A) (A) (A) (A) (A) (A) (A) (A) (A) (A) (A)
                 (A) (A) (A) (A) (A) (A) (A) (A) (A) (A) (A) (A)
                 (A) (A) (A) (A) (A) (A) (A) (A) (A) (A) (A) (A)
                 (A) (A) (A) (A) (A) (A) (A) (A) (A) (A) (A) (A)
                 (A) (A) (A) (A) (A) (A) (A) (A) (A) (A) (A) (A)
                 (A) (A) (A) (A) (A) (A) (A) (A) (A) (A) (A) (A)
                 (A) (A) (A) (A) (A) (A) (A) (A) (A) (A) (A) (A)
                 (A) (A) (A) (A) (A) (A) (A) (A) (A) (A) (A) (A)
                 (A) (A) (A) (A) (A) (A) (A) (A) (A) (A) (A) (A)
                 (A) (A) (A) (A) (A) (A) (A) (A) (A) (A) (A) (A)
                 (A) (A) (A) (A) (A) (A) (A) (A) (A) (A) (A) (A)
                 (A) (A) (A) (A) (A) (A) (A) (A) (A) (A) (A) (A)
                 (A) (A) (A) (A) (A) (A) (A) (A) (A) (A) (A) (A)
                 (A) (A) (A) (A) (A) (A) (A) (A) (A) (A) (A) (A)
                 (A) (A) (A) (A) (A) (A) (A) (A) (A) (A) (A) (A)
                 (A) (A) (A) (A) (A) (A) (A) (A) (A) (A) (A) (A)
                 (A) (A) (A) (A) (A) (A) (A) (A) (A) (A) (A) (A)
                 (A) (A) (A) (A) (A) (A) (A) (A) (A) (A) (A) (A)
                 (A) (A) (A) (A) (A) (A) (A) (A) (A) (A) (A) (A)
                 (A) (A) (A) (A) (A) (A) (A) (A) (A) (A) (A) (A)
                 (A) (A) (A) (A) (A) (A) (A) (A) (A) (A) (A) (A)
                 (A) (A) (A) (A) (A) (A) (A) (A) (A) (A) (A) (A)
                 (A) (A) (A) (A) (A) (A) (A) (A) (A) (A) (A) (A)
                 (A) (A) (A) (A) (A) (A) (A) (A) (A) (A) (A) (A)
                 (A) (A) (A) (A) (A) (A) (A) (A) (A) (A) (A) (A)
                 (A) (A) (A) (A) (A) (A) (A) (A) (A) (A) (A) (A)
                 (A) (A) (A) (A) (A) (A) (A) (A) (A) (A) (A) (A)
                 (A) (A) (A) (A) (A) (A) (A) (A) (A) (A) (A) (A)
                 (A) (A) (A) (A) (A) (A) (A) (A) (A) (A) (A) (A)
                 (A) (A) (A) (A) (A) (A) (A) (A) (A) (A) (A) (A)
                 (A) (A) (A) (A) (A) (A) (A) (A) (A) (A) (A) (A)
                 (A) (A) (A) (A) (A) (A) (A) (A) (A) (A) (A) (A)
                 (A) (A) (A) (A) (A) (A) (A) (A) (A) (A) (A) (A)
                 (A) (A) (A) (A) (A) (A) (A) (A) (A) (A) (A) (A)
                 (A) (A) (A) (A) (A) (A) (A) (A) (A) (A) (A) (A)
                 (A) (A) (A) (A) (A) (A) (A) (A) (A) (A) (A) (A)
                 (A) (A) (A) (A) (A) (A) (A) (A) (A) (A) (A) (A)
                 (A) (A) (A) (A) (A) (A) (A) (A) (A) (A) (A) (A)
                 (A) (A) (A) (A) (A) (A) (A) (A) (A) (A) (A) (A)
                 (A) (A) (A) (A) (A) (A) (A) (A) (A) (A) (A) (A)
                 (A) (A) (A) (A) (A) (A) (A) (A) (A) (A) (A) (A)
                 (A) (A) (A) (A) (A) (A) (A) (A) (A) (A) (A) (A)
                 (A) (A) (A) (A) (A) (A) (A) (A) (A) (A) (A) (A)
                 (A) (A) (A) (A) (A) (A) (A) (A) (A) (A) (A) (A)
                 (A) (A) (A) (A) (A) (A) (A) (A) (A) (A) (A) (A)
                 (A) (A) (A) (A) (A) (A) (A) (A) (A) (A) (A) (A)
                 (A) (A) (A) (A) (A) (A) (A) (A) (A) (A) (A) (A)
                 (A) (A) (A) (A) (A) (A) (A) (A) (A) (A) (A) (A)
                 (A) (A) (A) (A) (A) (A) (A) (A) (A) (A) (A) (A)
                 (A) (A) (A) (A) (A) (A) (A) (A) (A) (A) (A) (A)
                 (A) (A) (A) (A) (A) (A) (A) (A) (A) (A) (A) (A)
                 (A) (A) (A)
 The electronic state is 1-A.
 Alpha  occ. eigenvalues -- -145.37712 -19.17311 -19.17255 -19.15161 -19.14576
 Alpha  occ. eigenvalues --  -19.13324 -19.11925 -19.11740 -19.11598 -19.11289
 Alpha  occ. eigenvalues --  -19.11088 -19.09613 -19.09565 -19.07975 -19.07269
 Alpha  occ. eigenvalues --  -19.06023 -19.06009 -19.05211 -19.04443 -19.04038
 Alpha  occ. eigenvalues --  -19.03942 -19.03810 -19.02340 -19.01293 -15.43474
 Alpha  occ. eigenvalues --  -14.57952 -14.40223 -14.37786 -14.37679 -14.37200
 Alpha  occ. eigenvalues --  -14.37110 -14.35691 -14.34940 -14.33593 -14.32701
 Alpha  occ. eigenvalues --  -14.32063 -14.31422 -14.31148 -14.30066 -14.28876
 Alpha  occ. eigenvalues --  -12.57089 -12.57062 -12.57020 -10.32850 -10.32821
 Alpha  occ. eigenvalues --  -10.31072 -10.30596 -10.30464 -10.30212 -10.29652
 Alpha  occ. eigenvalues --  -10.28549 -10.28458 -10.26909 -10.26787 -10.26350
 Alpha  occ. eigenvalues --  -10.26055 -10.26003 -10.25944 -10.25932 -10.25045
 Alpha  occ. eigenvalues --  -10.24855 -10.24600 -10.24322 -10.23892 -10.23329
 Alpha  occ. eigenvalues --  -10.23232 -10.23167 -10.23037 -10.22862 -10.22804
 Alpha  occ. eigenvalues --  -10.22711 -10.22633 -10.22259 -10.21952 -10.21827
 Alpha  occ. eigenvalues --  -10.21382 -10.20588 -10.20560 -10.20519 -10.20465
 Alpha  occ. eigenvalues --  -10.20303 -10.20269 -10.20236 -10.19842 -10.19825
 Alpha  occ. eigenvalues --  -10.19669 -10.19617 -10.19549 -10.19319 -10.19275
 Alpha  occ. eigenvalues --  -10.19095 -10.18844 -10.18429 -10.17942 -10.17768
 Alpha  occ. eigenvalues --  -10.16821 -10.14502  -1.80311  -1.12993  -1.08598
 Alpha  occ. eigenvalues --   -1.07887  -1.07806  -1.07676  -1.06332  -1.06115
 Alpha  occ. eigenvalues --   -1.05462  -1.05030  -1.04683  -1.04431  -1.03923
 Alpha  occ. eigenvalues --   -1.03083  -1.02905  -1.02559  -1.01106  -1.00852
 Alpha  occ. eigenvalues --   -0.99845  -0.98915  -0.98351  -0.98068  -0.97901
 Alpha  occ. eigenvalues --   -0.97557  -0.97124  -0.96751  -0.96043  -0.94978
 Alpha  occ. eigenvalues --   -0.94828  -0.94023  -0.93547  -0.92606  -0.90063
 Alpha  occ. eigenvalues --   -0.89810  -0.89696  -0.89443  -0.89036  -0.88007
 Alpha  occ. eigenvalues --   -0.87482  -0.87072  -0.86845  -0.86612  -0.85809
 Alpha  occ. eigenvalues --   -0.85425  -0.83583  -0.82557  -0.81199  -0.80711
 Alpha  occ. eigenvalues --   -0.79349  -0.78925  -0.78311  -0.78099  -0.76137
 Alpha  occ. eigenvalues --   -0.75864  -0.75379  -0.75349  -0.74216  -0.73887
 Alpha  occ. eigenvalues --   -0.73787  -0.73700  -0.73299  -0.71136  -0.70428
 Alpha  occ. eigenvalues --   -0.69587  -0.69510  -0.69425  -0.68472  -0.68043
 Alpha  occ. eigenvalues --   -0.67961  -0.66696  -0.65867  -0.65542  -0.64865
 Alpha  occ. eigenvalues --   -0.64258  -0.63602  -0.63115  -0.62750  -0.62470
 Alpha  occ. eigenvalues --   -0.61835  -0.61772  -0.61452  -0.60903  -0.60727
 Alpha  occ. eigenvalues --   -0.60123  -0.59962  -0.59879  -0.58659  -0.58238
 Alpha  occ. eigenvalues --   -0.57938  -0.56961  -0.56546  -0.56535  -0.56130
 Alpha  occ. eigenvalues --   -0.56021  -0.55850  -0.55722  -0.55390  -0.55340
 Alpha  occ. eigenvalues --   -0.54838  -0.54299  -0.54264  -0.54154  -0.53854
 Alpha  occ. eigenvalues --   -0.53423  -0.53214  -0.52987  -0.52938  -0.52580
 Alpha  occ. eigenvalues --   -0.51739  -0.51100  -0.51059  -0.50851  -0.50563
 Alpha  occ. eigenvalues --   -0.50228  -0.50011  -0.49792  -0.49687  -0.49435
 Alpha  occ. eigenvalues --   -0.49128  -0.49038  -0.48720  -0.48502  -0.48409
 Alpha  occ. eigenvalues --   -0.48037  -0.47608  -0.47480  -0.47394  -0.47305
 Alpha  occ. eigenvalues --   -0.47159  -0.46837  -0.46578  -0.46370  -0.46239
 Alpha  occ. eigenvalues --   -0.46043  -0.45985  -0.45832  -0.45568  -0.45162
 Alpha  occ. eigenvalues --   -0.45053  -0.45030  -0.44704  -0.44513  -0.44290
 Alpha  occ. eigenvalues --   -0.44217  -0.44179  -0.43999  -0.43831  -0.43737
 Alpha  occ. eigenvalues --   -0.43518  -0.43462  -0.43287  -0.43105  -0.43033
 Alpha  occ. eigenvalues --   -0.42926  -0.42859  -0.42761  -0.42606  -0.42358
 Alpha  occ. eigenvalues --   -0.42047  -0.41935  -0.41741  -0.41646  -0.41365
 Alpha  occ. eigenvalues --   -0.41292  -0.41248  -0.41072  -0.40910  -0.40758
 Alpha  occ. eigenvalues --   -0.40516  -0.40258  -0.40168  -0.40014  -0.39947
 Alpha  occ. eigenvalues --   -0.39831  -0.39733  -0.39639  -0.39518  -0.39477
 Alpha  occ. eigenvalues --   -0.39333  -0.39312  -0.39051  -0.38999  -0.38646
 Alpha  occ. eigenvalues --   -0.38326  -0.38259  -0.37864  -0.37692  -0.37618
 Alpha  occ. eigenvalues --   -0.37545  -0.37371  -0.37232  -0.37065  -0.36912
 Alpha  occ. eigenvalues --   -0.36750  -0.36607  -0.36527  -0.36266  -0.36177
 Alpha  occ. eigenvalues --   -0.35979  -0.35866  -0.35611  -0.35487  -0.35351
 Alpha  occ. eigenvalues --   -0.35064  -0.34898  -0.34881  -0.34657  -0.34536
 Alpha  occ. eigenvalues --   -0.34412  -0.34271  -0.33959  -0.33868  -0.33616
 Alpha  occ. eigenvalues --   -0.33544  -0.33227  -0.32961  -0.32783  -0.32010
 Alpha  occ. eigenvalues --   -0.31716  -0.31372  -0.31364  -0.31107  -0.30563
 Alpha  occ. eigenvalues --   -0.30243  -0.29959  -0.29882  -0.29464  -0.29157
 Alpha  occ. eigenvalues --   -0.28744  -0.28343  -0.27828  -0.27736  -0.27491
 Alpha  occ. eigenvalues --   -0.27403  -0.27002  -0.26723  -0.26675  -0.26620
 Alpha  occ. eigenvalues --   -0.25682  -0.25267  -0.25119  -0.24218  -0.23936
 Alpha  occ. eigenvalues --   -0.23777  -0.23533  -0.23399  -0.23378  -0.23080
 Alpha  occ. eigenvalues --   -0.22971  -0.22334  -0.21781  -0.21415  -0.21192
 Alpha  occ. eigenvalues --   -0.20879  -0.20411  -0.20163  -0.20054  -0.19353
 Alpha  occ. eigenvalues --   -0.19057  -0.18040  -0.17094
 Alpha virt. eigenvalues --   -0.10231  -0.04827  -0.03790  -0.03084  -0.02887
 Alpha virt. eigenvalues --   -0.01895  -0.01126  -0.00511  -0.00468  -0.00290
 Alpha virt. eigenvalues --   -0.00141   0.00347   0.00513   0.00978   0.01576
 Alpha virt. eigenvalues --    0.01738   0.01934   0.02891   0.03194   0.03538
 Alpha virt. eigenvalues --    0.03716   0.03998   0.04155   0.04399   0.04541
 Alpha virt. eigenvalues --    0.04770   0.04950   0.05409   0.05434   0.05541
 Alpha virt. eigenvalues --    0.05754   0.05921   0.06372   0.06426   0.06960
 Alpha virt. eigenvalues --    0.07035   0.07146   0.07369   0.07534   0.07764
 Alpha virt. eigenvalues --    0.07894   0.07979   0.08165   0.08187   0.08437
 Alpha virt. eigenvalues --    0.08708   0.08829   0.09366   0.09467   0.09708
 Alpha virt. eigenvalues --    0.09941   0.10013   0.10092   0.10382   0.10523
 Alpha virt. eigenvalues --    0.10728   0.10839   0.11013   0.11293   0.11582
 Alpha virt. eigenvalues --    0.11667   0.11789   0.11941   0.12187   0.12327
 Alpha virt. eigenvalues --    0.12378   0.12640   0.12737   0.12837   0.12999
 Alpha virt. eigenvalues --    0.13160   0.13234   0.13541   0.13646   0.13784
 Alpha virt. eigenvalues --    0.13888   0.14079   0.14107   0.14339   0.14449
 Alpha virt. eigenvalues --    0.14653   0.14894   0.15095   0.15253   0.15327
 Alpha virt. eigenvalues --    0.15557   0.15778   0.15901   0.16012   0.16195
 Alpha virt. eigenvalues --    0.16378   0.16476   0.16853   0.17043   0.17495
 Alpha virt. eigenvalues --    0.17835   0.18062   0.18310   0.18324   0.18632
 Alpha virt. eigenvalues --    0.18718   0.18802   0.18916   0.19126   0.19326
 Alpha virt. eigenvalues --    0.19586   0.19727   0.20058   0.20245   0.20364
 Alpha virt. eigenvalues --    0.20582   0.20758   0.20919   0.21074   0.21236
 Alpha virt. eigenvalues --    0.21566   0.21648   0.21975   0.22133   0.22361
 Alpha virt. eigenvalues --    0.22583   0.22647   0.22900   0.23133   0.23224
 Alpha virt. eigenvalues --    0.23335   0.23554   0.23878   0.24156   0.24407
 Alpha virt. eigenvalues --    0.24455   0.24517   0.24618   0.25070   0.25316
 Alpha virt. eigenvalues --    0.25339   0.25535   0.25645   0.25921   0.26175
 Alpha virt. eigenvalues --    0.26578   0.26729   0.26947   0.27169   0.27297
 Alpha virt. eigenvalues --    0.27776   0.27898   0.28028   0.28294   0.28618
 Alpha virt. eigenvalues --    0.28865   0.29072   0.29276   0.29562   0.30151
 Alpha virt. eigenvalues --    0.30524   0.30720   0.30882   0.31162   0.31391
 Alpha virt. eigenvalues --    0.31467   0.31540   0.32025   0.32078   0.32414
 Alpha virt. eigenvalues --    0.32451   0.32624   0.32807   0.33331   0.33413
 Alpha virt. eigenvalues --    0.33730   0.33847   0.34416   0.34472   0.34933
 Alpha virt. eigenvalues --    0.35099   0.35638   0.35794   0.36110   0.36543
 Alpha virt. eigenvalues --    0.36768   0.37217   0.37832   0.37979   0.38083
 Alpha virt. eigenvalues --    0.38614   0.38712   0.38865   0.39257   0.39473
 Alpha virt. eigenvalues --    0.39613   0.39699   0.39895   0.40237   0.40493
 Alpha virt. eigenvalues --    0.40663   0.40946   0.41321   0.41486   0.41848
 Alpha virt. eigenvalues --    0.42141   0.42436   0.42514   0.42756   0.42833
 Alpha virt. eigenvalues --    0.43028   0.43315   0.43621   0.43790   0.43943
 Alpha virt. eigenvalues --    0.44121   0.44512   0.44602   0.44629   0.44828
 Alpha virt. eigenvalues --    0.45126   0.45161   0.45551   0.45641   0.45906
 Alpha virt. eigenvalues --    0.46057   0.46413   0.46488   0.46565   0.46837
 Alpha virt. eigenvalues --    0.46939   0.47008   0.47266   0.47635   0.47797
 Alpha virt. eigenvalues --    0.47943   0.48131   0.48311   0.48480   0.48590
 Alpha virt. eigenvalues --    0.49014   0.49230   0.49339   0.49920   0.49969
 Alpha virt. eigenvalues --    0.50105   0.50298   0.50340   0.50589   0.50975
 Alpha virt. eigenvalues --    0.51189   0.51387   0.51491   0.51798   0.52003
 Alpha virt. eigenvalues --    0.52091   0.52262   0.52426   0.52677   0.52854
 Alpha virt. eigenvalues --    0.53005   0.53112   0.53316   0.53544   0.53836
 Alpha virt. eigenvalues --    0.53906   0.54232   0.54603   0.54797   0.54917
 Alpha virt. eigenvalues --    0.55051   0.55269   0.55408   0.55578   0.55790
 Alpha virt. eigenvalues --    0.56189   0.56362   0.56554   0.56662   0.56822
 Alpha virt. eigenvalues --    0.56970   0.57170   0.57464   0.57472   0.57755
 Alpha virt. eigenvalues --    0.57971   0.58009   0.58257   0.58335   0.58505
 Alpha virt. eigenvalues --    0.58785   0.58859   0.59044   0.59213   0.59314
 Alpha virt. eigenvalues --    0.59416   0.59583   0.59810   0.60026   0.60150
 Alpha virt. eigenvalues --    0.60484   0.60646   0.60844   0.60976   0.61112
 Alpha virt. eigenvalues --    0.61263   0.61330   0.61498   0.61747   0.61851
 Alpha virt. eigenvalues --    0.61935   0.62010   0.62072   0.62318   0.62495
 Alpha virt. eigenvalues --    0.62605   0.62640   0.62688   0.62823   0.63001
 Alpha virt. eigenvalues --    0.63133   0.63185   0.63263   0.63437   0.63569
 Alpha virt. eigenvalues --    0.63612   0.63694   0.63796   0.63876   0.64121
 Alpha virt. eigenvalues --    0.64266   0.64340   0.64421   0.64484   0.64632
 Alpha virt. eigenvalues --    0.64651   0.64846   0.64873   0.65163   0.65226
 Alpha virt. eigenvalues --    0.65346   0.65562   0.65640   0.65741   0.65874
 Alpha virt. eigenvalues --    0.66036   0.66109   0.66142   0.66212   0.66395
 Alpha virt. eigenvalues --    0.66492   0.66527   0.66730   0.66815   0.66842
 Alpha virt. eigenvalues --    0.66932   0.66985   0.67254   0.67381   0.67419
 Alpha virt. eigenvalues --    0.67496   0.67731   0.67790   0.67932   0.68073
 Alpha virt. eigenvalues --    0.68145   0.68287   0.68391   0.68463   0.68500
 Alpha virt. eigenvalues --    0.68732   0.68814   0.68971   0.69147   0.69186
 Alpha virt. eigenvalues --    0.69442   0.69576   0.69797   0.69868   0.69930
 Alpha virt. eigenvalues --    0.70117   0.70213   0.70347   0.70476   0.70775
 Alpha virt. eigenvalues --    0.70846   0.71128   0.71237   0.71345   0.71572
 Alpha virt. eigenvalues --    0.71585   0.71716   0.71897   0.71931   0.72258
 Alpha virt. eigenvalues --    0.72402   0.72530   0.72732   0.72947   0.73074
 Alpha virt. eigenvalues --    0.73350   0.73443   0.73551   0.73722   0.73740
 Alpha virt. eigenvalues --    0.74092   0.74298   0.74593   0.74816   0.75024
 Alpha virt. eigenvalues --    0.75212   0.75447   0.75468   0.75837   0.75886
 Alpha virt. eigenvalues --    0.76172   0.76655   0.76803   0.77047   0.77122
 Alpha virt. eigenvalues --    0.77393   0.77546   0.77872   0.77915   0.78487
 Alpha virt. eigenvalues --    0.78681   0.78772   0.79049   0.79286   0.79370
 Alpha virt. eigenvalues --    0.79746   0.80087   0.80133   0.80465   0.80859
 Alpha virt. eigenvalues --    0.81082   0.81322   0.81383   0.81684   0.82130
 Alpha virt. eigenvalues --    0.82283   0.82487   0.82662   0.83164   0.83451
 Alpha virt. eigenvalues --    0.83938   0.84022   0.84219   0.84436   0.84923
 Alpha virt. eigenvalues --    0.85112   0.85386   0.85621   0.85706   0.86094
 Alpha virt. eigenvalues --    0.86483   0.86661   0.86813   0.86975   0.87505
 Alpha virt. eigenvalues --    0.87673   0.87862   0.87947   0.88318   0.88634
 Alpha virt. eigenvalues --    0.88722   0.88975   0.89231   0.89622   0.90013
 Alpha virt. eigenvalues --    0.90290   0.90385   0.90432   0.90682   0.91092
 Alpha virt. eigenvalues --    0.91245   0.91804   0.92279   0.92346   0.92715
 Alpha virt. eigenvalues --    0.92860   0.93397   0.93561   0.93911   0.94136
 Alpha virt. eigenvalues --    0.94480   0.94844   0.95056   0.95254   0.95593
 Alpha virt. eigenvalues --    0.95827   0.96124   0.96595   0.96711   0.96815
 Alpha virt. eigenvalues --    0.96988   0.97207   0.97460   0.97567   0.98013
 Alpha virt. eigenvalues --    0.98125   0.98398   0.98872   0.99182   0.99569
 Alpha virt. eigenvalues --    1.00061   1.00218   1.00826   1.00942   1.01614
 Alpha virt. eigenvalues --    1.01680   1.01822   1.02211   1.02371   1.02658
 Alpha virt. eigenvalues --    1.02948   1.03332   1.03680   1.04002   1.04379
 Alpha virt. eigenvalues --    1.04761   1.05036   1.05407   1.05591   1.05807
 Alpha virt. eigenvalues --    1.06026   1.06317   1.06799   1.06858   1.07040
 Alpha virt. eigenvalues --    1.07566   1.07885   1.08079   1.08183   1.08478
 Alpha virt. eigenvalues --    1.08659   1.09258   1.09524   1.09818   1.10242
 Alpha virt. eigenvalues --    1.10707   1.10900   1.11022   1.11211   1.11650
 Alpha virt. eigenvalues --    1.11968   1.12199   1.12387   1.12880   1.13218
 Alpha virt. eigenvalues --    1.13338   1.13950   1.14003   1.14244   1.14304
 Alpha virt. eigenvalues --    1.14433   1.14633   1.14850   1.15377   1.15669
 Alpha virt. eigenvalues --    1.15775   1.16411   1.16548   1.16979   1.17146
 Alpha virt. eigenvalues --    1.17263   1.17729   1.17963   1.18118   1.18208
 Alpha virt. eigenvalues --    1.18486   1.18643   1.18799   1.18894   1.19431
 Alpha virt. eigenvalues --    1.19665   1.19897   1.20034   1.20638   1.20971
 Alpha virt. eigenvalues --    1.21089   1.21400   1.21815   1.22065   1.22187
 Alpha virt. eigenvalues --    1.22252   1.22613   1.22793   1.22962   1.23154
 Alpha virt. eigenvalues --    1.23182   1.23846   1.23894   1.24175   1.24555
 Alpha virt. eigenvalues --    1.24871   1.25030   1.25386   1.25656   1.26005
 Alpha virt. eigenvalues --    1.26257   1.26308   1.26498   1.26676   1.26971
 Alpha virt. eigenvalues --    1.27302   1.27588   1.27610   1.27787   1.28341
 Alpha virt. eigenvalues --    1.28741   1.29091   1.29210   1.29348   1.29820
 Alpha virt. eigenvalues --    1.29998   1.30357   1.30608   1.30816   1.31383
 Alpha virt. eigenvalues --    1.31566   1.31792   1.32232   1.32671   1.32830
 Alpha virt. eigenvalues --    1.33391   1.33667   1.33934   1.33988   1.34259
 Alpha virt. eigenvalues --    1.34433   1.34773   1.35055   1.35567   1.35760
 Alpha virt. eigenvalues --    1.36061   1.36358   1.36728   1.37033   1.37194
 Alpha virt. eigenvalues --    1.37399   1.37605   1.37935   1.38276   1.38449
 Alpha virt. eigenvalues --    1.38812   1.39120   1.39247   1.39477   1.39911
 Alpha virt. eigenvalues --    1.39981   1.40224   1.40521   1.40713   1.40787
 Alpha virt. eigenvalues --    1.41145   1.41548   1.41699   1.42078   1.42342
 Alpha virt. eigenvalues --    1.42449   1.42697   1.42957   1.43497   1.43580
 Alpha virt. eigenvalues --    1.43886   1.44417   1.44523   1.44898   1.45193
 Alpha virt. eigenvalues --    1.45529   1.46207   1.46280   1.46697   1.46958
 Alpha virt. eigenvalues --    1.47160   1.47640   1.47829   1.47903   1.47990
 Alpha virt. eigenvalues --    1.48580   1.48775   1.48898   1.49183   1.49589
 Alpha virt. eigenvalues --    1.49737   1.50001   1.50169   1.50382   1.50967
 Alpha virt. eigenvalues --    1.51102   1.51343   1.51667   1.51924   1.52133
 Alpha virt. eigenvalues --    1.52475   1.52582   1.53019   1.53153   1.53721
 Alpha virt. eigenvalues --    1.54129   1.54331   1.54458   1.54660   1.54958
 Alpha virt. eigenvalues --    1.55828   1.56146   1.56396   1.56772   1.56919
 Alpha virt. eigenvalues --    1.57291   1.57846   1.58353   1.58596   1.58707
 Alpha virt. eigenvalues --    1.58850   1.59242   1.59482   1.60137   1.60470
 Alpha virt. eigenvalues --    1.60615   1.61373   1.61789   1.61989   1.62444
 Alpha virt. eigenvalues --    1.62900   1.63093   1.63186   1.63697   1.64482
 Alpha virt. eigenvalues --    1.64506   1.64742   1.64989   1.65419   1.65572
 Alpha virt. eigenvalues --    1.65747   1.66207   1.66346   1.66557   1.66775
 Alpha virt. eigenvalues --    1.66953   1.67100   1.67328   1.67631   1.68094
 Alpha virt. eigenvalues --    1.68325   1.68589   1.68837   1.69236   1.69491
 Alpha virt. eigenvalues --    1.69618   1.69737   1.70034   1.70391   1.70554
 Alpha virt. eigenvalues --    1.70884   1.71328   1.71570   1.71777   1.72116
 Alpha virt. eigenvalues --    1.72214   1.72498   1.72640   1.72786   1.72884
 Alpha virt. eigenvalues --    1.73256   1.73424   1.73507   1.73859   1.73974
 Alpha virt. eigenvalues --    1.74047   1.74191   1.74460   1.74598   1.74786
 Alpha virt. eigenvalues --    1.74902   1.75090   1.75465   1.75736   1.75911
 Alpha virt. eigenvalues --    1.75943   1.76174   1.76422   1.76507   1.76929
 Alpha virt. eigenvalues --    1.77020   1.77168   1.77244   1.77421   1.77606
 Alpha virt. eigenvalues --    1.77816   1.77959   1.78263   1.78328   1.78422
 Alpha virt. eigenvalues --    1.78644   1.78859   1.78973   1.79093   1.79219
 Alpha virt. eigenvalues --    1.79451   1.79650   1.79672   1.79787   1.79945
 Alpha virt. eigenvalues --    1.80081   1.80105   1.80439   1.80654   1.80783
 Alpha virt. eigenvalues --    1.80847   1.81124   1.81270   1.81630   1.81717
 Alpha virt. eigenvalues --    1.81984   1.82172   1.82365   1.82704   1.82887
 Alpha virt. eigenvalues --    1.82982   1.83256   1.83336   1.83376   1.83735
 Alpha virt. eigenvalues --    1.83967   1.84308   1.84414   1.84681   1.84837
 Alpha virt. eigenvalues --    1.85070   1.85190   1.85582   1.85878   1.86130
 Alpha virt. eigenvalues --    1.86273   1.86497   1.86572   1.86815   1.87071
 Alpha virt. eigenvalues --    1.87236   1.87383   1.87557   1.87861   1.87922
 Alpha virt. eigenvalues --    1.87962   1.88077   1.88350   1.88467   1.88636
 Alpha virt. eigenvalues --    1.89148   1.89318   1.89403   1.89741   1.89893
 Alpha virt. eigenvalues --    1.90150   1.90308   1.90604   1.90897   1.90998
 Alpha virt. eigenvalues --    1.91195   1.91403   1.91674   1.91871   1.91974
 Alpha virt. eigenvalues --    1.92126   1.92359   1.92646   1.92829   1.92930
 Alpha virt. eigenvalues --    1.93016   1.93456   1.93687   1.93792   1.93893
 Alpha virt. eigenvalues --    1.94136   1.94279   1.94758   1.94942   1.95223
 Alpha virt. eigenvalues --    1.95398   1.95517   1.95820   1.96044   1.96119
 Alpha virt. eigenvalues --    1.96499   1.96655   1.96890   1.96962   1.97196
 Alpha virt. eigenvalues --    1.97503   1.97698   1.97873   1.98085   1.98240
 Alpha virt. eigenvalues --    1.98464   1.98662   1.98870   1.99101   1.99260
 Alpha virt. eigenvalues --    1.99469   1.99789   1.99992   2.00264   2.00363
 Alpha virt. eigenvalues --    2.00605   2.01203   2.01423   2.01488   2.01687
 Alpha virt. eigenvalues --    2.01919   2.02250   2.02417   2.02891   2.03064
 Alpha virt. eigenvalues --    2.03302   2.03458   2.03697   2.03842   2.04281
 Alpha virt. eigenvalues --    2.04537   2.04938   2.05097   2.05329   2.05376
 Alpha virt. eigenvalues --    2.05472   2.05728   2.05859   2.06206   2.06294
 Alpha virt. eigenvalues --    2.06913   2.07042   2.07490   2.07518   2.07920
 Alpha virt. eigenvalues --    2.08281   2.08436   2.08670   2.08983   2.09140
 Alpha virt. eigenvalues --    2.09400   2.09606   2.10155   2.10310   2.10882
 Alpha virt. eigenvalues --    2.10928   2.11320   2.11449   2.11972   2.12166
 Alpha virt. eigenvalues --    2.12409   2.13070   2.13352   2.13390   2.14088
 Alpha virt. eigenvalues --    2.14457   2.14509   2.14600   2.14874   2.15837
 Alpha virt. eigenvalues --    2.16046   2.16186   2.16558   2.16863   2.17010
 Alpha virt. eigenvalues --    2.17052   2.17394   2.17673   2.18062   2.18358
 Alpha virt. eigenvalues --    2.18593   2.18889   2.19346   2.19592   2.19730
 Alpha virt. eigenvalues --    2.19954   2.20053   2.20122   2.20624   2.20984
 Alpha virt. eigenvalues --    2.21429   2.21769   2.21873   2.22050   2.22427
 Alpha virt. eigenvalues --    2.22753   2.23150   2.23484   2.23646   2.23875
 Alpha virt. eigenvalues --    2.24277   2.24667   2.24853   2.25121   2.25425
 Alpha virt. eigenvalues --    2.25604   2.25761   2.26387   2.26854   2.26973
 Alpha virt. eigenvalues --    2.27638   2.27970   2.28497   2.28625   2.28901
 Alpha virt. eigenvalues --    2.29752   2.29827   2.30070   2.30209   2.30655
 Alpha virt. eigenvalues --    2.31151   2.31397   2.31534   2.31689   2.32259
 Alpha virt. eigenvalues --    2.32734   2.32851   2.33315   2.33435   2.33588
 Alpha virt. eigenvalues --    2.34024   2.34357   2.34427   2.34775   2.35089
 Alpha virt. eigenvalues --    2.35487   2.35749   2.35866   2.36251   2.36661
 Alpha virt. eigenvalues --    2.37243   2.37431   2.37704   2.37907   2.38106
 Alpha virt. eigenvalues --    2.38380   2.38857   2.39395   2.39479   2.39837
 Alpha virt. eigenvalues --    2.39983   2.40176   2.40303   2.40567   2.40983
 Alpha virt. eigenvalues --    2.41396   2.41817   2.41960   2.42646   2.42923
 Alpha virt. eigenvalues --    2.43136   2.43696   2.44280   2.44360   2.44567
 Alpha virt. eigenvalues --    2.44933   2.45331   2.45785   2.46246   2.46737
 Alpha virt. eigenvalues --    2.47021   2.47178   2.47603   2.47710   2.48341
 Alpha virt. eigenvalues --    2.48441   2.48927   2.49221   2.49415   2.50376
 Alpha virt. eigenvalues --    2.51217   2.51447   2.51898   2.52638   2.53015
 Alpha virt. eigenvalues --    2.53438   2.53596   2.53760   2.53871   2.54003
 Alpha virt. eigenvalues --    2.54418   2.54487   2.54871   2.55559   2.55721
 Alpha virt. eigenvalues --    2.56031   2.56513   2.56639   2.56660   2.57291
 Alpha virt. eigenvalues --    2.57486   2.57986   2.58234   2.58517   2.58974
 Alpha virt. eigenvalues --    2.59132   2.59562   2.59785   2.60330   2.60485
 Alpha virt. eigenvalues --    2.60689   2.60751   2.61378   2.61632   2.61887
 Alpha virt. eigenvalues --    2.62005   2.62071   2.62120   2.62513   2.62950
 Alpha virt. eigenvalues --    2.63101   2.63295   2.63575   2.63894   2.64058
 Alpha virt. eigenvalues --    2.64371   2.64501   2.64973   2.65396   2.65626
 Alpha virt. eigenvalues --    2.65973   2.66145   2.66932   2.67076   2.67348
 Alpha virt. eigenvalues --    2.67370   2.67618   2.67995   2.68106   2.68756
 Alpha virt. eigenvalues --    2.69059   2.69356   2.69725   2.69762   2.70197
 Alpha virt. eigenvalues --    2.70689   2.71115   2.71653   2.71845   2.71882
 Alpha virt. eigenvalues --    2.72268   2.72388   2.73025   2.73060   2.73783
 Alpha virt. eigenvalues --    2.73882   2.74185   2.74437   2.74638   2.75077
 Alpha virt. eigenvalues --    2.75336   2.75635   2.75821   2.76048   2.76225
 Alpha virt. eigenvalues --    2.76409   2.76679   2.76774   2.76883   2.77150
 Alpha virt. eigenvalues --    2.77418   2.77778   2.77899   2.78507   2.78595
 Alpha virt. eigenvalues --    2.78708   2.78952   2.79577   2.79854   2.80174
 Alpha virt. eigenvalues --    2.80499   2.80672   2.80810   2.81012   2.81420
 Alpha virt. eigenvalues --    2.81542   2.81987   2.82189   2.82307   2.82822
 Alpha virt. eigenvalues --    2.83104   2.83509   2.83569   2.83721   2.84049
 Alpha virt. eigenvalues --    2.84861   2.85119   2.85269   2.85687   2.85775
 Alpha virt. eigenvalues --    2.85951   2.86309   2.86588   2.86874   2.87196
 Alpha virt. eigenvalues --    2.87430   2.87606   2.87797   2.88325   2.88628
 Alpha virt. eigenvalues --    2.89072   2.89318   2.89657   2.89753   2.89930
 Alpha virt. eigenvalues --    2.90454   2.90930   2.91016   2.91313   2.91745
 Alpha virt. eigenvalues --    2.91906   2.91945   2.92523   2.93221   2.93231
 Alpha virt. eigenvalues --    2.93390   2.93959   2.94110   2.94435   2.95026
 Alpha virt. eigenvalues --    2.95140   2.95629   2.95687   2.95842   2.96098
 Alpha virt. eigenvalues --    2.96621   2.97000   2.97301   2.97614   2.98322
 Alpha virt. eigenvalues --    2.98637   2.98792   2.99200   2.99247   2.99354
 Alpha virt. eigenvalues --    2.99923   3.00313   3.00790   3.00968   3.01297
 Alpha virt. eigenvalues --    3.01771   3.01959   3.02343   3.02583   3.02814
 Alpha virt. eigenvalues --    3.02870   3.03079   3.03371   3.03428   3.03640
 Alpha virt. eigenvalues --    3.04283   3.04866   3.04970   3.05761   3.05946
 Alpha virt. eigenvalues --    3.06912   3.07244   3.07504   3.08028   3.08662
 Alpha virt. eigenvalues --    3.08974   3.09345   3.10759   3.11061   3.11378
 Alpha virt. eigenvalues --    3.12272   3.12650   3.13939   3.14283   3.14444
 Alpha virt. eigenvalues --    3.14590   3.14745   3.14893   3.15202   3.15573
 Alpha virt. eigenvalues --    3.15936   3.16335   3.16506   3.16706   3.17313
 Alpha virt. eigenvalues --    3.17783   3.17824   3.17901   3.18044   3.18514
 Alpha virt. eigenvalues --    3.18851   3.19152   3.19429   3.19759   3.20164
 Alpha virt. eigenvalues --    3.20728   3.21456   3.21842   3.22225   3.22602
 Alpha virt. eigenvalues --    3.23769   3.24118   3.24403   3.24782   3.24927
 Alpha virt. eigenvalues --    3.25470   3.26841   3.27559   3.27743   3.27995
 Alpha virt. eigenvalues --    3.28501   3.28973   3.29667   3.29869   3.30391
 Alpha virt. eigenvalues --    3.30703   3.31079   3.31525   3.33509   3.34107
 Alpha virt. eigenvalues --    3.34951   3.36523   3.38177   3.38974   3.39233
 Alpha virt. eigenvalues --    3.41200   3.44624   3.47532   3.48132   3.50734
 Alpha virt. eigenvalues --    3.52625   3.53197   3.53703   3.54333   3.55398
 Alpha virt. eigenvalues --    3.56340   3.57393   3.58597   3.58809   3.58890
 Alpha virt. eigenvalues --    3.59915   3.60226   3.61369   3.61491   3.64137
 Alpha virt. eigenvalues --    3.65305   3.66488   3.67394   3.68030   3.68536
 Alpha virt. eigenvalues --    3.68781   3.69187   3.70021   3.70318   3.70463
 Alpha virt. eigenvalues --    3.70678   3.71117   3.71578   3.71689   3.72319
 Alpha virt. eigenvalues --    3.72822   3.73718   3.73905   3.74716   3.75629
 Alpha virt. eigenvalues --    3.77202   3.77341   3.80863   3.84309
          Condensed to atoms (all electrons):
 Mulliken charges:
               1
     1  C    0.056606
     2  C    0.038607
     3  O   -0.299599
     4  H    0.042007
     5  H   -0.002502
     6  H    0.017833
     7  N   -0.111371
     8  C    0.072762
     9  C    0.044883
    10  O   -0.288348
    11  C    0.065704
    12  C    0.142989
    13  O   -0.362580
    14  O   -0.469366
    15  H    0.121906
    16  H    0.027354
    17  H    0.008761
    18  H    0.001678
    19  N   -0.133005
    20  C    0.144709
    21  C    0.044281
    22  O   -0.297638
    23  C    0.025623
    24  C    0.015872
    25  C   -0.018853
    26  C    0.003964
    27  N    0.086230
    28  H    0.147754
    29  H   -0.014063
    30  H    0.020619
    31  H   -0.002968
    32  H   -0.009843
    33  H    0.038724
    34  H    0.041838
    35  H    0.022984
    36  H    0.064732
    37  H    0.091154
    38  H    0.181439
    39  H    0.195571
    40  H    0.189615
    41  N   -0.150491
    42  C    0.139619
    43  C    0.046488
    44  O   -0.277087
    45  C    0.102187
    46  C    0.081773
    47  O   -0.380717
    48  O   -0.485060
    49  H    0.133938
    50  H    0.023976
    51  H    0.002762
    52  H    0.026617
    53  N   -0.182659
    54  C    0.237845
    55  C    0.019542
    56  O   -0.280827
    57  H    0.144296
    58  H    0.021557
    59  H    0.036880
    60  N   -0.163955
    61  C    0.126281
    62  C    0.027454
    63  O   -0.290782
    64  C    0.159852
    65  C   -0.013338
    66  N   -0.026698
    67  O   -0.352775
    68  H    0.144923
    69  H    0.019089
    70  H    0.065049
    71  H   -0.012198
    72  H    0.122321
    73  H    0.155107
    74  N   -0.158274
    75  C    0.255003
    76  C    0.026199
    77  O   -0.325001
    78  H    0.160124
    79  H    0.017260
    80  H    0.044244
    81  N   -0.117580
    82  C    0.088460
    83  C    0.135610
    84  O   -0.338320
    85  C    0.136576
    86  C   -0.075951
    87  C    0.020464
    88  C    0.013693
    89  C   -0.045875
    90  C   -0.043520
    91  C    0.132148
    92  O   -0.220559
    93  H    0.162742
    94  H    0.017382
    95  H    0.014056
    96  H    0.007219
    97  H    0.006110
    98  H   -0.017634
    99  H   -0.010202
   100  H   -0.050167
   101  H    0.179363
   102  N   -0.124692
   103  C    0.151234
   104  C    0.082974
   105  O   -0.280413
   106  C   -0.121546
   107  C    0.016529
   108  C    0.037389
   109  C    0.036283
   110  H    0.139529
   111  H    0.007659
   112  H   -0.011530
   113  H   -0.018135
   114  H   -0.014888
   115  H    0.026684
   116  H    0.036978
   117  H   -0.011537
   118  H    0.011787
   119  H    0.015366
   120  H    0.008831
   121  N   -0.128896
   122  C    0.041682
   123  C    0.119851
   124  O   -0.288738
   125  C    0.254015
   126  O   -0.338927
   127  H    0.145166
   128  H    0.018296
   129  H    0.011313
   130  H    0.000455
   131  H    0.160544
   132  N   -0.105256
   133  C    0.073126
   134  C    0.047178
   135  O   -0.249842
   136  C    0.042770
   137  H    0.113056
   138  H    0.019292
   139  H    0.048266
   140  H    0.037254
   141  H   -0.001419
   142  N   -0.128974
   143  C    0.100603
   144  C    0.079371
   145  O   -0.267795
   146  C   -0.001059
   147  H    0.111596
   148  H    0.017876
   149  H    0.033976
   150  H    0.026329
   151  H    0.017686
   152  N   -0.157790
   153  C    0.137994
   154  C    0.061512
   155  O   -0.321039
   156  C   -0.071575
   157  C    0.102690
   158  C    0.171663
   159  O   -0.408766
   160  O   -0.445880
   161  H    0.127186
   162  H   -0.012366
   163  H    0.044221
   164  H    0.014776
   165  H   -0.003831
   166  H   -0.004802
   167  N   -0.145419
   168  C    0.135949
   169  H    0.033986
   170  H    0.023696
   171  H    0.010032
   172  H    0.137439
   173  Ca   1.323500
   174  O   -0.299985
   175  H    0.180053
   176  H    0.188860
 Sum of Mulliken charges =  -0.00000
 Mulliken charges with hydrogens summed into heavy atoms:
               1
     1  C    0.113944
     2  C    0.038607
     3  O   -0.299599
     7  N    0.010535
     8  C    0.100115
     9  C    0.044883
    10  O   -0.288348
    11  C    0.076144
    12  C    0.142989
    13  O   -0.362580
    14  O   -0.469366
    19  N    0.014749
    20  C    0.130646
    21  C    0.044281
    22  O   -0.297638
    23  C    0.043275
    24  C    0.044752
    25  C    0.045969
    26  C    0.159851
    27  N    0.652856
    41  N   -0.016553
    42  C    0.163595
    43  C    0.046488
    44  O   -0.277087
    45  C    0.131566
    46  C    0.081773
    47  O   -0.380717
    48  O   -0.485060
    53  N   -0.038363
    54  C    0.296282
    55  C    0.019542
    56  O   -0.280827
    60  N   -0.019032
    61  C    0.145370
    62  C    0.027454
    63  O   -0.290782
    64  C    0.212704
    65  C   -0.013338
    66  N    0.250730
    67  O   -0.352775
    74  N    0.001850
    75  C    0.316507
    76  C    0.026199
    77  O   -0.325001
    81  N    0.045162
    82  C    0.105842
    83  C    0.135610
    84  O   -0.338320
    85  C    0.157851
    86  C   -0.075951
    87  C    0.026574
    88  C   -0.003941
    89  C   -0.056077
    90  C   -0.093688
    91  C    0.132148
    92  O   -0.041196
   102  N    0.014836
   103  C    0.158894
   104  C    0.082974
   105  O   -0.280413
   106  C   -0.133075
   107  C   -0.016494
   108  C    0.089513
   109  C    0.072267
   121  N    0.016270
   122  C    0.059978
   123  C    0.119851
   124  O   -0.288738
   125  C    0.265784
   126  O   -0.178383
   132  N    0.007800
   133  C    0.092418
   134  C    0.047178
   135  O   -0.249842
   136  C    0.126870
   142  N   -0.017377
   143  C    0.118479
   144  C    0.079371
   145  O   -0.267795
   146  C    0.076932
   152  N   -0.030604
   153  C    0.125628
   154  C    0.061512
   155  O   -0.321039
   156  C   -0.012578
   157  C    0.094056
   158  C    0.171663
   159  O   -0.408766
   160  O   -0.445880
   167  N   -0.007980
   168  C    0.203663
   173  Ca   1.323500
   174  O    0.068928
 DipInt: DoE/N= T F RetVal/Mat= T F Init=T NMatP=  1 IDeriv=0 Min/MaxMlt=  0  4
 Entering OneElI...
 OneElI was handed  1333951383 working-precision words.
 Multipole integrals L=0 to 4 MinM= 0 MaxM= 0.
 Requested accuracy = 0.1000D-12
 ShPair: Thresh= 1.00D-13 NBox=     0 BxSize= 0.00D+00 RnKept= 2.55D+01
         NSMCal=               327645 NSMKep=              168874
 PrmmSu-InSpLW:  IPartL=    0 NPrtUS=    1 NPrtUL=    1 DoSpLW=F IThBeg=    0 IThEnd=    0 NThAct=    1.
 PrsmSu:  NPrtUS=   1 ThrOK=F IAlg=1 NPAlg=1 LenDen=           0 ISkipM=0 DoSpLW=F IThBeg=    0 IThEnd=    0.
 Prism:   IPart=     0 DynPar=F LinDyn=F Incr=         512.
 PRISM was handed  1323554239 working-precision words and168874 shell-pairs
 IPart=  0 NShTot=      168874 NBatch=         386 AvBLen=       437.5
 PrsmSu-ThDecC:  IPartSL=    0    0 NPrtUSL=    1    1 IThBeg=    0 IThEnd=    0 CPU=   -1 GPU=   -1 NThAct=    1.
 PrSmSu:  NxtVal=            513.
 Electronic moments (au):
       -716.00000000         12.41149424          1.41551284          2.16670972
     -47735.47281615     -26250.10570789     -13744.13720808         56.53840298
         20.88684644         93.97848276     -87274.73120583     -18804.84768140
     -15341.16956039      10300.51347512      36188.21679856      46535.33940563
      -1408.46266628        213.79262311       3911.00340772     -27816.91029319
   -6511545.38789997   -2248684.09158362    -706651.67999824     445468.66329047
     414097.71330715    -342345.78411089    -123446.85551472     -48412.17691345
      41692.32941247   -1283958.85595202    -703604.16793346    -399259.63407378
     -79900.14536584    -147194.09834138      -4286.38759077
 Electronic spatial extent (au):  <R**2>=          87729.7157
 DipInt: DoE/N= F T RetVal/Mat= T F Init=T NMatP=  1 IDeriv=0 Min/MaxMlt=  0  4
 Nuclear    moments (au):
        716.00000000          0.00000000         -0.00000000          0.00000000
      47206.73757802      25955.70763584      13346.68636787          0.00000000
          0.00000000          0.00000000      88403.43720970      20324.97181539
      15501.18339977      -8830.44135991     -36461.16839080     -46579.74163176
       1835.98394555       -186.70841815      -3389.91625727      28059.48491534
    6316193.16061448    2183084.52231289     659346.70382172    -448169.92818986
    -410679.49110205     357751.70450566     136461.16486002      48553.23562948
     -37218.08235009    1247608.99860595     667841.73618821     378872.80990587
      86244.87437241     150448.88893970       5980.32968309
 Total      moments (au):
         -0.00000000         12.41149424          1.41551284          2.16670972
       -528.73523813       -294.39807205       -397.45084021         56.53840298
         20.88684644         93.97848276       1128.70600387       1520.12413399
        160.01383939       1470.07211521       -272.95159224        -44.40222613
        427.52127927         27.08420496        521.08715046        242.57462216
    -195352.22728549     -65599.56927073     -47304.97617652      -2701.26489939
       3418.22220510      15405.92039477      13014.30934530        141.05871603
       4474.24706238     -36349.85734607     -35762.43174525     -20386.82416791
       6344.72900656       3254.79059832       1693.94209231
 Traceless Quadrup. (au):
       -121.87385467        112.46331142          9.41054325         56.53840298
         20.88684644         93.97848276
 Charge=             -0.0000 electrons
 Dipole moment (field-independent basis, Debye):
    X=             31.5469    Y=              3.5979    Z=              5.5072  Tot=             32.2254
 Quadrupole moment (field-independent basis, Debye-Ang):
   XX=           -711.1670   YY=           -395.9755   ZZ=           -534.5850
   XY=             76.0461   XZ=             28.0935   YZ=            126.4043
 Traceless Quadrupole moment (field-independent basis, Debye-Ang):
   XX=           -163.9245   YY=            151.2670   ZZ=             12.6575
   XY=             76.0461   XZ=             28.0935   YZ=            126.4043
 Octapole moment (field-independent basis, Debye-Ang**2):
  XXX=            803.3694  YYY=           1081.9658  ZZZ=            113.8917  XYY=           1046.3407
  XXY=           -194.2764  XXZ=            -31.6038  XZZ=            304.2932  YZZ=             19.2775
  YYZ=            370.8898  XYZ=            172.6553
 Hexadecapole moment (field-independent basis, Debye-Ang**3):
 XXXX=         -73579.0162 YYYY=         -24707.9434 ZZZZ=         -17817.3224 XXXY=          -1017.4259
 XXXZ=           1287.4664 YYYX=           5802.6084 YYYZ=           4901.8130 ZZZX=             53.1295
 ZZZY=           1685.2160 XXYY=         -13691.0993 XXZZ=         -13469.8467 YYZZ=          -7678.6556
 XXYZ=           2389.7292 YYXZ=           1225.9102 ZZXY=            638.0198
 N-N= 2.217139592641D+04 E-N=-5.682115536347D+04  KE= 5.290656621659D+03
 Leave Link  601 at Sun Sep 15 01:20:15 2019, MaxMem=  1342177280 cpu:              43.5 elap:               1.1
 FitSet:  NAtFit=   176 NAtPot=   176 NAtFrz=     0 MDM=   180 TotChg=   0.00000
 Merz-Kollman atomic radii used.
 Read replacement radii for each type of atom:
 Rad(20) =   1.700000000000D+00
 Atom Element Radius
    1     6    1.50
    2     6    1.50
    3     8    1.40
    4     1    1.20
    5     1    1.20
    6     1    1.20
    7     7    1.50
    8     6    1.50
    9     6    1.50
   10     8    1.40
   11     6    1.50
   12     6    1.50
   13     8    1.40
   14     8    1.40
   15     1    1.20
   16     1    1.20
   17     1    1.20
   18     1    1.20
   19     7    1.50
   20     6    1.50
   21     6    1.50
   22     8    1.40
   23     6    1.50
   24     6    1.50
   25     6    1.50
   26     6    1.50
   27     7    1.50
   28     1    1.20
   29     1    1.20
   30     1    1.20
   31     1    1.20
   32     1    1.20
   33     1    1.20
   34     1    1.20
   35     1    1.20
   36     1    1.20
   37     1    1.20
   38     1    1.20
   39     1    1.20
   40     1    1.20
   41     7    1.50
   42     6    1.50
   43     6    1.50
   44     8    1.40
   45     6    1.50
   46     6    1.50
   47     8    1.40
   48     8    1.40
   49     1    1.20
   50     1    1.20
   51     1    1.20
   52     1    1.20
   53     7    1.50
   54     6    1.50
   55     6    1.50
   56     8    1.40
   57     1    1.20
   58     1    1.20
   59     1    1.20
   60     7    1.50
   61     6    1.50
   62     6    1.50
   63     8    1.40
   64     6    1.50
   65     6    1.50
   66     7    1.50
   67     8    1.40
   68     1    1.20
   69     1    1.20
   70     1    1.20
   71     1    1.20
   72     1    1.20
   73     1    1.20
   74     7    1.50
   75     6    1.50
   76     6    1.50
   77     8    1.40
   78     1    1.20
   79     1    1.20
   80     1    1.20
   81     7    1.50
   82     6    1.50
   83     6    1.50
   84     8    1.40
   85     6    1.50
   86     6    1.50
   87     6    1.50
   88     6    1.50
   89     6    1.50
   90     6    1.50
   91     6    1.50
   92     8    1.40
   93     1    1.20
   94     1    1.20
   95     1    1.20
   96     1    1.20
   97     1    1.20
   98     1    1.20
   99     1    1.20
  100     1    1.20
  101     1    1.20
  102     7    1.50
  103     6    1.50
  104     6    1.50
  105     8    1.40
  106     6    1.50
  107     6    1.50
  108     6    1.50
  109     6    1.50
  110     1    1.20
  111     1    1.20
  112     1    1.20
  113     1    1.20
  114     1    1.20
  115     1    1.20
  116     1    1.20
  117     1    1.20
  118     1    1.20
  119     1    1.20
  120     1    1.20
  121     7    1.50
  122     6    1.50
  123     6    1.50
  124     8    1.40
  125     6    1.50
  126     8    1.40
  127     1    1.20
  128     1    1.20
  129     1    1.20
  130     1    1.20
  131     1    1.20
  132     7    1.50
  133     6    1.50
  134     6    1.50
  135     8    1.40
  136     6    1.50
  137     1    1.20
  138     1    1.20
  139     1    1.20
  140     1    1.20
  141     1    1.20
  142     7    1.50
  143     6    1.50
  144     6    1.50
  145     8    1.40
  146     6    1.50
  147     1    1.20
  148     1    1.20
  149     1    1.20
  150     1    1.20
  151     1    1.20
  152     7    1.50
  153     6    1.50
  154     6    1.50
  155     8    1.40
  156     6    1.50
  157     6    1.50
  158     6    1.50
  159     8    1.40
  160     8    1.40
  161     1    1.20
  162     1    1.20
  163     1    1.20
  164     1    1.20
  165     1    1.20
  166     1    1.20
  167     7    1.50
  168     6    1.50
  169     1    1.20
  170     1    1.20
  171     1    1.20
  172     1    1.20
[...]
 **** Fit       0.012938
 **** Fit       0.012917
 **** Fit       0.013946
 **** Fit       0.012229
 **** Fit       0.014313
 **** Fit       0.015940
 **** Fit       0.016566
 **** Fit       0.019336
 **** Fit       0.022565
 **** Fit       0.024747
 **** Fit       0.025616
 **** Fit      -0.006195
 **** Fit       0.005729
 **** Fit       0.017123
 **** Fit      -0.004745
 **** Fit       0.006263
 **** Fit      -0.003370
 **** Fit       0.006858
 **** Fit      -0.002998
 **** Fit       0.006293
 **** Fit       0.000881
 **** Fit       0.008644
 **** Fit       0.004114
 **** Fit       0.010024
 **** Fit       0.014103
 **** Fit       0.002189
 **** Fit       0.007914
 **** Fit       0.003217
 **** Fit       0.007697
 **** Fit       0.022721
 **** Fit       0.013066
 **** Fit       0.017996
 **** Fit       0.019090
 **** Fit       0.013351
 **** Fit       0.013715
 **** Fit       0.014721
 **** Fit       0.016080
 **** Fit       0.016405
 **** Fit       0.014760
 **** Fit       0.014038
 **** Fit       0.014866
 **** Fit       0.014633
 **** Fit       0.012806
 **** Fit       0.015730
 **** Fit       0.009778
 **** Fit       0.011133
 **** Fit       0.013198
 **** Fit       0.014927
 **** Fit       0.015763
 **** Fit       0.011331
 **** Fit       0.012211
 **** Fit       0.013344
 **** Fit       0.013928
 **** Fit       0.012153
 **** Fit       0.012615
 **** Fit       0.012790
 **** Fit       0.012453
 **** Fit       0.012095
 **** Fit       0.012362
 **** Fit       0.012252
 **** Fit       0.003213
 **** Fit      -0.030855
 **** Fit      -0.030424
 **** Fit       0.013337
 **** Fit       0.013761
 **** Fit       0.012444
 **** Fit       0.012707
 **** Fit       0.013202
 **** Fit       0.013652
 **** Fit       0.013914
 **** Fit       0.011784
 **** Fit       0.012040
 **** Fit       0.012529
 **** Fit       0.013121
 **** Fit       0.013967
 **** Fit       0.014020
 **** Fit       0.011815
 **** Fit       0.011060
 **** Fit       0.011308
 **** Fit       0.011778
 **** Fit       0.013703
 **** Fit       0.013688
 **** Fit       0.013766
 **** Fit       0.011261
 **** Fit       0.011041
 **** Fit       0.010261
 **** Fit       0.010457
 **** Fit       0.010836
 **** Fit       0.012764
 **** Fit       0.012853
 **** Fit       0.012974
 **** Fit       0.010657
 **** Fit       0.010354
 **** Fit       0.010228
 **** Fit       0.009375
 **** Fit       0.009513
 **** Fit       0.009815
 **** Fit       0.010312
 **** Fit       0.010942
 **** Fit       0.011244
 **** Fit       0.011442
 **** Fit       0.011673
 **** Fit       0.010099
 **** Fit       0.009705
 **** Fit       0.009472
 **** Fit       0.009367
 **** Fit       0.008399
 **** Fit       0.008451
 **** Fit       0.008638
 **** Fit       0.009000
 **** Fit       0.007877
 **** Fit       0.008563
 **** Fit       0.008941
 **** Fit       0.009510
 **** Fit       0.009050
 **** Fit       0.008746
 **** Fit       0.008555
 **** Fit       0.008442
 **** Fit       0.007335
 **** Fit       0.007278
 **** Fit       0.007330
 **** Fit       0.007535
 **** Fit       0.003865
 **** Fit       0.005005
 **** Fit       0.008964
 **** Fit       0.008401
 **** Fit       0.008019
 **** Fit       0.007770
 **** Fit       0.007595
 **** Fit       0.007451
 **** Fit       0.005987
 **** Fit       0.005880
 **** Fit       0.005895
 **** Fit       0.006051
 **** Fit       0.009263
 **** Fit       0.008387
 **** Fit       0.007676
 **** Fit       0.004087
 **** Fit       0.004008
 **** Fit       0.009079
 **** Fit       0.007936
 **** Fit       0.006914
 **** Fit       0.002027
 **** Fit       0.001705
 **** Fit       0.010232
 **** Fit       0.009638
 **** Fit       0.008189
 **** Fit       0.006517
 **** Fit      -0.000915
 **** Fit      -0.001584
 **** Fit      -0.003901
 **** Fit      -0.004874
 **** Fit      -0.006303
 **** Fit      -0.007524
 **** Fit      -0.008875
 **** Fit      -0.010952
 **** Fit      -0.014310
 **** Fit      -0.011894
 **** Fit      -0.013729
 **** Fit      -0.016690
 **** Fit      -0.016998
 **** Fit      -0.019330
 **** Fit      -0.021475
 **** Fit      -0.023089
 **** Fit      -0.027986
 **** Fit       0.006666
 **** Fit       0.007218
 **** Fit       0.006926
 **** Fit       0.006752
 **** Fit       0.005350
 **** Fit       0.005282
 **** Fit       0.005241
 **** Fit       0.006709
 **** Fit       0.006186
 **** Fit       0.005828
 **** Fit       0.005596
 **** Fit       0.005448
 **** Fit       0.003823
 **** Fit       0.003726
 **** Fit       0.003604
 **** Fit       0.003453
 **** Fit       0.005732
 **** Fit       0.004999
 **** Fit       0.004503
 **** Fit       0.004199
 **** Fit       0.004022
 **** Fit       0.003912
 **** Fit       0.001973
 **** Fit       0.001886
 **** Fit       0.001723
 **** Fit       0.001468
 **** Fit       0.001101
 **** Fit       0.004369
 **** Fit       0.003320
 **** Fit       0.002635
 **** Fit       0.002255
 **** Fit       0.002085
 **** Fit       0.002028
 **** Fit       0.002008
 **** Fit      -0.000338
 **** Fit      -0.000366
 **** Fit      -0.000529
 **** Fit      -0.000851
 **** Fit      -0.001368
 **** Fit       0.002540
 **** Fit       0.000860
 **** Fit      -0.000194
 **** Fit      -0.000695
 **** Fit      -0.000819
 **** Fit      -0.000734
 **** Fit      -0.000570
 **** Fit      -0.000419
 **** Fit      -0.003277
 **** Fit      -0.003175
 **** Fit      -0.003303
 **** Fit      -0.003691
 **** Fit      -0.004387
 **** Fit      -0.005682
 **** Fit      -0.005267
 **** Fit      -0.004666
 **** Fit      -0.004070
 **** Fit      -0.003587
 **** Fit      -0.007059
 **** Fit      -0.006706
 **** Fit      -0.006742
 **** Fit      -0.007189
 **** Fit      -0.008103
 **** Fit      -0.010398
 **** Fit      -0.008920
 **** Fit      -0.007799
 **** Fit      -0.011957
 **** Fit      -0.011170
 **** Fit      -0.011009
 **** Fit      -0.011462
 **** Fit      -0.012567
 **** Fit      -0.013431
 **** Fit      -0.018311
 **** Fit      -0.016759
 **** Fit      -0.016317
 **** Fit      -0.016875
 **** Fit      -0.018417
 **** Fit      -0.022825
 **** Fit      -0.023494
 **** Fit       0.013786
 **** Fit       0.014107
 **** Fit       0.013133
 **** Fit       0.013855
 **** Fit       0.014421
 **** Fit       0.014516
 **** Fit       0.014143
 **** Fit       0.012276
 **** Fit       0.012930
 **** Fit       0.013684
 **** Fit       0.014338
 **** Fit       0.014679
 **** Fit       0.014588
 **** Fit       0.014134
 **** Fit       0.013539
 **** Fit       0.011266
 **** Fit       0.011818
 **** Fit       0.012532
 **** Fit       0.013285
 **** Fit       0.013926
 **** Fit       0.014285
 **** Fit       0.014231
 **** Fit       0.013775
 **** Fit       0.013097
 **** Fit       0.012429
 **** Fit       0.010071
 **** Fit       0.010515
 **** Fit       0.011131
 **** Fit       0.011827
 **** Fit       0.012492
 **** Fit       0.012985
 **** Fit       0.013144
 **** Fit       0.012835
 **** Fit       0.012071
 **** Fit       0.011084
 **** Fit       0.010222
 **** Fit       0.009683
 **** Fit       0.008657
 **** Fit       0.008962
 **** Fit       0.009427
 **** Fit       0.009971
 **** Fit       0.010505
 **** Fit       0.010920
 **** Fit       0.011073
 **** Fit       0.010799
 **** Fit       0.009958
 **** Fit       0.008562
 **** Fit       0.007189
 **** Fit       0.007505
 **** Fit       0.007870
 **** Fit       0.008182
 **** Fit       0.008318
 **** Fit       0.008117
 **** Fit       0.007372
 **** Fit       0.005861
 **** Fit       0.005105
 **** Fit       0.005224
 **** Fit       0.005344
 **** Fit       0.005342
 **** Fit       0.005072
 **** Fit       0.004337
 **** Fit       0.002872
 **** Fit       0.002676
 **** Fit       0.002559
 **** Fit       0.002370
 **** Fit       0.001946
 **** Fit       0.001088
 **** Fit      -0.000480
 **** Fit      -0.000630
 **** Fit      -0.001276
 **** Fit      -0.002389
 **** Fit      -0.004306
 **** Fit      -0.004529
 **** Fit      -0.005887
 **** Fit      -0.008145
 **** Fit      -0.011573
 **** Fit       0.013981
 **** Fit       0.013436
 **** Fit       0.013774
 **** Fit       0.014277
 **** Fit       0.014460
 **** Fit       0.014101
 **** Fit       0.013595
 **** Fit       0.012847
 **** Fit       0.013084
 **** Fit       0.013500
 **** Fit       0.013971
 **** Fit       0.014417
 **** Fit       0.014751
 **** Fit       0.014839
 **** Fit       0.014594
 **** Fit       0.014114
 **** Fit       0.013598
 **** Fit       0.013159
 **** Fit       0.012878
 **** Fit       0.012224
 **** Fit       0.014287
 **** Fit       0.014651
 **** Fit       0.014931
 **** Fit       0.015046
 **** Fit       0.014899
 **** Fit       0.014502
 **** Fit       0.013997
 **** Fit       0.013515
 **** Fit       0.013084
 **** Fit       0.012696
 **** Fit       0.012381
 **** Fit       0.012207
 **** Fit       0.014191
 **** Fit       0.014544
 **** Fit       0.014835
 **** Fit       0.014974
 **** Fit       0.014822
 **** Fit       0.014408
 **** Fit       0.013890
 **** Fit       0.013416
 **** Fit       0.013020
 **** Fit       0.012653
 **** Fit       0.012281
 **** Fit       0.011924
 **** Fit       0.011650
 **** Fit       0.011524
 **** Fit       0.013160
 **** Fit       0.013575
 **** Fit       0.014281
 **** Fit       0.013779
 **** Fit       0.013262
 **** Fit       0.012872
 **** Fit       0.012582
 **** Fit       0.012290
 **** Fit       0.011934
 **** Fit       0.011533
 **** Fit       0.011160
 **** Fit       0.010900
 **** Fit       0.012891
 **** Fit       0.012448
 **** Fit       0.012228
 **** Fit       0.012102
 **** Fit       0.011918
 **** Fit       0.011600
 **** Fit       0.011169
 **** Fit       0.010710
 **** Fit       0.010325
 **** Fit       0.011534
 **** Fit       0.011434
 **** Fit       0.011546
 **** Fit       0.011598
 **** Fit       0.011427
 **** Fit       0.011011
 **** Fit       0.010447
 **** Fit       0.009881
 **** Fit       0.010059
 **** Fit       0.010578
 **** Fit       0.011050
 **** Fit       0.011191
 **** Fit       0.010912
 **** Fit       0.010299
 **** Fit       0.009545
 **** Fit       0.007219
 **** Fit       0.008395
 **** Fit       0.009694
 **** Fit       0.010591
 **** Fit       0.010818
 **** Fit       0.010371
 **** Fit       0.009567
 **** Fit       0.010369
 **** Fit       0.011945
 **** Fit       0.005077
 **** Fit       0.023873
 **** Fit       0.018281
 **** Fit       0.011704
 **** Fit       0.004013
 **** Fit       0.018892
 **** Fit       0.010589
 **** Fit       0.001194
 **** Fit       0.036277
 **** Fit       0.035984
 **** Fit      -0.002535
 **** Fit       0.033531
 **** Fit       0.034621
 **** Fit       0.035228
 **** Fit       0.035999
 **** Fit       0.030922
 **** Fit       0.032796
 **** Fit       0.034095
 **** Fit       0.035315
 **** Fit       0.030312
 **** Fit       0.032095
 **** Fit       0.033730
 **** Fit       0.031586
 **** Fit       0.029227
 **** Fit       0.036424
 **** Fit       0.026814
 **** Fit       0.026368
 **** Fit       0.024530
 **** Fit       0.020893
 **** Fit       0.014733
 **** Fit       0.036396
 **** Fit       0.036473
 **** Fit       0.035614
 **** Fit       0.033328
 **** Fit       0.025581
 **** Fit       0.025998
 **** Fit       0.025526
 **** Fit       0.023770
 **** Fit       0.020429
 **** Fit       0.015036
 **** Fit       0.006839
 **** Fit       0.036348
 **** Fit       0.036329
 **** Fit       0.035615
 **** Fit       0.033927
 **** Fit       0.031212
 **** Fit       0.027443
 **** Fit       0.026732
 **** Fit       0.025817
 **** Fit       0.024062
 **** Fit       0.021003
 **** Fit       0.016207
 **** Fit       0.009100
 **** Fit      -0.001175
 **** Fit       0.035804
 **** Fit       0.035902
 **** Fit       0.035490
 **** Fit       0.034413
 **** Fit       0.032641
 **** Fit       0.030500
 **** Fit       0.028623
 **** Fit       0.028476
 **** Fit       0.027000
 **** Fit       0.025116
 **** Fit       0.022355
 **** Fit       0.018273
 **** Fit       0.012404
 **** Fit       0.004168
 **** Fit      -0.007204
 **** Fit       0.034249
 **** Fit       0.034796
 **** Fit       0.035035
 **** Fit       0.034878
 **** Fit       0.034233
 **** Fit       0.033074
 **** Fit       0.031548
 **** Fit       0.029950
 **** Fit       0.028388
 **** Fit       0.026281
 **** Fit       0.023486
 **** Fit       0.019568
 **** Fit       0.014069
 **** Fit       0.006500
 **** Fit      -0.003622
 **** Fit       0.033103
 **** Fit       0.033591
 **** Fit       0.033782
 **** Fit       0.033551
 **** Fit       0.032830
 **** Fit       0.031650
 **** Fit       0.030139
 **** Fit       0.027442
 **** Fit       0.024815
 **** Fit       0.021229
 **** Fit       0.016302
 **** Fit       0.009674
 **** Fit       0.001171
 **** Fit      -0.008779
 **** Fit       0.030800
 **** Fit       0.031464
 **** Fit       0.031970
 **** Fit       0.032110
 **** Fit       0.031753
 **** Fit       0.030847
 **** Fit       0.029408
 **** Fit       0.025855
 **** Fit       0.022625
 **** Fit       0.018096
 **** Fit       0.012058
 **** Fit       0.004733
 **** Fit      -0.002569
 **** Fit      -0.006860
 **** Fit       0.027757
 **** Fit       0.029019
 **** Fit       0.029774
 **** Fit       0.029943
 **** Fit       0.029398
 **** Fit       0.028058
 **** Fit       0.023796
 **** Fit       0.019642
 **** Fit       0.013871
 **** Fit       0.007697
 **** Fit       0.004404
 **** Fit       0.007296
 **** Fit       0.024822
 **** Fit       0.026686
 **** Fit       0.027169
 **** Fit       0.026253
 **** Fit       0.021415
 **** Fit       0.016195
 **** Fit       0.012695
 **** Fit       0.016461
 **** Fit       0.021809
 **** Fit       0.023575
 **** Fit       0.018886
 **** Fit      -0.013464
 **** Fit       0.017421
 **** Fit       0.020902
 **** Fit       0.025061
 **** Fit       0.028815
 **** Fit      -0.015160
 **** Fit      -0.003976
 **** Fit       0.003858
 **** Fit       0.009237
 **** Fit       0.013029
 **** Fit       0.016135
 **** Fit       0.019307
 **** Fit       0.022818
 **** Fit       0.026339
 **** Fit       0.029404
 **** Fit      -0.015480
 **** Fit      -0.004210
 **** Fit       0.003885
 **** Fit       0.009698
 **** Fit       0.014100
 **** Fit       0.017873
 **** Fit       0.021474
 **** Fit       0.024911
 **** Fit       0.028028
 **** Fit      -0.014139
 **** Fit      -0.003413
 **** Fit       0.004596
 **** Fit       0.010580
 **** Fit       0.015285
 **** Fit       0.019286
 **** Fit       0.022838
 **** Fit       0.026002
 **** Fit       0.028938
 **** Fit      -0.017345
 **** Fit      -0.006296
 **** Fit       0.002649
 **** Fit       0.009494
 **** Fit       0.014780
 **** Fit       0.019018
 **** Fit       0.022468
 **** Fit       0.025239
 **** Fit       0.007772
 **** Fit      -0.004899
 **** Fit      -0.012846
 **** Fit      -0.003258
 **** Fit       0.005525
 **** Fit       0.012236
 **** Fit       0.017010
 **** Fit       0.019941
 **** Fit       0.020420
 **** Fit       0.010475
 **** Fit       0.000492
 **** Fit      -0.005280
 **** Fit       0.000573
 **** Fit       0.009034
 **** Fit       0.013352
 **** Fit       0.005135
 -----------------------------------------------------------------
 Leave Link  602 at Sun Sep 15 01:20:17 2019, MaxMem=  1342177280 cpu:             112.4 elap:               2.4

 Test job not archived.
 1\1\GINC-C506-114\SP\RB3LYP\SVP\C54H83Ca1N15O23\PENGZHI\15-Sep-2019\0\
 \#b3lyp/svp scf=(tight,noincore) Test #IOP(5/87=12) Density=Current Po
 p=(MK,readradii) iop(6/33=2) iop(6/42=6)\\CaMKII_loop3_95.0\\0,1\C,0,6
 2.5,44.89,40.74\C,0,61.86,44.53,42.08\O,0,62.2,43.47,42.59\H,0,63.513,
 44.491,40.703\H,0,61.911,44.461,39.929\H,0,62.533,45.974,40.632\N,0,60
 .81,45.21,42.54\C,0,60.19,44.79,43.78\C,0,59.21,43.65,43.53\O,0,58.13,
 43.85,42.98\C,0,59.54,46.04,44.37\C,0,58.84,45.66,45.66\O,0,57.95,46.3
 9,46.15\O,0,59.17,44.61,46.26\H,0,60.53,46.11,42.18\H,0,60.98,44.57,44
 .5\H,0,58.8,46.48,43.7\H,0,60.34,46.75,44.54\N,0,59.44,42.42,43.99\C,0
 ,58.89,41.12,43.62\C,0,57.68,40.66,44.43\O,0,56.88,39.84,44.\C,0,59.91
 ,39.99,43.55\C,0,61.08,40.31,42.63\C,0,60.71,40.55,41.17\C,0,61.86,40.
 54,40.17\N,0,61.45,40.84,38.79\H,0,60.28,42.43,44.55\H,0,58.59,41.16,4
 2.58\H,0,59.42,39.05,43.31\H,0,60.34,39.87,44.55\H,0,61.79,39.48,42.63
 \H,0,61.78,40.99,43.12\H,0,60.28,41.55,41.11\H,0,59.98,39.79,40.86\H,0
 ,62.38,39.58,40.17\H,0,62.64,41.2,40.53\H,0,62.18,40.76,38.09\H,0,60.7
 4,40.21,38.44\H,0,61.28,41.83,38.72\N,0,57.33,41.33,45.53\C,0,56.21,41
 .01,46.39\C,0,55.4,42.25,46.75\O,0,54.39,42.07,47.43\C,0,56.71,40.31,4
 7.65\C,0,57.63,41.12,48.56\O,0,57.98,40.65,49.66\O,0,58.2,42.16,48.18\
 H,0,57.95,42.11,45.67\H,0,55.49,40.39,45.87\H,0,57.35,39.5,47.3\H,0,55
 .82,39.95,48.16\N,0,55.84,43.41,46.25\C,0,55.14,44.68,46.25\C,0,55.15,
 45.38,47.6\O,0,54.42,46.33,47.85\H,0,56.77,43.46,45.85\H,0,54.12,44.56
 ,45.88\H,0,55.69,45.31,45.55\N,0,55.98,44.88,48.51\C,0,56.16,45.38,49.
 86\C,0,56.75,46.78,49.88\O,0,56.54,47.49,50.86\C,0,56.96,44.34,50.65\C
 ,0,58.41,44.77,50.74\N,0,59.07,44.81,51.9\O,0,59.07,45.08,49.75\H,0,56
 .44,43.99,48.33\H,0,55.2,45.38,50.38\H,0,56.93,43.38,50.14\H,0,56.57,4
 4.25,51.66\H,0,58.48,44.71,52.71\H,0,60.03,45.13,51.95\N,0,57.31,47.23
 ,48.76\C,0,57.79,48.59,48.58\C,0,59.3,48.79,48.61\O,0,59.66,49.95,48.3
 7\H,0,57.19,46.66,47.93\H,0,57.51,49.15,49.47\H,0,57.33,49.07,47.72\N,
 0,60.13,47.75,48.7\C,0,61.56,47.92,48.49\C,0,62.2,46.65,47.96\O,0,61.6
 ,45.58,47.89\C,0,62.34,48.44,49.69\C,0,62.19,47.52,50.88\C,0,61.44,47.
 98,51.97\C,0,62.85,46.29,50.96\C,0,61.21,47.15,53.08\C,0,62.73,45.5,52
 .11\C,0,61.91,45.93,53.17\O,0,61.59,45.04,54.15\H,0,59.81,46.84,48.97\
 H,0,61.69,48.67,47.71\H,0,61.97,49.45,49.9\H,0,63.41,48.6,49.59\H,0,60
 .83,48.87,51.89\H,0,63.54,45.96,50.2\H,0,60.44,47.35,53.8\H,0,63.2,44.
 53,52.13\H,0,62.29,44.39,54.27\N,0,63.41,46.9,47.43\C,0,64.13,45.98,46
 .57\C,0,65.32,45.45,47.35\O,0,66.11,46.21,47.9\C,0,64.6,46.69,45.31\C,
 0,63.59,47.62,44.65\C,0,65.17,45.66,44.34\C,0,64.24,48.7,43.79\H,0,63.
 74,47.85,47.44\H,0,63.56,45.12,46.22\H,0,65.46,47.31,45.59\H,0,62.98,4
 8.12,45.4\H,0,62.81,47.08,44.11\H,0,66.1,45.24,44.73\H,0,64.38,44.95,4
 4.08\H,0,65.53,46.17,43.45\H,0,64.8,48.2,43.\H,0,63.53,49.44,43.43\H,0
 ,64.88,49.27,44.48\N,0,65.42,44.12,47.37\C,0,66.42,43.43,48.16\C,0,67.
 4,42.67,47.29\O,0,67.21,42.56,46.08\C,0,65.72,42.6,49.23\O,0,65.17,41.
 47,48.59\H,0,64.87,43.52,46.76\H,0,67.03,44.1,48.76\H,0,64.84,43.15,49
 .57\H,0,66.35,42.36,50.09\H,0,64.36,41.82,48.22\N,0,68.52,42.21,47.85\
 C,0,69.53,41.46,47.14\C,0,69.03,40.22,46.4\O,0,69.38,40.02,45.24\C,0,7
 0.64,41.09,48.11\H,0,68.67,42.32,48.84\H,0,69.94,42.08,46.34\H,0,71.26
 ,40.31,47.67\H,0,71.22,41.98,48.36\H,0,70.14,40.74,49.01\N,0,68.16,39.
 47,47.08\C,0,67.39,38.39,46.49\C,0,66.57,38.79,45.28\O,0,66.45,38.,44.
 34\C,0,66.42,38.05,47.63\H,0,67.91,39.71,48.03\H,0,68.02,37.53,46.28\H
 ,0,66.03,38.94,48.11\H,0,65.68,37.39,47.19\H,0,66.93,37.4,48.34\N,0,66
 .07,40.03,45.23\C,0,65.27,40.45,44.1\C,0,66.12,41.02,42.98\O,0,65.77,4
 0.88,41.81\C,0,64.28,41.54,44.5\C,0,63.29,41.02,45.54\C,0,62.52,42.16,
 46.2\O,0,61.4,42.6,45.85\O,0,63.,42.61,47.26\H,0,66.09,40.62,46.05\H,0
 ,64.65,39.63,43.73\H,0,63.72,41.71,43.58\H,0,64.85,42.41,44.83\H,0,63.
 83,40.57,46.37\H,0,62.68,40.28,45.01\N,0,67.26,41.64,43.26\C,0,68.24,4
 2.13,42.31\H,0,69.173,41.582,42.436\H,0,67.868,41.984,41.296\H,0,68.41
 6,43.191,42.484\H,0,67.46,41.72,44.25\Ca,0,60.45,43.3,48.06\O,0,60.82,
 41.99,50.45\H,0,61.39,41.22,50.5\H,0,60.15,41.83,51.12\\Version=ES64L-
 G16RevA.03\State=1-A\HF=-5333.589819\RMSD=1.590e-09\Dipole=10.1463724,
 -3.7270505,-6.6259881\Quadrupole=-116.368405,-52.0172585,168.3856635,2
 5.5813046,57.4108602,2.9539621\PG=C01 [X(C54H83Ca1N15O23)]\\@


 TO ERR IS HUMAN - AND TO BLAME IT ON A COMPUTER IS EVEN MORE SO.
 Job cpu time:       0 days  9 hours 59 minutes 43.5 seconds.
 Elapsed time:       0 days  0 hours 12 minutes 38.1 seconds.
 File lengths (MBytes):  RWF=   1517 Int=      0 D2E=      0 Chk=    171 Scr=      1
 Normal termination of Gaussian 16 at Sun Sep 15 01:20:19 2019.
