 Entering Gaussian System, Link 0=g16
 Initial command:
 /home1/apps/gaussian/16rA.03/g16/l1.exe "/scratch/01990/pengzhi/4328947/Gau-965.inp" -scrdir="/scratch/01990/pengzhi/4328947/"
 Entering Link 1 = /home1/apps/gaussian/16rA.03/g16/l1.exe PID=       966.
  
 Copyright (c) 1988,1990,1992,1993,1995,1998,2003,2009,2016,
            Gaussian, Inc.  All Rights Reserved.
  
 This is part of the Gaussian(R) 16 program.  It is based on
 the Gaussian(R) 09 system (copyright 2009, Gaussian, Inc.),
 the Gaussian(R) 03 system (copyright 2003, Gaussian, Inc.),
 the Gaussian(R) 98 system (copyright 1998, Gaussian, Inc.),
 the Gaussian(R) 94 system (copyright 1995, Gaussian, Inc.),
 the Gaussian 92(TM) system (copyright 1992, Gaussian, Inc.),
 the Gaussian 90(TM) system (copyright 1990, Gaussian, Inc.),
 the Gaussian 88(TM) system (copyright 1988, Gaussian, Inc.),
 the Gaussian 86(TM) system (copyright 1986, Carnegie Mellon
 University), and the Gaussian 82(TM) system (copyright 1983,
 Carnegie Mellon University). Gaussian is a federally registered
 trademark of Gaussian, Inc.
  
 This software contains proprietary and confidential information,
 including trade secrets, belonging to Gaussian, Inc.
  
 This software is provided under written license and may be
 used, copied, transmitted, or stored only in accord with that
 written license.
  
 The following legend is applicable only to US Government
 contracts under FAR:
  
                    RESTRICTED RIGHTS LEGEND
  
 Use, reproduction and disclosure by the US Government is
 subject to restrictions as set forth in subparagraphs (a)
 and (c) of the Commercial Computer Software - Restricted
 Rights clause in FAR 52.227-19.
  
 Gaussian, Inc.
 340 Quinnipiac St., Bldg. 40, Wallingford CT 06492
  
  
 ---------------------------------------------------------------
 Warning -- This program may not be used in any manner that
 competes with the business of Gaussian, Inc. or will provide
 assistance to any competitor of Gaussian, Inc.  The licensee
 of this program is prohibited from giving any competitor of
 Gaussian, Inc. access to this program.  By using this program,
 the user acknowledges that Gaussian, Inc. is engaged in the
 business of creating and licensing software in the field of
 computational chemistry and represents and warrants to the
 licensee that it is not a competitor of Gaussian, Inc. and that
 it will not use this program in any manner prohibited above.
 ---------------------------------------------------------------
  

 Cite this work as:
 Gaussian 16, Revision A.03,
 M. J. Frisch, G. W. Trucks, H. B. Schlegel, G. E. Scuseria, 
 M. A. Robb, J. R. Cheeseman, G. Scalmani, V. Barone, 
 G. A. Petersson, H. Nakatsuji, X. Li, M. Caricato, A. V. Marenich, 
 J. Bloino, B. G. Janesko, R. Gomperts, B. Mennucci, H. P. Hratchian, 
 J. V. Ortiz, A. F. Izmaylov, J. L. Sonnenberg, D. Williams-Young, 
 F. Ding, F. Lipparini, F. Egidi, J. Goings, B. Peng, A. Petrone, 
 T. Henderson, D. Ranasinghe, V. G. Zakrzewski, J. Gao, N. Rega, 
 G. Zheng, W. Liang, M. Hada, M. Ehara, K. Toyota, R. Fukuda, 
 J. Hasegawa, M. Ishida, T. Nakajima, Y. Honda, O. Kitao, H. Nakai, 
 T. Vreven, K. Throssell, J. A. Montgomery, Jr., J. E. Peralta, 
 F. Ogliaro, M. J. Bearpark, J. J. Heyd, E. N. Brothers, K. N. Kudin, 
 V. N. Staroverov, T. A. Keith, R. Kobayashi, J. Normand, 
 K. Raghavachari, A. P. Rendell, J. C. Burant, S. S. Iyengar, 
 J. Tomasi, M. Cossi, J. M. Millam, M. Klene, C. Adamo, R. Cammi, 
 J. W. Ochterski, R. L. Martin, K. Morokuma, O. Farkas, 
 J. B. Foresman, and D. J. Fox, Gaussian, Inc., Wallingford CT, 2016.
 
 ******************************************
 Gaussian 16:  ES64L-G16RevA.03 25-Dec-2016
                14-Sep-2019 
 ******************************************
 %chk=CaMKII_loop3_74.0.chk
 %nprocshared=48
 Will use up to   48 processors via shared memory.
 %mem=10GB
 %nosave
 ----------------------------------------------------------------------
 #b3lyp/svp scf=(tight,noincore) Test #IOP(5/87=12) Density=Current Pop
 =(MK,readradii) iop(6/33=2) iop(6/42=6)
 ----------------------------------------------------------------------
 1/30=1,38=1,172=1/1;
 2/12=2,17=6,18=5,40=1/2;
 3/5=18,7=101,11=2,25=1,30=1,74=-5/1,2,3;
 4//1;
 5/5=4,32=2,38=5,87=12/2;
 6/7=2,8=2,9=2,10=2,15=8,20=101,22=-1,28=1,33=2,42=6/1,2;
 99/5=1,9=1/99;
 -----------------
 CaMKII_loop3_74.0
 -----------------
 Symbolic Z-matrix:
 Charge =  0 Multiplicity = 1
 C                     62.25     45.86     40.54 
 C                     61.52     45.35     41.77 
 O                     61.98     44.38     42.38 
 H                     63.251    45.429    40.507 
 H                     61.7      45.57     39.644 
 H                     62.325    46.946    40.586 
 N                     60.51     46.05     42.3 
 C                     59.96     45.75     43.6 
 C                     58.72     44.92     43.3 
 O                     57.74     45.31     42.66 
 C                     59.46     47.03     44.26 
 C                     58.9      46.79     45.65 
 O                     58.26     47.72     46.19 
 O                     58.98     45.72     46.28 
 H                     60.16     46.85     41.79 
 H                     60.74     45.21     44.13 
 H                     58.79     47.62     43.63 
 H                     60.33     47.68     44.31 
 N                     58.8      43.63     43.65 
 C                     57.98     42.62     43.03 
 C                     56.7      42.3      43.78 
 O                     55.68     42.1      43.11 
 C                     58.75     41.31     42.89 
 C                     60.08     41.35     42.15 
 C                     59.99     41.87     40.72 
 C                     61.22     41.37     39.97 
 N                     61.03     41.55     38.52 
 H                     59.55     43.38     44.28 
 H                     57.65     42.86     42.02 
 H                     58.18     40.48     42.48 
 H                     59.       41.09     43.93 
 H                     60.39     40.3      42.07 
 H                     60.84     41.93     42.66 
 H                     60.03     42.96     40.74 
 H                     59.11     41.53     40.17 
 H                     61.41     40.32     40.16 
 H                     62.07     41.89     40.4 
 H                     61.75     41.08     37.99 
 H                     60.13     41.2      38.2 
 H                     60.99     42.54     38.32 
 N                     56.72     42.33     45.12 
 C                     55.56     42.46     45.98 
 C                     55.08     43.91     46.01 
 O                     53.93     44.12     46.41 
 C                     55.75     41.81     47.35 
 C                     56.98     42.32     48.08 
 O                     57.5      41.59     48.95 
 O                     57.36     43.5      47.89 
 H                     57.62     42.43     45.56 
 H                     54.82     41.82     45.51 
 H                     55.77     40.72     47.28 
 H                     54.92     41.99     48.03 
 N                     55.91     44.86     45.58 
 C                     55.45     46.23     45.42 
 C                     55.24     46.96     46.74 
 O                     54.45     47.9      46.78 
 H                     56.7      44.55     45.04 
 H                     54.49     46.23     44.91 
 H                     56.22     46.81     44.91 
 N                     55.87     46.64     47.87 
 C                     55.61     47.09     49.22 
 C                     56.23     48.46     49.51 
 O                     55.85     49.17     50.43 
 C                     55.96     46.04     50.27 
 C                     57.45     45.88     50.55 
 N                     57.81     46.04     51.82 
 O                     58.24     45.65     49.64 
 H                     56.54     45.88     47.82 
 H                     54.54     47.29     49.28 
 H                     55.56     45.08     49.93 
 H                     55.36     46.31     51.14 
 H                     57.13     46.17     52.57 
 H                     58.75     46.29     52.07 
 N                     57.21     48.9      48.71 
 C                     57.71     50.25     48.62 
 C                     59.21     50.33     48.4 
 O                     59.75     51.4      48.11 
 H                     57.47     48.29     47.95 
 H                     57.6      50.76     49.58 
 H                     57.28     50.82     47.8 
 N                     59.91     49.2      48.52 
 C                     61.35     49.06     48.47 
 C                     61.87     47.8      47.78 
 O                     61.45     46.69     48.08 
 C                     61.9      49.24     49.88 
 C                     61.24     48.37     50.92 
 C                     60.08     48.8      51.57 
 C                     62.02     47.28     51.33 
 C                     59.61     48.08     52.68 
 C                     61.66     46.67     52.54 
 C                     60.49     47.11     53.19 
 O                     60.12     46.53     54.37 
 H                     59.37     48.37     48.7 
 H                     61.79     49.89     47.91 
 H                     61.73     50.27     50.21 
 H                     62.98     49.1      49.87 
 H                     59.55     49.7      51.29 
 H                     62.8      46.84     50.73 
 H                     58.69     48.38     53.17 
 H                     62.39     45.95     52.86 
 H                     60.57     45.74     54.67 
 N                     62.98     47.98     47.06 
 C                     63.92     46.97     46.62 
 C                     64.61     46.28     47.79 
 O                     64.89     46.9      48.82 
 C                     64.9      47.53     45.6 
 C                     64.26     48.46     44.57 
 C                     65.72     46.4      44.97 
 C                     65.11     49.13     43.49 
 H                     63.31     48.93     47.09 
 H                     63.29     46.25     46.1 
 H                     65.63     48.1      46.18 
 H                     63.67     49.21     45.1 
 H                     63.6      47.74     44.07 
 H                     66.44     46.04     45.71 
 H                     65.06     45.62     44.59 
 H                     66.22     46.75     44.07 
 H                     65.4      48.44     42.7 
 H                     64.55     49.91     42.98 
 H                     66.       49.53     43.97 
 N                     64.89     44.99     47.61 
 C                     65.66     44.06     48.42 
 C                     66.52     43.15     47.55 
 O                     66.27     42.91     46.37 
 C                     64.67     43.37     49.35 
 O                     63.83     42.49     48.63 
 H                     64.55     44.56     46.76 
 H                     66.3      44.69     49.03 
 H                     64.13     44.05     50. 
 H                     65.36     42.72     49.89 
 H                     63.23     42.95     48.04 
 N                     67.53     42.52     48.15 
 C                     68.54     41.82     47.37 
 C                     67.99     40.55     46.74 
 O                     68.44     40.26     45.63 
 C                     69.72     41.42     48.24 
 H                     67.5      42.48     49.16 
 H                     69.01     42.4      46.58 
 H                     70.66     41.4      47.69 
 H                     69.91     42.29     48.87 
 H                     69.56     40.5      48.8 
 N                     66.97     39.94     47.34 
 C                     66.29     38.83     46.69 
 C                     65.49     39.13     45.42 
 O                     65.19     38.26     44.61 
 C                     65.48     38.16     47.79 
 H                     66.74     40.3      48.25 
 H                     67.14     38.18     46.48 
 H                     64.72     38.84     48.19 
 H                     64.94     37.31     47.38 
 H                     66.21     37.84     48.54 
 N                     65.11     40.4      45.26 
 C                     64.41     40.98     44.13 
 C                     65.46     41.33     43.08 
 O                     65.36     40.89     41.93 
 C                     63.44     42.06     44.58 
 C                     62.27     41.51     45.38 
 C                     61.43     42.54     46.13 
 O                     60.2      42.69     45.97 
 O                     61.98     43.28     46.98 
 H                     65.45     41.04     45.96 
 H                     63.72     40.28     43.65 
 H                     63.08     42.6      43.7 
 H                     63.93     42.88     45.11 
 H                     62.56     40.85     46.19 
 H                     61.63     40.99     44.66 
 N                     66.51     42.05     43.46 
 C                     67.54     42.51     42.55 
 H                     68.455    41.943    42.721 
 H                     67.209    42.364    41.522 
 H                     67.732    43.569    42.723 
 H                     66.42     42.48     44.37 
 Ca                    59.89     44.3      48.07 
 O                     61.04     44.64     50.47 
 H                     61.17     45.49     50.89 
 H                     61.07     44.       51.18 
 
 Stoichiometry    C54H83CaN15O23
 Framework group  C1[X(C54H83CaN15O23)]
 Deg. of freedom   522
 Full point group                 C1      NOp   1
 Largest Abelian subgroup         C1      NOp   1
 Largest concise Abelian subgroup C1      NOp   1
                         Standard orientation:                         
 ---------------------------------------------------------------------
 Center     Atomic      Atomic             Coordinates (Angstroms)
 Number     Number       Type             X           Y           Z
 ---------------------------------------------------------------------
      1          6           0        2.358685    3.477945    4.624440
      2          6           0        1.612289    3.134342    3.347439
      3          8           0        2.253012    2.750246    2.364310
      4          1           0        3.376237    3.090649    4.565779
      5          1           0        2.388916    4.561090    4.748124
      6          1           0        1.848827    3.028061    5.475784
      7          7           0        0.276122    3.059469    3.340263
      8          6           0       -0.460283    2.490161    2.237496
      9          6           0       -0.906946    3.695691    1.422825
     10          8           0       -1.650624    4.592797    1.828095
     11          6           0       -1.736497    1.832470    2.750060
     12          6           0       -2.542921    1.180275    1.642079
     13          8           0       -3.708878    0.811715    1.908174
     14          8           0       -2.156961    1.028165    0.469007
     15          1           0       -0.226793    3.365012    4.162650
     16          1           0        0.241212    1.839497    1.722286
     17          1           0       -2.341850    2.479784    3.389147
     18          1           0       -1.401145    1.084414    3.464099
     19          7           0       -0.310637    3.830320    0.231485
     20          6           0       -0.223193    5.103914   -0.437252
     21          6           0       -1.329806    5.364815   -1.442557
     22          8           0       -1.794143    6.509693   -1.496828
     23          6           0        1.097726    5.228681   -1.191048
     24          6           0        2.382600    5.028478   -0.399142
     25          6           0        2.549797    5.978439    0.781120
     26          6           0        4.034390    6.027328    1.126075
     27          7           0        4.303046    7.165189    2.022789
     28          1           0        0.184569    3.021381   -0.118214
     29          1           0       -0.249713    5.967738    0.225851
     30          1           0        1.216237    6.142131   -1.768511
     31          1           0        1.040658    4.380142   -1.876048
     32          1           0        3.188638    5.276129   -1.101974
     33          1           0        2.505475    4.019188   -0.024529
     34          1           0        2.019537    5.566376    1.640846
     35          1           0        2.224550    7.002581    0.586575
     36          1           0        4.651242    6.138554    0.241868
     37          1           0        4.286637    5.048605    1.521389
     38          1           0        5.294278    7.323345    2.135245
     39          1           0        3.886343    8.030531    1.687466
     40          1           0        3.838118    6.998162    2.904630
     41          7           0       -1.800262    4.332886   -2.157185
     42          6           0       -3.080221    4.289025   -2.836803
     43          6           0       -4.205829    4.036767   -1.835218
     44          8           0       -5.356984    4.306678   -2.193812
     45          6           0       -3.081595    3.373009   -4.060083
     46          6           0       -2.631065    1.958808   -3.739215
     47          8           0       -2.156689    1.262595   -4.661416
     48          8           0       -2.866137    1.483854   -2.602526
     49          1           0       -1.298513    3.462974   -2.085767
     50          1           0       -3.170903    5.277578   -3.275710
     51          1           0       -2.486613    3.789190   -4.876287
     52          1           0       -4.064412    3.262980   -4.513586
     53          7           0       -3.885888    3.569945   -0.628563
     54          6           0       -4.888299    3.477255    0.420570
     55          6           0       -5.888679    2.348582    0.209054
     56          8           0       -7.001891    2.437571    0.721051
     57          1           0       -2.917552    3.641474   -0.365869
     58          1           0       -5.463487    4.399168    0.451146
     59          1           0       -4.399115    3.231497    1.363810
     60          7           0       -5.627865    1.253845   -0.504897
     61          6           0       -6.535597    0.226763   -0.967203
     62          6           0       -6.847434   -0.809766    0.116201
     63          8           0       -7.830661   -1.534791    0.066160
     64          6           0       -6.095233   -0.400050   -2.286553
     65          6           0       -4.941301   -1.390208   -2.176427
     66          7           0       -5.186122   -2.604341   -2.660207
     67          8           0       -3.883647   -1.067175   -1.645279
     68          1           0       -4.697037    1.177706   -0.900828
     69          1           0       -7.499312    0.711708   -1.123988
     70          1           0       -5.801575    0.410138   -2.960764
     71          1           0       -7.009874   -0.813018   -2.713976
     72          1           0       -6.050218   -2.833931   -3.152576
     73          1           0       -4.662499   -3.404923   -2.354451
     74          7           0       -6.020067   -0.906283    1.165081
     75          6           0       -6.282487   -1.582232    2.412009
     76          6           0       -5.067113   -2.283442    2.991638
     77          8           0       -5.085332   -2.734746    4.139067
     78          1           0       -5.238256   -0.269104    1.173713
     79          1           0       -6.965819   -2.419816    2.252911
     80          1           0       -6.622289   -0.919113    3.203847
     81          7           0       -3.984170   -2.377406    2.217232
     82          6           0       -2.763738   -3.097614    2.513112
     83          6           0       -1.471442   -2.435370    2.038240
     84          8           0       -1.342082   -2.045029    0.885244
     85          6           0       -2.918625   -4.530538    2.017391
     86          6           0       -3.360049   -4.646334    0.580089
     87          6           0       -4.718869   -4.634944    0.253781
     88          6           0       -2.336505   -5.017498   -0.302632
     89          6           0       -5.111912   -4.961424   -1.054015
     90          6           0       -2.734222   -5.518756   -1.550174
     91          6           0       -4.105990   -5.505205   -1.871219
     92          8           0       -4.516289   -5.988555   -3.081066
     93          1           0       -4.049424   -1.925636    1.320267
     94          1           0       -2.643529   -3.206872    3.594645
     95          1           0       -3.692322   -5.038191    2.602524
     96          1           0       -1.995154   -5.079402    2.196417
     97          1           0       -5.494951   -4.436446    0.980138
     98          1           0       -1.288789   -4.850453   -0.111879
     99          1           0       -6.159748   -4.919047   -1.331039
    100          1           0       -1.906625   -5.921224   -2.104071
    101          1           0       -3.866079   -6.195158   -3.752737
    102          7           0       -0.437724   -2.575624    2.871699
    103          6           0        0.969555   -2.422898    2.565854
    104          6           0        1.451743   -3.454227    1.553454
    105          8           0        0.994317   -4.600694    1.544879
    106          6           0        1.813170   -2.394763    3.831525
    107          6           0        1.198946   -1.579467    4.968812
    108          6           0        3.253982   -1.990359    3.504845
    109          6           0        1.905512   -1.471127    6.320414
    110          1           0       -0.672362   -3.109439    3.691631
    111          1           0        1.023596   -1.430720    2.120474
    112          1           0        1.892958   -3.436608    4.151514
    113          1           0        0.167392   -1.906614    5.111534
    114          1           0        1.222384   -0.585578    4.504446
    115          1           0        3.742931   -2.827648    2.999399
    116          1           0        3.265780   -1.066337    2.926535
    117          1           0        3.785082   -1.711867    4.411970
    118          1           0        2.762150   -0.800625    6.290440
    119          1           0        1.247746   -1.041165    7.071798
    120          1           0        2.232685   -2.468702    6.603788
    121          7           0        2.391476   -3.031900    0.708799
    122          6           0        3.185173   -3.754071   -0.272228
    123          6           0        4.629809   -3.266691   -0.281575
    124          8           0        4.970154   -2.154501    0.118046
    125          6           0        2.431480   -3.664068   -1.593192
    126          8           0        2.472197   -2.348550   -2.109094
    127          1           0        2.641811   -2.052873    0.751677
    128          1           0        3.153160   -4.788781    0.054806
    129          1           0        1.432667   -4.085631   -1.559160
    130          1           0        3.114710   -4.234093   -2.224436
    131          1           0        1.973949   -1.725903   -1.576402
    132          7           0        5.533247   -4.067949   -0.846186
    133          6           0        6.957270   -3.804563   -0.700285
    134          6           0        7.392713   -2.585205   -1.497690
    135          8           0        8.283995   -1.900431   -0.992318
    136          6           0        7.782379   -4.983611   -1.188486
    137          1           0        5.175090   -4.798999   -1.446093
    138          1           0        7.309099   -3.671266    0.319445
    139          1           0        8.724535   -5.088165   -0.651914
    140          1           0        7.267578   -5.863998   -0.801448
    141          1           0        7.928005   -5.000150   -2.267430
    142          7           0        6.690705   -2.257066   -2.580284
    143          6           0        6.949597   -1.004847   -3.274490
    144          6           0        6.614566    0.297486   -2.543339
    145          8           0        7.106180    1.375173   -2.859419
    146          6           0        6.267437   -1.150658   -4.626673
    147          1           0        6.006973   -2.938229   -2.861581
    148          1           0        8.022130   -1.098894   -3.447489
    149          1           0        5.183594   -1.260567   -4.511762
    150          1           0        6.419701   -0.247127   -5.212032
    151          1           0        6.740376   -2.014832   -5.103468
    152          7           0        5.725910    0.194383   -1.552098
    153          6           0        5.277781    1.238950   -0.651342
    154          6           0        6.293811    1.322693    0.483634
    155          8           0        6.843264    2.397034    0.748195
    156          6           0        3.807792    1.071419   -0.303685
    157          6           0        2.887090    1.312089   -1.489344
    158          6           0        1.439278    0.862760   -1.313438
    159          8           0        0.452584    1.620337   -1.429680
    160          8           0        1.196222   -0.340348   -1.056425
    161          1           0        5.421426   -0.743706   -1.345994
    162          1           0        5.260437    2.227677   -1.118909
    163          1           0        3.559351    1.750909    0.516174
    164          1           0        3.589331    0.115698    0.178261
    165          1           0        3.166186    0.765803   -2.383479
    166          1           0        2.901784    2.391941   -1.668519
    167          7           0        6.619025    0.200993    1.117135
    168          6           0        7.514163    0.152561    2.255986
    169          1           0        8.461647   -0.293685    1.954172
    170          1           0        7.689605    1.163171    2.624156
    171          1           0        7.065358   -0.449298    3.046312
    172          1           0        6.009690   -0.582590    0.927899
    173         20           0       -1.348294   -0.342943   -1.405753
    174          8           0       -1.461000   -2.913203   -2.166777
    175          1           0       -1.938976   -3.594783   -1.694772
    176          1           0       -1.361260   -3.245426   -3.058001
 ---------------------------------------------------------------------
 Rotational constants (GHZ):           0.0241347           0.0159491           0.0129623
 Standard basis: SVP (5D, 7F)
 There are  1809 symmetry adapted cartesian basis functions of A   symmetry.
 There are  1717 symmetry adapted basis functions of A   symmetry.
  1717 basis functions,  2922 primitive gaussians,  1809 cartesian basis functions
   358 alpha electrons      358 beta electrons
       nuclear repulsion energy     22008.4954009911 Hartrees.
 NAtoms=  176 NActive=  176 NUniq=  176 SFac= 1.00D+00 NAtFMM=   60 NAOKFM=T Big=T
 Integral buffers will be    131072 words long.
 Raffenetti 2 integral format.
 Two-electron integral symmetry is turned on.
 One-electron integrals computed using PRISM.
 NBasis=  1717 RedAO= T EigKep=  2.80D-04  NBF=  1717
 NBsUse=  1717 1.00D-06 EigRej= -1.00D+00 NBFU=  1717
 ExpMin= 1.98D-02 ExpMax= 3.51D+04 ExpMxC= 5.28D+03 IAcc=3 IRadAn=         5 AccDes= 0.00D+00
 Harris functional with IExCor=  402 and IRadAn=       5 diagonalized for initial guess.
 HarFok:  IExCor=  402 AccDes= 0.00D+00 IRadAn=         5 IDoV= 1 UseB2=F ITyADJ=14
 ICtDFT=  3500011 ScaDFX=  1.000000  1.000000  1.000000  1.000000
 FoFCou: FMM=F IPFlag=           0 FMFlag=      100000 FMFlg1=        2001
         NFxFlg=           0 DoJE=T BraDBF=F KetDBF=T FulRan=T
         wScrn=  0.000000 ICntrl=       500 IOpCl=  0 I1Cent=   200000004 NGrid=           0
         NMat0=    1 NMatS0=      1 NMatT0=    0 NMatD0=    1 NMtDS0=    0 NMtDT0=    0
 Petite list used in FoFCou.
 Requested convergence on RMS density matrix=1.00D-08 within 128 cycles.
 Requested convergence on MAX density matrix=1.00D-06.
 Requested convergence on             energy=1.00D-06.
 No special actions if energy rises.
 EnCoef did     4 forward-backward iterations
 EnCoef did     6 forward-backward iterations
 SCF Done:  E(RB3LYP) =  -5333.58115116     A.U. after   20 cycles
            NFock= 20  Conv=0.37D-08     -V/T= 2.0082
 SCF density gives NOpUse=  1 NOpAll=  1.
 Hyperfine terms turned off by default for NAtoms > 100.

 **********************************************************************

            Population analysis using the SCF density.

 **********************************************************************

 Orbital symmetries:
 BldTbl:  Degeneracy threshold= 1.00D-02
       Occupied  (A) (A) (A) (A) (A) (A) (A) (A) (A) (A) (A) (A)
                 (A) (A) (A) (A) (A) (A) (A) (A) (A) (A) (A) (A)
                 (A) (A) (A) (A) (A) (A) (A) (A) (A) (A) (A) (A)
                 (A) (A) (A) (A) (A) (A) (A) (A) (A) (A) (A) (A)
                 (A) (A) (A) (A) (A) (A) (A) (A) (A) (A) (A) (A)
                 (A) (A) (A) (A) (A) (A) (A) (A) (A) (A) (A) (A)
                 (A) (A) (A) (A) (A) (A) (A) (A) (A) (A) (A) (A)
                 (A) (A) (A) (A) (A) (A) (A) (A) (A) (A) (A) (A)
                 (A) (A) (A) (A) (A) (A) (A) (A) (A) (A) (A) (A)
                 (A) (A) (A) (A) (A) (A) (A) (A) (A) (A) (A) (A)
                 (A) (A) (A) (A) (A) (A) (A) (A) (A) (A) (A) (A)
                 (A) (A) (A) (A) (A) (A) (A) (A) (A) (A) (A) (A)
                 (A) (A) (A) (A) (A) (A) (A) (A) (A) (A) (A) (A)
                 (A) (A) (A) (A) (A) (A) (A) (A) (A) (A) (A) (A)
                 (A) (A) (A) (A) (A) (A) (A) (A) (A) (A) (A) (A)
                 (A) (A) (A) (A) (A) (A) (A) (A) (A) (A) (A) (A)
                 (A) (A) (A) (A) (A) (A) (A) (A) (A) (A) (A) (A)
                 (A) (A) (A) (A) (A) (A) (A) (A) (A) (A) (A) (A)
                 (A) (A) (A) (A) (A) (A) (A) (A) (A) (A) (A) (A)
                 (A) (A) (A) (A) (A) (A) (A) (A) (A) (A) (A) (A)
                 (A) (A) (A) (A) (A) (A) (A) (A) (A) (A) (A) (A)
                 (A) (A) (A) (A) (A) (A) (A) (A) (A) (A) (A) (A)
                 (A) (A) (A) (A) (A) (A) (A) (A) (A) (A) (A) (A)
                 (A) (A) (A) (A) (A) (A) (A) (A) (A) (A) (A) (A)
                 (A) (A) (A) (A) (A) (A) (A) (A) (A) (A) (A) (A)
                 (A) (A) (A) (A) (A) (A) (A) (A) (A) (A) (A) (A)
                 (A) (A) (A) (A) (A) (A) (A) (A) (A) (A) (A) (A)
                 (A) (A) (A) (A) (A) (A) (A) (A) (A) (A) (A) (A)
                 (A) (A) (A) (A) (A) (A) (A) (A) (A) (A) (A) (A)
                 (A) (A) (A) (A) (A) (A) (A) (A) (A) (A)
       Virtual   (A) (A) (A) (A) (A) (A) (A) (A) (A) (A) (A) (A)
                 (A) (A) (A) (A) (A) (A) (A) (A) (A) (A) (A) (A)
                 (A) (A) (A) (A) (A) (A) (A) (A) (A) (A) (A) (A)
                 (A) (A) (A) (A) (A) (A) (A) (A) (A) (A) (A) (A)
                 (A) (A) (A) (A) (A) (A) (A) (A) (A) (A) (A) (A)
                 (A) (A) (A) (A) (A) (A) (A) (A) (A) (A) (A) (A)
                 (A) (A) (A) (A) (A) (A) (A) (A) (A) (A) (A) (A)
                 (A) (A) (A) (A) (A) (A) (A) (A) (A) (A) (A) (A)
                 (A) (A) (A) (A) (A) (A) (A) (A) (A) (A) (A) (A)
                 (A) (A) (A) (A) (A) (A) (A) (A) (A) (A) (A) (A)
                 (A) (A) (A) (A) (A) (A) (A) (A) (A) (A) (A) (A)
                 (A) (A) (A) (A) (A) (A) (A) (A) (A) (A) (A) (A)
                 (A) (A) (A) (A) (A) (A) (A) (A) (A) (A) (A) (A)
                 (A) (A) (A) (A) (A) (A) (A) (A) (A) (A) (A) (A)
                 (A) (A) (A) (A) (A) (A) (A) (A) (A) (A) (A) (A)
                 (A) (A) (A) (A) (A) (A) (A) (A) (A) (A) (A) (A)
                 (A) (A) (A) (A) (A) (A) (A) (A) (A) (A) (A) (A)
                 (A) (A) (A) (A) (A) (A) (A) (A) (A) (A) (A) (A)
                 (A) (A) (A) (A) (A) (A) (A) (A) (A) (A) (A) (A)
                 (A) (A) (A) (A) (A) (A) (A) (A) (A) (A) (A) (A)
                 (A) (A) (A) (A) (A) (A) (A) (A) (A) (A) (A) (A)
                 (A) (A) (A) (A) (A) (A) (A) (A) (A) (A) (A) (A)
                 (A) (A) (A) (A) (A) (A) (A) (A) (A) (A) (A) (A)
                 (A) (A) (A) (A) (A) (A) (A) (A) (A) (A) (A) (A)
                 (A) (A) (A) (A) (A) (A) (A) (A) (A) (A) (A) (A)
                 (A) (A) (A) (A) (A) (A) (A) (A) (A) (A) (A) (A)
                 (A) (A) (A) (A) (A) (A) (A) (A) (A) (A) (A) (A)
                 (A) (A) (A) (A) (A) (A) (A) (A) (A) (A) (A) (A)
                 (A) (A) (A) (A) (A) (A) (A) (A) (A) (A) (A) (A)
                 (A) (A) (A) (A) (A) (A) (A) (A) (A) (A) (A) (A)
                 (A) (A) (A) (A) (A) (A) (A) (A) (A) (A) (A) (A)
                 (A) (A) (A) (A) (A) (A) (A) (A) (A) (A) (A) (A)
                 (A) (A) (A) (A) (A) (A) (A) (A) (A) (A) (A) (A)
                 (A) (A) (A) (A) (A) (A) (A) (A) (A) (A) (A) (A)
                 (A) (A) (A) (A) (A) (A) (A) (A) (A) (A) (A) (A)
                 (A) (A) (A) (A) (A) (A) (A) (A) (A) (A) (A) (A)
                 (A) (A) (A) (A) (A) (A) (A) (A) (A) (A) (A) (A)
                 (A) (A) (A) (A) (A) (A) (A) (A) (A) (A) (A) (A)
                 (A) (A) (A) (A) (A) (A) (A) (A) (A) (A) (A) (A)
                 (A) (A) (A) (A) (A) (A) (A) (A) (A) (A) (A) (A)
                 (A) (A) (A) (A) (A) (A) (A) (A) (A) (A) (A) (A)
                 (A) (A) (A) (A) (A) (A) (A) (A) (A) (A) (A) (A)
                 (A) (A) (A) (A) (A) (A) (A) (A) (A) (A) (A) (A)
                 (A) (A) (A) (A) (A) (A) (A) (A) (A) (A) (A) (A)
                 (A) (A) (A) (A) (A) (A) (A) (A) (A) (A) (A) (A)
                 (A) (A) (A) (A) (A) (A) (A) (A) (A) (A) (A) (A)
                 (A) (A) (A) (A) (A) (A) (A) (A) (A) (A) (A) (A)
                 (A) (A) (A) (A) (A) (A) (A) (A) (A) (A) (A) (A)
                 (A) (A) (A) (A) (A) (A) (A) (A) (A) (A) (A) (A)
                 (A) (A) (A) (A) (A) (A) (A) (A) (A) (A) (A) (A)
                 (A) (A) (A) (A) (A) (A) (A) (A) (A) (A) (A) (A)
                 (A) (A) (A) (A) (A) (A) (A) (A) (A) (A) (A) (A)
                 (A) (A) (A) (A) (A) (A) (A) (A) (A) (A) (A) (A)
                 (A) (A) (A) (A) (A) (A) (A) (A) (A) (A) (A) (A)
                 (A) (A) (A) (A) (A) (A) (A) (A) (A) (A) (A) (A)
                 (A) (A) (A) (A) (A) (A) (A) (A) (A) (A) (A) (A)
                 (A) (A) (A) (A) (A) (A) (A) (A) (A) (A) (A) (A)
                 (A) (A) (A) (A) (A) (A) (A) (A) (A) (A) (A) (A)
                 (A) (A) (A) (A) (A) (A) (A) (A) (A) (A) (A) (A)
                 (A) (A) (A) (A) (A) (A) (A) (A) (A) (A) (A) (A)
                 (A) (A) (A) (A) (A) (A) (A) (A) (A) (A) (A) (A)
                 (A) (A) (A) (A) (A) (A) (A) (A) (A) (A) (A) (A)
                 (A) (A) (A) (A) (A) (A) (A) (A) (A) (A) (A) (A)
                 (A) (A) (A) (A) (A) (A) (A) (A) (A) (A) (A) (A)
                 (A) (A) (A) (A) (A) (A) (A) (A) (A) (A) (A) (A)
                 (A) (A) (A) (A) (A) (A) (A) (A) (A) (A) (A) (A)
                 (A) (A) (A) (A) (A) (A) (A) (A) (A) (A) (A) (A)
                 (A) (A) (A) (A) (A) (A) (A) (A) (A) (A) (A) (A)
                 (A) (A) (A) (A) (A) (A) (A) (A) (A) (A) (A) (A)
                 (A) (A) (A) (A) (A) (A) (A) (A) (A) (A) (A) (A)
                 (A) (A) (A) (A) (A) (A) (A) (A) (A) (A) (A) (A)
                 (A) (A) (A) (A) (A) (A) (A) (A) (A) (A) (A) (A)
                 (A) (A) (A) (A) (A) (A) (A) (A) (A) (A) (A) (A)
                 (A) (A) (A) (A) (A) (A) (A) (A) (A) (A) (A) (A)
                 (A) (A) (A) (A) (A) (A) (A) (A) (A) (A) (A) (A)
                 (A) (A) (A) (A) (A) (A) (A) (A) (A) (A) (A) (A)
                 (A) (A) (A) (A) (A) (A) (A) (A) (A) (A) (A) (A)
                 (A) (A) (A) (A) (A) (A) (A) (A) (A) (A) (A) (A)
                 (A) (A) (A) (A) (A) (A) (A) (A) (A) (A) (A) (A)
                 (A) (A) (A) (A) (A) (A) (A) (A) (A) (A) (A) (A)
                 (A) (A) (A) (A) (A) (A) (A) (A) (A) (A) (A) (A)
                 (A) (A) (A) (A) (A) (A) (A) (A) (A) (A) (A) (A)
                 (A) (A) (A) (A) (A) (A) (A) (A) (A) (A) (A) (A)
                 (A) (A) (A) (A) (A) (A) (A) (A) (A) (A) (A) (A)
                 (A) (A) (A) (A) (A) (A) (A) (A) (A) (A) (A) (A)
                 (A) (A) (A) (A) (A) (A) (A) (A) (A) (A) (A) (A)
                 (A) (A) (A) (A) (A) (A) (A) (A) (A) (A) (A) (A)
                 (A) (A) (A) (A) (A) (A) (A) (A) (A) (A) (A) (A)
                 (A) (A) (A) (A) (A) (A) (A) (A) (A) (A) (A) (A)
                 (A) (A) (A) (A) (A) (A) (A) (A) (A) (A) (A) (A)
                 (A) (A) (A) (A) (A) (A) (A) (A) (A) (A) (A) (A)
                 (A) (A) (A) (A) (A) (A) (A) (A) (A) (A) (A) (A)
                 (A) (A) (A) (A) (A) (A) (A) (A) (A) (A) (A) (A)
                 (A) (A) (A) (A) (A) (A) (A) (A) (A) (A) (A) (A)
                 (A) (A) (A) (A) (A) (A) (A) (A) (A) (A) (A) (A)
                 (A) (A) (A) (A) (A) (A) (A) (A) (A) (A) (A) (A)
                 (A) (A) (A) (A) (A) (A) (A) (A) (A) (A) (A) (A)
                 (A) (A) (A) (A) (A) (A) (A) (A) (A) (A) (A) (A)
                 (A) (A) (A) (A) (A) (A) (A) (A) (A) (A) (A) (A)
                 (A) (A) (A) (A) (A) (A) (A) (A) (A) (A) (A) (A)
                 (A) (A) (A) (A) (A) (A) (A) (A) (A) (A) (A) (A)
                 (A) (A) (A) (A) (A) (A) (A) (A) (A) (A) (A) (A)
                 (A) (A) (A) (A) (A) (A) (A) (A) (A) (A) (A) (A)
                 (A) (A) (A) (A) (A) (A) (A) (A) (A) (A) (A) (A)
                 (A) (A) (A) (A) (A) (A) (A) (A) (A) (A) (A) (A)
                 (A) (A) (A) (A) (A) (A) (A) (A) (A) (A) (A) (A)
                 (A) (A) (A) (A) (A) (A) (A) (A) (A) (A) (A) (A)
                 (A) (A) (A) (A) (A) (A) (A) (A) (A) (A) (A) (A)
                 (A) (A) (A) (A) (A) (A) (A) (A) (A) (A) (A) (A)
                 (A) (A) (A) (A) (A) (A) (A) (A) (A) (A) (A) (A)
                 (A) (A) (A) (A) (A) (A) (A) (A) (A) (A) (A) (A)
                 (A) (A) (A) (A) (A) (A) (A) (A) (A) (A) (A) (A)
                 (A) (A) (A) (A) (A) (A) (A) (A) (A) (A) (A) (A)
                 (A) (A) (A)
 The electronic state is 1-A.
 Alpha  occ. eigenvalues -- -145.36198 -19.17518 -19.16524 -19.15843 -19.12664
 Alpha  occ. eigenvalues --  -19.12470 -19.12234 -19.12048 -19.11031 -19.10192
 Alpha  occ. eigenvalues --  -19.10055 -19.09297 -19.08690 -19.08596 -19.08339
 Alpha  occ. eigenvalues --  -19.06576 -19.06047 -19.05080 -19.04398 -19.03328
 Alpha  occ. eigenvalues --  -19.02248 -19.02177 -19.01580 -18.99613 -15.41978
 Alpha  occ. eigenvalues --  -14.57990 -14.40865 -14.37834 -14.37754 -14.37709
 Alpha  occ. eigenvalues --  -14.37701 -14.34709 -14.34554 -14.34287 -14.33366
 Alpha  occ. eigenvalues --  -14.33163 -14.31473 -14.30270 -14.29230 -14.28467
 Alpha  occ. eigenvalues --  -12.55597 -12.55549 -12.55533 -10.33996 -10.33002
 Alpha  occ. eigenvalues --  -10.31237 -10.30777 -10.30654 -10.29647 -10.28854
 Alpha  occ. eigenvalues --  -10.28635 -10.27848 -10.27651 -10.27037 -10.26886
 Alpha  occ. eigenvalues --  -10.26716 -10.26637 -10.26144 -10.25956 -10.25646
 Alpha  occ. eigenvalues --  -10.25518 -10.24855 -10.24242 -10.23758 -10.23726
 Alpha  occ. eigenvalues --  -10.23616 -10.23302 -10.22944 -10.22912 -10.22396
 Alpha  occ. eigenvalues --  -10.22195 -10.22032 -10.21965 -10.21814 -10.21775
 Alpha  occ. eigenvalues --  -10.21564 -10.21308 -10.20950 -10.20851 -10.20782
 Alpha  occ. eigenvalues --  -10.20703 -10.20347 -10.20290 -10.20147 -10.20074
 Alpha  occ. eigenvalues --  -10.19902 -10.19793 -10.19786 -10.19489 -10.19415
 Alpha  occ. eigenvalues --  -10.19386 -10.19186 -10.17883 -10.17581 -10.17536
 Alpha  occ. eigenvalues --  -10.16785 -10.13191  -1.78803  -1.12968  -1.08940
 Alpha  occ. eigenvalues --   -1.06874  -1.06437  -1.06193  -1.06107  -1.05581
 Alpha  occ. eigenvalues --   -1.05275  -1.04539  -1.04367  -1.04157  -1.02698
 Alpha  occ. eigenvalues --   -1.02327  -1.01949  -1.01616  -1.01233  -1.00916
 Alpha  occ. eigenvalues --   -0.99771  -0.98760  -0.98670  -0.98434  -0.97489
 Alpha  occ. eigenvalues --   -0.96325  -0.95523  -0.95166  -0.95031  -0.94703
 Alpha  occ. eigenvalues --   -0.94547  -0.94045  -0.93938  -0.91925  -0.90877
 Alpha  occ. eigenvalues --   -0.90643  -0.90249  -0.90124  -0.88404  -0.87747
 Alpha  occ. eigenvalues --   -0.87657  -0.87368  -0.86851  -0.85824  -0.85162
 Alpha  occ. eigenvalues --   -0.85007  -0.84407  -0.82781  -0.80571  -0.80191
 Alpha  occ. eigenvalues --   -0.79547  -0.79258  -0.79137  -0.78004  -0.77211
 Alpha  occ. eigenvalues --   -0.76481  -0.75728  -0.74904  -0.74776  -0.74583
 Alpha  occ. eigenvalues --   -0.73459  -0.73311  -0.72238  -0.71908  -0.71059
 Alpha  occ. eigenvalues --   -0.69928  -0.69633  -0.69518  -0.68285  -0.67917
 Alpha  occ. eigenvalues --   -0.67632  -0.66761  -0.66480  -0.65746  -0.65678
 Alpha  occ. eigenvalues --   -0.64571  -0.64048  -0.63565  -0.62686  -0.62439
 Alpha  occ. eigenvalues --   -0.61529  -0.61427  -0.61095  -0.60822  -0.60673
 Alpha  occ. eigenvalues --   -0.60636  -0.59582  -0.59361  -0.59211  -0.58829
 Alpha  occ. eigenvalues --   -0.58647  -0.58077  -0.57719  -0.57149  -0.56508
 Alpha  occ. eigenvalues --   -0.56226  -0.56087  -0.55474  -0.55217  -0.55093
 Alpha  occ. eigenvalues --   -0.54506  -0.54425  -0.54007  -0.53929  -0.53789
 Alpha  occ. eigenvalues --   -0.53701  -0.53006  -0.52653  -0.52514  -0.51984
 Alpha  occ. eigenvalues --   -0.51596  -0.51207  -0.51098  -0.50574  -0.50486
 Alpha  occ. eigenvalues --   -0.50145  -0.50107  -0.49905  -0.49585  -0.49483
 Alpha  occ. eigenvalues --   -0.49286  -0.48968  -0.48845  -0.48776  -0.48166
 Alpha  occ. eigenvalues --   -0.48052  -0.47855  -0.47559  -0.47426  -0.47259
 Alpha  occ. eigenvalues --   -0.47048  -0.46851  -0.46656  -0.46487  -0.46413
 Alpha  occ. eigenvalues --   -0.46105  -0.45985  -0.45655  -0.45498  -0.45423
 Alpha  occ. eigenvalues --   -0.44964  -0.44725  -0.44635  -0.44269  -0.44211
 Alpha  occ. eigenvalues --   -0.44153  -0.44121  -0.43933  -0.43742  -0.43564
 Alpha  occ. eigenvalues --   -0.43501  -0.43298  -0.43220  -0.43029  -0.42927
 Alpha  occ. eigenvalues --   -0.42736  -0.42634  -0.42565  -0.42382  -0.42108
 Alpha  occ. eigenvalues --   -0.41907  -0.41851  -0.41711  -0.41584  -0.41492
 Alpha  occ. eigenvalues --   -0.41393  -0.41037  -0.40978  -0.40895  -0.40751
 Alpha  occ. eigenvalues --   -0.40706  -0.40467  -0.40354  -0.40265  -0.40109
 Alpha  occ. eigenvalues --   -0.39971  -0.39557  -0.39440  -0.39312  -0.39221
 Alpha  occ. eigenvalues --   -0.39114  -0.38962  -0.38793  -0.38551  -0.38409
 Alpha  occ. eigenvalues --   -0.38269  -0.38038  -0.38001  -0.37795  -0.37457
 Alpha  occ. eigenvalues --   -0.37358  -0.37290  -0.37153  -0.36947  -0.36881
 Alpha  occ. eigenvalues --   -0.36785  -0.36557  -0.36388  -0.36348  -0.36148
 Alpha  occ. eigenvalues --   -0.35990  -0.35402  -0.35332  -0.35047  -0.35008
 Alpha  occ. eigenvalues --   -0.34963  -0.34578  -0.34480  -0.34420  -0.34391
 Alpha  occ. eigenvalues --   -0.34244  -0.33884  -0.33707  -0.33606  -0.33451
 Alpha  occ. eigenvalues --   -0.32944  -0.32862  -0.32699  -0.32561  -0.31953
 Alpha  occ. eigenvalues --   -0.31663  -0.31523  -0.30682  -0.29895  -0.29674
 Alpha  occ. eigenvalues --   -0.29485  -0.29331  -0.29116  -0.29047  -0.28759
 Alpha  occ. eigenvalues --   -0.28599  -0.28150  -0.28107  -0.27671  -0.27405
 Alpha  occ. eigenvalues --   -0.27167  -0.27063  -0.26921  -0.26169  -0.25920
 Alpha  occ. eigenvalues --   -0.25474  -0.25238  -0.24820  -0.24381  -0.24238
 Alpha  occ. eigenvalues --   -0.24154  -0.23700  -0.23598  -0.23365  -0.23123
 Alpha  occ. eigenvalues --   -0.22958  -0.21923  -0.21462  -0.21207  -0.21185
 Alpha  occ. eigenvalues --   -0.20636  -0.19103  -0.18779  -0.18541  -0.18284
 Alpha  occ. eigenvalues --   -0.17907  -0.17781  -0.15517
 Alpha virt. eigenvalues --   -0.10106  -0.04743  -0.04549  -0.04296  -0.03816
 Alpha virt. eigenvalues --   -0.02482  -0.01348  -0.01196  -0.00975  -0.00381
 Alpha virt. eigenvalues --   -0.00082   0.00274   0.00662   0.01595   0.01653
 Alpha virt. eigenvalues --    0.02425   0.02534   0.02748   0.02992   0.03306
 Alpha virt. eigenvalues --    0.03431   0.03694   0.03934   0.04017   0.04621
 Alpha virt. eigenvalues --    0.04683   0.04749   0.04939   0.05172   0.05348
 Alpha virt. eigenvalues --    0.05656   0.05703   0.05832   0.06089   0.06177
 Alpha virt. eigenvalues --    0.06431   0.06679   0.07170   0.07482   0.07563
 Alpha virt. eigenvalues --    0.07725   0.07832   0.08129   0.08327   0.08653
 Alpha virt. eigenvalues --    0.08884   0.08905   0.09028   0.09315   0.09534
 Alpha virt. eigenvalues --    0.09726   0.09977   0.10396   0.10533   0.10669
 Alpha virt. eigenvalues --    0.10790   0.10969   0.11261   0.11410   0.11649
 Alpha virt. eigenvalues --    0.11759   0.11951   0.12127   0.12191   0.12398
 Alpha virt. eigenvalues --    0.12408   0.12568   0.12725   0.12918   0.13067
 Alpha virt. eigenvalues --    0.13326   0.13435   0.13538   0.13619   0.13770
 Alpha virt. eigenvalues --    0.13925   0.14005   0.14150   0.14261   0.14454
 Alpha virt. eigenvalues --    0.14737   0.14768   0.14827   0.15019   0.15174
 Alpha virt. eigenvalues --    0.15662   0.15686   0.15798   0.16079   0.16179
 Alpha virt. eigenvalues --    0.16490   0.16652   0.16740   0.17043   0.17291
 Alpha virt. eigenvalues --    0.17458   0.17727   0.17931   0.18309   0.18378
 Alpha virt. eigenvalues --    0.18414   0.18545   0.18659   0.18747   0.19077
 Alpha virt. eigenvalues --    0.19325   0.19459   0.19773   0.19852   0.19960
 Alpha virt. eigenvalues --    0.20315   0.20480   0.20542   0.20808   0.20922
 Alpha virt. eigenvalues --    0.21028   0.21143   0.21469   0.21949   0.22086
 Alpha virt. eigenvalues --    0.22287   0.22332   0.22444   0.22774   0.22944
 Alpha virt. eigenvalues --    0.22988   0.23240   0.23394   0.23552   0.23944
 Alpha virt. eigenvalues --    0.24153   0.24346   0.24439   0.24667   0.24759
 Alpha virt. eigenvalues --    0.25033   0.25340   0.25725   0.26088   0.26268
 Alpha virt. eigenvalues --    0.26428   0.26527   0.26656   0.27034   0.27289
 Alpha virt. eigenvalues --    0.27638   0.27893   0.28090   0.28235   0.28453
 Alpha virt. eigenvalues --    0.28477   0.28870   0.29329   0.29387   0.29427
 Alpha virt. eigenvalues --    0.29599   0.29697   0.30046   0.30388   0.30518
 Alpha virt. eigenvalues --    0.31003   0.31148   0.31285   0.31668   0.32031
 Alpha virt. eigenvalues --    0.32117   0.32350   0.32830   0.33116   0.33336
 Alpha virt. eigenvalues --    0.33691   0.34075   0.34188   0.34667   0.34982
 Alpha virt. eigenvalues --    0.35139   0.35525   0.35638   0.35930   0.36509
 Alpha virt. eigenvalues --    0.36783   0.37341   0.37454   0.37829   0.38213
 Alpha virt. eigenvalues --    0.38442   0.38559   0.38675   0.38974   0.39101
 Alpha virt. eigenvalues --    0.39278   0.39338   0.39776   0.40068   0.40153
 Alpha virt. eigenvalues --    0.40449   0.40627   0.40755   0.41211   0.41509
 Alpha virt. eigenvalues --    0.41713   0.42156   0.42255   0.42333   0.42655
 Alpha virt. eigenvalues --    0.42734   0.42904   0.43106   0.43164   0.43401
 Alpha virt. eigenvalues --    0.43537   0.43746   0.43880   0.44042   0.44294
 Alpha virt. eigenvalues --    0.44506   0.44776   0.44857   0.45229   0.45472
 Alpha virt. eigenvalues --    0.45670   0.45745   0.45823   0.46204   0.46337
 Alpha virt. eigenvalues --    0.46374   0.46719   0.46806   0.47081   0.47398
 Alpha virt. eigenvalues --    0.47656   0.47808   0.47923   0.48313   0.48398
 Alpha virt. eigenvalues --    0.48525   0.48685   0.48823   0.48874   0.48939
 Alpha virt. eigenvalues --    0.49262   0.49559   0.49967   0.50081   0.50405
 Alpha virt. eigenvalues --    0.50654   0.50917   0.51204   0.51673   0.51782
 Alpha virt. eigenvalues --    0.52003   0.52220   0.52243   0.52504   0.52805
 Alpha virt. eigenvalues --    0.52977   0.53435   0.53657   0.53754   0.54095
 Alpha virt. eigenvalues --    0.54345   0.54409   0.54569   0.54767   0.54827
 Alpha virt. eigenvalues --    0.55019   0.55187   0.55557   0.55634   0.55685
 Alpha virt. eigenvalues --    0.56091   0.56227   0.56293   0.56424   0.56678
 Alpha virt. eigenvalues --    0.56766   0.56863   0.57099   0.57268   0.57423
 Alpha virt. eigenvalues --    0.57663   0.57846   0.58176   0.58190   0.58233
 Alpha virt. eigenvalues --    0.58572   0.58697   0.58801   0.58854   0.59133
 Alpha virt. eigenvalues --    0.59233   0.59552   0.59677   0.59852   0.60058
 Alpha virt. eigenvalues --    0.60180   0.60344   0.60621   0.60727   0.60886
 Alpha virt. eigenvalues --    0.60986   0.61194   0.61332   0.61433   0.61451
 Alpha virt. eigenvalues --    0.61565   0.61731   0.61787   0.61952   0.62100
 Alpha virt. eigenvalues --    0.62381   0.62409   0.62562   0.62662   0.62820
 Alpha virt. eigenvalues --    0.62927   0.63036   0.63221   0.63250   0.63330
 Alpha virt. eigenvalues --    0.63550   0.63658   0.63822   0.63974   0.64126
 Alpha virt. eigenvalues --    0.64201   0.64385   0.64475   0.64673   0.64775
 Alpha virt. eigenvalues --    0.64830   0.64919   0.64984   0.65075   0.65260
 Alpha virt. eigenvalues --    0.65301   0.65356   0.65433   0.65570   0.65761
 Alpha virt. eigenvalues --    0.65845   0.65930   0.66219   0.66291   0.66369
 Alpha virt. eigenvalues --    0.66493   0.66553   0.66617   0.66716   0.66864
 Alpha virt. eigenvalues --    0.66951   0.67107   0.67134   0.67318   0.67348
 Alpha virt. eigenvalues --    0.67497   0.67543   0.67622   0.67916   0.67975
 Alpha virt. eigenvalues --    0.68092   0.68219   0.68425   0.68556   0.68717
 Alpha virt. eigenvalues --    0.68794   0.68901   0.69033   0.69205   0.69289
 Alpha virt. eigenvalues --    0.69506   0.69643   0.69717   0.69999   0.70044
 Alpha virt. eigenvalues --    0.70160   0.70286   0.70434   0.70532   0.70659
 Alpha virt. eigenvalues --    0.70846   0.71010   0.71203   0.71343   0.71500
 Alpha virt. eigenvalues --    0.71664   0.71745   0.71800   0.71964   0.72001
 Alpha virt. eigenvalues --    0.72150   0.72323   0.72540   0.72596   0.72773
 Alpha virt. eigenvalues --    0.73042   0.73101   0.73163   0.73303   0.73350
 Alpha virt. eigenvalues --    0.73638   0.73936   0.74031   0.74218   0.74373
 Alpha virt. eigenvalues --    0.74632   0.74742   0.74942   0.75197   0.75382
 Alpha virt. eigenvalues --    0.75838   0.76069   0.76233   0.76337   0.76636
 Alpha virt. eigenvalues --    0.76684   0.76873   0.77338   0.77498   0.77659
 Alpha virt. eigenvalues --    0.77973   0.78140   0.78350   0.78635   0.78794
 Alpha virt. eigenvalues --    0.79255   0.79462   0.79720   0.79751   0.80267
 Alpha virt. eigenvalues --    0.80666   0.80758   0.81258   0.81362   0.81451
 Alpha virt. eigenvalues --    0.81792   0.81931   0.82011   0.82362   0.82474
 Alpha virt. eigenvalues --    0.82883   0.83237   0.83426   0.83639   0.83957
 Alpha virt. eigenvalues --    0.84361   0.84593   0.84860   0.85153   0.85672
 Alpha virt. eigenvalues --    0.85852   0.85958   0.86330   0.86585   0.86769
 Alpha virt. eigenvalues --    0.87083   0.87392   0.87858   0.87981   0.88295
 Alpha virt. eigenvalues --    0.88611   0.88840   0.89264   0.89483   0.89772
 Alpha virt. eigenvalues --    0.89866   0.90286   0.90505   0.90655   0.91023
 Alpha virt. eigenvalues --    0.91245   0.91677   0.91959   0.92268   0.92337
 Alpha virt. eigenvalues --    0.93013   0.93180   0.93347   0.93562   0.93745
 Alpha virt. eigenvalues --    0.94156   0.94512   0.94817   0.94964   0.95161
 Alpha virt. eigenvalues --    0.95556   0.95692   0.95918   0.96082   0.96215
 Alpha virt. eigenvalues --    0.96832   0.97182   0.97443   0.97781   0.97950
 Alpha virt. eigenvalues --    0.98116   0.98448   0.98675   0.99236   0.99690
 Alpha virt. eigenvalues --    0.99749   1.00039   1.00480   1.00864   1.01220
 Alpha virt. eigenvalues --    1.01415   1.01731   1.01972   1.02088   1.02677
 Alpha virt. eigenvalues --    1.02797   1.03010   1.03155   1.03623   1.03805
 Alpha virt. eigenvalues --    1.04064   1.04373   1.04665   1.05412   1.05780
 Alpha virt. eigenvalues --    1.05991   1.06086   1.06440   1.06679   1.06770
 Alpha virt. eigenvalues --    1.07236   1.07758   1.08096   1.08230   1.08644
 Alpha virt. eigenvalues --    1.08964   1.09137   1.09322   1.09676   1.09858
 Alpha virt. eigenvalues --    1.09962   1.10277   1.10432   1.11006   1.11403
 Alpha virt. eigenvalues --    1.11680   1.11875   1.12206   1.12429   1.12579
 Alpha virt. eigenvalues --    1.12694   1.13250   1.13605   1.13824   1.14380
 Alpha virt. eigenvalues --    1.14592   1.14699   1.15106   1.15248   1.15472
 Alpha virt. eigenvalues --    1.15820   1.16057   1.16470   1.16527   1.16839
 Alpha virt. eigenvalues --    1.17042   1.17472   1.17783   1.18096   1.18562
 Alpha virt. eigenvalues --    1.18795   1.18931   1.19153   1.19363   1.19423
 Alpha virt. eigenvalues --    1.20103   1.20296   1.20353   1.20876   1.21458
 Alpha virt. eigenvalues --    1.21543   1.21684   1.21906   1.22260   1.22407
 Alpha virt. eigenvalues --    1.22592   1.22880   1.23079   1.23098   1.23462
 Alpha virt. eigenvalues --    1.23904   1.23971   1.24227   1.24318   1.24556
 Alpha virt. eigenvalues --    1.25029   1.25179   1.25548   1.25596   1.25967
 Alpha virt. eigenvalues --    1.26185   1.26336   1.26646   1.27006   1.27257
 Alpha virt. eigenvalues --    1.27395   1.27907   1.28088   1.28153   1.28240
 Alpha virt. eigenvalues --    1.28539   1.28882   1.28938   1.29317   1.29490
 Alpha virt. eigenvalues --    1.29859   1.30074   1.30132   1.30375   1.30878
 Alpha virt. eigenvalues --    1.31190   1.31398   1.31549   1.32046   1.32173
 Alpha virt. eigenvalues --    1.32433   1.32822   1.33546   1.33779   1.34125
 Alpha virt. eigenvalues --    1.34310   1.34632   1.34898   1.35311   1.35514
 Alpha virt. eigenvalues --    1.36001   1.36234   1.36734   1.37067   1.37476
 Alpha virt. eigenvalues --    1.37764   1.37910   1.38130   1.38570   1.38634
 Alpha virt. eigenvalues --    1.38766   1.39055   1.39123   1.39473   1.39576
 Alpha virt. eigenvalues --    1.40092   1.40153   1.40375   1.41143   1.41423
 Alpha virt. eigenvalues --    1.41716   1.41959   1.42121   1.42359   1.42519
 Alpha virt. eigenvalues --    1.42955   1.43532   1.43605   1.43975   1.44169
 Alpha virt. eigenvalues --    1.44581   1.44799   1.44953   1.45539   1.45772
 Alpha virt. eigenvalues --    1.46121   1.46489   1.46615   1.46862   1.47099
 Alpha virt. eigenvalues --    1.47270   1.47487   1.47985   1.48438   1.48487
 Alpha virt. eigenvalues --    1.48651   1.48961   1.49224   1.49574   1.49888
 Alpha virt. eigenvalues --    1.50171   1.50291   1.50332   1.51313   1.51467
 Alpha virt. eigenvalues --    1.51632   1.51704   1.51855   1.52112   1.52468
 Alpha virt. eigenvalues --    1.52579   1.52645   1.53148   1.53383   1.53618
 Alpha virt. eigenvalues --    1.53803   1.54164   1.54309   1.54675   1.54917
 Alpha virt. eigenvalues --    1.55326   1.55626   1.55897   1.56223   1.56651
 Alpha virt. eigenvalues --    1.57079   1.57419   1.57627   1.57843   1.58262
 Alpha virt. eigenvalues --    1.58334   1.58933   1.59366   1.59420   1.59783
 Alpha virt. eigenvalues --    1.60159   1.60688   1.60815   1.61214   1.62109
 Alpha virt. eigenvalues --    1.62202   1.62527   1.62757   1.63094   1.63400
 Alpha virt. eigenvalues --    1.63768   1.63933   1.64054   1.64621   1.64948
 Alpha virt. eigenvalues --    1.65243   1.65501   1.65894   1.66435   1.66566
 Alpha virt. eigenvalues --    1.67172   1.67189   1.67363   1.67561   1.67761
 Alpha virt. eigenvalues --    1.68026   1.68364   1.68475   1.68755   1.69116
 Alpha virt. eigenvalues --    1.69467   1.69509   1.69864   1.70003   1.70488
 Alpha virt. eigenvalues --    1.70531   1.70989   1.71087   1.71581   1.71896
 Alpha virt. eigenvalues --    1.71925   1.72298   1.72661   1.72891   1.73108
 Alpha virt. eigenvalues --    1.73457   1.73513   1.73615   1.73959   1.74056
 Alpha virt. eigenvalues --    1.74224   1.74431   1.74538   1.74888   1.74942
 Alpha virt. eigenvalues --    1.75103   1.75131   1.75207   1.75361   1.75520
 Alpha virt. eigenvalues --    1.75629   1.75906   1.76047   1.76491   1.76784
 Alpha virt. eigenvalues --    1.76899   1.77070   1.77234   1.77464   1.77660
 Alpha virt. eigenvalues --    1.77724   1.77856   1.78064   1.78123   1.78253
 Alpha virt. eigenvalues --    1.78441   1.78547   1.78782   1.79103   1.79440
 Alpha virt. eigenvalues --    1.79665   1.79712   1.79760   1.79964   1.80128
 Alpha virt. eigenvalues --    1.80195   1.80584   1.80835   1.80949   1.81172
 Alpha virt. eigenvalues --    1.81323   1.81490   1.81605   1.81738   1.81900
 Alpha virt. eigenvalues --    1.82180   1.82326   1.82690   1.82816   1.83278
 Alpha virt. eigenvalues --    1.83333   1.83418   1.83644   1.83840   1.84153
 Alpha virt. eigenvalues --    1.84297   1.84448   1.84510   1.84675   1.85138
 Alpha virt. eigenvalues --    1.85158   1.85416   1.85569   1.85723   1.85850
 Alpha virt. eigenvalues --    1.86035   1.86089   1.86361   1.86400   1.86844
 Alpha virt. eigenvalues --    1.87053   1.87271   1.87401   1.87578   1.87893
 Alpha virt. eigenvalues --    1.87944   1.88111   1.88275   1.88407   1.88510
 Alpha virt. eigenvalues --    1.88859   1.89088   1.89214   1.89520   1.89684
 Alpha virt. eigenvalues --    1.89973   1.90056   1.90338   1.90593   1.90899
 Alpha virt. eigenvalues --    1.91027   1.91253   1.91323   1.91584   1.91853
 Alpha virt. eigenvalues --    1.92069   1.92323   1.92547   1.92627   1.92854
 Alpha virt. eigenvalues --    1.92975   1.93340   1.93589   1.93691   1.94010
 Alpha virt. eigenvalues --    1.94264   1.94461   1.94711   1.94846   1.95106
 Alpha virt. eigenvalues --    1.95309   1.95485   1.95580   1.95608   1.95905
 Alpha virt. eigenvalues --    1.96111   1.96333   1.96460   1.96759   1.96958
 Alpha virt. eigenvalues --    1.96964   1.97143   1.97422   1.97669   1.98140
 Alpha virt. eigenvalues --    1.98347   1.98511   1.98699   1.98937   1.99183
 Alpha virt. eigenvalues --    1.99276   1.99431   1.99514   1.99716   2.00018
 Alpha virt. eigenvalues --    2.00140   2.00302   2.00575   2.00702   2.00845
 Alpha virt. eigenvalues --    2.01365   2.01525   2.01804   2.01955   2.02045
 Alpha virt. eigenvalues --    2.02443   2.02545   2.02882   2.03241   2.03502
 Alpha virt. eigenvalues --    2.03767   2.03988   2.04452   2.04874   2.05313
 Alpha virt. eigenvalues --    2.05436   2.05733   2.06106   2.06137   2.06569
 Alpha virt. eigenvalues --    2.06640   2.06673   2.07094   2.07190   2.07458
 Alpha virt. eigenvalues --    2.07801   2.07994   2.08281   2.08602   2.09101
 Alpha virt. eigenvalues --    2.09136   2.09475   2.10382   2.10455   2.10698
 Alpha virt. eigenvalues --    2.11087   2.11307   2.11455   2.11583   2.11846
 Alpha virt. eigenvalues --    2.12201   2.12351   2.12688   2.13085   2.13280
 Alpha virt. eigenvalues --    2.13627   2.14259   2.14503   2.14753   2.14852
 Alpha virt. eigenvalues --    2.15415   2.15621   2.15854   2.16163   2.16658
 Alpha virt. eigenvalues --    2.17110   2.17453   2.17575   2.17841   2.18106
 Alpha virt. eigenvalues --    2.18285   2.18575   2.18805   2.19190   2.19312
 Alpha virt. eigenvalues --    2.19556   2.19695   2.20204   2.20701   2.20831
 Alpha virt. eigenvalues --    2.21219   2.21437   2.21797   2.21877   2.22164
 Alpha virt. eigenvalues --    2.22882   2.23030   2.23415   2.23577   2.24071
 Alpha virt. eigenvalues --    2.24526   2.24669   2.24895   2.25119   2.25568
 Alpha virt. eigenvalues --    2.26109   2.26280   2.26698   2.26883   2.27212
 Alpha virt. eigenvalues --    2.27295   2.27651   2.28235   2.28466   2.28840
 Alpha virt. eigenvalues --    2.29340   2.29977   2.30336   2.30764   2.31001
 Alpha virt. eigenvalues --    2.31132   2.31215   2.31544   2.31880   2.32146
 Alpha virt. eigenvalues --    2.32903   2.33218   2.33263   2.33493   2.33734
 Alpha virt. eigenvalues --    2.34168   2.34380   2.34762   2.35078   2.35467
 Alpha virt. eigenvalues --    2.35921   2.36066   2.36236   2.36670   2.37128
 Alpha virt. eigenvalues --    2.37385   2.37520   2.37780   2.37976   2.38357
 Alpha virt. eigenvalues --    2.39185   2.39225   2.39440   2.39595   2.39909
 Alpha virt. eigenvalues --    2.40112   2.40468   2.40706   2.40824   2.40988
 Alpha virt. eigenvalues --    2.41239   2.41731   2.41771   2.42264   2.42464
 Alpha virt. eigenvalues --    2.42767   2.42884   2.43169   2.43520   2.43812
 Alpha virt. eigenvalues --    2.44132   2.44465   2.44787   2.44886   2.45317
 Alpha virt. eigenvalues --    2.45803   2.45933   2.46294   2.46513   2.47515
 Alpha virt. eigenvalues --    2.47927   2.48145   2.48415   2.48759   2.49163
 Alpha virt. eigenvalues --    2.49322   2.49417   2.49860   2.50576   2.51509
 Alpha virt. eigenvalues --    2.52118   2.52471   2.52563   2.53028   2.53600
 Alpha virt. eigenvalues --    2.53723   2.54314   2.54450   2.54978   2.55088
 Alpha virt. eigenvalues --    2.55107   2.55265   2.55639   2.56214   2.56709
 Alpha virt. eigenvalues --    2.56821   2.57235   2.57451   2.57681   2.58053
 Alpha virt. eigenvalues --    2.58781   2.59221   2.59333   2.59766   2.59882
 Alpha virt. eigenvalues --    2.60442   2.60507   2.60811   2.61257   2.61656
 Alpha virt. eigenvalues --    2.61731   2.62093   2.62537   2.62766   2.63097
 Alpha virt. eigenvalues --    2.63359   2.64036   2.64097   2.64311   2.64420
 Alpha virt. eigenvalues --    2.65150   2.65302   2.65680   2.65834   2.66178
 Alpha virt. eigenvalues --    2.66636   2.66725   2.66833   2.67242   2.67382
 Alpha virt. eigenvalues --    2.67807   2.68022   2.68374   2.68695   2.68810
 Alpha virt. eigenvalues --    2.69612   2.69734   2.70108   2.70248   2.70913
 Alpha virt. eigenvalues --    2.71210   2.71574   2.71712   2.71986   2.71989
 Alpha virt. eigenvalues --    2.72773   2.72885   2.73086   2.73230   2.73364
 Alpha virt. eigenvalues --    2.73653   2.73963   2.74212   2.74366   2.74539
 Alpha virt. eigenvalues --    2.74793   2.75089   2.75190   2.75499   2.76039
 Alpha virt. eigenvalues --    2.76253   2.76438   2.76646   2.76869   2.77139
 Alpha virt. eigenvalues --    2.77230   2.77385   2.77471   2.77761   2.77913
 Alpha virt. eigenvalues --    2.78301   2.78641   2.78725   2.79091   2.79630
 Alpha virt. eigenvalues --    2.79757   2.80195   2.80283   2.80747   2.81021
 Alpha virt. eigenvalues --    2.81234   2.81402   2.81995   2.82161   2.82467
 Alpha virt. eigenvalues --    2.82713   2.83015   2.83187   2.83413   2.83508
 Alpha virt. eigenvalues --    2.83750   2.83958   2.84527   2.85226   2.85572
 Alpha virt. eigenvalues --    2.85676   2.86058   2.86244   2.86367   2.87037
 Alpha virt. eigenvalues --    2.87464   2.87874   2.88056   2.88266   2.89127
 Alpha virt. eigenvalues --    2.89171   2.89428   2.89865   2.90109   2.90151
 Alpha virt. eigenvalues --    2.90433   2.90750   2.91172   2.91404   2.91977
 Alpha virt. eigenvalues --    2.92130   2.92379   2.92603   2.92865   2.93434
 Alpha virt. eigenvalues --    2.93626   2.93797   2.93951   2.94904   2.95245
 Alpha virt. eigenvalues --    2.95313   2.95421   2.95617   2.95907   2.96332
 Alpha virt. eigenvalues --    2.96479   2.96760   2.97086   2.97496   2.98168
 Alpha virt. eigenvalues --    2.98434   2.98881   2.99027   2.99276   2.99339
 Alpha virt. eigenvalues --    2.99731   3.00199   3.00480   3.00565   3.00852
 Alpha virt. eigenvalues --    3.01274   3.01326   3.01758   3.02411   3.02573
 Alpha virt. eigenvalues --    3.02998   3.03103   3.03626   3.03896   3.04334
 Alpha virt. eigenvalues --    3.04648   3.04880   3.05445   3.06022   3.06774
 Alpha virt. eigenvalues --    3.07515   3.07688   3.08223   3.08365   3.08667
 Alpha virt. eigenvalues --    3.08903   3.09106   3.09367   3.10033   3.11334
 Alpha virt. eigenvalues --    3.12024   3.13103   3.13442   3.13665   3.14066
 Alpha virt. eigenvalues --    3.14845   3.15318   3.15530   3.15603   3.15651
 Alpha virt. eigenvalues --    3.16140   3.16572   3.16902   3.16991   3.17641
 Alpha virt. eigenvalues --    3.17780   3.18026   3.18260   3.18526   3.19087
 Alpha virt. eigenvalues --    3.19754   3.20121   3.20330   3.20442   3.20587
 Alpha virt. eigenvalues --    3.21207   3.21455   3.21709   3.22157   3.22640
 Alpha virt. eigenvalues --    3.22714   3.23183   3.24052   3.24260   3.24476
 Alpha virt. eigenvalues --    3.24698   3.25536   3.26261   3.26794   3.26930
 Alpha virt. eigenvalues --    3.27651   3.27849   3.28478   3.28946   3.29845
 Alpha virt. eigenvalues --    3.30235   3.31322   3.32875   3.33052   3.33355
 Alpha virt. eigenvalues --    3.34394   3.36250   3.37014   3.39361   3.39654
 Alpha virt. eigenvalues --    3.41427   3.41812   3.46254   3.49426   3.52511
 Alpha virt. eigenvalues --    3.53249   3.54001   3.54619   3.55953   3.56400
 Alpha virt. eigenvalues --    3.56543   3.56726   3.57762   3.58882   3.60008
 Alpha virt. eigenvalues --    3.61219   3.61326   3.62719   3.63143   3.63975
 Alpha virt. eigenvalues --    3.66367   3.66902   3.66999   3.67121   3.67618
 Alpha virt. eigenvalues --    3.67759   3.67930   3.68320   3.69681   3.69831
 Alpha virt. eigenvalues --    3.69905   3.70076   3.70851   3.72210   3.72351
 Alpha virt. eigenvalues --    3.73142   3.73731   3.74450   3.75334   3.77046
 Alpha virt. eigenvalues --    3.78205   3.78477   3.85989   3.87908
          Condensed to atoms (all electrons):
 Mulliken charges:
               1
     1  C    0.058513
     2  C    0.021539
     3  O   -0.307501
     4  H    0.038696
     5  H    0.002369
     6  H    0.035507
     7  N   -0.124691
     8  C    0.107590
     9  C    0.072489
    10  O   -0.290193
    11  C    0.072774
    12  C    0.133555
    13  O   -0.373806
    14  O   -0.452084
    15  H    0.121596
    16  H    0.011127
    17  H    0.019100
    18  H   -0.011764
    19  N   -0.137548
    20  C    0.132883
    21  C    0.052710
    22  O   -0.278228
    23  C    0.019003
    24  C    0.012818
    25  C   -0.053930
    26  C    0.009715
    27  N    0.082848
    28  H    0.146722
    29  H   -0.013532
    30  H    0.007054
    31  H    0.013478
    32  H    0.007727
    33  H    0.044198
    34  H    0.050499
    35  H    0.008426
    36  H    0.064494
    37  H    0.098401
    38  H    0.196190
    39  H    0.186989
    40  H    0.189357
    41  N   -0.175118
    42  C    0.153981
    43  C    0.070116
    44  O   -0.297791
    45  C    0.096085
    46  C    0.049163
    47  O   -0.373757
    48  O   -0.445959
    49  H    0.142313
    50  H    0.004216
    51  H   -0.013152
    52  H    0.019717
    53  N   -0.145418
    54  C    0.258537
    55  C    0.014729
    56  O   -0.307807
    57  H    0.133392
    58  H    0.016675
    59  H    0.031555
    60  N   -0.149559
    61  C    0.121026
    62  C    0.039063
    63  O   -0.288159
    64  C    0.067893
    65  C    0.097188
    66  N   -0.050231
    67  O   -0.323757
    68  H    0.162115
    69  H    0.024682
    70  H    0.064650
    71  H   -0.000519
    72  H    0.133674
    73  H    0.116151
    74  N   -0.202961
    75  C    0.283311
    76  C   -0.034520
    77  O   -0.302507
    78  H    0.156082
    79  H    0.031198
    80  H    0.041115
    81  N   -0.118492
    82  C    0.104000
    83  C    0.138853
    84  O   -0.327648
    85  C    0.142159
    86  C   -0.024306
    87  C    0.015057
    88  C   -0.032605
    89  C   -0.052580
    90  C   -0.124489
    91  C    0.192756
    92  O   -0.224748
    93  H    0.134272
    94  H   -0.010022
    95  H    0.021875
    96  H   -0.005217
    97  H    0.004658
    98  H    0.008284
    99  H    0.006898
   100  H   -0.030647
   101  H    0.175612
   102  N   -0.110575
   103  C    0.118033
   104  C    0.093761
   105  O   -0.290789
   106  C   -0.100303
   107  C    0.013127
   108  C    0.048687
   109  C    0.049501
   110  H    0.133603
   111  H    0.009861
   112  H   -0.016386
   113  H   -0.000562
   114  H   -0.006007
   115  H    0.023094
   116  H    0.009957
   117  H    0.001320
   118  H    0.007046
   119  H    0.016930
   120  H    0.012244
   121  N   -0.143189
   122  C    0.045039
   123  C    0.120759
   124  O   -0.293823
   125  C    0.329341
   126  O   -0.357606
   127  H    0.155396
   128  H    0.011216
   129  H    0.014688
   130  H   -0.054784
   131  H    0.169944
   132  N   -0.131682
   133  C    0.081777
   134  C    0.048035
   135  O   -0.263615
   136  C    0.047034
   137  H    0.130853
   138  H    0.022671
   139  H    0.039884
   140  H    0.008874
   141  H    0.025266
   142  N   -0.156808
   143  C    0.099226
   144  C    0.095842
   145  O   -0.267820
   146  C    0.025880
   147  H    0.105342
   148  H    0.025738
   149  H    0.026269
   150  H    0.036421
   151  H    0.017298
   152  N   -0.153637
   153  C    0.139731
   154  C    0.057266
   155  O   -0.301374
   156  C    0.006977
   157  C    0.102662
   158  C    0.150762
   159  O   -0.393397
   160  O   -0.474200
   161  H    0.131638
   162  H   -0.012611
   163  H    0.015749
   164  H   -0.021485
   165  H    0.023951
   166  H   -0.008160
   167  N   -0.146171
   168  C    0.132822
   169  H    0.035729
   170  H    0.023429
   171  H    0.003608
   172  H    0.119886
   173  Ca   1.304318
   174  O   -0.290930
   175  H    0.164192
   176  H    0.177067
 Sum of Mulliken charges =  -0.00000
 Mulliken charges with hydrogens summed into heavy atoms:
               1
     1  C    0.135085
     2  C    0.021539
     3  O   -0.307501
     7  N   -0.003095
     8  C    0.118717
     9  C    0.072489
    10  O   -0.290193
    11  C    0.080111
    12  C    0.133555
    13  O   -0.373806
    14  O   -0.452084
    19  N    0.009174
    20  C    0.119351
    21  C    0.052710
    22  O   -0.278228
    23  C    0.039535
    24  C    0.064743
    25  C    0.004995
    26  C    0.172610
    27  N    0.655384
    41  N   -0.032805
    42  C    0.158196
    43  C    0.070116
    44  O   -0.297791
    45  C    0.102649
    46  C    0.049163
    47  O   -0.373757
    48  O   -0.445959
    53  N   -0.012026
    54  C    0.306767
    55  C    0.014729
    56  O   -0.307807
    60  N    0.012556
    61  C    0.145708
    62  C    0.039063
    63  O   -0.288159
    64  C    0.132024
    65  C    0.097188
    66  N    0.199594
    67  O   -0.323757
    74  N   -0.046879
    75  C    0.355624
    76  C   -0.034520
    77  O   -0.302507
    81  N    0.015779
    82  C    0.093978
    83  C    0.138853
    84  O   -0.327648
    85  C    0.158817
    86  C   -0.024306
    87  C    0.019715
    88  C   -0.024321
    89  C   -0.045682
    90  C   -0.155137
    91  C    0.192756
    92  O   -0.049137
   102  N    0.023028
   103  C    0.127894
   104  C    0.093761
   105  O   -0.290789
   106  C   -0.116689
   107  C    0.006558
   108  C    0.083058
   109  C    0.085720
   121  N    0.012207
   122  C    0.056255
   123  C    0.120759
   124  O   -0.293823
   125  C    0.289245
   126  O   -0.187662
   132  N   -0.000829
   133  C    0.104448
   134  C    0.048035
   135  O   -0.263615
   136  C    0.121058
   142  N   -0.051465
   143  C    0.124964
   144  C    0.095842
   145  O   -0.267820
   146  C    0.105868
   152  N   -0.021999
   153  C    0.127120
   154  C    0.057266
   155  O   -0.301374
   156  C    0.001241
   157  C    0.118453
   158  C    0.150762
   159  O   -0.393397
   160  O   -0.474200
   167  N   -0.026285
   168  C    0.195588
   173  Ca   1.304318
   174  O    0.050329
 DipInt: DoE/N= T F RetVal/Mat= T F Init=T NMatP=  1 IDeriv=0 Min/MaxMlt=  0  4
 Entering OneElI...
 OneElI was handed  1333951383 working-precision words.
 Multipole integrals L=0 to 4 MinM= 0 MaxM= 0.
 Requested accuracy = 0.1000D-12
 ShPair: Thresh= 1.00D-13 NBox=     0 BxSize= 0.00D+00 RnKept= 2.55D+01
         NSMCal=               327645 NSMKep=              165879
 PrmmSu-InSpLW:  IPartL=    0 NPrtUS=    1 NPrtUL=    1 DoSpLW=F IThBeg=    0 IThEnd=    0 NThAct=    1.
 PrsmSu:  NPrtUS=   1 ThrOK=F IAlg=1 NPAlg=1 LenDen=           0 ISkipM=0 DoSpLW=F IThBeg=    0 IThEnd=    0.
 Prism:   IPart=     0 DynPar=F LinDyn=F Incr=         512.
 PRISM was handed  1323685701 working-precision words and165879 shell-pairs
 IPart=  0 NShTot=      165879 NBatch=         378 AvBLen=       438.8
 PrsmSu-ThDecC:  IPartSL=    0    0 NPrtUSL=    1    1 IThBeg=    0 IThEnd=    0 CPU=   -1 GPU=   -1 NThAct=    1.
 PrSmSu:  NxtVal=            513.
 Electronic moments (au):
       -716.00000000         12.39055502         -0.57629026          3.95393959
     -47784.70227808     -27539.11857427     -13846.62978624         84.74018363
         46.30605355         90.11668678     -82733.37837917     -35234.00393122
     -19320.67174369       5036.79374194      53465.01695518      41864.09592271
      -6457.74087991       3781.23204368       4695.70146063     -24357.18681874
   -6400067.18049476   -2324161.21267120    -751899.42205086     335896.32216784
     432228.08609952    -289828.56384194    -136428.18557431     -51873.97510326
      66824.34372826   -1442650.17985927    -746822.63407969    -409149.78051376
    -145966.82977017    -174248.59971918     -14196.73100298
 Electronic spatial extent (au):  <R**2>=          89170.4506
 DipInt: DoE/N= F T RetVal/Mat= T F Init=T NMatP=  1 IDeriv=0 Min/MaxMlt=  0  4
 Nuclear    moments (au):
        716.00000000          0.00000000         -0.00000000          0.00000000
      47275.67104375      27251.08682670      13447.09604242          0.00000000
          0.00000000         -0.00000000      83566.69749749      36460.07160831
      19553.46794350      -3242.98533708     -53765.70017519     -41879.47663047
       6816.98803826      -3769.15172496      -4260.46004592      24605.18199622
    6204481.68258506    2252366.13727675     703517.16184974    -334470.61994400
    -425579.06506204     308855.91173699     148819.85637883      53743.68196195
     -62607.68875629    1407953.25531932     711878.57104918     388902.59401248
     152326.65778560     178521.93286676      15426.93592684
 Total      moments (au):
         -0.00000000         12.39055502         -0.57629026          3.95393959
       -509.03123433       -288.03174757       -399.53374382         84.74018363
         46.30605355         90.11668678        833.31911833       1226.06767709
        232.79619982       1793.80840485       -300.68322001        -15.38070777
        359.24715835         12.08031873        435.24141471        247.99517748
    -195585.49790971     -71795.07539445     -48382.26020112       1425.70222384
       6649.02103749      19027.34789505      12391.67080452       1869.70685869
       4216.65497197     -34696.92453995     -34944.06303052     -20247.18650129
       6359.82801544       4273.33314758       1230.20492386
 Traceless Quadrup. (au):
       -110.16565909        110.83382767         -0.66816858         84.74018363
         46.30605355         90.11668678
 Charge=             -0.0000 electrons
 Dipole moment (field-independent basis, Debye):
    X=             31.4936    Y=             -1.4648    Z=             10.0499  Tot=             33.0907
 Quadrupole moment (field-independent basis, Debye-Ang):
   XX=           -684.6644   YY=           -387.4126   ZZ=           -537.3866
   XY=            113.9784   XZ=             62.2832   YZ=            121.2100
 Traceless Quadrupole moment (field-independent basis, Debye-Ang):
   XX=           -148.1766   YY=            149.0753   ZZ=             -0.8987
   XY=            113.9784   XZ=             62.2832   YZ=            121.2100
 Octapole moment (field-independent basis, Debye-Ang**2):
  XXX=            593.1244  YYY=            872.6677  ZZZ=            165.6954  XYY=           1276.7637
  XXY=           -214.0147  XXZ=            -10.9474  XZZ=            255.6983  YZZ=              8.5983
  YYZ=            309.7881  XYZ=            176.5134
 Hexadecapole moment (field-independent basis, Debye-Ang**3):
 XXXX=         -73666.8771 YYYY=         -27041.4681 ZZZZ=         -18223.0792 XXXY=            536.9878
 XXXZ=           2504.3402 YYYX=           7166.6116 YYYZ=           4667.2974 ZZZX=            704.2213
 ZZZY=           1588.1945 XXYY=         -13068.5256 XXZZ=         -13161.6098 YYZZ=          -7626.0613
 XXYZ=           2395.4162 YYXZ=           1609.5422 ZZXY=            463.3542
 N-N= 2.200849540099D+04 E-N=-5.649607895547D+04  KE= 5.290446868162D+03
 Leave Link  601 at Sun Sep 15 00:00:35 2019, MaxMem=  1342177280 cpu:              46.3 elap:               1.2
 FitSet:  NAtFit=   176 NAtPot=   176 NAtFrz=     0 MDM=   180 TotChg=   0.00000
 Merz-Kollman atomic radii used.
 Read replacement radii for each type of atom:
 Rad(20) =   1.700000000000D+00
 Atom Element Radius
    1     6    1.50
    2     6    1.50
    3     8    1.40
    4     1    1.20
    5     1    1.20
    6     1    1.20
    7     7    1.50
    8     6    1.50
    9     6    1.50
   10     8    1.40
   11     6    1.50
   12     6    1.50
   13     8    1.40
   14     8    1.40
   15     1    1.20
   16     1    1.20
   17     1    1.20
   18     1    1.20
   19     7    1.50
   20     6    1.50
   21     6    1.50
   22     8    1.40
   23     6    1.50
   24     6    1.50
   25     6    1.50
   26     6    1.50
   27     7    1.50
   28     1    1.20
   29     1    1.20
   30     1    1.20
   31     1    1.20
   32     1    1.20
   33     1    1.20
   34     1    1.20
   35     1    1.20
   36     1    1.20
   37     1    1.20
   38     1    1.20
   39     1    1.20
   40     1    1.20
   41     7    1.50
   42     6    1.50
   43     6    1.50
   44     8    1.40
   45     6    1.50
   46     6    1.50
   47     8    1.40
   48     8    1.40
   49     1    1.20
   50     1    1.20
   51     1    1.20
   52     1    1.20
   53     7    1.50
   54     6    1.50
   55     6    1.50
   56     8    1.40
   57     1    1.20
   58     1    1.20
   59     1    1.20
   60     7    1.50
   61     6    1.50
   62     6    1.50
   63     8    1.40
   64     6    1.50
   65     6    1.50
   66     7    1.50
   67     8    1.40
   68     1    1.20
   69     1    1.20
   70     1    1.20
   71     1    1.20
   72     1    1.20
   73     1    1.20
   74     7    1.50
   75     6    1.50
   76     6    1.50
   77     8    1.40
   78     1    1.20
   79     1    1.20
   80     1    1.20
   81     7    1.50
   82     6    1.50
   83     6    1.50
   84     8    1.40
   85     6    1.50
   86     6    1.50
   87     6    1.50
   88     6    1.50
   89     6    1.50
   90     6    1.50
   91     6    1.50
   92     8    1.40
   93     1    1.20
   94     1    1.20
   95     1    1.20
   96     1    1.20
   97     1    1.20
   98     1    1.20
   99     1    1.20
  100     1    1.20
  101     1    1.20
  102     7    1.50
  103     6    1.50
  104     6    1.50
  105     8    1.40
  106     6    1.50
  107     6    1.50
  108     6    1.50
  109     6    1.50
  110     1    1.20
  111     1    1.20
  112     1    1.20
  113     1    1.20
  114     1    1.20
  115     1    1.20
  116     1    1.20
  117     1    1.20
  118     1    1.20
  119     1    1.20
  120     1    1.20
  121     7    1.50
  122     6    1.50
  123     6    1.50
  124     8    1.40
  125     6    1.50
  126     8    1.40
  127     1    1.20
  128     1    1.20
  129     1    1.20
  130     1    1.20
  131     1    1.20
  132     7    1.50
  133     6    1.50
  134     6    1.50
  135     8    1.40
  136     6    1.50
  137     1    1.20
  138     1    1.20
  139     1    1.20
  140     1    1.20
  141     1    1.20
  142     7    1.50
  143     6    1.50
  144     6    1.50
  145     8    1.40
  146     6    1.50
  147     1    1.20
  148     1    1.20
  149     1    1.20
  150     1    1.20
  151     1    1.20
  152     7    1.50
  153     6    1.50
  154     6    1.50
  155     8    1.40
  156     6    1.50
  157     6    1.50
  158     6    1.50
  159     8    1.40
  160     8    1.40
  161     1    1.20
  162     1    1.20
  163     1    1.20
  164     1    1.20
  165     1    1.20
  166     1    1.20
  167     7    1.50
  168     6    1.50
  169     1    1.20
  170     1    1.20
  171     1    1.20
  172     1    1.20
[...]
 **** Fit      -0.020810
 **** Fit      -0.015702
 **** Fit      -0.009879
 **** Fit      -0.003427
 **** Fit       0.003439
 **** Fit       0.010323
 **** Fit      -0.039219
 **** Fit      -0.037965
 **** Fit      -0.041752
 **** Fit      -0.039204
 **** Fit      -0.036112
 **** Fit      -0.032455
 **** Fit      -0.028200
 **** Fit      -0.023326
 **** Fit      -0.017850
 **** Fit      -0.011863
 **** Fit      -0.005580
 **** Fit       0.000624
 **** Fit       0.006231
 **** Fit      -0.041307
 **** Fit      -0.036805
 **** Fit      -0.031849
 **** Fit      -0.026453
 **** Fit      -0.020693
 **** Fit      -0.014746
 **** Fit      -0.008881
 **** Fit      -0.029276
 **** Fit      -0.008061
 **** Fit      -0.009302
 **** Fit      -0.006698
 **** Fit      -0.016611
 **** Fit      -0.007208
 **** Fit      -0.006388
 **** Fit      -0.006646
 **** Fit      -0.008446
 **** Fit      -0.011821
 **** Fit      -0.016382
 **** Fit      -0.021185
 **** Fit      -0.007254
 **** Fit      -0.008259
 **** Fit      -0.010523
 **** Fit      -0.013899
 **** Fit      -0.017427
 **** Fit      -0.019475
 **** Fit      -0.009519
 **** Fit      -0.012281
 **** Fit      -0.014531
 **** Fit      -0.014413
 **** Fit      -0.012893
 **** Fit      -0.012187
 **** Fit      -0.024581
 **** Fit      -0.032222
 **** Fit      -0.036986
 **** Fit      -0.034659
 **** Fit      -0.026232
 **** Fit      -0.018684
 **** Fit      -0.014557
 **** Fit      -0.019186
 **** Fit      -0.026291
 **** Fit      -0.027141
 **** Fit      -0.020441
 **** Fit      -0.015245
 **** Fit      -0.020385
 **** Fit      -0.025865
 **** Fit      -0.030178
 **** Fit      -0.035347
 **** Fit      -0.041715
 **** Fit      -0.030527
 **** Fit      -0.035968
 **** Fit      -0.043438
 **** Fit      -0.036245
 **** Fit      -0.041820
 **** Fit      -0.038830
 **** Fit       0.007373
 **** Fit      -0.018340
 **** Fit      -0.005389
 **** Fit       0.006516
 **** Fit       0.016739
 **** Fit      -0.016824
 **** Fit      -0.004836
 **** Fit       0.005469
 **** Fit       0.013720
 **** Fit      -0.006111
 **** Fit       0.002773
 **** Fit       0.009380
 **** Fit      -0.004759
 **** Fit       0.002158
 **** Fit       0.006490
 **** Fit      -0.012286
 **** Fit      -0.004700
 **** Fit      -0.000099
 **** Fit      -0.009435
 **** Fit      -0.005093
 **** Fit      -0.007623
 **** Fit      -0.007112
 **** Fit      -0.012470
 **** Fit      -0.011190
 **** Fit      -0.010910
 **** Fit      -0.003603
 **** Fit      -0.005704
 **** Fit      -0.006599
 **** Fit      -0.007488
 **** Fit      -0.009122
 **** Fit      -0.011454
 **** Fit      -0.013709
 **** Fit      -0.014742
 **** Fit      -0.013929
 **** Fit      -0.011910
 **** Fit      -0.009842
 **** Fit      -0.007835
 **** Fit      -0.003952
 **** Fit      -0.005972
 **** Fit      -0.007768
 **** Fit      -0.009836
 **** Fit      -0.011338
 **** Fit      -0.011041
 **** Fit      -0.009060
 **** Fit      -0.006256
 **** Fit      -0.002962
 **** Fit      -0.005514
 **** Fit      -0.007765
 **** Fit      -0.008081
 **** Fit      -0.005524
 **** Fit      -0.002554
 **** Fit      -0.005333
 **** Fit       0.006700
 **** Fit      -0.004219
 **** Fit       0.000548
 **** Fit       0.004434
 **** Fit       0.006811
 **** Fit      -0.003795
 **** Fit      -0.000528
 **** Fit       0.001637
 **** Fit       0.002090
 **** Fit       0.000651
 **** Fit      -0.003736
 **** Fit      -0.002171
 **** Fit      -0.002172
 **** Fit      -0.004101
 **** Fit      -0.007755
 **** Fit      -0.012609
 **** Fit      -0.004941
 **** Fit      -0.005926
 **** Fit      -0.008985
 **** Fit       0.018044
 **** Fit       0.012488
 **** Fit       0.013105
 **** Fit       0.019046
 **** Fit       0.019633
 **** Fit       0.017766
 **** Fit       0.018121
 **** Fit       0.019075
 **** Fit       0.020276
 **** Fit       0.021378
 **** Fit       0.018164
 **** Fit       0.016476
 **** Fit       0.016738
 **** Fit       0.017479
 **** Fit       0.018579
 **** Fit       0.020970
 **** Fit       0.021928
 **** Fit       0.022688
 **** Fit       0.016716
 **** Fit       0.015149
 **** Fit       0.015349
 **** Fit       0.015969
 **** Fit       0.022641
 **** Fit       0.023262
 **** Fit       0.015918
 **** Fit       0.015345
 **** Fit       0.013757
 **** Fit       0.013860
 **** Fit       0.014295
 **** Fit       0.023327
 **** Fit       0.023718
 **** Fit       0.016125
 **** Fit       0.015124
 **** Fit       0.014404
 **** Fit       0.013948
 **** Fit       0.012284
 **** Fit       0.012281
 **** Fit       0.012573
 **** Fit       0.022723
 **** Fit       0.023087
 **** Fit       0.023316
 **** Fit       0.023670
 **** Fit       0.015700
 **** Fit       0.014552
 **** Fit       0.013660
 **** Fit       0.012994
 **** Fit       0.012533
 **** Fit       0.010720
 **** Fit       0.010578
 **** Fit       0.010683
 **** Fit       0.021476
 **** Fit       0.021649
 **** Fit       0.021786
 **** Fit       0.022258
 **** Fit       0.015313
 **** Fit       0.014040
 **** Fit       0.013015
 **** Fit       0.012202
 **** Fit       0.011557
 **** Fit       0.011059
 **** Fit       0.009059
 **** Fit       0.008745
 **** Fit       0.008636
 **** Fit       0.008777
 **** Fit       0.018389
 **** Fit       0.018561
 **** Fit       0.018660
 **** Fit       0.019235
 **** Fit       0.020494
 **** Fit       0.015223
 **** Fit       0.013738
 **** Fit       0.012527
 **** Fit       0.006770
 **** Fit       0.006417
 **** Fit       0.006249
 **** Fit       0.013362
 **** Fit       0.013771
 **** Fit       0.017206
 **** Fit       0.015236
 **** Fit       0.013471
 **** Fit       0.003991
 **** Fit       0.003494
 **** Fit       0.020305
 **** Fit       0.018178
 **** Fit       0.015798
 **** Fit       0.013518
 **** Fit       0.000385
 **** Fit      -0.000513
 **** Fit       0.018054
 **** Fit       0.014875
 **** Fit      -0.003094
 **** Fit      -0.004538
 **** Fit      -0.006974
 **** Fit      -0.008958
 **** Fit      -0.011688
 **** Fit      -0.011583
 **** Fit      -0.014282
 **** Fit      -0.018262
 **** Fit      -0.016950
 **** Fit      -0.020595
 **** Fit      -0.022870
 **** Fit      -0.026345
 **** Fit       0.011451
 **** Fit       0.010793
 **** Fit       0.008686
 **** Fit       0.008412
 **** Fit       0.011696
 **** Fit       0.010607
 **** Fit       0.009764
 **** Fit       0.009133
 **** Fit       0.006875
 **** Fit       0.006496
 **** Fit       0.006205
 **** Fit       0.012423
 **** Fit       0.010918
 **** Fit       0.009682
 **** Fit       0.008706
 **** Fit       0.007945
 **** Fit       0.007349
 **** Fit       0.004864
 **** Fit       0.004400
 **** Fit       0.003938
 **** Fit       0.012352
 **** Fit       0.010425
 **** Fit       0.008836
 **** Fit       0.007598
 **** Fit       0.006659
 **** Fit       0.005940
 **** Fit       0.005362
 **** Fit       0.002538
 **** Fit       0.002037
 **** Fit       0.001457
 **** Fit       0.000749
 **** Fit       0.012163
 **** Fit       0.009655
 **** Fit       0.007591
 **** Fit       0.006031
 **** Fit       0.004906
 **** Fit       0.004102
 **** Fit       0.003502
 **** Fit       0.003007
 **** Fit      -0.000237
 **** Fit      -0.000725
 **** Fit      -0.001384
 **** Fit      -0.002285
 **** Fit      -0.003532
 **** Fit       0.008806
 **** Fit       0.005870
 **** Fit       0.003736
 **** Fit       0.002318
 **** Fit       0.001427
 **** Fit       0.000868
 **** Fit       0.000480
 **** Fit       0.000142
 **** Fit      -0.003622
 **** Fit      -0.004042
 **** Fit      -0.004765
 **** Fit      -0.005892
 **** Fit      -0.007588
 **** Fit      -0.001708
 **** Fit      -0.002840
 **** Fit      -0.003288
 **** Fit      -0.003392
 **** Fit      -0.003388
 **** Fit      -0.003430
 **** Fit      -0.007814
 **** Fit      -0.008051
 **** Fit      -0.008791
 **** Fit      -0.010162
 **** Fit      -0.012398
 **** Fit      -0.009372
 **** Fit      -0.008552
 **** Fit      -0.008003
 **** Fit      -0.013052
 **** Fit      -0.012906
 **** Fit      -0.013534
 **** Fit      -0.015053
 **** Fit      -0.017725
 **** Fit      -0.015570
 **** Fit      -0.013936
 **** Fit      -0.019620
 **** Fit      -0.018787
 **** Fit      -0.019245
 **** Fit      -0.021058
 **** Fit      -0.025774
 **** Fit      -0.025808
 **** Fit      -0.027698
 **** Fit       0.019490
 **** Fit       0.020692
 **** Fit       0.017834
 **** Fit       0.019110
 **** Fit       0.020571
 **** Fit       0.021634
 **** Fit       0.021966
 **** Fit       0.016138
 **** Fit       0.017106
 **** Fit       0.018486
 **** Fit       0.020050
 **** Fit       0.021475
 **** Fit       0.022442
 **** Fit       0.022798
 **** Fit       0.014332
 **** Fit       0.015074
 **** Fit       0.016231
 **** Fit       0.017717
 **** Fit       0.019384
 **** Fit       0.020999
 **** Fit       0.022285
 **** Fit       0.023032
 **** Fit       0.023199
 **** Fit       0.022924
 **** Fit       0.012332
 **** Fit       0.012872
 **** Fit       0.013794
 **** Fit       0.015063
 **** Fit       0.016624
 **** Fit       0.018362
 **** Fit       0.020077
 **** Fit       0.021508
 **** Fit       0.022425
 **** Fit       0.022745
 **** Fit       0.022555
 **** Fit       0.010076
 **** Fit       0.010376
 **** Fit       0.010992
 **** Fit       0.011907
 **** Fit       0.013108
 **** Fit       0.014565
 **** Fit       0.016199
 **** Fit       0.017852
 **** Fit       0.019295
 **** Fit       0.020297
 **** Fit       0.020733
 **** Fit       0.020646
 **** Fit       0.020217
 **** Fit       0.007521
 **** Fit       0.007581
 **** Fit       0.007902
 **** Fit       0.008461
 **** Fit       0.009253
 **** Fit       0.010280
 **** Fit       0.011520
 **** Fit       0.012896
 **** Fit       0.014257
 **** Fit       0.015392
 **** Fit       0.016112
 **** Fit       0.016334
 **** Fit       0.016142
 **** Fit       0.004344
 **** Fit       0.004268
 **** Fit       0.004321
 **** Fit       0.004485
 **** Fit       0.004756
 **** Fit       0.005141
 **** Fit       0.000572
 **** Fit      -0.000005
 **** Fit      -0.000610
 **** Fit      -0.001303
 **** Fit      -0.002126
 **** Fit      -0.003958
 **** Fit      -0.005265
 **** Fit      -0.006871
 **** Fit      -0.008934
 **** Fit      -0.011952
 **** Fit       0.021618
 **** Fit       0.020392
 **** Fit       0.021019
 **** Fit       0.022252
 **** Fit       0.022865
 **** Fit       0.022191
 **** Fit       0.020967
 **** Fit       0.019189
 **** Fit       0.019519
 **** Fit       0.020395
 **** Fit       0.021595
 **** Fit       0.022815
 **** Fit       0.023748
 **** Fit       0.024126
 **** Fit       0.023737
 **** Fit       0.022724
 **** Fit       0.021494
 **** Fit       0.020332
 **** Fit       0.019488
 **** Fit       0.018003
 **** Fit       0.023222
 **** Fit       0.024213
 **** Fit       0.024962
 **** Fit       0.025364
 **** Fit       0.025175
 **** Fit       0.024322
 **** Fit       0.023174
 **** Fit       0.021997
 **** Fit       0.020832
 **** Fit       0.019730
 **** Fit       0.018810
 **** Fit       0.018206
 **** Fit       0.023682
 **** Fit       0.024627
 **** Fit       0.025448
 **** Fit       0.023855
 **** Fit       0.022719
 **** Fit       0.021623
 **** Fit       0.020489
 **** Fit       0.019354
 **** Fit       0.018319
 **** Fit       0.017502
 **** Fit       0.016993
 **** Fit       0.024745
 **** Fit       0.025611
 **** Fit       0.022583
 **** Fit       0.021596
 **** Fit       0.020471
 **** Fit       0.019262
 **** Fit       0.018076
 **** Fit       0.017039
 **** Fit       0.023919
 **** Fit       0.023123
 **** Fit       0.022520
 **** Fit       0.021661
 **** Fit       0.020558
 **** Fit       0.019287
 **** Fit       0.017966
 **** Fit       0.016734
 **** Fit       0.022888
 **** Fit       0.022314
 **** Fit       0.021333
 **** Fit       0.020023
 **** Fit       0.018509
 **** Fit       0.016965
 **** Fit       0.022905
 **** Fit       0.022198
 **** Fit       0.020991
 **** Fit       0.019378
 **** Fit       0.017547
 **** Fit       0.023110
 **** Fit       0.023054
 **** Fit       0.022320
 **** Fit       0.020885
 **** Fit       0.022235
 **** Fit       0.022980
 **** Fit       0.022783
 **** Fit      -0.008384
 **** Fit      -0.015457
 **** Fit      -0.022628
 **** Fit       0.001701
 **** Fit      -0.004644
 **** Fit      -0.009967
 **** Fit      -0.022609
 **** Fit      -0.000540
 **** Fit      -0.007412
 **** Fit      -0.014465
 **** Fit      -0.008198
 **** Fit      -0.013659
 **** Fit      -0.021849
 **** Fit       0.038153
 **** Fit       0.038119
 **** Fit       0.034532
 **** Fit       0.030348
 **** Fit       0.014098
 **** Fit       0.009089
 **** Fit       0.006281
 **** Fit       0.005469
 **** Fit       0.005266
 **** Fit       0.044398
 **** Fit       0.041038
 **** Fit       0.037767
 **** Fit       0.034351
 **** Fit       0.030456
 **** Fit       0.025740
 **** Fit       0.020102
 **** Fit       0.016800
 **** Fit       0.012187
 **** Fit       0.008657
 **** Fit       0.005766
 **** Fit       0.002313
 **** Fit      -0.002868
 **** Fit      -0.019096
 **** Fit      -0.014206
 **** Fit      -0.007621
 **** Fit       0.026510
 **** Fit       0.046384
 **** Fit       0.043984
 **** Fit       0.041041
 **** Fit       0.037973
 **** Fit       0.034735
 **** Fit       0.031111
 **** Fit       0.026869
 **** Fit       0.021964
 **** Fit       0.018246
 **** Fit       0.013644
 **** Fit       0.009344
 **** Fit       0.004884
 **** Fit      -0.000410
 **** Fit      -0.006406
 **** Fit      -0.011381
 **** Fit      -0.012935
 **** Fit      -0.010324
 **** Fit      -0.004791
 **** Fit       0.002232
 **** Fit       0.010067
 **** Fit       0.018361
 **** Fit       0.026582
 **** Fit       0.033811
 **** Fit       0.038607
 **** Fit       0.040172
 **** Fit       0.039297
 **** Fit       0.037186
 **** Fit       0.034454
 **** Fit       0.031216
 **** Fit       0.027395
 **** Fit       0.022983
 **** Fit       0.018768
 **** Fit       0.013865
 **** Fit       0.008840
 **** Fit       0.003568
 **** Fit      -0.001407
 **** Fit      -0.004285
 **** Fit      -0.003380
 **** Fit       0.001091
 **** Fit       0.007717
 **** Fit       0.015288
 **** Fit       0.022845
 **** Fit       0.029241
 **** Fit       0.033214
 **** Fit       0.034332
 **** Fit       0.033295
 **** Fit       0.030919
 **** Fit       0.027586
 **** Fit       0.023454
 **** Fit       0.018675
 **** Fit       0.013190
 **** Fit       0.007846
 **** Fit       0.004168
 **** Fit       0.004456
 **** Fit       0.009099
 **** Fit       0.016120
 **** Fit       0.023067
 **** Fit       0.027693
 **** Fit       0.028898
 **** Fit       0.027223
 **** Fit       0.023581
 **** Fit       0.018216
 **** Fit       0.012636
 **** Fit       0.011472
 **** Fit       0.016861
 **** Fit       0.022560
 **** Fit       0.022798
 **** Fit       0.017572
 -----------------------------------------------------------------
 Leave Link  602 at Sun Sep 15 00:00:37 2019, MaxMem=  1342177280 cpu:             106.3 elap:               2.3

 Test job not archived.
 1\1\GINC-C491-014\SP\RB3LYP\SVP\C54H83Ca1N15O23\PENGZHI\15-Sep-2019\0\
 \#b3lyp/svp scf=(tight,noincore) Test #IOP(5/87=12) Density=Current Po
 p=(MK,readradii) iop(6/33=2) iop(6/42=6)\\CaMKII_loop3_74.0\\0,1\C,0,6
 2.25,45.86,40.54\C,0,61.52,45.35,41.77\O,0,61.98,44.38,42.38\H,0,63.25
 1,45.429,40.507\H,0,61.7,45.57,39.644\H,0,62.325,46.946,40.586\N,0,60.
 51,46.05,42.3\C,0,59.96,45.75,43.6\C,0,58.72,44.92,43.3\O,0,57.74,45.3
 1,42.66\C,0,59.46,47.03,44.26\C,0,58.9,46.79,45.65\O,0,58.26,47.72,46.
 19\O,0,58.98,45.72,46.28\H,0,60.16,46.85,41.79\H,0,60.74,45.21,44.13\H
 ,0,58.79,47.62,43.63\H,0,60.33,47.68,44.31\N,0,58.8,43.63,43.65\C,0,57
 .98,42.62,43.03\C,0,56.7,42.3,43.78\O,0,55.68,42.1,43.11\C,0,58.75,41.
 31,42.89\C,0,60.08,41.35,42.15\C,0,59.99,41.87,40.72\C,0,61.22,41.37,3
 9.97\N,0,61.03,41.55,38.52\H,0,59.55,43.38,44.28\H,0,57.65,42.86,42.02
 \H,0,58.18,40.48,42.48\H,0,59.,41.09,43.93\H,0,60.39,40.3,42.07\H,0,60
 .84,41.93,42.66\H,0,60.03,42.96,40.74\H,0,59.11,41.53,40.17\H,0,61.41,
 40.32,40.16\H,0,62.07,41.89,40.4\H,0,61.75,41.08,37.99\H,0,60.13,41.2,
 38.2\H,0,60.99,42.54,38.32\N,0,56.72,42.33,45.12\C,0,55.56,42.46,45.98
 \C,0,55.08,43.91,46.01\O,0,53.93,44.12,46.41\C,0,55.75,41.81,47.35\C,0
 ,56.98,42.32,48.08\O,0,57.5,41.59,48.95\O,0,57.36,43.5,47.89\H,0,57.62
 ,42.43,45.56\H,0,54.82,41.82,45.51\H,0,55.77,40.72,47.28\H,0,54.92,41.
 99,48.03\N,0,55.91,44.86,45.58\C,0,55.45,46.23,45.42\C,0,55.24,46.96,4
 6.74\O,0,54.45,47.9,46.78\H,0,56.7,44.55,45.04\H,0,54.49,46.23,44.91\H
 ,0,56.22,46.81,44.91\N,0,55.87,46.64,47.87\C,0,55.61,47.09,49.22\C,0,5
 6.23,48.46,49.51\O,0,55.85,49.17,50.43\C,0,55.96,46.04,50.27\C,0,57.45
 ,45.88,50.55\N,0,57.81,46.04,51.82\O,0,58.24,45.65,49.64\H,0,56.54,45.
 88,47.82\H,0,54.54,47.29,49.28\H,0,55.56,45.08,49.93\H,0,55.36,46.31,5
 1.14\H,0,57.13,46.17,52.57\H,0,58.75,46.29,52.07\N,0,57.21,48.9,48.71\
 C,0,57.71,50.25,48.62\C,0,59.21,50.33,48.4\O,0,59.75,51.4,48.11\H,0,57
 .47,48.29,47.95\H,0,57.6,50.76,49.58\H,0,57.28,50.82,47.8\N,0,59.91,49
 .2,48.52\C,0,61.35,49.06,48.47\C,0,61.87,47.8,47.78\O,0,61.45,46.69,48
 .08\C,0,61.9,49.24,49.88\C,0,61.24,48.37,50.92\C,0,60.08,48.8,51.57\C,
 0,62.02,47.28,51.33\C,0,59.61,48.08,52.68\C,0,61.66,46.67,52.54\C,0,60
 .49,47.11,53.19\O,0,60.12,46.53,54.37\H,0,59.37,48.37,48.7\H,0,61.79,4
 9.89,47.91\H,0,61.73,50.27,50.21\H,0,62.98,49.1,49.87\H,0,59.55,49.7,5
 1.29\H,0,62.8,46.84,50.73\H,0,58.69,48.38,53.17\H,0,62.39,45.95,52.86\
 H,0,60.57,45.74,54.67\N,0,62.98,47.98,47.06\C,0,63.92,46.97,46.62\C,0,
 64.61,46.28,47.79\O,0,64.89,46.9,48.82\C,0,64.9,47.53,45.6\C,0,64.26,4
 8.46,44.57\C,0,65.72,46.4,44.97\C,0,65.11,49.13,43.49\H,0,63.31,48.93,
 47.09\H,0,63.29,46.25,46.1\H,0,65.63,48.1,46.18\H,0,63.67,49.21,45.1\H
 ,0,63.6,47.74,44.07\H,0,66.44,46.04,45.71\H,0,65.06,45.62,44.59\H,0,66
 .22,46.75,44.07\H,0,65.4,48.44,42.7\H,0,64.55,49.91,42.98\H,0,66.,49.5
 3,43.97\N,0,64.89,44.99,47.61\C,0,65.66,44.06,48.42\C,0,66.52,43.15,47
 .55\O,0,66.27,42.91,46.37\C,0,64.67,43.37,49.35\O,0,63.83,42.49,48.63\
 H,0,64.55,44.56,46.76\H,0,66.3,44.69,49.03\H,0,64.13,44.05,50.\H,0,65.
 36,42.72,49.89\H,0,63.23,42.95,48.04\N,0,67.53,42.52,48.15\C,0,68.54,4
 1.82,47.37\C,0,67.99,40.55,46.74\O,0,68.44,40.26,45.63\C,0,69.72,41.42
 ,48.24\H,0,67.5,42.48,49.16\H,0,69.01,42.4,46.58\H,0,70.66,41.4,47.69\
 H,0,69.91,42.29,48.87\H,0,69.56,40.5,48.8\N,0,66.97,39.94,47.34\C,0,66
 .29,38.83,46.69\C,0,65.49,39.13,45.42\O,0,65.19,38.26,44.61\C,0,65.48,
 38.16,47.79\H,0,66.74,40.3,48.25\H,0,67.14,38.18,46.48\H,0,64.72,38.84
 ,48.19\H,0,64.94,37.31,47.38\H,0,66.21,37.84,48.54\N,0,65.11,40.4,45.2
 6\C,0,64.41,40.98,44.13\C,0,65.46,41.33,43.08\O,0,65.36,40.89,41.93\C,
 0,63.44,42.06,44.58\C,0,62.27,41.51,45.38\C,0,61.43,42.54,46.13\O,0,60
 .2,42.69,45.97\O,0,61.98,43.28,46.98\H,0,65.45,41.04,45.96\H,0,63.72,4
 0.28,43.65\H,0,63.08,42.6,43.7\H,0,63.93,42.88,45.11\H,0,62.56,40.85,4
 6.19\H,0,61.63,40.99,44.66\N,0,66.51,42.05,43.46\C,0,67.54,42.51,42.55
 \H,0,68.455,41.943,42.721\H,0,67.209,42.364,41.522\H,0,67.732,43.569,4
 2.723\H,0,66.42,42.48,44.37\Ca,0,59.89,44.3,48.07\O,0,61.04,44.64,50.4
 7\H,0,61.17,45.49,50.89\H,0,61.07,44.,51.18\\Version=ES64L-G16RevA.03\
 State=1-A\HF=-5333.5811512\RMSD=3.682e-09\Dipole=11.0993008,-2.9863745
 ,-6.1138115\Quadrupole=-115.2935108,-72.2981108,187.5916216,41.0570905
 ,29.4069564,15.8470012\PG=C01 [X(C54H83Ca1N15O23)]\\@


 ON INDUCTION, OR "WHY DO YOU BELIEVE THE SUN WILL RISE TOMORROW?":

 ... THE FARMER WHO HAS FED THE CHICKEN EVERY DAY THROUGHOUT ITS
 LIFE AT LAST WRINGS ITS NECK INSTEAD, SHOWING THAT MORE REFINED VIEWS
 AS TO THE UNIFORMITY OF NATURE WOULD HAVE BEEN USEFUL TO THE CHICKEN.

                               -- BERTRAND RUSSELL
 Job cpu time:       0 days 10 hours 15 minutes  7.5 seconds.
 Elapsed time:       0 days  0 hours 12 minutes 57.5 seconds.
 File lengths (MBytes):  RWF=   1517 Int=      0 D2E=      0 Chk=    171 Scr=      1
 Normal termination of Gaussian 16 at Sun Sep 15 00:00:38 2019.
