 Entering Gaussian System, Link 0=g09
 Initial command:
 /home/pcieplak/g09/g09/l1.exe "/scratch1/pcieplak/fullloop_25.0/Gau-2564.inp" -scrdir="/scratch1/pcieplak/fullloop_25.0/"
 Entering Link 1 = /home/pcieplak/g09/g09/l1.exe PID=      2565.
  
 Copyright (c) 1988,1990,1992,1993,1995,1998,2003,2009,2013,
            Gaussian, Inc.  All Rights Reserved.
  
 This is part of the Gaussian(R) 09 program.  It is based on
 the Gaussian(R) 03 system (copyright 2003, Gaussian, Inc.),
 the Gaussian(R) 98 system (copyright 1998, Gaussian, Inc.),
 the Gaussian(R) 94 system (copyright 1995, Gaussian, Inc.),
 the Gaussian 92(TM) system (copyright 1992, Gaussian, Inc.),
 the Gaussian 90(TM) system (copyright 1990, Gaussian, Inc.),
 the Gaussian 88(TM) system (copyright 1988, Gaussian, Inc.),
 the Gaussian 86(TM) system (copyright 1986, Carnegie Mellon
 University), and the Gaussian 82(TM) system (copyright 1983,
 Carnegie Mellon University). Gaussian is a federally registered
 trademark of Gaussian, Inc.
  
 This software contains proprietary and confidential information,
 including trade secrets, belonging to Gaussian, Inc.
  
 This software is provided under written license and may be
 used, copied, transmitted, or stored only in accord with that
 written license.
  
 The following legend is applicable only to US Government
 contracts under FAR:
  
                    RESTRICTED RIGHTS LEGEND
  
 Use, reproduction and disclosure by the US Government is
 subject to restrictions as set forth in subparagraphs (a)
 and (c) of the Commercial Computer Software - Restricted
 Rights clause in FAR 52.227-19.
  
 Gaussian, Inc.
 340 Quinnipiac St., Bldg. 40, Wallingford CT 06492
  
  
 ---------------------------------------------------------------
 Warning -- This program may not be used in any manner that
 competes with the business of Gaussian, Inc. or will provide
 assistance to any competitor of Gaussian, Inc.  The licensee
 of this program is prohibited from giving any competitor of
 Gaussian, Inc. access to this program.  By using this program,
 the user acknowledges that Gaussian, Inc. is engaged in the
 business of creating and licensing software in the field of
 computational chemistry and represents and warrants to the
 licensee that it is not a competitor of Gaussian, Inc. and that
 it will not use this program in any manner prohibited above.
 ---------------------------------------------------------------
  

 Cite this work as:
 Gaussian 09, Revision D.01,
 M. J. Frisch, G. W. Trucks, H. B. Schlegel, G. E. Scuseria, 
 M. A. Robb, J. R. Cheeseman, G. Scalmani, V. Barone, B. Mennucci, 
 G. A. Petersson, H. Nakatsuji, M. Caricato, X. Li, H. P. Hratchian, 
 A. F. Izmaylov, J. Bloino, G. Zheng, J. L. Sonnenberg, M. Hada, 
 M. Ehara, K. Toyota, R. Fukuda, J. Hasegawa, M. Ishida, T. Nakajima, 
 Y. Honda, O. Kitao, H. Nakai, T. Vreven, J. A. Montgomery, Jr., 
 J. E. Peralta, F. Ogliaro, M. Bearpark, J. J. Heyd, E. Brothers, 
 K. N. Kudin, V. N. Staroverov, T. Keith, R. Kobayashi, J. Normand, 
 K. Raghavachari, A. Rendell, J. C. Burant, S. S. Iyengar, J. Tomasi, 
 M. Cossi, N. Rega, J. M. Millam, M. Klene, J. E. Knox, J. B. Cross, 
 V. Bakken, C. Adamo, J. Jaramillo, R. Gomperts, R. E. Stratmann, 
 O. Yazyev, A. J. Austin, R. Cammi, C. Pomelli, J. W. Ochterski, 
 R. L. Martin, K. Morokuma, V. G. Zakrzewski, G. A. Voth, 
 P. Salvador, J. J. Dannenberg, S. Dapprich, A. D. Daniels, 
 O. Farkas, J. B. Foresman, J. V. Ortiz, J. Cioslowski, 
 and D. J. Fox, Gaussian, Inc., Wallingford CT, 2013.
 
 ******************************************
 Gaussian 09:  ES64L-G09RevD.01 24-Apr-2013
                16-Sep-2019 
 ******************************************
 %Nproc=12
 Will use up to   12 processors via shared memory.
 %chk=chk1mol
 %mem=32GB
 ----------------------------------------------------------------------
 #maxdisk=50GB #B3LYP/SVP Density=Current scf=(tight) #IOP(5/87=12)Pop=
 (MK,readradii) iop(6/33=2) iop(6/42=6)
 ----------------------------------------------------------------------
 1/30=1,38=1/1;
 2/12=2,17=6,18=5,40=1/2;
 3/5=18,7=101,11=2,16=1,25=1,30=1,74=-5/1,2,3;
 4//1;
 5/5=2,32=2,38=5,87=12/2;
 6/7=2,8=2,9=2,10=2,15=8,20=101,22=-1,28=1,33=2,42=6/1,2;
 99/5=1,9=1/99;
 ------------
 SOL molecule
 ------------
 Symbolic Z-matrix:
 Charge =  0 Multiplicity = 1
 C                     77.14     61.48     20.51 
 C                     77.1      60.01     20.11 
 O                     78.17     59.42     20.1 
 H                     77.699    62.044    19.763 
 H                     76.123    61.868    20.572 
 H                     77.627    61.58     21.48 
 N                     75.93     59.48     19.73 
 C                     75.79     58.24     18.99 
 C                     76.03     58.46     17.51 
 O                     75.53     59.36     16.84 
 C                     74.37     57.72     19.19 
 C                     74.1      56.4      18.48 
 O                     72.89     56.14     18.3 
 O                     75.04     55.62     18.2 
 H                     75.2      60.16     19.8 
 H                     76.47     57.53     19.46 
 H                     73.66     58.45     18.8 
 H                     74.2      57.61     20.26 
 N                     76.87     57.6      16.94 
 C                     77.53     57.79     15.66 
 C                     76.96     57.01     14.48 
 O                     76.68     57.58     13.43 
 C                     79.04     57.74     15.87 
 C                     79.98     57.59     14.68 
 C                     81.47     57.56     15. 
 C                     82.2      57.53     13.66 
 N                     83.66     57.58     13.83 
 H                     77.1      56.71     17.37 
 H                     77.4      58.85     15.42 
 H                     79.24     56.89     16.53 
 H                     79.39     58.65     16.35 
 H                     79.87     58.52     14.11 
 H                     79.69     56.72     14.1 
 H                     81.67     56.66     15.58 
 H                     81.73     58.47     15.55 
 H                     81.87     58.35     13.01 
 H                     81.95     56.62     13.11 
 H                     84.01     56.84     14.41 
 H                     84.17     57.44     12.96 
 H                     84.02     58.41     14.27 
 N                     76.64     55.72     14.69 
 C                     75.96     54.9      13.72 
 C                     74.45     54.92     13.81 
 O                     73.74     54.52     12.89 
 C                     76.48     53.47     13.89 
 C                     76.3      52.75     15.22 
 O                     75.69     53.31     16.16 
 O                     76.8      51.61     15.31 
 H                     76.8      55.27     15.58 
 H                     76.1      55.31     12.72 
 H                     77.53     53.46     13.64 
 H                     76.02     52.78     13.18 
 N                     73.88     55.42     14.91 
 C                     72.48     55.71     15.16 
 C                     71.76     54.51     15.76 
 O                     70.57     54.31     15.52 
 H                     74.49     55.61     15.69 
 H                     71.96     55.99     14.24 
 H                     72.36     56.53     15.86 
 N                     72.48     53.61     16.42 
 C                     71.97     52.38     17. 
 C                     71.4      52.53     18.4 
 O                     70.84     51.56     18.91 
 C                     73.03     51.29     16.83 
 C                     73.87     51.22     18.1 
 N                     74.36     50.06     18.55 
 O                     74.31     52.21     18.68 
 H                     73.48     53.78     16.5 
 H                     71.08     52.02     16.48 
 H                     73.64     51.5      15.96 
 H                     72.47     50.35     16.75 
 H                     74.2      49.21     18.04 
 H                     75.02     50.19     19.31 
 N                     71.34     53.73     18.99 
 C                     70.67     53.98     20.25 
 C                     71.6      53.96     21.46 
 O                     71.03     53.93     22.55 
 H                     71.82     54.51     18.58 
 H                     69.85     53.26     20.31 
 H                     70.15     54.94     20.22 
 N                     72.92     53.82     21.3 
 C                     73.86     53.81     22.4 
 C                     75.19     54.5      22.15 
 O                     75.8      54.33     21.1 
 C                     74.11     52.37     22.85 
 C                     72.93     51.6      23.39 
 C                     72.45     51.82     24.69 
 C                     72.35     50.6      22.6 
 C                     71.25     51.21     25.06 
 C                     71.18     49.94     22.99 
 C                     70.57     50.32     24.2 
 O                     69.35     49.8      24.55 
 H                     73.2      53.86     20.33 
 H                     73.41     54.36     23.22 
 H                     74.73     52.48     23.74 
 H                     74.54     51.77     22.04 
 H                     72.94     52.53     25.34 
 H                     72.73     50.42     21.6 
 H                     70.72     51.44     25.97 
 H                     70.73     49.22     22.32 
 H                     68.98     49.45     23.74 
 N                     75.72     55.25     23.12 
 C                     77.05     55.79     22.96 
 C                     78.13     54.89     23.56 
 O                     77.89     54.34     24.63 
 C                     77.11     57.15     23.65 
 C                     75.94     58.08     23.38 
 C                     78.36     57.86     23.13 
 C                     75.87     59.24     24.37 
 H                     75.26     55.34     24.02 
 H                     77.24     56.05     21.92 
 H                     77.21     57.05     24.73 
 H                     74.98     57.56     23.44 
 H                     75.93     58.42     22.34 
 H                     78.29     57.91     22.05 
 H                     78.41     58.91     23.42 
 H                     79.26     57.34     23.45 
 H                     75.2      59.99     23.95 
 H                     75.57     58.92     25.37 
 H                     76.84     59.71     24.55 
 N                     79.28     54.83     22.88 
 C                     80.46     54.16     23.38 
 C                     81.71     55.02     23.38 
 O                     81.64     56.1      22.8 
 C                     80.72     52.78     22.77 
 O                     80.6      52.91     21.37 
 H                     79.37     55.29     21.98 
 H                     80.34     53.97     24.45 
 H                     79.98     52.05     23.1 
 H                     81.71     52.48     23.1 
 H                     79.73     53.3      21.25 
 N                     82.78     54.61     24.07 
 C                     84.02     55.34     24.22 
 C                     84.46     55.84     22.86 
 O                     84.77     57.03     22.8 
 C                     85.03     54.6      25.1 
 H                     82.64     53.78     24.63 
 H                     83.75     56.26     24.75 
 H                     85.19     53.58     24.73 
 H                     85.98     55.12     25.13 
 H                     84.67     54.52     26.13 
 N                     84.6      54.99     21.84 
 C                     85.12     55.36     20.54 
 C                     84.32     56.5      19.94 
 O                     84.9      57.34     19.25 
 C                     85.01     54.11     19.68 
 H                     84.43     54.       21.97 
 H                     86.14     55.73     20.64 
 H                     85.8      53.41     19.94 
 H                     84.03     53.63     19.64 
 H                     85.22     54.39     18.64 
 N                     83.02     56.57     20.25 
 C                     82.07     57.48     19.64 
 C                     81.97     58.81     20.36 
 O                     82.07     59.88     19.77 
 C                     80.69     56.83     19.78 
 C                     80.47     55.52     19.03 
 C                     79.01     55.08     19.04 
 O                     78.15     55.44     18.21 
 O                     78.71     54.36     20.01 
 H                     82.65     55.77     20.75 
 H                     82.32     57.65     18.59 
 H                     79.99     57.54     19.35 
 H                     80.44     56.73     20.83 
 H                     81.06     54.7      19.42 
 H                     80.77     55.71     18. 
 N                     81.92     58.7      21.69 
 C                     82.17     59.78     22.62 
 H                     82.994    60.392    22.253 
 H                     81.275    60.395    22.713 
 H                     82.431    59.368    23.595 
 H                     81.76     57.77     22.06 
 CA                    76.57     53.52     18.7 
 O                     78.56     52.32     17.37 
 H                     79.49     52.08     17.41 
 H                     78.24     51.92     16.56 
 
 Stoichiometry    C54H83CaN15O23
 Framework group  C1[X(C54H83CaN15O23)]
 Deg. of freedom   522
 Full point group                 C1      NOp   1
 Largest Abelian subgroup         C1      NOp   1
 Largest concise Abelian subgroup C1      NOp   1
                         Standard orientation:                         
 ---------------------------------------------------------------------
 Center     Atomic      Atomic             Coordinates (Angstroms)
 Number     Number       Type             X           Y           Z
 ---------------------------------------------------------------------
      1          6           0        2.247836    0.686126    5.884577
      2          6           0        1.650141    0.699119    4.482759
      3          8           0        2.438012    0.592789    3.554830
      4          1           0        2.873181    1.568788    6.020360
      5          1           0        1.445190    0.692652    6.622407
      6          1           0        2.853071   -0.211134    6.013749
      7          7           0        0.331915    0.895585    4.349040
      8          6           0       -0.319897    1.292459    3.115172
      9          6           0       -0.199842    2.786668    2.893074
     10          8           0       -0.432472    3.646862    3.738561
     11          6           0       -1.796614    0.922855    3.212634
     12          6           0       -2.593482    1.266381    1.961078
     13          8           0       -3.830578    1.336641    2.130657
     14          8           0       -2.025392    1.368885    0.848798
     15          1           0       -0.101298    0.977357    5.246726
     16          1           0        0.121939    0.679419    2.330085
     17          1           0       -2.249659    1.462676    4.044766
     18          1           0       -1.863061   -0.144877    3.416185
     19          7           0        0.212235    3.146157    1.680201
     20          6           0        0.736509    4.452545    1.321609
     21          6           0       -0.208191    5.377933    0.562071
     22          8           0       -0.397386    6.528800    0.943529
     23          6           0        2.148132    4.284120    0.768749
     24          6           0        2.825177    5.426103    0.020628
     25          6           0        4.238527    5.155766   -0.482123
     26          6           0        4.743963    6.466610   -1.078465
     27          7           0        6.139083    6.360633   -1.531687
     28          1           0        0.168251    2.512087    0.889050
     29          1           0        0.955712    4.949121    2.272115
     30          1           0        2.118112    3.436870    0.076386
     31          1           0        2.848649    4.061582    1.569219
     32          1           0        2.977638    6.209427    0.772333
     33          1           0        2.182222    5.757341   -0.788254
     34          1           0        4.181383    4.373195   -1.237580
     35          1           0        4.863887    4.862731    0.367145
     36          1           0        4.643913    7.292518   -0.363158
     37          1           0        4.127898    6.759959   -1.931408
     38          1           0        6.277087    5.623303   -2.197868
     39          1           0        6.458767    7.182292   -2.040881
     40          1           0        6.816178    6.156811   -0.816076
     41          7           0       -0.929414    4.837989   -0.437378
     42          6           0       -1.964800    5.546758   -1.145420
     43          6           0       -3.350456    5.417524   -0.552246
     44          8           0       -4.261383    6.183438   -0.858985
     45          6           0       -1.958855    5.036316   -2.588893
     46          6           0       -2.215484    3.562315   -2.873785
     47          8           0       -2.473348    2.776273   -1.933070
     48          8           0       -2.136841    3.202081   -4.066155
     49          1           0       -0.829387    3.868469   -0.702379
     50          1           0       -1.813259    6.621890   -1.051474
     51          1           0       -1.016708    5.308376   -3.039937
     52          1           0       -2.712916    5.533534   -3.202055
     53          7           0       -3.572614    4.462833    0.355560
     54          6           0       -4.742571    4.250765    1.187923
     55          6           0       -5.756910    3.344027    0.504299
     56          8           0       -6.961803    3.488128    0.707201
     57          1           0       -2.844769    3.775934    0.478075
     58          1           0       -5.240066    5.194940    1.425057
     59          1           0       -4.483559    3.777995    2.129306
     60          7           0       -5.321004    2.500391   -0.424282
     61          6           0       -6.153024    1.611964   -1.216646
     62          6           0       -6.460664    0.278528   -0.557324
     63          8           0       -7.257105   -0.477901   -1.112389
     64          6           0       -5.568007    1.533319   -2.628088
     65          6           0       -4.657450    0.313979   -2.714675
     66          7           0       -4.551370   -0.399704   -3.840554
     67          8           0       -3.833277    0.017846   -1.852617
     68          1           0       -4.322586    2.497435   -0.620376
     69          1           0       -7.168777    1.995635   -1.331286
     70          1           0       -5.033476    2.446798   -2.858159
     71          1           0       -6.425615    1.354936   -3.288609
     72          1           0       -5.058027   -0.127007   -4.663436
     73          1           0       -3.800373   -1.080904   -3.795055
     74          7           0       -6.026890    0.010283    0.680248
     75          6           0       -6.409646   -1.165586    1.435120
     76          6           0       -5.405303   -2.311426    1.347106
     77          8           0       -5.813260   -3.390749    1.774344
     78          1           0       -5.358843    0.619375    1.115701
     79          1           0       -7.415311   -1.431722    1.100142
     80          1           0       -6.562285   -0.909601    2.485869
     81          7           0       -4.246541   -2.150870    0.699732
     82          6           0       -3.242773   -3.187508    0.592359
     83          6           0       -1.796574   -2.729301    0.670164
     84          8           0       -1.416236   -1.738080    0.056712
     85          6           0       -3.457290   -3.979658   -0.698021
     86          6           0       -4.756725   -4.733828   -0.838006
     87          6           0       -4.968469   -5.950023   -0.171046
     88          6           0       -5.740001   -4.241574   -1.704813
     89          6           0       -6.251405   -6.499910   -0.197469
     90          6           0       -7.010039   -4.822528   -1.782892
     91          6           0       -7.297818   -5.915233   -0.943977
     92          8           0       -8.570428   -6.423603   -0.886318
     93          1           0       -4.090091   -1.194116    0.415046
     94          1           0       -3.369965   -3.855052    1.438295
     95          1           0       -2.734659   -4.792871   -0.626670
     96          1           0       -3.364888   -3.335080   -1.579486
     97          1           0       -4.186841   -6.383222    0.435663
     98          1           0       -5.570862   -3.308431   -2.231535
     99          1           0       -6.553480   -7.338063    0.409285
    100          1           0       -7.760397   -4.371274   -2.417819
    101          1           0       -9.134558   -5.740726   -1.248169
    102          7           0       -0.924992   -3.460505    1.370154
    103          6           0        0.479890   -3.127325    1.332801
    104          6           0        1.243134   -3.901677    0.258447
    105          8           0        0.958383   -5.083096    0.090624
    106          6           0        1.093066   -3.447954    2.693136
    107          6           0        0.296672   -2.987881    3.901767
    108          6           0        2.439098   -2.726133    2.757740
    109          6           0        0.755772   -3.653317    5.196766
    110          1           0       -1.211974   -4.322274    1.822589
    111          1           0        0.620809   -2.049962    1.264013
    112          1           0        1.282282   -4.514366    2.808737
    113          1           0       -0.769469   -3.207721    3.798737
    114          1           0        0.279552   -1.896509    3.978677
    115          1           0        2.260354   -1.671452    2.585991
    116          1           0        2.886461   -2.738887    3.752126
    117          1           0        3.133389   -3.139111    2.029585
    118          1           0        0.343231   -3.078169    6.025509
    119          1           0        0.486856   -4.710654    5.242842
    120          1           0        1.842925   -3.677878    5.304907
    121          7           0        2.208624   -3.223408   -0.371062
    122          6           0        3.132783   -3.839661   -1.297054
    123          6           0        4.594174   -3.582595   -0.980270
    124          8           0        4.834843   -2.750341   -0.110137
    125          6           0        2.819792   -3.591428   -2.775065
    126          8           0        2.583593   -2.208647   -2.928122
    127          1           0        2.343241   -2.233857   -0.191154
    128          1           0        3.084950   -4.926099   -1.184077
    129          1           0        1.917778   -4.118644   -3.087817
    130          1           0        3.675572   -3.955508   -3.335499
    131          1           0        1.896188   -2.021042   -2.283390
    132          7           0        5.529702   -4.320112   -1.588511
    133          6           0        6.954730   -4.241329   -1.351682
    134          6           0        7.372767   -2.785929   -1.367624
    135          8           0        8.068075   -2.416666   -0.421056
    136          6           0        7.742619   -5.248049   -2.193017
    137          1           0        5.178478   -5.076256   -2.160341
    138          1           0        7.088509   -4.529091   -0.303113
    139          1           0        7.491189   -5.143769   -3.255471
    140          1           0        8.810389   -5.115539   -2.066096
    141          1           0        7.505161   -6.275455   -1.901554
    142          7           0        7.083055   -2.010742   -2.415313
    143          6           0        7.537460   -0.643789   -2.564500
    144          6           0        7.118062    0.200147   -1.376444
    145          8           0        7.865969    1.098294   -0.986486
    146          6           0        6.895484   -0.132487   -3.845374
    147          1           0        6.596029   -2.392621   -3.217107
    148          1           0        8.626551   -0.614776   -2.582953
    149          1           0        7.417558   -0.536509   -4.709032
    150          1           0        5.812547   -0.246132   -3.927418
    151          1           0        7.061959    0.950570   -3.903461
    152          7           0        5.971719   -0.122549   -0.765900
    153          6           0        5.331579    0.668076    0.267459
    154          6           0        5.789228    0.305829    1.666257
    155          8           0        6.183215    1.150541    2.462646
    156          6           0        3.839483    0.324793    0.219420
    157          6           0        3.087718    0.711093   -1.050470
    158          6           0        1.578620    0.544210   -0.908788
    159          8           0        0.803881    1.410993   -0.454292
    160          8           0        1.166753   -0.585480   -1.230448
    161          1           0        5.409875   -0.820282   -1.239611
    162          1           0        5.495709    1.734180    0.093152
    163          1           0        3.383913    0.898534    1.020842
    164          1           0        3.699732   -0.723573    0.456902
    165          1           0        3.397878    0.144709   -1.919728
    166          1           0        3.307717    1.764494   -1.220610
    167          7           0        5.865881   -1.009528    1.884112
    168          6           0        6.587277   -1.627204    2.975838
    169          1           0        7.521782   -1.091485    3.142915
    170          1           0        5.980850   -1.589308    3.880664
    171          1           0        6.804735   -2.666115    2.727108
    172          1           0        5.438177   -1.607935    1.186704
    173         20           0       -1.273939    0.401232   -1.496381
    174          8           0       -0.003599    1.445387   -3.609430
    175          1           0        0.782107    1.375019   -4.158807
    176          1           0       -0.538668    2.117159   -4.034780
 ---------------------------------------------------------------------
 Rotational constants (GHZ):      0.0235818      0.0152678      0.0119162
 Standard basis: SVP (5D, 7F)
 There are  1809 symmetry adapted cartesian basis functions of A   symmetry.
 There are  1717 symmetry adapted basis functions of A   symmetry.
  1717 basis functions,  2922 primitive gaussians,  1809 cartesian basis functions
   358 alpha electrons      358 beta electrons
       nuclear repulsion energy     21750.6778041291 Hartrees.
 NAtoms=  176 NActive=  176 NUniq=  176 SFac= 1.00D+00 NAtFMM=   60 NAOKFM=T Big=T
 Integral buffers will be    131072 words long.
 Raffenetti 2 integral format.
 Two-electron integral symmetry is turned on.
 One-electron integrals computed using PRISM.
 NBasis=  1717 RedAO= T EigKep=  2.81D-04  NBF=  1717
 NBsUse=  1717 1.00D-06 EigRej= -1.00D+00 NBFU=  1717
 ExpMin= 1.98D-02 ExpMax= 3.51D+04 ExpMxC= 5.28D+03 IAcc=3 IRadAn=         5 AccDes= 0.00D+00
 Harris functional with IExCor=  402 and IRadAn=       5 diagonalized for initial guess.
 HarFok:  IExCor=  402 AccDes= 0.00D+00 IRadAn=         5 IDoV= 1 UseB2=F ITyADJ=14
 ICtDFT=  3500011 ScaDFX=  1.000000  1.000000  1.000000  1.000000
 FoFCou: FMM=F IPFlag=           0 FMFlag=      100000 FMFlg1=        2001
         NFxFlg=           0 DoJE=T BraDBF=F KetDBF=T FulRan=T
         wScrn=  0.000000 ICntrl=     500 IOpCl=  0 I1Cent=   200000004 NGrid=           0
         NMat0=    1 NMatS0=      1 NMatT0=    0 NMatD0=    1 NMtDS0=    0 NMtDT0=    0
 Petite list used in FoFCou.
 Requested convergence on RMS density matrix=1.00D-08 within 128 cycles.
 Requested convergence on MAX density matrix=1.00D-06.
 Requested convergence on             energy=1.00D-06.
 No special actions if energy rises.
 EnCoef did     4 forward-backward iterations
 SCF Done:  E(RB3LYP) =  -5333.61938511     A.U. after   17 cycles
            NFock= 17  Conv=0.53D-08     -V/T= 2.0082

 **********************************************************************

            Population analysis using the SCF density.

 **********************************************************************

 Orbital symmetries:
 BldTbl:  Degeneracy threshold= 1.00D-02
       Occupied  (A) (A) (A) (A) (A) (A) (A) (A) (A) (A) (A) (A)
                 (A) (A) (A) (A) (A) (A) (A) (A) (A) (A) (A) (A)
                 (A) (A) (A) (A) (A) (A) (A) (A) (A) (A) (A) (A)
                 (A) (A) (A) (A) (A) (A) (A) (A) (A) (A) (A) (A)
                 (A) (A) (A) (A) (A) (A) (A) (A) (A) (A) (A) (A)
                 (A) (A) (A) (A) (A) (A) (A) (A) (A) (A) (A) (A)
                 (A) (A) (A) (A) (A) (A) (A) (A) (A) (A) (A) (A)
                 (A) (A) (A) (A) (A) (A) (A) (A) (A) (A) (A) (A)
                 (A) (A) (A) (A) (A) (A) (A) (A) (A) (A) (A) (A)
                 (A) (A) (A) (A) (A) (A) (A) (A) (A) (A) (A) (A)
                 (A) (A) (A) (A) (A) (A) (A) (A) (A) (A) (A) (A)
                 (A) (A) (A) (A) (A) (A) (A) (A) (A) (A) (A) (A)
                 (A) (A) (A) (A) (A) (A) (A) (A) (A) (A) (A) (A)
                 (A) (A) (A) (A) (A) (A) (A) (A) (A) (A) (A) (A)
                 (A) (A) (A) (A) (A) (A) (A) (A) (A) (A) (A) (A)
                 (A) (A) (A) (A) (A) (A) (A) (A) (A) (A) (A) (A)
                 (A) (A) (A) (A) (A) (A) (A) (A) (A) (A) (A) (A)
                 (A) (A) (A) (A) (A) (A) (A) (A) (A) (A) (A) (A)
                 (A) (A) (A) (A) (A) (A) (A) (A) (A) (A) (A) (A)
                 (A) (A) (A) (A) (A) (A) (A) (A) (A) (A) (A) (A)
                 (A) (A) (A) (A) (A) (A) (A) (A) (A) (A) (A) (A)
                 (A) (A) (A) (A) (A) (A) (A) (A) (A) (A) (A) (A)
                 (A) (A) (A) (A) (A) (A) (A) (A) (A) (A) (A) (A)
                 (A) (A) (A) (A) (A) (A) (A) (A) (A) (A) (A) (A)
                 (A) (A) (A) (A) (A) (A) (A) (A) (A) (A) (A) (A)
                 (A) (A) (A) (A) (A) (A) (A) (A) (A) (A) (A) (A)
                 (A) (A) (A) (A) (A) (A) (A) (A) (A) (A) (A) (A)
                 (A) (A) (A) (A) (A) (A) (A) (A) (A) (A) (A) (A)
                 (A) (A) (A) (A) (A) (A) (A) (A) (A) (A) (A) (A)
                 (A) (A) (A) (A) (A) (A) (A) (A) (A) (A)
       Virtual   (A) (A) (A) (A) (A) (A) (A) (A) (A) (A) (A) (A)
                 (A) (A) (A) (A) (A) (A) (A) (A) (A) (A) (A) (A)
                 (A) (A) (A) (A) (A) (A) (A) (A) (A) (A) (A) (A)
                 (A) (A) (A) (A) (A) (A) (A) (A) (A) (A) (A) (A)
                 (A) (A) (A) (A) (A) (A) (A) (A) (A) (A) (A) (A)
                 (A) (A) (A) (A) (A) (A) (A) (A) (A) (A) (A) (A)
                 (A) (A) (A) (A) (A) (A) (A) (A) (A) (A) (A) (A)
                 (A) (A) (A) (A) (A) (A) (A) (A) (A) (A) (A) (A)
                 (A) (A) (A) (A) (A) (A) (A) (A) (A) (A) (A) (A)
                 (A) (A) (A) (A) (A) (A) (A) (A) (A) (A) (A) (A)
                 (A) (A) (A) (A) (A) (A) (A) (A) (A) (A) (A) (A)
                 (A) (A) (A) (A) (A) (A) (A) (A) (A) (A) (A) (A)
                 (A) (A) (A) (A) (A) (A) (A) (A) (A) (A) (A) (A)
                 (A) (A) (A) (A) (A) (A) (A) (A) (A) (A) (A) (A)
                 (A) (A) (A) (A) (A) (A) (A) (A) (A) (A) (A) (A)
                 (A) (A) (A) (A) (A) (A) (A) (A) (A) (A) (A) (A)
                 (A) (A) (A) (A) (A) (A) (A) (A) (A) (A) (A) (A)
                 (A) (A) (A) (A) (A) (A) (A) (A) (A) (A) (A) (A)
                 (A) (A) (A) (A) (A) (A) (A) (A) (A) (A) (A) (A)
                 (A) (A) (A) (A) (A) (A) (A) (A) (A) (A) (A) (A)
                 (A) (A) (A) (A) (A) (A) (A) (A) (A) (A) (A) (A)
                 (A) (A) (A) (A) (A) (A) (A) (A) (A) (A) (A) (A)
                 (A) (A) (A) (A) (A) (A) (A) (A) (A) (A) (A) (A)
                 (A) (A) (A) (A) (A) (A) (A) (A) (A) (A) (A) (A)
                 (A) (A) (A) (A) (A) (A) (A) (A) (A) (A) (A) (A)
                 (A) (A) (A) (A) (A) (A) (A) (A) (A) (A) (A) (A)
                 (A) (A) (A) (A) (A) (A) (A) (A) (A) (A) (A) (A)
                 (A) (A) (A) (A) (A) (A) (A) (A) (A) (A) (A) (A)
                 (A) (A) (A) (A) (A) (A) (A) (A) (A) (A) (A) (A)
                 (A) (A) (A) (A) (A) (A) (A) (A) (A) (A) (A) (A)
                 (A) (A) (A) (A) (A) (A) (A) (A) (A) (A) (A) (A)
                 (A) (A) (A) (A) (A) (A) (A) (A) (A) (A) (A) (A)
                 (A) (A) (A) (A) (A) (A) (A) (A) (A) (A) (A) (A)
                 (A) (A) (A) (A) (A) (A) (A) (A) (A) (A) (A) (A)
                 (A) (A) (A) (A) (A) (A) (A) (A) (A) (A) (A) (A)
                 (A) (A) (A) (A) (A) (A) (A) (A) (A) (A) (A) (A)
                 (A) (A) (A) (A) (A) (A) (A) (A) (A) (A) (A) (A)
                 (A) (A) (A) (A) (A) (A) (A) (A) (A) (A) (A) (A)
                 (A) (A) (A) (A) (A) (A) (A) (A) (A) (A) (A) (A)
                 (A) (A) (A) (A) (A) (A) (A) (A) (A) (A) (A) (A)
                 (A) (A) (A) (A) (A) (A) (A) (A) (A) (A) (A) (A)
                 (A) (A) (A) (A) (A) (A) (A) (A) (A) (A) (A) (A)
                 (A) (A) (A) (A) (A) (A) (A) (A) (A) (A) (A) (A)
                 (A) (A) (A) (A) (A) (A) (A) (A) (A) (A) (A) (A)
                 (A) (A) (A) (A) (A) (A) (A) (A) (A) (A) (A) (A)
                 (A) (A) (A) (A) (A) (A) (A) (A) (A) (A) (A) (A)
                 (A) (A) (A) (A) (A) (A) (A) (A) (A) (A) (A) (A)
                 (A) (A) (A) (A) (A) (A) (A) (A) (A) (A) (A) (A)
                 (A) (A) (A) (A) (A) (A) (A) (A) (A) (A) (A) (A)
                 (A) (A) (A) (A) (A) (A) (A) (A) (A) (A) (A) (A)
                 (A) (A) (A) (A) (A) (A) (A) (A) (A) (A) (A) (A)
                 (A) (A) (A) (A) (A) (A) (A) (A) (A) (A) (A) (A)
                 (A) (A) (A) (A) (A) (A) (A) (A) (A) (A) (A) (A)
                 (A) (A) (A) (A) (A) (A) (A) (A) (A) (A) (A) (A)
                 (A) (A) (A) (A) (A) (A) (A) (A) (A) (A) (A) (A)
                 (A) (A) (A) (A) (A) (A) (A) (A) (A) (A) (A) (A)
                 (A) (A) (A) (A) (A) (A) (A) (A) (A) (A) (A) (A)
                 (A) (A) (A) (A) (A) (A) (A) (A) (A) (A) (A) (A)
                 (A) (A) (A) (A) (A) (A) (A) (A) (A) (A) (A) (A)
                 (A) (A) (A) (A) (A) (A) (A) (A) (A) (A) (A) (A)
                 (A) (A) (A) (A) (A) (A) (A) (A) (A) (A) (A) (A)
                 (A) (A) (A) (A) (A) (A) (A) (A) (A) (A) (A) (A)
                 (A) (A) (A) (A) (A) (A) (A) (A) (A) (A) (A) (A)
                 (A) (A) (A) (A) (A) (A) (A) (A) (A) (A) (A) (A)
                 (A) (A) (A) (A) (A) (A) (A) (A) (A) (A) (A) (A)
                 (A) (A) (A) (A) (A) (A) (A) (A) (A) (A) (A) (A)
                 (A) (A) (A) (A) (A) (A) (A) (A) (A) (A) (A) (A)
                 (A) (A) (A) (A) (A) (A) (A) (A) (A) (A) (A) (A)
                 (A) (A) (A) (A) (A) (A) (A) (A) (A) (A) (A) (A)
                 (A) (A) (A) (A) (A) (A) (A) (A) (A) (A) (A) (A)
                 (A) (A) (A) (A) (A) (A) (A) (A) (A) (A) (A) (A)
                 (A) (A) (A) (A) (A) (A) (A) (A) (A) (A) (A) (A)
                 (A) (A) (A) (A) (A) (A) (A) (A) (A) (A) (A) (A)
                 (A) (A) (A) (A) (A) (A) (A) (A) (A) (A) (A) (A)
                 (A) (A) (A) (A) (A) (A) (A) (A) (A) (A) (A) (A)
                 (A) (A) (A) (A) (A) (A) (A) (A) (A) (A) (A) (A)
                 (A) (A) (A) (A) (A) (A) (A) (A) (A) (A) (A) (A)
                 (A) (A) (A) (A) (A) (A) (A) (A) (A) (A) (A) (A)
                 (A) (A) (A) (A) (A) (A) (A) (A) (A) (A) (A) (A)
                 (A) (A) (A) (A) (A) (A) (A) (A) (A) (A) (A) (A)
                 (A) (A) (A) (A) (A) (A) (A) (A) (A) (A) (A) (A)
                 (A) (A) (A) (A) (A) (A) (A) (A) (A) (A) (A) (A)
                 (A) (A) (A) (A) (A) (A) (A) (A) (A) (A) (A) (A)
                 (A) (A) (A) (A) (A) (A) (A) (A) (A) (A) (A) (A)
                 (A) (A) (A) (A) (A) (A) (A) (A) (A) (A) (A) (A)
                 (A) (A) (A) (A) (A) (A) (A) (A) (A) (A) (A) (A)
                 (A) (A) (A) (A) (A) (A) (A) (A) (A) (A) (A) (A)
                 (A) (A) (A) (A) (A) (A) (A) (A) (A) (A) (A) (A)
                 (A) (A) (A) (A) (A) (A) (A) (A) (A) (A) (A) (A)
                 (A) (A) (A) (A) (A) (A) (A) (A) (A) (A) (A) (A)
                 (A) (A) (A) (A) (A) (A) (A) (A) (A) (A) (A) (A)
                 (A) (A) (A) (A) (A) (A) (A) (A) (A) (A) (A) (A)
                 (A) (A) (A) (A) (A) (A) (A) (A) (A) (A) (A) (A)
                 (A) (A) (A) (A) (A) (A) (A) (A) (A) (A) (A) (A)
                 (A) (A) (A) (A) (A) (A) (A) (A) (A) (A) (A) (A)
                 (A) (A) (A) (A) (A) (A) (A) (A) (A) (A) (A) (A)
                 (A) (A) (A) (A) (A) (A) (A) (A) (A) (A) (A) (A)
                 (A) (A) (A) (A) (A) (A) (A) (A) (A) (A) (A) (A)
                 (A) (A) (A) (A) (A) (A) (A) (A) (A) (A) (A) (A)
                 (A) (A) (A) (A) (A) (A) (A) (A) (A) (A) (A) (A)
                 (A) (A) (A) (A) (A) (A) (A) (A) (A) (A) (A) (A)
                 (A) (A) (A) (A) (A) (A) (A) (A) (A) (A) (A) (A)
                 (A) (A) (A) (A) (A) (A) (A) (A) (A) (A) (A) (A)
                 (A) (A) (A) (A) (A) (A) (A) (A) (A) (A) (A) (A)
                 (A) (A) (A) (A) (A) (A) (A) (A) (A) (A) (A) (A)
                 (A) (A) (A) (A) (A) (A) (A) (A) (A) (A) (A) (A)
                 (A) (A) (A) (A) (A) (A) (A) (A) (A) (A) (A) (A)
                 (A) (A) (A) (A) (A) (A) (A) (A) (A) (A) (A) (A)
                 (A) (A) (A) (A) (A) (A) (A) (A) (A) (A) (A) (A)
                 (A) (A) (A) (A) (A) (A) (A) (A) (A) (A) (A) (A)
                 (A) (A) (A) (A) (A) (A) (A) (A) (A) (A) (A) (A)
                 (A) (A) (A) (A) (A) (A) (A) (A) (A) (A) (A) (A)
                 (A) (A) (A) (A) (A) (A) (A) (A) (A) (A) (A) (A)
                 (A) (A) (A)
 The electronic state is 1-A.
 Alpha  occ. eigenvalues -- -145.38905 -19.15732 -19.14707 -19.14151 -19.13991
 Alpha  occ. eigenvalues --  -19.12486 -19.11939 -19.11673 -19.11234 -19.10197
 Alpha  occ. eigenvalues --  -19.10111 -19.09963 -19.07591 -19.07431 -19.06785
 Alpha  occ. eigenvalues --  -19.06651 -19.06467 -19.05845 -19.05504 -19.05036
 Alpha  occ. eigenvalues --  -19.04767 -19.04295 -19.03223 -19.03024 -15.44641
 Alpha  occ. eigenvalues --  -14.58883 -14.40593 -14.38727 -14.37457 -14.37346
 Alpha  occ. eigenvalues --  -14.36742 -14.35602 -14.33849 -14.33223 -14.33052
 Alpha  occ. eigenvalues --  -14.31748 -14.31240 -14.30437 -14.29931 -14.29733
 Alpha  occ. eigenvalues --  -12.58258 -12.58225 -12.58196 -10.35179 -10.33050
 Alpha  occ. eigenvalues --  -10.30724 -10.30493 -10.30430 -10.29749 -10.29082
 Alpha  occ. eigenvalues --  -10.28687 -10.27167 -10.27001 -10.26499 -10.26152
 Alpha  occ. eigenvalues --  -10.26119 -10.25934 -10.25770 -10.25284 -10.25206
 Alpha  occ. eigenvalues --  -10.25031 -10.25018 -10.24278 -10.23515 -10.23492
 Alpha  occ. eigenvalues --  -10.23327 -10.23272 -10.23216 -10.22791 -10.22731
 Alpha  occ. eigenvalues --  -10.22727 -10.22676 -10.22227 -10.21113 -10.20567
 Alpha  occ. eigenvalues --  -10.20393 -10.20013 -10.19823 -10.19493 -10.19288
 Alpha  occ. eigenvalues --  -10.19137 -10.19077 -10.18950 -10.18904 -10.18714
 Alpha  occ. eigenvalues --  -10.17834 -10.17812 -10.17573 -10.17300 -10.17167
 Alpha  occ. eigenvalues --  -10.17081 -10.16841 -10.16755 -10.16583 -10.16358
 Alpha  occ. eigenvalues --  -10.16236 -10.15512  -1.81447  -1.14156  -1.09265
 Alpha  occ. eigenvalues --   -1.08833  -1.08802  -1.08126  -1.05577  -1.05346
 Alpha  occ. eigenvalues --   -1.04988  -1.04955  -1.04023  -1.02836  -1.02834
 Alpha  occ. eigenvalues --   -1.02607  -1.01839  -1.00951  -1.00599  -1.00246
 Alpha  occ. eigenvalues --   -0.99535  -0.99359  -0.99343  -0.98549  -0.98163
 Alpha  occ. eigenvalues --   -0.97568  -0.97543  -0.96386  -0.95474  -0.95151
 Alpha  occ. eigenvalues --   -0.94010  -0.93803  -0.92589  -0.91001  -0.90834
 Alpha  occ. eigenvalues --   -0.90719  -0.90189  -0.90037  -0.89191  -0.88810
 Alpha  occ. eigenvalues --   -0.88521  -0.88405  -0.87699  -0.86815  -0.85719
 Alpha  occ. eigenvalues --   -0.83007  -0.82857  -0.82020  -0.81083  -0.80499
 Alpha  occ. eigenvalues --   -0.79172  -0.78163  -0.77804  -0.76925  -0.76487
 Alpha  occ. eigenvalues --   -0.75318  -0.74514  -0.74448  -0.73349  -0.72710
 Alpha  occ. eigenvalues --   -0.72138  -0.72046  -0.71899  -0.70691  -0.70637
 Alpha  occ. eigenvalues --   -0.70014  -0.69201  -0.68588  -0.68360  -0.67511
 Alpha  occ. eigenvalues --   -0.67458  -0.66951  -0.65154  -0.65065  -0.64040
 Alpha  occ. eigenvalues --   -0.63720  -0.63497  -0.63156  -0.62950  -0.62613
 Alpha  occ. eigenvalues --   -0.61811  -0.60916  -0.60415  -0.60174  -0.59963
 Alpha  occ. eigenvalues --   -0.59587  -0.59236  -0.58334  -0.58016  -0.57565
 Alpha  occ. eigenvalues --   -0.57214  -0.56719  -0.56617  -0.56516  -0.56105
 Alpha  occ. eigenvalues --   -0.55982  -0.55934  -0.55517  -0.55177  -0.54997
 Alpha  occ. eigenvalues --   -0.54773  -0.54105  -0.54049  -0.53760  -0.53578
 Alpha  occ. eigenvalues --   -0.53196  -0.53001  -0.52631  -0.52478  -0.51505
 Alpha  occ. eigenvalues --   -0.51398  -0.51067  -0.50936  -0.50090  -0.49777
 Alpha  occ. eigenvalues --   -0.49668  -0.49546  -0.49494  -0.49124  -0.49034
 Alpha  occ. eigenvalues --   -0.48839  -0.48536  -0.48357  -0.47844  -0.47701
 Alpha  occ. eigenvalues --   -0.47247  -0.47090  -0.46904  -0.46500  -0.46434
 Alpha  occ. eigenvalues --   -0.46334  -0.46174  -0.46053  -0.45789  -0.45566
 Alpha  occ. eigenvalues --   -0.45358  -0.45051  -0.45016  -0.44906  -0.44770
 Alpha  occ. eigenvalues --   -0.44503  -0.44472  -0.44417  -0.44249  -0.44101
 Alpha  occ. eigenvalues --   -0.43716  -0.43602  -0.43527  -0.43372  -0.43142
 Alpha  occ. eigenvalues --   -0.43047  -0.42900  -0.42807  -0.42675  -0.42626
 Alpha  occ. eigenvalues --   -0.42460  -0.42343  -0.42181  -0.42125  -0.41895
 Alpha  occ. eigenvalues --   -0.41547  -0.41494  -0.41377  -0.41064  -0.41026
 Alpha  occ. eigenvalues --   -0.40828  -0.40766  -0.40690  -0.40311  -0.40283
 Alpha  occ. eigenvalues --   -0.40228  -0.40085  -0.39971  -0.39612  -0.39500
 Alpha  occ. eigenvalues --   -0.39304  -0.39100  -0.39050  -0.38963  -0.38804
 Alpha  occ. eigenvalues --   -0.38647  -0.38483  -0.38478  -0.38167  -0.38158
 Alpha  occ. eigenvalues --   -0.37976  -0.37883  -0.37736  -0.37620  -0.37452
 Alpha  occ. eigenvalues --   -0.37388  -0.37286  -0.37028  -0.36562  -0.36494
 Alpha  occ. eigenvalues --   -0.36413  -0.36065  -0.35687  -0.35630  -0.35624
 Alpha  occ. eigenvalues --   -0.35570  -0.35352  -0.35032  -0.34929  -0.34827
 Alpha  occ. eigenvalues --   -0.34677  -0.34390  -0.34142  -0.33766  -0.33656
 Alpha  occ. eigenvalues --   -0.33500  -0.33304  -0.33123  -0.32750  -0.32527
 Alpha  occ. eigenvalues --   -0.32443  -0.32181  -0.32114  -0.31880  -0.31833
 Alpha  occ. eigenvalues --   -0.31785  -0.31343  -0.30872  -0.30826  -0.30623
 Alpha  occ. eigenvalues --   -0.29668  -0.29412  -0.29279  -0.28924  -0.28568
 Alpha  occ. eigenvalues --   -0.28418  -0.27901  -0.27620  -0.27580  -0.27290
 Alpha  occ. eigenvalues --   -0.27051  -0.26365  -0.26028  -0.25967  -0.25529
 Alpha  occ. eigenvalues --   -0.25292  -0.24577  -0.24269  -0.24114  -0.23789
 Alpha  occ. eigenvalues --   -0.23436  -0.23385  -0.23326  -0.22986  -0.22759
 Alpha  occ. eigenvalues --   -0.22548  -0.22272  -0.22134  -0.21974  -0.21465
 Alpha  occ. eigenvalues --   -0.21054  -0.20931  -0.20510  -0.19884  -0.19749
 Alpha  occ. eigenvalues --   -0.19665  -0.18921  -0.18186
 Alpha virt. eigenvalues --   -0.10731  -0.04685  -0.04277  -0.02820  -0.02526
 Alpha virt. eigenvalues --   -0.01217  -0.01173  -0.00674  -0.00332   0.00333
 Alpha virt. eigenvalues --    0.00586   0.00696   0.00882   0.01196   0.02215
 Alpha virt. eigenvalues --    0.02544   0.02560   0.02648   0.02905   0.03353
 Alpha virt. eigenvalues --    0.03419   0.03818   0.04453   0.04689   0.04864
 Alpha virt. eigenvalues --    0.04971   0.05309   0.05419   0.05488   0.05695
 Alpha virt. eigenvalues --    0.05878   0.05961   0.06181   0.06326   0.06567
 Alpha virt. eigenvalues --    0.06805   0.07178   0.07348   0.07379   0.07636
 Alpha virt. eigenvalues --    0.07862   0.08034   0.08330   0.08424   0.08519
 Alpha virt. eigenvalues --    0.08687   0.09013   0.09181   0.09413   0.09605
 Alpha virt. eigenvalues --    0.09827   0.10225   0.10355   0.10443   0.10830
 Alpha virt. eigenvalues --    0.11040   0.11286   0.11366   0.11534   0.11730
 Alpha virt. eigenvalues --    0.11892   0.11933   0.12138   0.12327   0.12449
 Alpha virt. eigenvalues --    0.12506   0.12754   0.13085   0.13132   0.13200
 Alpha virt. eigenvalues --    0.13529   0.13794   0.13931   0.14198   0.14602
 Alpha virt. eigenvalues --    0.14635   0.14827   0.14964   0.15126   0.15463
 Alpha virt. eigenvalues --    0.15535   0.15620   0.15826   0.15975   0.16251
 Alpha virt. eigenvalues --    0.16351   0.16653   0.16831   0.16918   0.17085
 Alpha virt. eigenvalues --    0.17171   0.17359   0.17579   0.17712   0.17850
 Alpha virt. eigenvalues --    0.17902   0.18158   0.18465   0.18542   0.18675
 Alpha virt. eigenvalues --    0.18835   0.18975   0.19047   0.19271   0.19498
 Alpha virt. eigenvalues --    0.19720   0.19784   0.20049   0.20248   0.20475
 Alpha virt. eigenvalues --    0.20676   0.20749   0.21025   0.21103   0.21501
 Alpha virt. eigenvalues --    0.21733   0.22040   0.22102   0.22415   0.22544
 Alpha virt. eigenvalues --    0.22761   0.22813   0.23248   0.23319   0.23523
 Alpha virt. eigenvalues --    0.23678   0.23995   0.24068   0.24358   0.24587
 Alpha virt. eigenvalues --    0.24840   0.25075   0.25432   0.25551   0.25785
 Alpha virt. eigenvalues --    0.26009   0.26094   0.26244   0.26388   0.26594
 Alpha virt. eigenvalues --    0.26869   0.27062   0.27367   0.27471   0.27611
 Alpha virt. eigenvalues --    0.27859   0.28034   0.28265   0.28513   0.28752
 Alpha virt. eigenvalues --    0.28791   0.29048   0.29313   0.29649   0.29851
 Alpha virt. eigenvalues --    0.30353   0.30506   0.30755   0.30905   0.31157
 Alpha virt. eigenvalues --    0.31410   0.31717   0.32005   0.32184   0.32262
 Alpha virt. eigenvalues --    0.32406   0.32671   0.32918   0.33238   0.33572
 Alpha virt. eigenvalues --    0.33997   0.34292   0.34456   0.34630   0.34936
 Alpha virt. eigenvalues --    0.35094   0.35660   0.36199   0.36426   0.36960
 Alpha virt. eigenvalues --    0.37260   0.37401   0.37810   0.38074   0.38405
 Alpha virt. eigenvalues --    0.38474   0.38670   0.38853   0.39037   0.39244
 Alpha virt. eigenvalues --    0.39368   0.39492   0.39787   0.40543   0.40624
 Alpha virt. eigenvalues --    0.40800   0.40862   0.41001   0.41210   0.41608
 Alpha virt. eigenvalues --    0.41813   0.42143   0.42595   0.42950   0.43116
 Alpha virt. eigenvalues --    0.43248   0.43403   0.43817   0.44095   0.44139
 Alpha virt. eigenvalues --    0.44544   0.44649   0.44932   0.45099   0.45251
 Alpha virt. eigenvalues --    0.45515   0.45668   0.45944   0.46273   0.46442
 Alpha virt. eigenvalues --    0.46605   0.46734   0.46919   0.46988   0.47159
 Alpha virt. eigenvalues --    0.47233   0.47466   0.47679   0.47937   0.47970
 Alpha virt. eigenvalues --    0.48156   0.48394   0.48662   0.48714   0.48854
 Alpha virt. eigenvalues --    0.49130   0.49431   0.49653   0.50042   0.50128
 Alpha virt. eigenvalues --    0.50522   0.50736   0.50909   0.50945   0.51198
 Alpha virt. eigenvalues --    0.51356   0.51434   0.51837   0.52021   0.52124
 Alpha virt. eigenvalues --    0.52525   0.52589   0.52722   0.52799   0.53160
 Alpha virt. eigenvalues --    0.53300   0.53500   0.53619   0.53894   0.53944
 Alpha virt. eigenvalues --    0.54098   0.54329   0.54443   0.54608   0.54728
 Alpha virt. eigenvalues --    0.54907   0.55277   0.55329   0.55630   0.55748
 Alpha virt. eigenvalues --    0.55828   0.56048   0.56207   0.56257   0.56505
 Alpha virt. eigenvalues --    0.56744   0.56879   0.57076   0.57191   0.57295
 Alpha virt. eigenvalues --    0.57484   0.57742   0.57859   0.57973   0.58168
 Alpha virt. eigenvalues --    0.58403   0.58515   0.58679   0.59048   0.59101
 Alpha virt. eigenvalues --    0.59401   0.59494   0.59571   0.59886   0.60174
 Alpha virt. eigenvalues --    0.60333   0.60350   0.60459   0.60597   0.61000
 Alpha virt. eigenvalues --    0.61012   0.61234   0.61366   0.61466   0.61575
 Alpha virt. eigenvalues --    0.61763   0.61910   0.62026   0.62183   0.62247
 Alpha virt. eigenvalues --    0.62436   0.62600   0.62698   0.62757   0.62825
 Alpha virt. eigenvalues --    0.62947   0.63069   0.63102   0.63181   0.63426
 Alpha virt. eigenvalues --    0.63606   0.63748   0.63804   0.63861   0.63966
 Alpha virt. eigenvalues --    0.64092   0.64215   0.64458   0.64539   0.64580
 Alpha virt. eigenvalues --    0.64826   0.64915   0.64995   0.65131   0.65261
 Alpha virt. eigenvalues --    0.65322   0.65455   0.65524   0.65553   0.65757
 Alpha virt. eigenvalues --    0.65883   0.66034   0.66098   0.66265   0.66360
 Alpha virt. eigenvalues --    0.66422   0.66780   0.66866   0.66919   0.66952
 Alpha virt. eigenvalues --    0.67037   0.67342   0.67400   0.67557   0.67672
 Alpha virt. eigenvalues --    0.67837   0.68003   0.68108   0.68167   0.68331
 Alpha virt. eigenvalues --    0.68433   0.68600   0.68683   0.68808   0.68974
 Alpha virt. eigenvalues --    0.69052   0.69191   0.69344   0.69506   0.69623
 Alpha virt. eigenvalues --    0.69784   0.69819   0.69847   0.69953   0.70223
 Alpha virt. eigenvalues --    0.70267   0.70359   0.70518   0.70691   0.70755
 Alpha virt. eigenvalues --    0.70891   0.71020   0.71161   0.71320   0.71408
 Alpha virt. eigenvalues --    0.71546   0.71826   0.71954   0.72067   0.72168
 Alpha virt. eigenvalues --    0.72352   0.72506   0.72587   0.72828   0.73143
 Alpha virt. eigenvalues --    0.73319   0.73450   0.73683   0.73890   0.74003
 Alpha virt. eigenvalues --    0.74181   0.74349   0.74489   0.74835   0.75008
 Alpha virt. eigenvalues --    0.75050   0.75228   0.75277   0.75551   0.75626
 Alpha virt. eigenvalues --    0.75937   0.76142   0.76454   0.76762   0.76956
 Alpha virt. eigenvalues --    0.77029   0.77290   0.77547   0.77646   0.78161
 Alpha virt. eigenvalues --    0.78513   0.78538   0.78583   0.78842   0.79068
 Alpha virt. eigenvalues --    0.79093   0.79341   0.79506   0.79781   0.80081
 Alpha virt. eigenvalues --    0.80231   0.80660   0.80827   0.81269   0.81542
 Alpha virt. eigenvalues --    0.81965   0.81992   0.82578   0.82631   0.82848
 Alpha virt. eigenvalues --    0.83149   0.83412   0.83815   0.84027   0.84274
 Alpha virt. eigenvalues --    0.84668   0.84719   0.84847   0.85072   0.85320
 Alpha virt. eigenvalues --    0.85555   0.85978   0.86326   0.86524   0.86847
 Alpha virt. eigenvalues --    0.86984   0.87453   0.87786   0.87887   0.88195
 Alpha virt. eigenvalues --    0.88594   0.88860   0.89251   0.89448   0.89657
 Alpha virt. eigenvalues --    0.90226   0.90606   0.90831   0.91183   0.91605
 Alpha virt. eigenvalues --    0.92218   0.92535   0.92637   0.92934   0.93140
 Alpha virt. eigenvalues --    0.93409   0.93583   0.94090   0.94371   0.94624
 Alpha virt. eigenvalues --    0.94766   0.94857   0.95080   0.95470   0.95781
 Alpha virt. eigenvalues --    0.95887   0.96238   0.96559   0.96937   0.97335
 Alpha virt. eigenvalues --    0.97499   0.97789   0.97948   0.98140   0.98363
 Alpha virt. eigenvalues --    0.98785   0.99057   0.99459   0.99543   0.99798
 Alpha virt. eigenvalues --    1.00141   1.00455   1.00589   1.01244   1.01539
 Alpha virt. eigenvalues --    1.01648   1.01981   1.02208   1.02310   1.02728
 Alpha virt. eigenvalues --    1.03186   1.03455   1.03590   1.03762   1.04107
 Alpha virt. eigenvalues --    1.04276   1.04623   1.05067   1.05339   1.05725
 Alpha virt. eigenvalues --    1.05853   1.06272   1.06516   1.06837   1.07477
 Alpha virt. eigenvalues --    1.07757   1.08357   1.08486   1.08957   1.09038
 Alpha virt. eigenvalues --    1.09322   1.09469   1.09575   1.09838   1.10306
 Alpha virt. eigenvalues --    1.10481   1.10796   1.11114   1.11478   1.11601
 Alpha virt. eigenvalues --    1.11974   1.12485   1.12553   1.12844   1.13141
 Alpha virt. eigenvalues --    1.13421   1.13544   1.13923   1.14092   1.14460
 Alpha virt. eigenvalues --    1.14816   1.15158   1.15464   1.15813   1.15878
 Alpha virt. eigenvalues --    1.16076   1.16347   1.16765   1.17118   1.17410
 Alpha virt. eigenvalues --    1.17662   1.17940   1.18140   1.18301   1.18570
 Alpha virt. eigenvalues --    1.18935   1.19125   1.19175   1.19531   1.19822
 Alpha virt. eigenvalues --    1.19964   1.20147   1.20301   1.20718   1.20879
 Alpha virt. eigenvalues --    1.21025   1.21351   1.21626   1.21812   1.22146
 Alpha virt. eigenvalues --    1.22517   1.22798   1.22917   1.23390   1.23528
 Alpha virt. eigenvalues --    1.23753   1.23955   1.24234   1.24671   1.24894
 Alpha virt. eigenvalues --    1.25384   1.25542   1.25806   1.26076   1.26265
 Alpha virt. eigenvalues --    1.26610   1.26684   1.27093   1.27175   1.27676
 Alpha virt. eigenvalues --    1.27822   1.28052   1.28487   1.28592   1.28739
 Alpha virt. eigenvalues --    1.29026   1.29537   1.29705   1.29927   1.30034
 Alpha virt. eigenvalues --    1.30171   1.30618   1.30725   1.30785   1.31082
 Alpha virt. eigenvalues --    1.31733   1.32010   1.32262   1.32662   1.33086
 Alpha virt. eigenvalues --    1.33701   1.33851   1.33985   1.34256   1.34467
 Alpha virt. eigenvalues --    1.34675   1.35309   1.35363   1.35637   1.35866
 Alpha virt. eigenvalues --    1.35989   1.36079   1.36360   1.36580   1.36673
 Alpha virt. eigenvalues --    1.37164   1.37547   1.37633   1.37792   1.37990
 Alpha virt. eigenvalues --    1.38439   1.38605   1.39128   1.39297   1.39620
 Alpha virt. eigenvalues --    1.40028   1.40454   1.40618   1.41071   1.41089
 Alpha virt. eigenvalues --    1.41338   1.41352   1.41653   1.41914   1.42345
 Alpha virt. eigenvalues --    1.42515   1.42804   1.43120   1.43298   1.43657
 Alpha virt. eigenvalues --    1.44306   1.44518   1.44532   1.45035   1.45355
 Alpha virt. eigenvalues --    1.45609   1.45868   1.46069   1.46849   1.47056
 Alpha virt. eigenvalues --    1.47322   1.47420   1.47606   1.47981   1.48187
 Alpha virt. eigenvalues --    1.48295   1.48505   1.48658   1.48873   1.49560
 Alpha virt. eigenvalues --    1.49956   1.50097   1.50241   1.50665   1.50845
 Alpha virt. eigenvalues --    1.51052   1.51293   1.51579   1.51947   1.52184
 Alpha virt. eigenvalues --    1.52607   1.53087   1.53206   1.53476   1.53561
 Alpha virt. eigenvalues --    1.53808   1.54142   1.54439   1.54446   1.54677
 Alpha virt. eigenvalues --    1.54828   1.55521   1.55982   1.56316   1.56529
 Alpha virt. eigenvalues --    1.57165   1.57339   1.57931   1.58208   1.58399
 Alpha virt. eigenvalues --    1.59292   1.59752   1.59843   1.60593   1.60698
 Alpha virt. eigenvalues --    1.61244   1.61464   1.61768   1.61813   1.62131
 Alpha virt. eigenvalues --    1.62318   1.62636   1.62944   1.63195   1.63624
 Alpha virt. eigenvalues --    1.63762   1.64194   1.64564   1.64870   1.65206
 Alpha virt. eigenvalues --    1.65465   1.65857   1.66286   1.66516   1.66712
 Alpha virt. eigenvalues --    1.67133   1.67367   1.67627   1.67756   1.68380
 Alpha virt. eigenvalues --    1.68425   1.68619   1.68866   1.68949   1.69277
 Alpha virt. eigenvalues --    1.69949   1.70125   1.70260   1.70532   1.70856
 Alpha virt. eigenvalues --    1.71028   1.71215   1.71341   1.71493   1.71656
 Alpha virt. eigenvalues --    1.71789   1.72290   1.72767   1.73048   1.73151
 Alpha virt. eigenvalues --    1.73194   1.73233   1.73643   1.73691   1.73982
 Alpha virt. eigenvalues --    1.74509   1.74691   1.74801   1.75245   1.75386
 Alpha virt. eigenvalues --    1.75506   1.75582   1.75781   1.76013   1.76056
 Alpha virt. eigenvalues --    1.76363   1.76462   1.76773   1.76905   1.77356
 Alpha virt. eigenvalues --    1.77363   1.77563   1.77687   1.77742   1.78048
 Alpha virt. eigenvalues --    1.78215   1.78486   1.78779   1.78815   1.78963
 Alpha virt. eigenvalues --    1.79014   1.79225   1.79304   1.79356   1.79588
 Alpha virt. eigenvalues --    1.79775   1.80052   1.80296   1.80473   1.80513
 Alpha virt. eigenvalues --    1.80645   1.80799   1.80857   1.81198   1.81470
 Alpha virt. eigenvalues --    1.81533   1.81789   1.81947   1.82070   1.82131
 Alpha virt. eigenvalues --    1.82355   1.82649   1.82742   1.82811   1.83068
 Alpha virt. eigenvalues --    1.83167   1.83320   1.83571   1.83747   1.83814
 Alpha virt. eigenvalues --    1.84085   1.84087   1.84239   1.84566   1.84754
 Alpha virt. eigenvalues --    1.84953   1.85298   1.85343   1.85590   1.85688
 Alpha virt. eigenvalues --    1.86016   1.86177   1.86353   1.86658   1.86810
 Alpha virt. eigenvalues --    1.87076   1.87473   1.87502   1.87704   1.87828
 Alpha virt. eigenvalues --    1.87990   1.88199   1.88448   1.88624   1.88735
 Alpha virt. eigenvalues --    1.88952   1.89090   1.89210   1.89299   1.89571
 Alpha virt. eigenvalues --    1.89718   1.89881   1.90279   1.90324   1.90567
 Alpha virt. eigenvalues --    1.90752   1.90967   1.91343   1.91469   1.91743
 Alpha virt. eigenvalues --    1.91813   1.91976   1.92112   1.92266   1.92377
 Alpha virt. eigenvalues --    1.92660   1.92995   1.93072   1.93292   1.93595
 Alpha virt. eigenvalues --    1.93830   1.94004   1.94085   1.94262   1.94677
 Alpha virt. eigenvalues --    1.94843   1.95086   1.95363   1.95575   1.95750
 Alpha virt. eigenvalues --    1.96094   1.96222   1.96552   1.96805   1.97163
 Alpha virt. eigenvalues --    1.97356   1.97449   1.97865   1.97935   1.98252
 Alpha virt. eigenvalues --    1.98548   1.98738   1.98867   1.99491   1.99629
 Alpha virt. eigenvalues --    1.99925   2.00241   2.00344   2.00525   2.00634
 Alpha virt. eigenvalues --    2.00918   2.01108   2.01287   2.01333   2.01537
 Alpha virt. eigenvalues --    2.01688   2.01992   2.02260   2.02517   2.02776
 Alpha virt. eigenvalues --    2.03132   2.03213   2.03419   2.03852   2.04017
 Alpha virt. eigenvalues --    2.04437   2.04686   2.04907   2.05038   2.05484
 Alpha virt. eigenvalues --    2.05659   2.05881   2.06143   2.06406   2.06684
 Alpha virt. eigenvalues --    2.06904   2.07085   2.07216   2.07441   2.07605
 Alpha virt. eigenvalues --    2.08112   2.08309   2.08440   2.08696   2.09126
 Alpha virt. eigenvalues --    2.09429   2.09557   2.09698   2.10038   2.10433
 Alpha virt. eigenvalues --    2.11319   2.11532   2.11903   2.12199   2.12452
 Alpha virt. eigenvalues --    2.12868   2.13094   2.13373   2.13489   2.13719
 Alpha virt. eigenvalues --    2.14246   2.14592   2.14934   2.15055   2.15335
 Alpha virt. eigenvalues --    2.15399   2.16125   2.16259   2.16488   2.16979
 Alpha virt. eigenvalues --    2.17011   2.17636   2.17855   2.18132   2.18210
 Alpha virt. eigenvalues --    2.18497   2.18586   2.18934   2.19043   2.19362
 Alpha virt. eigenvalues --    2.19432   2.19644   2.20276   2.20340   2.20567
 Alpha virt. eigenvalues --    2.20880   2.21220   2.21635   2.22052   2.22360
 Alpha virt. eigenvalues --    2.23239   2.23361   2.23532   2.23893   2.24351
 Alpha virt. eigenvalues --    2.24592   2.24947   2.26017   2.26179   2.26415
 Alpha virt. eigenvalues --    2.26649   2.26882   2.26998   2.27391   2.28201
 Alpha virt. eigenvalues --    2.28359   2.28844   2.29433   2.29598   2.29860
 Alpha virt. eigenvalues --    2.30168   2.30807   2.31076   2.31261   2.31425
 Alpha virt. eigenvalues --    2.31807   2.32224   2.32544   2.32628   2.32848
 Alpha virt. eigenvalues --    2.33466   2.33548   2.33937   2.34006   2.34296
 Alpha virt. eigenvalues --    2.34657   2.35008   2.35304   2.35408   2.35827
 Alpha virt. eigenvalues --    2.36099   2.36429   2.36870   2.37327   2.37414
 Alpha virt. eigenvalues --    2.37638   2.37649   2.37986   2.38133   2.38584
 Alpha virt. eigenvalues --    2.38725   2.38796   2.39295   2.39449   2.39869
 Alpha virt. eigenvalues --    2.40257   2.40662   2.40983   2.41292   2.41464
 Alpha virt. eigenvalues --    2.41544   2.42881   2.43277   2.43851   2.44049
 Alpha virt. eigenvalues --    2.44190   2.44354   2.44601   2.44964   2.45138
 Alpha virt. eigenvalues --    2.45324   2.45842   2.46226   2.46326   2.46608
 Alpha virt. eigenvalues --    2.46738   2.47103   2.47479   2.47707   2.48099
 Alpha virt. eigenvalues --    2.48309   2.48693   2.48864   2.49278   2.49605
 Alpha virt. eigenvalues --    2.50090   2.50546   2.50742   2.51029   2.51300
 Alpha virt. eigenvalues --    2.51648   2.52024   2.52253   2.52709   2.52989
 Alpha virt. eigenvalues --    2.53886   2.53911   2.54025   2.54307   2.55237
 Alpha virt. eigenvalues --    2.55448   2.55532   2.55977   2.56313   2.57143
 Alpha virt. eigenvalues --    2.57375   2.57706   2.57917   2.58754   2.59056
 Alpha virt. eigenvalues --    2.59378   2.59447   2.59695   2.59748   2.60105
 Alpha virt. eigenvalues --    2.60242   2.60590   2.60937   2.61211   2.61422
 Alpha virt. eigenvalues --    2.61935   2.62079   2.62277   2.62540   2.62704
 Alpha virt. eigenvalues --    2.63299   2.63444   2.63559   2.63724   2.64036
 Alpha virt. eigenvalues --    2.64267   2.64464   2.64894   2.65732   2.65780
 Alpha virt. eigenvalues --    2.66246   2.66684   2.67027   2.67115   2.67826
 Alpha virt. eigenvalues --    2.67909   2.68234   2.68407   2.68692   2.68784
 Alpha virt. eigenvalues --    2.69353   2.69541   2.70638   2.70755   2.71163
 Alpha virt. eigenvalues --    2.71318   2.71415   2.71726   2.72039   2.72325
 Alpha virt. eigenvalues --    2.72418   2.72563   2.72864   2.73229   2.73534
 Alpha virt. eigenvalues --    2.73748   2.73961   2.74072   2.74300   2.74355
 Alpha virt. eigenvalues --    2.74742   2.74824   2.74873   2.75204   2.75344
 Alpha virt. eigenvalues --    2.75810   2.76029   2.76266   2.76510   2.76964
 Alpha virt. eigenvalues --    2.77547   2.77636   2.77694   2.78111   2.78304
 Alpha virt. eigenvalues --    2.78550   2.78989   2.79289   2.79692   2.79829
 Alpha virt. eigenvalues --    2.80220   2.80267   2.80485   2.80897   2.81260
 Alpha virt. eigenvalues --    2.81508   2.81541   2.81684   2.82015   2.82552
 Alpha virt. eigenvalues --    2.82719   2.82995   2.83396   2.83774   2.83878
 Alpha virt. eigenvalues --    2.84423   2.84556   2.85127   2.85337   2.85721
 Alpha virt. eigenvalues --    2.85857   2.86182   2.86411   2.87141   2.88021
 Alpha virt. eigenvalues --    2.88101   2.88353   2.88496   2.88617   2.89103
 Alpha virt. eigenvalues --    2.89269   2.89708   2.90112   2.90560   2.90677
 Alpha virt. eigenvalues --    2.90911   2.91143   2.91363   2.91656   2.91910
 Alpha virt. eigenvalues --    2.91994   2.92225   2.92652   2.92744   2.93053
 Alpha virt. eigenvalues --    2.93481   2.93701   2.94312   2.94879   2.95008
 Alpha virt. eigenvalues --    2.95139   2.95324   2.95383   2.96406   2.96679
 Alpha virt. eigenvalues --    2.97125   2.97288   2.97528   2.97707   2.97841
 Alpha virt. eigenvalues --    2.98067   2.98166   2.98601   2.98771   2.99277
 Alpha virt. eigenvalues --    2.99652   3.00345   3.00611   3.00789   3.01133
 Alpha virt. eigenvalues --    3.01411   3.01591   3.02006   3.02209   3.02625
 Alpha virt. eigenvalues --    3.02890   3.03665   3.03855   3.03929   3.04239
 Alpha virt. eigenvalues --    3.04367   3.04644   3.05090   3.05478   3.05542
 Alpha virt. eigenvalues --    3.06285   3.07296   3.07466   3.07702   3.08881
 Alpha virt. eigenvalues --    3.09534   3.09682   3.10742   3.11156   3.11304
 Alpha virt. eigenvalues --    3.11801   3.12084   3.12933   3.14027   3.14764
 Alpha virt. eigenvalues --    3.15948   3.16829   3.17127   3.17243   3.17385
 Alpha virt. eigenvalues --    3.17724   3.17878   3.18149   3.18189   3.18343
 Alpha virt. eigenvalues --    3.18472   3.18637   3.19518   3.19759   3.19860
 Alpha virt. eigenvalues --    3.20175   3.20423   3.20881   3.21273   3.21705
 Alpha virt. eigenvalues --    3.21919   3.22080   3.22862   3.23377   3.23568
 Alpha virt. eigenvalues --    3.24085   3.24259   3.24394   3.24735   3.25100
 Alpha virt. eigenvalues --    3.25954   3.26211   3.26927   3.27035   3.27467
 Alpha virt. eigenvalues --    3.28191   3.28775   3.29810   3.30181   3.30756
 Alpha virt. eigenvalues --    3.31288   3.31487   3.31832   3.33070   3.33827
 Alpha virt. eigenvalues --    3.34652   3.36236   3.36836   3.38415   3.39136
 Alpha virt. eigenvalues --    3.39611   3.39951   3.47147   3.48859   3.51075
 Alpha virt. eigenvalues --    3.51238   3.51716   3.53404   3.54140   3.55293
 Alpha virt. eigenvalues --    3.55527   3.56829   3.58208   3.58742   3.59591
 Alpha virt. eigenvalues --    3.60301   3.61720   3.62290   3.63258   3.63727
 Alpha virt. eigenvalues --    3.64851   3.66235   3.66766   3.67138   3.67805
 Alpha virt. eigenvalues --    3.68254   3.69528   3.69705   3.69922   3.70216
 Alpha virt. eigenvalues --    3.70671   3.71066   3.71425   3.71821   3.71918
 Alpha virt. eigenvalues --    3.72518   3.72878   3.73568   3.74914   3.75232
 Alpha virt. eigenvalues --    3.79604   3.82474   3.83222   3.85313
          Condensed to atoms (all electrons):
 Mulliken charges:
               1
     1  C    0.071546
     2  C    0.014442
     3  O   -0.288202
     4  H    0.051507
     5  H   -0.015803
     6  H    0.030852
     7  N   -0.123620
     8  C    0.139171
     9  C    0.069239
    10  O   -0.272901
    11  C    0.036841
    12  C    0.156603
    13  O   -0.379045
    14  O   -0.459676
    15  H    0.115124
    16  H    0.003138
    17  H    0.012814
    18  H    0.006365
    19  N   -0.147886
    20  C    0.171464
    21  C    0.061832
    22  O   -0.267762
    23  C    0.019351
    24  C   -0.032576
    25  C   -0.027219
    26  C    0.021609
    27  N    0.095935
    28  H    0.166965
    29  H    0.002332
    30  H    0.005762
    31  H    0.014459
    32  H    0.010464
    33  H    0.022283
    34  H    0.032410
    35  H    0.050846
    36  H    0.077046
    37  H    0.067715
    38  H    0.181181
    39  H    0.187717
    40  H    0.193361
    41  N   -0.161930
    42  C    0.158176
    43  C    0.039010
    44  O   -0.282766
    45  C    0.054097
    46  C    0.111358
    47  O   -0.437370
    48  O   -0.399825
    49  H    0.122865
    50  H    0.012083
    51  H   -0.020210
    52  H    0.029413
    53  N   -0.165547
    54  C    0.246088
    55  C    0.016867
    56  O   -0.297200
    57  H    0.133302
    58  H    0.019308
    59  H    0.038680
    60  N   -0.159741
    61  C    0.137070
    62  C    0.035860
    63  O   -0.310584
    64  C    0.117070
    65  C    0.054256
    66  N   -0.021885
    67  O   -0.383297
    68  H    0.149535
    69  H    0.032693
    70  H    0.081958
    71  H    0.006467
    72  H    0.129874
    73  H    0.124678
    74  N   -0.170590
    75  C    0.224830
    76  C    0.038094
    77  O   -0.301122
    78  H    0.145593
    79  H    0.036763
    80  H    0.030038
    81  N   -0.141614
    82  C    0.143649
    83  C    0.147914
    84  O   -0.362646
    85  C    0.160402
    86  C   -0.009454
    87  C    0.026978
    88  C   -0.003282
    89  C   -0.003853
    90  C   -0.052776
    91  C    0.165900
    92  O   -0.201111
    93  H    0.145970
    94  H   -0.015515
    95  H   -0.012888
    96  H   -0.028519
    97  H   -0.043967
    98  H   -0.038094
    99  H   -0.031034
   100  H   -0.040344
   101  H    0.172738
   102  N   -0.112429
   103  C    0.139035
   104  C    0.097479
   105  O   -0.276106
   106  C   -0.115516
   107  C    0.023256
   108  C    0.022807
   109  C    0.039471
   110  H    0.141478
   111  H    0.018834
   112  H   -0.018943
   113  H   -0.021770
   114  H    0.001248
   115  H    0.032268
   116  H    0.002252
   117  H    0.004310
   118  H    0.012701
   119  H    0.005264
   120  H   -0.002613
   121  N   -0.143058
   122  C    0.041550
   123  C    0.090623
   124  O   -0.283095
   125  C    0.281110
   126  O   -0.333165
   127  H    0.170085
   128  H    0.015544
   129  H    0.009904
   130  H   -0.037226
   131  H    0.172807
   132  N   -0.126422
   133  C    0.107234
   134  C    0.040170
   135  O   -0.246818
   136  C    0.050853
   137  H    0.121973
   138  H    0.022824
   139  H    0.007534
   140  H    0.046768
   141  H    0.035564
   142  N   -0.138951
   143  C    0.108045
   144  C    0.044109
   145  O   -0.285404
   146  C    0.021053
   147  H    0.112778
   148  H    0.019276
   149  H    0.025699
   150  H    0.031150
   151  H    0.006426
   152  N   -0.117055
   153  C    0.138234
   154  C    0.091710
   155  O   -0.267434
   156  C   -0.083624
   157  C    0.125713
   158  C    0.152958
   159  O   -0.414231
   160  O   -0.445280
   161  H    0.127932
   162  H   -0.045595
   163  H    0.043967
   164  H    0.009869
   165  H   -0.015933
   166  H   -0.046861
   167  N   -0.178463
   168  C    0.154157
   169  H    0.024285
   170  H    0.015914
   171  H    0.007075
   172  H    0.140340
   173  Ca   1.311249
   174  O   -0.322893
   175  H    0.177383
   176  H    0.166523
 Sum of Mulliken charges =   0.00000
 Mulliken charges with hydrogens summed into heavy atoms:
               1
     1  C    0.138102
     2  C    0.014442
     3  O   -0.288202
     7  N   -0.008495
     8  C    0.142309
     9  C    0.069239
    10  O   -0.272901
    11  C    0.056019
    12  C    0.156603
    13  O   -0.379045
    14  O   -0.459676
    19  N    0.019079
    20  C    0.173795
    21  C    0.061832
    22  O   -0.267762
    23  C    0.039572
    24  C    0.000171
    25  C    0.056036
    26  C    0.166370
    27  N    0.658194
    41  N   -0.039065
    42  C    0.170259
    43  C    0.039010
    44  O   -0.282766
    45  C    0.063300
    46  C    0.111358
    47  O   -0.437370
    48  O   -0.399825
    53  N   -0.032246
    54  C    0.304076
    55  C    0.016867
    56  O   -0.297200
    60  N   -0.010207
    61  C    0.169763
    62  C    0.035860
    63  O   -0.310584
    64  C    0.205495
    65  C    0.054256
    66  N    0.232667
    67  O   -0.383297
    74  N   -0.024997
    75  C    0.291631
    76  C    0.038094
    77  O   -0.301122
    81  N    0.004356
    82  C    0.128135
    83  C    0.147914
    84  O   -0.362646
    85  C    0.118995
    86  C   -0.009454
    87  C   -0.016989
    88  C   -0.041376
    89  C   -0.034886
    90  C   -0.093120
    91  C    0.165900
    92  O   -0.028373
   102  N    0.029049
   103  C    0.157870
   104  C    0.097479
   105  O   -0.276106
   106  C   -0.134459
   107  C    0.002733
   108  C    0.061638
   109  C    0.054823
   121  N    0.027027
   122  C    0.057094
   123  C    0.090623
   124  O   -0.283095
   125  C    0.253788
   126  O   -0.160358
   132  N   -0.004449
   133  C    0.130058
   134  C    0.040170
   135  O   -0.246818
   136  C    0.140718
   142  N   -0.026172
   143  C    0.127320
   144  C    0.044109
   145  O   -0.285404
   146  C    0.084328
   152  N    0.010877
   153  C    0.092639
   154  C    0.091710
   155  O   -0.267434
   156  C   -0.029788
   157  C    0.062919
   158  C    0.152958
   159  O   -0.414231
   160  O   -0.445280
   167  N   -0.038123
   168  C    0.201431
   173  Ca   1.311249
   174  O    0.021013
 DipInt: DoE/N= T F RetVal/Mat= T F Init=T NMatP=  1 IDeriv=0 Min/MaxMlt=  0  4
 Entering OneElI...
 OneElI was handed  4286741430 working-precision words.
 Multipole integrals L=0 to 4 MinM= 0 MaxM= 0.
 Requested accuracy = 0.1000D-12
 ShPair: Thresh= 1.00D-13 NBox=     0 BxSize= 0.00D+00 RnKept= 2.55D+01
         NSMCal=               327645 NSMKep=              162273
 PrsmSu:  NPrtUS=   1 ThrOK=F IAlg=1 NPAlg=1 LenDen=           0.
 Prism:   IPart=     0 DynPar=F LinDyn=F Incr=         512.
 PRISM was handed  4276607902 working-precision words and162273 shell-pairs
 IPart=  0 NShTot=      162273 NBatch=         454 AvBLen=       357.4
 PrSmSu:  NxtVal=            513.
 Electronic moments (au):
       -716.00000000         13.86531453          0.83726496         -7.26686294
     -51876.28389854     -29876.06653649     -12392.35630344        102.43973219
        -46.19493925        -28.65017252     -40979.21756041     -21405.47164919
     -24165.07836752      36365.68676157      93012.80315723      57573.86336366
     -16843.75736222        874.94366914      15704.32341247      -5465.58615190
   -7513354.41760473   -2752090.47700844    -646782.19481817    -302568.84546305
     279420.38579415    -546533.43022935       6053.63612636     -95736.45196663
      52062.26063274   -2313570.86521211    -633498.44537289    -317196.87861095
    -208488.21145881      44128.97520244      78184.93397071
 Electronic spatial extent (au):  <R**2>=          94144.7067
 DipInt: DoE/N= F T RetVal/Mat= T F Init=T NMatP=  1 IDeriv=0 Min/MaxMlt=  0  4
 Nuclear    moments (au):
        716.00000000          0.00000000          0.00000000          0.00000000
      51449.32878158      29510.36874003      12009.28993862          0.00000000
          0.00000000          0.00000000      42483.11949889      22229.62076872
      24022.11184215     -33880.93268635     -92350.56604631     -58651.08677615
      17029.94407347       -977.51823370     -16252.12811476       5172.83422693
    7325593.35240076    2654546.29261417     606485.38212032     314841.50909680
    -285390.77599665     562980.72543527     -11253.54236152      95289.21663661
     -52132.07698195    2279297.23821141     600494.56178398     293327.71021278
     206741.09387691     -50250.84926345     -77544.95087601
 Total      moments (au):
          0.00000000         13.86531453          0.83726496         -7.26686294
       -426.95511696       -365.69779646       -383.06636483        102.43973219
        -46.19493925        -28.65017252       1503.90193848        824.14911953
       -142.96652537       2484.75407522        662.23711092      -1077.22341249
        186.18671124       -102.57456456       -547.80470229       -292.75192497
    -187761.06520397     -97544.18439427     -40296.81269785      12272.66363376
      -5970.39020249      16447.29520592      -5199.90623516       -447.23533002
        -69.81634921     -34273.62700070     -33003.88358891     -23869.16839818
      -1747.11758189      -6121.87406101        639.98309470
 Traceless Quadrup. (au):
        -35.04869088         26.20862962          8.84006125        102.43973219
        -46.19493925        -28.65017252
 Charge=              0.0000 electrons
 Dipole moment (field-independent basis, Debye):
    X=             35.2421    Y=              2.1281    Z=            -18.4705  Tot=             39.8459
 Quadrupole moment (field-independent basis, Debye-Ang):
   XX=           -574.2692   YY=           -491.8760   ZZ=           -515.2374
   XY=            137.7849   XZ=            -62.1338   YZ=            -38.5355
 Traceless Quadrupole moment (field-independent basis, Debye-Ang):
   XX=            -47.1417   YY=             35.2515   ZZ=             11.8902
   XY=            137.7849   XZ=            -62.1338   YZ=            -38.5355
 Octapole moment (field-independent basis, Debye-Ang**2):
  XXX=           1070.4194  YYY=            586.5976  ZZZ=           -101.7581  XYY=           1768.5521
  XXY=            471.3548  XXZ=           -766.7261  XZZ=            132.5205  YZZ=            -73.0086
  YYZ=           -389.9063  XYZ=           -208.3695
 Hexadecapole moment (field-independent basis, Debye-Ang**3):
 XXXX=         -70719.8159 YYYY=         -36739.8148 ZZZZ=         -15177.7110 XXXY=           4622.4733
 XXXZ=          -2248.7351 YYYX=           6194.8396 YYYZ=          -1958.5339 ZZZX=           -168.4503
 ZZZY=            -26.2962 XXYY=         -12909.0905 XXZZ=         -12430.8443 YYZZ=          -8990.2728
 XXYZ=           -658.0482 YYXZ=          -2305.7912 ZZXY=            241.0483
 N-N= 2.175067780413D+04 E-N=-5.598214502050D+04  KE= 5.290456589289D+03
 Leave Link  601 at Mon Sep 16 14:49:39 2019, MaxMem=  4294967296 cpu:        21.9
 FitSet:  NAtFit=   176 NAtPot=   176 NAtFrz=     0 MDM=   180 TotChg=   0.00000
 Merz-Kollman atomic radii used.
 Read replacement radii for each type of atom:
 Rad(20) =   1.700000000000D+00
 Atom Element Radius
    1     6    1.50
    2     6    1.50
    3     8    1.40
    4     1    1.20
    5     1    1.20
    6     1    1.20
    7     7    1.50
    8     6    1.50
    9     6    1.50
   10     8    1.40
   11     6    1.50
   12     6    1.50
   13     8    1.40
   14     8    1.40
   15     1    1.20
   16     1    1.20
   17     1    1.20
   18     1    1.20
   19     7    1.50
   20     6    1.50
   21     6    1.50
   22     8    1.40
   23     6    1.50
   24     6    1.50
   25     6    1.50
   26     6    1.50
   27     7    1.50
   28     1    1.20
   29     1    1.20
   30     1    1.20
   31     1    1.20
   32     1    1.20
   33     1    1.20
   34     1    1.20
   35     1    1.20
   36     1    1.20
   37     1    1.20
   38     1    1.20
   39     1    1.20
   40     1    1.20
   41     7    1.50
   42     6    1.50
   43     6    1.50
   44     8    1.40
   45     6    1.50
   46     6    1.50
   47     8    1.40
   48     8    1.40
   49     1    1.20
   50     1    1.20
   51     1    1.20
   52     1    1.20
   53     7    1.50
   54     6    1.50
   55     6    1.50
   56     8    1.40
   57     1    1.20
   58     1    1.20
   59     1    1.20
   60     7    1.50
   61     6    1.50
   62     6    1.50
   63     8    1.40
   64     6    1.50
   65     6    1.50
   66     7    1.50
   67     8    1.40
   68     1    1.20
   69     1    1.20
   70     1    1.20
   71     1    1.20
   72     1    1.20
   73     1    1.20
   74     7    1.50
   75     6    1.50
   76     6    1.50
   77     8    1.40
   78     1    1.20
   79     1    1.20
   80     1    1.20
   81     7    1.50
   82     6    1.50
   83     6    1.50
   84     8    1.40
   85     6    1.50
   86     6    1.50
   87     6    1.50
   88     6    1.50
   89     6    1.50
   90     6    1.50
   91     6    1.50
   92     8    1.40
   93     1    1.20
   94     1    1.20
   95     1    1.20
   96     1    1.20
   97     1    1.20
   98     1    1.20
   99     1    1.20
  100     1    1.20
  101     1    1.20
  102     7    1.50
  103     6    1.50
  104     6    1.50
  105     8    1.40
  106     6    1.50
  107     6    1.50
  108     6    1.50
  109     6    1.50
  110     1    1.20
  111     1    1.20
  112     1    1.20
  113     1    1.20
  114     1    1.20
  115     1    1.20
  116     1    1.20
  117     1    1.20
  118     1    1.20
  119     1    1.20
  120     1    1.20
  121     7    1.50
  122     6    1.50
  123     6    1.50
  124     8    1.40
  125     6    1.50
  126     8    1.40
  127     1    1.20
  128     1    1.20
  129     1    1.20
  130     1    1.20
  131     1    1.20
  132     7    1.50
  133     6    1.50
  134     6    1.50
  135     8    1.40
  136     6    1.50
  137     1    1.20
  138     1    1.20
  139     1    1.20
  140     1    1.20
  141     1    1.20
  142     7    1.50
  143     6    1.50
  144     6    1.50
  145     8    1.40
  146     6    1.50
  147     1    1.20
  148     1    1.20
  149     1    1.20
  150     1    1.20
  151     1    1.20
  152     7    1.50
  153     6    1.50
  154     6    1.50
  155     8    1.40
  156     6    1.50
  157     6    1.50
  158     6    1.50
  159     8    1.40
  160     8    1.40
  161     1    1.20
  162     1    1.20
  163     1    1.20
  164     1    1.20
  165     1    1.20
  166     1    1.20
  167     7    1.50
  168     6    1.50
  169     1    1.20
  170     1    1.20
  171     1    1.20
  172     1    1.20
  173    20    1.70
  174     8    1.40
  175     1    1.20
  176     1    1.20
 Generate VDW surfaces: Layer= 4 Dens= 6 Start= 1.400 Inc= 0.200

 **********************************************************************

            Electrostatic Properties Using The SCF Density

 **********************************************************************

       Atomic Center    1 is at   2.247836  0.686126  5.884577
       Atomic Center    2 is at   1.650141  0.699119  4.482759
       Atomic Center    3 is at   2.438012  0.592789  3.554830
[...]
 **** Fit      -0.031577
 **** Fit      -0.031379
 **** Fit      -0.030264
 **** Fit      -0.028422
 **** Fit      -0.026024
 **** Fit      -0.023251
 **** Fit      -0.020314
 **** Fit      -0.017461
 **** Fit      -0.014960
 **** Fit      -0.013078
 **** Fit      -0.012046
 **** Fit      -0.012036
 **** Fit      -0.013154
 **** Fit      -0.015447
 **** Fit      -0.018970
 **** Fit      -0.032726
 **** Fit      -0.032130
 **** Fit      -0.030565
 **** Fit      -0.028176
 **** Fit      -0.025109
 **** Fit      -0.021543
 **** Fit      -0.017700
 **** Fit      -0.013854
 **** Fit      -0.010322
 **** Fit      -0.007424
 **** Fit      -0.005446
 **** Fit      -0.004610
 **** Fit      -0.005077
 **** Fit      -0.006912
 **** Fit      -0.034799
 **** Fit      -0.033728
 **** Fit      -0.031581
 **** Fit      -0.028453
 **** Fit      -0.024483
 **** Fit      -0.019866
 **** Fit      -0.014859
 **** Fit      -0.009793
 **** Fit      -0.005055
 **** Fit      -0.001042
 **** Fit       0.001908
 **** Fit      -0.034723
 **** Fit      -0.038177
 **** Fit      -0.036596
 **** Fit      -0.033692
 **** Fit      -0.029535
 **** Fit      -0.024300
 **** Fit      -0.018248
 **** Fit      -0.011720
 **** Fit      -0.005151
 **** Fit       0.000954
 **** Fit       0.006108
 **** Fit      -0.038491
 **** Fit      -0.025470
 **** Fit      -0.017686
 **** Fit      -0.009415
 **** Fit      -0.001220
 **** Fit       0.006272
 **** Fit      -0.005484
 **** Fit       0.004559
 **** Fit       0.045083
 **** Fit       0.046840
 **** Fit       0.043645
 **** Fit       0.044333
 **** Fit       0.044038
 **** Fit       0.043265
 **** Fit       0.041838
 **** Fit       0.042558
 **** Fit       0.014425
 **** Fit       0.002540
 **** Fit       0.027397
 **** Fit       0.035209
 **** Fit       0.041395
 **** Fit       0.039487
 **** Fit       0.040211
 **** Fit       0.037016
 **** Fit       0.031392
 **** Fit       0.025805
 **** Fit       0.028958
 **** Fit       0.048631
 **** Fit       0.055841
 **** Fit       0.037809
 **** Fit       0.048747
 **** Fit       0.054241
 **** Fit       0.044615
 **** Fit       0.037493
 **** Fit       0.047562
 **** Fit       0.051310
 **** Fit       0.052805
 **** Fit       0.051042
 **** Fit       0.046710
 **** Fit       0.041710
 **** Fit       0.047329
 **** Fit       0.045817
 **** Fit       0.042829
 **** Fit      -0.008153
 **** Fit      -0.010281
 **** Fit      -0.006427
 **** Fit      -0.008076
 **** Fit      -0.010130
 **** Fit      -0.012537
 **** Fit      -0.014960
 **** Fit      -0.004252
 **** Fit      -0.005165
 **** Fit      -0.006433
 **** Fit      -0.007907
 **** Fit      -0.009891
 **** Fit      -0.012384
 **** Fit      -0.015344
 **** Fit      -0.018432
 **** Fit      -0.020997
 **** Fit      -0.002757
 **** Fit      -0.003245
 **** Fit      -0.004009
 **** Fit      -0.005039
 **** Fit      -0.006325
 **** Fit      -0.007715
 **** Fit      -0.021955
 **** Fit      -0.025552
 **** Fit      -0.028179
 **** Fit      -0.001689
 **** Fit      -0.001934
 **** Fit      -0.002413
 **** Fit      -0.003123
 **** Fit      -0.004029
 **** Fit      -0.005092
 **** Fit      -0.006302
 **** Fit      -0.000972
 **** Fit      -0.000781
 **** Fit      -0.000743
 **** Fit      -0.000936
 **** Fit      -0.001395
 **** Fit      -0.002104
 **** Fit      -0.003006
 **** Fit      -0.004031
 **** Fit      -0.005127
 **** Fit      -0.006288
 **** Fit      -0.000579
 **** Fit      -0.000144
 **** Fit       0.000183
 **** Fit       0.000305
 **** Fit       0.000143
 **** Fit      -0.000334
 **** Fit      -0.001098
 **** Fit      -0.002073
 **** Fit      -0.003165
 **** Fit      -0.004290
 **** Fit      -0.005391
 **** Fit      -0.000781
 **** Fit      -0.000030
 **** Fit       0.000667
 **** Fit      -0.002240
 **** Fit      -0.003542
 **** Fit      -0.004783
 **** Fit      -0.005907
 **** Fit       0.000553
 **** Fit      -0.002827
 **** Fit      -0.004341
 **** Fit      -0.005694
 **** Fit       0.000732
 **** Fit      -0.005547
 **** Fit      -0.007061
 **** Fit      -0.007140
 **** Fit      -0.008956
 **** Fit      -0.011828
 **** Fit      -0.013420
 **** Fit      -0.016144
 **** Fit      -0.017880
 **** Fit      -0.010136
 **** Fit      -0.012572
 **** Fit      -0.015608
 **** Fit      -0.009556
 **** Fit      -0.011607
 **** Fit      -0.014343
 **** Fit      -0.017735
 **** Fit      -0.021370
 **** Fit      -0.008048
 **** Fit      -0.009194
 **** Fit      -0.011013
 **** Fit      -0.013464
 **** Fit      -0.016705
 **** Fit      -0.020785
 **** Fit      -0.025472
 **** Fit      -0.030005
 **** Fit      -0.006727
 **** Fit      -0.007822
 **** Fit      -0.009114
 **** Fit      -0.010773
 **** Fit      -0.013020
 **** Fit      -0.016068
 **** Fit      -0.020133
 **** Fit      -0.025366
 **** Fit      -0.031667
 **** Fit      -0.006814
 **** Fit      -0.007850
 **** Fit      -0.009385
 **** Fit      -0.010873
 **** Fit      -0.012881
 **** Fit      -0.015623
 **** Fit      -0.019360
 **** Fit      -0.024406
 **** Fit      -0.031082
 **** Fit      -0.006394
 **** Fit      -0.007290
 **** Fit      -0.008242
 **** Fit      -0.010092
 **** Fit      -0.011504
 **** Fit      -0.013435
 **** Fit      -0.016117
 **** Fit      -0.019855
 **** Fit      -0.025075
 **** Fit      -0.007245
 **** Fit      -0.008116
 **** Fit      -0.009016
 **** Fit      -0.011340
 **** Fit      -0.012650
 **** Fit      -0.014466
 **** Fit      -0.017012
 **** Fit      -0.020599
 **** Fit      -0.025688
 **** Fit      -0.008724
 **** Fit      -0.009535
 **** Fit      -0.010355
 **** Fit      -0.013267
 **** Fit      -0.014488
 **** Fit      -0.016230
 **** Fit      -0.018717
 **** Fit      -0.022260
 **** Fit      -0.027342
 **** Fit      -0.010944
 **** Fit      -0.011666
 **** Fit      -0.012383
 **** Fit      -0.016056
 **** Fit      -0.017214
 **** Fit      -0.018986
 **** Fit      -0.021620
 **** Fit      -0.025464
 **** Fit      -0.031079
 **** Fit      -0.014158
 **** Fit      -0.014743
 **** Fit      -0.015301
 **** Fit      -0.019941
 **** Fit      -0.020977
 **** Fit      -0.022799
 **** Fit      -0.025680
 **** Fit      -0.029988
 **** Fit      -0.019221
 **** Fit      -0.019445
 **** Fit      -0.025213
 **** Fit      -0.025935
 **** Fit      -0.027682
 **** Fit      -0.030698
 **** Fit      -0.035258
 **** Fit      -0.025249
 **** Fit      -0.032276
 **** Fit      -0.033940
 **** Fit      -0.037276
 **** Fit      -0.040754
 **** Fit      -0.007089
 **** Fit      -0.007533
 **** Fit      -0.009133
 **** Fit      -0.008668
 **** Fit      -0.006582
 **** Fit      -0.005424
 **** Fit      -0.005873
 **** Fit      -0.007922
 **** Fit      -0.009952
 **** Fit      -0.011622
 **** Fit      -0.012067
 **** Fit      -0.010799
 **** Fit      -0.008315
 **** Fit      -0.005994
 **** Fit      -0.004618
 **** Fit      -0.004085
 **** Fit      -0.004206
 **** Fit      -0.004898
 **** Fit      -0.006154
 **** Fit      -0.008247
 **** Fit      -0.010386
 **** Fit      -0.012671
 **** Fit      -0.014662
 **** Fit      -0.015768
 **** Fit      -0.015524
 **** Fit      -0.013794
 **** Fit      -0.004016
 **** Fit      -0.003289
 **** Fit      -0.003015
 **** Fit      -0.003078
 **** Fit      -0.003426
 **** Fit      -0.004078
 **** Fit      -0.005076
 **** Fit      -0.006461
 **** Fit      -0.016271
 **** Fit      -0.018806
 **** Fit      -0.020457
 **** Fit      -0.020788
 **** Fit      -0.019670
 **** Fit      -0.003052
 **** Fit      -0.002414
 **** Fit      -0.002178
 **** Fit      -0.002182
 **** Fit      -0.002345
 **** Fit      -0.002677
 **** Fit      -0.003223
 **** Fit      -0.026972
 **** Fit      -0.027579
 **** Fit      -0.026642
 **** Fit      -0.001491
 **** Fit      -0.001491
 **** Fit      -0.001555
 **** Fit      -0.001677
 **** Fit      -0.001912
 **** Fit      -0.035901
 **** Fit      -0.001066
 **** Fit      -0.001067
 **** Fit      -0.001071
 **** Fit      -0.000780
 **** Fit       0.000848
 **** Fit       0.000720
 **** Fit       0.000177
 **** Fit       0.001146
 **** Fit       0.001804
 **** Fit       0.002073
 **** Fit       0.001916
 **** Fit       0.001339
 **** Fit       0.000387
 **** Fit      -0.000851
 **** Fit       0.001462
 **** Fit       0.002479
 **** Fit       0.003122
 **** Fit       0.003356
 **** Fit       0.003159
 **** Fit       0.002534
 **** Fit       0.001518
 **** Fit       0.000182
 **** Fit      -0.001373
 **** Fit       0.001939
 **** Fit       0.003293
 **** Fit       0.004209
 **** Fit       0.004669
 **** Fit       0.004644
 **** Fit       0.004120
 **** Fit       0.003116
 **** Fit       0.001691
 **** Fit      -0.000060
 **** Fit      -0.002017
 **** Fit      -0.004039
 **** Fit       0.002375
 **** Fit       0.004067
 **** Fit       0.005280
 **** Fit       0.006002
 **** Fit       0.006193
 **** Fit       0.005817
 **** Fit       0.004870
 **** Fit       0.003392
 **** Fit       0.001468
 **** Fit      -0.000783
 **** Fit      -0.003216
 **** Fit      -0.005669
 **** Fit       0.004146
 **** Fit       0.005879
 **** Fit       0.007106
 **** Fit       0.007758
 **** Fit       0.007760
 **** Fit       0.007063
 **** Fit       0.005664
 **** Fit       0.003622
 **** Fit       0.001058
 **** Fit      -0.001866
 **** Fit      -0.004963
 **** Fit      -0.008035
 **** Fit       0.006632
 **** Fit       0.008398
 **** Fit       0.009459
 **** Fit       0.009679
 **** Fit       0.008939
 **** Fit       0.007189
 **** Fit       0.004494
 **** Fit       0.001034
 **** Fit      -0.002941
 **** Fit      -0.007146
 **** Fit      -0.011282
 **** Fit      -0.015065
 **** Fit       0.008557
 **** Fit       0.010727
 **** Fit       0.001531
 **** Fit      -0.004103
 **** Fit      -0.010126
 **** Fit       0.027998
 **** Fit       0.027038
 **** Fit       0.026411
 **** Fit       0.034520
 **** Fit       0.032549
 **** Fit       0.030807
 **** Fit       0.039210
 **** Fit       0.036188
 **** Fit       0.033300
 **** Fit       0.029826
 **** Fit       0.042453
 **** Fit       0.038391
 **** Fit       0.034475
 **** Fit       0.029834
 **** Fit       0.043882
 **** Fit       0.039095
 **** Fit       0.034504
 **** Fit       0.029359
 **** Fit       0.023543
 **** Fit       0.039322
 **** Fit       0.034344
 **** Fit       0.029088
 **** Fit       0.037717
 **** Fit       0.032703
 **** Fit       0.034841
 **** Fit       0.024680
 **** Fit       0.021538
 **** Fit       0.017602
 **** Fit       0.033787
 **** Fit       0.031314
 **** Fit       0.027576
 **** Fit       0.022827
 **** Fit       0.036249
 **** Fit       0.032154
 **** Fit       0.026992
 **** Fit       0.021038
 **** Fit       0.034782
 **** Fit       0.029156
 **** Fit       0.022628
 **** Fit       0.035546
 **** Fit       0.029323
 **** Fit       0.022044
 **** Fit       0.022156
 **** Fit       0.028727
 **** Fit       0.029791
 **** Fit       0.025779
 **** Fit       0.021633
 **** Fit       0.017614
 **** Fit       0.023489
 **** Fit       0.025755
 **** Fit       0.025576
 **** Fit       0.024095
 **** Fit       0.022134
 **** Fit       0.020217
 **** Fit       0.018784
 **** Fit       0.007419
 **** Fit       0.014558
 **** Fit       0.018664
 **** Fit       0.020426
 **** Fit       0.020787
 **** Fit       0.020608
 **** Fit       0.020548
 **** Fit       0.000036
 **** Fit       0.007902
 **** Fit       0.013258
 **** Fit       0.016528
 **** Fit       0.018426
 **** Fit       0.019757
 **** Fit       0.021234
 **** Fit       0.007287
 **** Fit       0.012339
 **** Fit       0.015896
 **** Fit       0.018619
 **** Fit       0.021279
 **** Fit       0.006167
 **** Fit       0.011525
 **** Fit       0.015898
 **** Fit       0.019734
 **** Fit       0.012017
 **** Fit       0.016938
 **** Fit       0.014386
 **** Fit       0.018707
 **** Fit       0.039528
 **** Fit       0.044054
 **** Fit       0.044912
 **** Fit       0.044079
 **** Fit       0.041362
 **** Fit       0.041602
 **** Fit       0.044456
 **** Fit       0.046320
 **** Fit       0.047017
 **** Fit       0.046260
 **** Fit       0.043872
 **** Fit       0.039904
 **** Fit       0.043097
 **** Fit       0.045642
 **** Fit       0.047143
 **** Fit       0.047470
 **** Fit       0.046405
 **** Fit       0.043819
 **** Fit       0.039768
 **** Fit       0.034466
 **** Fit       0.027194
 **** Fit       0.034149
 **** Fit       0.039384
 **** Fit       0.043456
 **** Fit       0.045629
 **** Fit       0.046710
 **** Fit       0.046579
 **** Fit       0.045070
 **** Fit       0.042112
 **** Fit       0.037784
 **** Fit       0.032261
 **** Fit       0.017402
 **** Fit       0.023777
 **** Fit       0.029916
 **** Fit       0.035612
 **** Fit       0.040159
 **** Fit       0.042919
 **** Fit       0.044649
 **** Fit       0.045295
 **** Fit       0.044741
 **** Fit       0.042874
 **** Fit       0.039673
 **** Fit       0.035226
 **** Fit       0.029674
 **** Fit       0.021090
 **** Fit       0.021010
 **** Fit       0.021675
 **** Fit       0.023803
 **** Fit       0.027462
 **** Fit       0.031972
 **** Fit       0.036419
 **** Fit       0.040156
 **** Fit       0.041694
 **** Fit       0.043013
 **** Fit       0.043134
 **** Fit       0.041933
 **** Fit       0.039344
 **** Fit       0.035420
 **** Fit       0.030310
 **** Fit       0.023347
 **** Fit       0.024487
 **** Fit       0.026218
 **** Fit       0.028910
 **** Fit       0.032397
 **** Fit       0.036079
 **** Fit       0.039314
 **** Fit       0.039925
 **** Fit       0.040793
 **** Fit       0.040354
 **** Fit       0.038497
 **** Fit       0.035236
 **** Fit       0.030741
 **** Fit       0.025314
 **** Fit       0.023192
 **** Fit       0.025100
 **** Fit       0.027013
 **** Fit       0.029322
 **** Fit       0.032149
 **** Fit       0.035203
 **** Fit       0.037956
 **** Fit       0.037703
 **** Fit       0.038084
 **** Fit       0.036899
 **** Fit       0.034110
 **** Fit       0.029962
 **** Fit       0.025002
 **** Fit       0.023273
 **** Fit       0.025765
 **** Fit       0.028188
 **** Fit       0.030783
 **** Fit       0.033532
 **** Fit       0.036029
 **** Fit       0.035074
 **** Fit       0.034787
 **** Fit       0.032307
 **** Fit       0.028151
 **** Fit       0.023710
 **** Fit       0.020804
 **** Fit       0.020492
 **** Fit       0.022283
 **** Fit       0.025001
 **** Fit       0.027909
 **** Fit       0.030831
 **** Fit       0.033478
 **** Fit       0.032057
 **** Fit       0.030482
 **** Fit       0.026530
 **** Fit       0.024809
 **** Fit       0.026810
 **** Fit       0.030087
 **** Fit       0.028645
 **** Fit       0.022897
 **** Fit       0.014202
 **** Fit       0.019657
 **** Fit       0.009468
 **** Fit       0.024755
 **** Fit       0.015300
 **** Fit       0.017528
 **** Fit       0.006568
 **** Fit       0.019461
 **** Fit       0.009232
 **** Fit       0.019587
 **** Fit       0.009917
 **** Fit      -0.002310
 **** Fit       0.018171
 **** Fit       0.008870
 **** Fit      -0.002921
 **** Fit       0.005863
 **** Fit       0.015448
 **** Fit       0.007917
 **** Fit      -0.001473
 **** Fit      -0.001755
 **** Fit       0.006351
 **** Fit       0.014155
 **** Fit       0.007064
 -----------------------------------------------------------------
 Leave Link  602 at Mon Sep 16 14:49:52 2019, MaxMem=  4294967296 cpu:       154.2

 Test job not archived.
 1\1\GINC-N001\SP\RB3LYP\SVP\C54H83Ca1N15O23\PCIEPLAK\16-Sep-2019\0\\#m
 axdisk=50GB #B3LYP/SVP Density=Current scf=(tight) #IOP(5/87=12)Pop=(M
 K,readradii) iop(6/33=2) iop(6/42=6)\\SOL molecule\\0,1\C,0,77.14,61.4
 8,20.51\C,0,77.1,60.01,20.11\O,0,78.17,59.42,20.1\H,0,77.699,62.044,19
 .763\H,0,76.123,61.868,20.572\H,0,77.627,61.58,21.48\N,0,75.93,59.48,1
 9.73\C,0,75.79,58.24,18.99\C,0,76.03,58.46,17.51\O,0,75.53,59.36,16.84
 \C,0,74.37,57.72,19.19\C,0,74.1,56.4,18.48\O,0,72.89,56.14,18.3\O,0,75
 .04,55.62,18.2\H,0,75.2,60.16,19.8\H,0,76.47,57.53,19.46\H,0,73.66,58.
 45,18.8\H,0,74.2,57.61,20.26\N,0,76.87,57.6,16.94\C,0,77.53,57.79,15.6
 6\C,0,76.96,57.01,14.48\O,0,76.68,57.58,13.43\C,0,79.04,57.74,15.87\C,
 0,79.98,57.59,14.68\C,0,81.47,57.56,15.\C,0,82.2,57.53,13.66\N,0,83.66
 ,57.58,13.83\H,0,77.1,56.71,17.37\H,0,77.4,58.85,15.42\H,0,79.24,56.89
 ,16.53\H,0,79.39,58.65,16.35\H,0,79.87,58.52,14.11\H,0,79.69,56.72,14.
 1\H,0,81.67,56.66,15.58\H,0,81.73,58.47,15.55\H,0,81.87,58.35,13.01\H,
 0,81.95,56.62,13.11\H,0,84.01,56.84,14.41\H,0,84.17,57.44,12.96\H,0,84
 .02,58.41,14.27\N,0,76.64,55.72,14.69\C,0,75.96,54.9,13.72\C,0,74.45,5
 4.92,13.81\O,0,73.74,54.52,12.89\C,0,76.48,53.47,13.89\C,0,76.3,52.75,
 15.22\O,0,75.69,53.31,16.16\O,0,76.8,51.61,15.31\H,0,76.8,55.27,15.58\
 H,0,76.1,55.31,12.72\H,0,77.53,53.46,13.64\H,0,76.02,52.78,13.18\N,0,7
 3.88,55.42,14.91\C,0,72.48,55.71,15.16\C,0,71.76,54.51,15.76\O,0,70.57
 ,54.31,15.52\H,0,74.49,55.61,15.69\H,0,71.96,55.99,14.24\H,0,72.36,56.
 53,15.86\N,0,72.48,53.61,16.42\C,0,71.97,52.38,17.\C,0,71.4,52.53,18.4
 \O,0,70.84,51.56,18.91\C,0,73.03,51.29,16.83\C,0,73.87,51.22,18.1\N,0,
 74.36,50.06,18.55\O,0,74.31,52.21,18.68\H,0,73.48,53.78,16.5\H,0,71.08
 ,52.02,16.48\H,0,73.64,51.5,15.96\H,0,72.47,50.35,16.75\H,0,74.2,49.21
 ,18.04\H,0,75.02,50.19,19.31\N,0,71.34,53.73,18.99\C,0,70.67,53.98,20.
 25\C,0,71.6,53.96,21.46\O,0,71.03,53.93,22.55\H,0,71.82,54.51,18.58\H,
 0,69.85,53.26,20.31\H,0,70.15,54.94,20.22\N,0,72.92,53.82,21.3\C,0,73.
 86,53.81,22.4\C,0,75.19,54.5,22.15\O,0,75.8,54.33,21.1\C,0,74.11,52.37
 ,22.85\C,0,72.93,51.6,23.39\C,0,72.45,51.82,24.69\C,0,72.35,50.6,22.6\
 C,0,71.25,51.21,25.06\C,0,71.18,49.94,22.99\C,0,70.57,50.32,24.2\O,0,6
 9.35,49.8,24.55\H,0,73.2,53.86,20.33\H,0,73.41,54.36,23.22\H,0,74.73,5
 2.48,23.74\H,0,74.54,51.77,22.04\H,0,72.94,52.53,25.34\H,0,72.73,50.42
 ,21.6\H,0,70.72,51.44,25.97\H,0,70.73,49.22,22.32\H,0,68.98,49.45,23.7
 4\N,0,75.72,55.25,23.12\C,0,77.05,55.79,22.96\C,0,78.13,54.89,23.56\O,
 0,77.89,54.34,24.63\C,0,77.11,57.15,23.65\C,0,75.94,58.08,23.38\C,0,78
 .36,57.86,23.13\C,0,75.87,59.24,24.37\H,0,75.26,55.34,24.02\H,0,77.24,
 56.05,21.92\H,0,77.21,57.05,24.73\H,0,74.98,57.56,23.44\H,0,75.93,58.4
 2,22.34\H,0,78.29,57.91,22.05\H,0,78.41,58.91,23.42\H,0,79.26,57.34,23
 .45\H,0,75.2,59.99,23.95\H,0,75.57,58.92,25.37\H,0,76.84,59.71,24.55\N
 ,0,79.28,54.83,22.88\C,0,80.46,54.16,23.38\C,0,81.71,55.02,23.38\O,0,8
 1.64,56.1,22.8\C,0,80.72,52.78,22.77\O,0,80.6,52.91,21.37\H,0,79.37,55
 .29,21.98\H,0,80.34,53.97,24.45\H,0,79.98,52.05,23.1\H,0,81.71,52.48,2
 3.1\H,0,79.73,53.3,21.25\N,0,82.78,54.61,24.07\C,0,84.02,55.34,24.22\C
 ,0,84.46,55.84,22.86\O,0,84.77,57.03,22.8\C,0,85.03,54.6,25.1\H,0,82.6
 4,53.78,24.63\H,0,83.75,56.26,24.75\H,0,85.19,53.58,24.73\H,0,85.98,55
 .12,25.13\H,0,84.67,54.52,26.13\N,0,84.6,54.99,21.84\C,0,85.12,55.36,2
 0.54\C,0,84.32,56.5,19.94\O,0,84.9,57.34,19.25\C,0,85.01,54.11,19.68\H
 ,0,84.43,54.,21.97\H,0,86.14,55.73,20.64\H,0,85.8,53.41,19.94\H,0,84.0
 3,53.63,19.64\H,0,85.22,54.39,18.64\N,0,83.02,56.57,20.25\C,0,82.07,57
 .48,19.64\C,0,81.97,58.81,20.36\O,0,82.07,59.88,19.77\C,0,80.69,56.83,
 19.78\C,0,80.47,55.52,19.03\C,0,79.01,55.08,19.04\O,0,78.15,55.44,18.2
 1\O,0,78.71,54.36,20.01\H,0,82.65,55.77,20.75\H,0,82.32,57.65,18.59\H,
 0,79.99,57.54,19.35\H,0,80.44,56.73,20.83\H,0,81.06,54.7,19.42\H,0,80.
 77,55.71,18.\N,0,81.92,58.7,21.69\C,0,82.17,59.78,22.62\H,0,82.994,60.
 392,22.253\H,0,81.275,60.395,22.713\H,0,82.431,59.368,23.595\H,0,81.76
 ,57.77,22.06\Ca,0,76.57,53.52,18.7\O,0,78.56,52.32,17.37\H,0,79.49,52.
 08,17.41\H,0,78.24,51.92,16.56\\Version=ES64L-G09RevD.01\State=1-A\HF=
 -5333.6193851\RMSD=5.285e-09\Dipole=15.5845264,-1.5172122,-0.7588547\Q
 uadrupole=9.1198249,-19.4306726,10.3108477,-19.8055245,-115.1157478,-2
 2.7599705\PG=C01 [X(C54H83Ca1N15O23)]\\@


 SCIENCE AT ITS BEST PROVIDES US WITH BETTER QUESTIONS, 
 NOT ABSOLUTE ANSWERS

                                    -- NORMAN COUSINS, 1976
 Job cpu time:       0 days 14 hours 51 minutes 20.8 seconds.
 File lengths (MBytes):  RWF=   1513 Int=      0 D2E=      0 Chk=    103 Scr=      1
 Normal termination of Gaussian 09 at Mon Sep 16 14:49:52 2019.
