 Entering Gaussian System, Link 0=g16
 Initial command:
 /home1/apps/gaussian/16rA.03/g16/l1.exe "/scratch/04905/jaebeomh/4357406/Gau-163047.inp" -scrdir="/scratch/04905/jaebeomh/4357406/"
 Entering Link 1 = /home1/apps/gaussian/16rA.03/g16/l1.exe PID=    163048.
  
 Copyright (c) 1988,1990,1992,1993,1995,1998,2003,2009,2016,
            Gaussian, Inc.  All Rights Reserved.
  
 This is part of the Gaussian(R) 16 program.  It is based on
 the Gaussian(R) 09 system (copyright 2009, Gaussian, Inc.),
 the Gaussian(R) 03 system (copyright 2003, Gaussian, Inc.),
 the Gaussian(R) 98 system (copyright 1998, Gaussian, Inc.),
 the Gaussian(R) 94 system (copyright 1995, Gaussian, Inc.),
 the Gaussian 92(TM) system (copyright 1992, Gaussian, Inc.),
 the Gaussian 90(TM) system (copyright 1990, Gaussian, Inc.),
 the Gaussian 88(TM) system (copyright 1988, Gaussian, Inc.),
 the Gaussian 86(TM) system (copyright 1986, Carnegie Mellon
 University), and the Gaussian 82(TM) system (copyright 1983,
 Carnegie Mellon University). Gaussian is a federally registered
 trademark of Gaussian, Inc.
  
 This software contains proprietary and confidential information,
 including trade secrets, belonging to Gaussian, Inc.
  
 This software is provided under written license and may be
 used, copied, transmitted, or stored only in accord with that
 written license.
  
 The following legend is applicable only to US Government
 contracts under FAR:
  
                    RESTRICTED RIGHTS LEGEND
  
 Use, reproduction and disclosure by the US Government is
 subject to restrictions as set forth in subparagraphs (a)
 and (c) of the Commercial Computer Software - Restricted
 Rights clause in FAR 52.227-19.
  
 Gaussian, Inc.
 340 Quinnipiac St., Bldg. 40, Wallingford CT 06492
  
  
 ---------------------------------------------------------------
 Warning -- This program may not be used in any manner that
 competes with the business of Gaussian, Inc. or will provide
 assistance to any competitor of Gaussian, Inc.  The licensee
 of this program is prohibited from giving any competitor of
 Gaussian, Inc. access to this program.  By using this program,
 the user acknowledges that Gaussian, Inc. is engaged in the
 business of creating and licensing software in the field of
 computational chemistry and represents and warrants to the
 licensee that it is not a competitor of Gaussian, Inc. and that
 it will not use this program in any manner prohibited above.
 ---------------------------------------------------------------
  

 Cite this work as:
 Gaussian 16, Revision A.03,
 M. J. Frisch, G. W. Trucks, H. B. Schlegel, G. E. Scuseria, 
 M. A. Robb, J. R. Cheeseman, G. Scalmani, V. Barone, 
 G. A. Petersson, H. Nakatsuji, X. Li, M. Caricato, A. V. Marenich, 
 J. Bloino, B. G. Janesko, R. Gomperts, B. Mennucci, H. P. Hratchian, 
 J. V. Ortiz, A. F. Izmaylov, J. L. Sonnenberg, D. Williams-Young, 
 F. Ding, F. Lipparini, F. Egidi, J. Goings, B. Peng, A. Petrone, 
 T. Henderson, D. Ranasinghe, V. G. Zakrzewski, J. Gao, N. Rega, 
 G. Zheng, W. Liang, M. Hada, M. Ehara, K. Toyota, R. Fukuda, 
 J. Hasegawa, M. Ishida, T. Nakajima, Y. Honda, O. Kitao, H. Nakai, 
 T. Vreven, K. Throssell, J. A. Montgomery, Jr., J. E. Peralta, 
 F. Ogliaro, M. J. Bearpark, J. J. Heyd, E. N. Brothers, K. N. Kudin, 
 V. N. Staroverov, T. A. Keith, R. Kobayashi, J. Normand, 
 K. Raghavachari, A. P. Rendell, J. C. Burant, S. S. Iyengar, 
 J. Tomasi, M. Cossi, J. M. Millam, M. Klene, C. Adamo, R. Cammi, 
 J. W. Ochterski, R. L. Martin, K. Morokuma, O. Farkas, 
 J. B. Foresman, and D. J. Fox, Gaussian, Inc., Wallingford CT, 2016.
 
 ******************************************
 Gaussian 16:  ES64L-G16RevA.03 25-Dec-2016
                18-Sep-2019 
 ******************************************
 %chk=CaMKII_loop3_59.0.chk
 %nprocshared=48
 Will use up to   48 processors via shared memory.
 %mem=10GB
 %nosave
 ----------------------------------------------------------------------
 #b3lyp/svp scf=(tight,noincore) Test #IOP(5/87=12) Density=Current Pop
 =(MK,readradii) iop(6/33=2) iop(6/42=6)
 ----------------------------------------------------------------------
 1/30=1,38=1,172=1/1;
 2/12=2,17=6,18=5,40=1/2;
 3/5=18,7=101,11=2,25=1,30=1,74=-5/1,2,3;
 4//1;
 5/5=4,32=2,38=5,87=12/2;
 6/7=2,8=2,9=2,10=2,15=8,20=101,22=-1,28=1,33=2,42=6/1,2;
 99/5=1,9=1/99;
 -----------------
 CaMKII_loop3_59.0
 -----------------
 Symbolic Z-matrix:
 Charge =  0 Multiplicity = 1
 C                     77.68     57.78     21.2 
 C                     77.59     56.4      20.56 
 O                     78.6      55.84     20.13 
 H                     78.355    58.407    20.617 
 H                     76.69     58.236    21.223 
 H                     78.061    57.685    22.217 
 N                     76.41     55.77     20.52 
 C                     76.22     54.45     19.97 
 C                     76.15     54.6      18.45 
 O                     75.22     55.15     17.87 
 C                     74.91     53.87     20.48 
 C                     74.42     52.6      19.78 
 O                     73.21     52.32     19.94 
 O                     75.17     51.88     19.09 
 H                     75.64     56.19     21.01 
 H                     76.96     53.7      20.27 
 H                     74.1      54.59     20.38 
 H                     75.09     53.67     21.53 
 N                     77.22     54.11     17.83 
 C                     77.52     54.28     16.42 
 C                     76.67     53.47     15.46 
 O                     76.62     53.81     14.28 
 C                     79.02     54.09     16.21 
 C                     79.7      54.59     14.94 
 C                     81.21     54.33     15.05 
 C                     82.03     54.97     13.93 
 N                     81.65     54.6      12.56 
 H                     77.96     53.78     18.45 
 H                     77.32     55.31     16.14 
 H                     79.2      53.02     16.32 
 H                     79.47     54.58     17.08 
 H                     79.58     55.66     14.78 
 H                     79.29     54.03     14.1 
 H                     81.37     53.26     15. 
 H                     81.6      54.67     16.01 
 H                     83.06     54.67     14.13 
 H                     82.02     56.05     14.11 
 H                     81.88     53.67     12.24 
 H                     80.66     54.75     12.44 
 H                     81.94     55.2      11.81 
 N                     76.05     52.37     15.92 
 C                     75.3      51.47     15.08 
 C                     73.87     51.17     15.51 
 O                     73.19     50.53     14.72 
 C                     76.16     50.23     14.84 
 C                     76.77     49.46     16.01 
 O                     76.41     49.72     17.18 
 O                     77.52     48.48     15.83 
 H                     76.27     52.14     16.88 
 H                     75.19     51.92     14.09 
 H                     77.       50.35     14.15 
 H                     75.45     49.54     14.39 
 N                     73.42     51.75     16.62 
 C                     72.02     51.69     17. 
 C                     71.67     50.3      17.51 
 O                     70.66     49.72     17.12 
 H                     74.12     52.16     17.23 
 H                     71.4      52.05     16.19 
 H                     71.89     52.46     17.76 
 N                     72.48     49.79     18.44 
 C                     72.14     48.62     19.23 
 C                     72.11     48.9      20.72 
 O                     71.99     47.95     21.49 
 C                     73.16     47.54     18.89 
 C                     74.46     47.56     19.69 
 N                     74.75     46.47     20.39 
 O                     75.16     48.53     19.96 
 H                     73.27     50.27     18.85 
 H                     71.11     48.35     19.01 
 H                     73.41     47.63     17.83 
 H                     72.73     46.55     18.99 
 H                     74.42     45.57     20.07 
 H                     75.5      46.51     21.06 
 N                     71.92     50.16     21.14 
 C                     71.57     50.66     22.46 
 C                     72.7      50.5      23.46 
 O                     72.49     50.6      24.67 
 H                     72.06     50.88     20.45 
 H                     70.7      50.15     22.87 
 H                     71.26     51.7      22.35 
 N                     73.92     50.31     22.95 
 C                     75.11     49.91     23.68 
 C                     76.37     50.56     23.13 
 O                     76.4      50.86     21.94 
 C                     75.3      48.4      23.51 
 C                     74.82     47.69     24.75 
 C                     75.6      47.57     25.91 
 C                     73.52     47.16     24.71 
 C                     75.09     46.92     27.04 
 C                     73.06     46.43     25.81 
 C                     73.81     46.32     27. 
 O                     73.38     45.66     28.11 
 H                     74.04     50.35     21.95 
 H                     74.98     50.16     24.73 
 H                     76.34     48.11     23.4 
 H                     74.7      48.09     22.65 
 H                     76.55     48.08     25.92 
 H                     72.9      47.42     23.87 
 H                     75.75     46.85     27.88 
 H                     72.04     46.08     25.79 
 H                     72.47     45.34     28.07 
 N                     77.32     51.01     23.96 
 C                     78.47     51.85     23.71 
 C                     79.67     50.99     24.12 
 O                     79.62     50.39     25.19 
 C                     78.43     53.18     24.46 
 C                     77.35     54.14     23.97 
 C                     79.75     53.92     24.28 
 C                     77.01     55.3      24.89 
 H                     77.23     50.68     24.91 
 H                     78.52     52.01     22.63 
 H                     78.19     52.93     25.49 
 H                     76.39     53.64     23.83 
 H                     77.52     54.48     22.95 
 H                     79.72     54.77     24.96 
 H                     80.57     53.3      24.64 
 H                     79.9      54.14     23.22 
 H                     77.81     56.02     25.07 
 H                     76.24     56.       24.56 
 H                     76.67     54.89     25.84 
 N                     80.75     51.       23.34 
 C                     82.02     50.37     23.64 
 C                     83.23     51.29     23.59 
 O                     83.15     52.43     23.15 
 C                     82.28     49.29     22.6 
 O                     82.56     49.9      21.36 
 H                     80.72     51.55     22.49 
 H                     82.       49.98     24.66 
 H                     81.32     48.78     22.64 
 H                     83.07     48.57     22.83 
 H                     82.6      49.18     20.73 
 N                     84.37     50.75     24.03 
 C                     85.57     51.56     23.92 
 C                     85.73     52.17     22.54 
 O                     85.93     53.38     22.49 
 C                     86.84     50.78     24.27 
 H                     84.52     49.79     24.27 
 H                     85.44     52.4      24.61 
 H                     87.79     51.3      24.09 
 H                     86.85     50.45     25.3 
 H                     86.81     49.89     23.64 
 N                     85.58     51.42     21.45 
 C                     85.85     51.85     20.09 
 C                     84.86     52.93     19.67 
 O                     85.37     53.87     19.06 
 C                     85.77     50.58     19.24 
 H                     85.28     50.47     21.6 
 H                     86.86     52.28     20.1 
 H                     86.04     50.75     18.2 
 H                     86.35     49.76     19.66 
 H                     84.72     50.29     19.18 
 N                     83.59     52.81     20.05 
 C                     82.69     53.9      19.74 
 C                     82.89     55.17     20.56 
 O                     82.88     56.21     19.91 
 C                     81.23     53.48     19.88 
 C                     80.94     52.32     18.94 
 C                     79.5      51.81     18.87 
 O                     79.25     50.82     18.15 
 O                     78.64     52.29     19.63 
 H                     83.2      51.91     20.29 
 H                     82.92     54.14     18.7 
 H                     80.59     54.35     19.71 
 H                     80.98     53.27     20.92 
 H                     81.59     51.58     19.41 
 H                     81.24     52.49     17.91 
 N                     83.22     55.1      21.85 
 C                     83.7      56.21     22.65 
 H                     84.609    56.612    22.203 
 H                     82.938    56.989    22.686 
 H                     83.915    55.864    23.661 
 H                     83.19     54.19     22.28 
 Ca                    77.09     50.12     19.54 
 O                     78.98     49.27     21.32 
 H                     79.84     49.01     20.99 
 H                     78.82     48.67     22.05 
 
 Stoichiometry    C54H83CaN15O23
 Framework group  C1[X(C54H83CaN15O23)]
 Deg. of freedom   522
 Full point group                 C1      NOp   1
 Largest Abelian subgroup         C1      NOp   1
 Largest concise Abelian subgroup C1      NOp   1
                         Standard orientation:                         
 ---------------------------------------------------------------------
 Center     Atomic      Atomic             Coordinates (Angstroms)
 Number     Number       Type             X           Y           Z
 ---------------------------------------------------------------------
      1          6           0        1.860726    1.512804    5.782338
      2          6           0        1.317719    1.640832    4.364293
      3          8           0        2.083913    1.689648    3.400361
      4          1           0        2.725785    2.165863    5.899942
      5          1           0        1.088322    1.801535    6.495494
      6          1           0        2.158334    0.480226    5.965878
      7          7           0       -0.005601    1.640831    4.164985
      8          6           0       -0.624165    1.721715    2.864279
      9          6           0       -0.597559    3.191069    2.442269
     10          8           0       -1.265162    4.061177    2.990920
     11          6           0       -2.066923    1.250019    2.956756
     12          6           0       -2.945751    1.533112    1.735888
     13          8           0       -4.181928    1.473882    1.926833
     14          8           0       -2.471732    1.807041    0.614608
     15          1           0       -0.596448    1.451131    4.955120
     16          1           0       -0.196305    1.070620    2.094141
     17          1           0       -2.576148    1.716388    3.797999
     18          1           0       -1.994994    0.181398    3.123414
     19          7           0        0.254135    3.430748    1.449007
     20          6           0        0.631884    4.748409    0.971433
     21          6           0       -0.419256    5.486756    0.165116
     22          8           0       -0.317476    6.704215    0.031200
     23          6           0        1.979520    4.646552    0.261712
     24          6           0        2.823842    5.890611    0.007279
     25          6           0        4.148189    5.466835   -0.645652
     26          6           0        5.168128    6.599079   -0.764600
     27          7           0        4.720613    7.797090   -1.487579
     28          1           0        0.818212    2.629017    1.166265
     29          1           0        0.806704    5.395059    1.826174
     30          1           0        1.776686    4.146439   -0.685993
     31          1           0        2.547431    3.942071    0.878707
     32          1           0        3.084311    6.427781    0.917501
     33          1           0        2.268536    6.536937   -0.671837
     34          1           0        3.930861    5.117860   -1.647642
     35          1           0        4.605696    4.636317   -0.106924
     36          1           0        6.025880    6.151877   -1.269746
     37          1           0        5.526183    6.808175    0.248798
     38          1           0        4.624433    7.735728   -2.491165
     39          1           0        3.846557    8.112151   -1.095452
     40          1           0        5.219562    8.654470   -1.337418
     41          7           0       -1.392451    4.775219   -0.428691
     42          6           0       -2.383982    5.355979   -1.299142
     43          6           0       -3.840697    5.073745   -0.955449
     44          8           0       -4.678265    5.687553   -1.601839
     45          6           0       -1.997990    5.016434   -2.738072
     46          6           0       -1.722240    3.573261   -3.156536
     47          8           0       -2.001672    2.635878   -2.375939
     48          8           0       -1.351453    3.285155   -4.311877
     49          1           0       -1.290925    3.773349   -0.334616
     50          1           0       -2.305662    6.444930   -1.246684
     51          1           0       -1.149996    5.567535   -3.154356
     52          1           0       -2.890020    5.302886   -3.290274
     53          7           0       -4.092683    4.316565    0.109531
     54          6           0       -5.437192    4.159136    0.634424
     55          6           0       -6.258324    3.259398   -0.277120
     56          8           0       -7.395546    3.574506   -0.617757
     57          1           0       -3.310817    3.786584    0.481020
     58          1           0       -5.873254    5.128661    0.834355
     59          1           0       -5.314074    3.742528    1.633764
     60          7           0       -5.698881    2.097679   -0.621407
     61          6           0       -6.442279    1.013500   -1.238267
     62          6           0       -6.413709   -0.263771   -0.421467
     63          8           0       -6.874309   -1.287017   -0.922082
     64          6           0       -5.848334    0.797352   -2.624957
     65          6           0       -4.642957   -0.135714   -2.707738
     66          7           0       -4.765221   -1.205648   -3.483942
     67          8           0       -3.658995   -0.157056   -1.976189
     68          1           0       -4.803096    1.763209   -0.292320
     69          1           0       -7.495959    1.281749   -1.237986
     70          1           0       -5.554422    1.771080   -3.024543
     71          1           0       -6.595717    0.427892   -3.317719
     72          1           0       -5.376533   -1.170612   -4.287913
     73          1           0       -4.065567   -1.927011   -3.428070
     74          7           0       -6.168924   -0.186774    0.895443
     75          6           0       -6.360257   -1.181364    1.939034
     76          6           0       -5.381780   -2.335761    1.827461
     77          8           0       -5.576676   -3.388626    2.437127
     78          1           0       -5.770968    0.679689    1.219437
     79          1           0       -7.363347   -1.603845    1.918510
     80          1           0       -6.289749   -0.671677    2.900828
     81          7           0       -4.288869   -2.116988    1.091061
     82          6           0       -3.329602   -3.113878    0.649454
     83          6           0       -1.908566   -2.573237    0.618415
     84          8           0       -1.745238   -1.372667    0.421043
     85          6           0       -3.667231   -3.508836   -0.791072
     86          6           0       -4.395464   -4.828598   -0.793139
     87          6           0       -3.735892   -6.063451   -0.700934
     88          6           0       -5.796918   -4.775527   -0.868035
     89          6           0       -4.468658   -7.256024   -0.682941
     90          6           0       -6.509540   -5.975730   -0.946666
     91          6           0       -5.875473   -7.230275   -0.825104
     92          8           0       -6.536084   -8.420090   -0.848174
     93          1           0       -4.135778   -1.196141    0.710794
     94          1           0       -3.393457   -3.978999    1.304732
     95          1           0       -2.788370   -3.667229   -1.407770
     96          1           0       -4.314120   -2.728215   -1.200786
     97          1           0       -2.668951   -6.041934   -0.546427
     98          1           0       -6.266646   -3.812882   -0.766691
     99          1           0       -3.895909   -8.158992   -0.630906
    100          1           0       -7.586751   -5.921815   -0.943679
    101          1           0       -7.499203   -8.354168   -0.860641
    102          7           0       -0.884201   -3.331349    1.030533
    103          6           0        0.491093   -2.985620    1.312731
    104          6           0        1.309740   -3.847265    0.345733
    105          8           0        1.027448   -5.037640    0.242200
    106          6           0        0.891945   -3.212800    2.768996
    107          6           0        0.222502   -2.260908    3.755834
    108          6           0        2.390421   -2.992601    2.937755
    109          6           0        0.278717   -2.658226    5.220954
    110          1           0       -1.107762   -4.310996    1.129594
    111          1           0        0.621997   -1.938417    1.028600
    112          1           0        0.553070   -4.215729    3.014550
    113          1           0       -0.846905   -2.157121    3.564008
    114          1           0        0.526446   -1.225304    3.614261
    115          1           0        2.637083   -3.322820    3.945680
    116          1           0        2.936554   -3.666472    2.278941
    117          1           0        2.635306   -1.958479    2.682561
    118          1           0        1.272748   -2.698244    5.669396
    119          1           0       -0.193726   -1.992083    5.945420
    120          1           0       -0.207003   -3.627191    5.327646
    121          7           0        2.347427   -3.287843   -0.274874
    122          6           0        3.313969   -3.978766   -1.104464
    123          6           0        4.767798   -3.799621   -0.695453
    124          8           0        5.097405   -2.985227    0.157613
    125          6           0        3.213465   -3.430396   -2.520371
    126          8           0        3.719563   -2.114560   -2.543607
    127          1           0        2.531543   -2.306095   -0.107027
    128          1           0        3.133543   -5.054728   -1.052972
    129          1           0        2.135805   -3.496649   -2.652881
    130          1           0        3.700452   -4.013998   -3.306280
    131          1           0        3.525756   -1.787112   -3.422309
    132          7           0        5.639638   -4.568959   -1.353339
    133          6           0        7.047771   -4.370860   -1.059881
    134          6           0        7.445006   -2.907035   -1.098872
    135          8           0        8.051062   -2.472309   -0.124034
    136          6           0        7.961278   -5.160017   -2.001442
    137          1           0        5.443096   -5.146663   -2.146642
    138          1           0        7.196885   -4.698439   -0.025929
    139          1           0        9.036740   -4.959206   -1.910030
    140          1           0        7.829415   -6.229056   -1.903113
    141          1           0        7.643193   -4.880711   -3.006783
    142          7           0        7.074857   -2.135106   -2.118782
    143          6           0        7.512735   -0.769039   -2.341324
    144          6           0        6.967235    0.145821   -1.251205
    145          8           0        7.786070    0.957638   -0.819623
    146          6           0        7.022633   -0.410102   -3.745875
    147          1           0        6.461911   -2.556946   -2.798008
    148          1           0        8.608404   -0.784450   -2.275197
    149          1           0        7.362351    0.569760   -4.074299
    150          1           0        7.273027   -1.171923   -4.482171
    151          1           0        5.939020   -0.293777   -3.696369
    152          7           0        5.724031   -0.052359   -0.818923
    153          6           0        5.263491    0.750347    0.293627
    154          6           0        5.866995    0.400742    1.649672
    155          8           0        6.233427    1.364081    2.314432
    156          6           0        3.745009    0.699522    0.432296
    157          6           0        3.098172    1.212106   -0.845264
    158          6           0        1.573044    1.321369   -0.870691
    159          8           0        1.016460    1.683109   -1.929160
    160          8           0        0.911216    0.916414    0.101726
    161          1           0        5.041464   -0.526343   -1.392631
    162          1           0        5.589802    1.760602    0.038664
    163          1           0        3.448872    1.256524    1.325297
    164          1           0        3.410271   -0.297269    0.719627
    165          1           0        3.440488    0.420976   -1.514542
    166          1           0        3.465773    2.178106   -1.179199
    167          7           0        6.118075   -0.867982    1.974013
    168          6           0        6.929702   -1.297509    3.096184
    169          1           0        7.933150   -0.884191    2.996417
    170          1           0        6.482221   -0.943931    4.025444
    171          1           0        6.985193   -2.385992    3.109880
    172          1           0        5.764791   -1.576550    1.351902
    173         20           0       -1.288749    0.486018   -1.345482
    174          8           0        0.144218   -1.745962   -1.999599
    175          1           0        0.870391   -1.662725   -2.617534
    176          1           0       -0.232213   -2.604800   -2.197583
 ---------------------------------------------------------------------
 Rotational constants (GHZ):           0.0223455           0.0157571           0.0116063
 Standard basis: SVP (5D, 7F)
 There are  1809 symmetry adapted cartesian basis functions of A   symmetry.
 There are  1717 symmetry adapted basis functions of A   symmetry.
  1717 basis functions,  2922 primitive gaussians,  1809 cartesian basis functions
   358 alpha electrons      358 beta electrons
       nuclear repulsion energy     21679.9257323781 Hartrees.
 NAtoms=  176 NActive=  176 NUniq=  176 SFac= 1.00D+00 NAtFMM=   60 NAOKFM=T Big=T
 Integral buffers will be    131072 words long.
 Raffenetti 2 integral format.
 Two-electron integral symmetry is turned on.
 One-electron integrals computed using PRISM.
 NBasis=  1717 RedAO= T EigKep=  2.76D-04  NBF=  1717
 NBsUse=  1717 1.00D-06 EigRej= -1.00D+00 NBFU=  1717
 ExpMin= 1.98D-02 ExpMax= 3.51D+04 ExpMxC= 5.28D+03 IAcc=3 IRadAn=         5 AccDes= 0.00D+00
 Harris functional with IExCor=  402 and IRadAn=       5 diagonalized for initial guess.
 HarFok:  IExCor=  402 AccDes= 0.00D+00 IRadAn=         5 IDoV= 1 UseB2=F ITyADJ=14
 ICtDFT=  3500011 ScaDFX=  1.000000  1.000000  1.000000  1.000000
 FoFCou: FMM=F IPFlag=           0 FMFlag=      100000 FMFlg1=        2001
         NFxFlg=           0 DoJE=T BraDBF=F KetDBF=T FulRan=T
         wScrn=  0.000000 ICntrl=       500 IOpCl=  0 I1Cent=   200000004 NGrid=           0
         NMat0=    1 NMatS0=      1 NMatT0=    0 NMatD0=    1 NMtDS0=    0 NMtDT0=    0
 Petite list used in FoFCou.
 Requested convergence on RMS density matrix=1.00D-08 within 128 cycles.
 Requested convergence on MAX density matrix=1.00D-06.
 Requested convergence on             energy=1.00D-06.
 No special actions if energy rises.
 EnCoef did     4 forward-backward iterations
 SCF Done:  E(RB3LYP) =  -5333.57389491     A.U. after   18 cycles
            NFock= 18  Conv=0.31D-08     -V/T= 2.0082
 SCF density gives NOpUse=  1 NOpAll=  1.
 Hyperfine terms turned off by default for NAtoms > 100.

 **********************************************************************

            Population analysis using the SCF density.

 **********************************************************************

 Orbital symmetries:
 BldTbl:  Degeneracy threshold= 1.00D-02
       Occupied  (A) (A) (A) (A) (A) (A) (A) (A) (A) (A) (A) (A)
                 (A) (A) (A) (A) (A) (A) (A) (A) (A) (A) (A) (A)
                 (A) (A) (A) (A) (A) (A) (A) (A) (A) (A) (A) (A)
                 (A) (A) (A) (A) (A) (A) (A) (A) (A) (A) (A) (A)
                 (A) (A) (A) (A) (A) (A) (A) (A) (A) (A) (A) (A)
                 (A) (A) (A) (A) (A) (A) (A) (A) (A) (A) (A) (A)
                 (A) (A) (A) (A) (A) (A) (A) (A) (A) (A) (A) (A)
                 (A) (A) (A) (A) (A) (A) (A) (A) (A) (A) (A) (A)
                 (A) (A) (A) (A) (A) (A) (A) (A) (A) (A) (A) (A)
                 (A) (A) (A) (A) (A) (A) (A) (A) (A) (A) (A) (A)
                 (A) (A) (A) (A) (A) (A) (A) (A) (A) (A) (A) (A)
                 (A) (A) (A) (A) (A) (A) (A) (A) (A) (A) (A) (A)
                 (A) (A) (A) (A) (A) (A) (A) (A) (A) (A) (A) (A)
                 (A) (A) (A) (A) (A) (A) (A) (A) (A) (A) (A) (A)
                 (A) (A) (A) (A) (A) (A) (A) (A) (A) (A) (A) (A)
                 (A) (A) (A) (A) (A) (A) (A) (A) (A) (A) (A) (A)
                 (A) (A) (A) (A) (A) (A) (A) (A) (A) (A) (A) (A)
                 (A) (A) (A) (A) (A) (A) (A) (A) (A) (A) (A) (A)
                 (A) (A) (A) (A) (A) (A) (A) (A) (A) (A) (A) (A)
                 (A) (A) (A) (A) (A) (A) (A) (A) (A) (A) (A) (A)
                 (A) (A) (A) (A) (A) (A) (A) (A) (A) (A) (A) (A)
                 (A) (A) (A) (A) (A) (A) (A) (A) (A) (A) (A) (A)
                 (A) (A) (A) (A) (A) (A) (A) (A) (A) (A) (A) (A)
                 (A) (A) (A) (A) (A) (A) (A) (A) (A) (A) (A) (A)
                 (A) (A) (A) (A) (A) (A) (A) (A) (A) (A) (A) (A)
                 (A) (A) (A) (A) (A) (A) (A) (A) (A) (A) (A) (A)
                 (A) (A) (A) (A) (A) (A) (A) (A) (A) (A) (A) (A)
                 (A) (A) (A) (A) (A) (A) (A) (A) (A) (A) (A) (A)
                 (A) (A) (A) (A) (A) (A) (A) (A) (A) (A) (A) (A)
                 (A) (A) (A) (A) (A) (A) (A) (A) (A) (A)
       Virtual   (A) (A) (A) (A) (A) (A) (A) (A) (A) (A) (A) (A)
                 (A) (A) (A) (A) (A) (A) (A) (A) (A) (A) (A) (A)
                 (A) (A) (A) (A) (A) (A) (A) (A) (A) (A) (A) (A)
                 (A) (A) (A) (A) (A) (A) (A) (A) (A) (A) (A) (A)
                 (A) (A) (A) (A) (A) (A) (A) (A) (A) (A) (A) (A)
                 (A) (A) (A) (A) (A) (A) (A) (A) (A) (A) (A) (A)
                 (A) (A) (A) (A) (A) (A) (A) (A) (A) (A) (A) (A)
                 (A) (A) (A) (A) (A) (A) (A) (A) (A) (A) (A) (A)
                 (A) (A) (A) (A) (A) (A) (A) (A) (A) (A) (A) (A)
                 (A) (A) (A) (A) (A) (A) (A) (A) (A) (A) (A) (A)
                 (A) (A) (A) (A) (A) (A) (A) (A) (A) (A) (A) (A)
                 (A) (A) (A) (A) (A) (A) (A) (A) (A) (A) (A) (A)
                 (A) (A) (A) (A) (A) (A) (A) (A) (A) (A) (A) (A)
                 (A) (A) (A) (A) (A) (A) (A) (A) (A) (A) (A) (A)
                 (A) (A) (A) (A) (A) (A) (A) (A) (A) (A) (A) (A)
                 (A) (A) (A) (A) (A) (A) (A) (A) (A) (A) (A) (A)
                 (A) (A) (A) (A) (A) (A) (A) (A) (A) (A) (A) (A)
                 (A) (A) (A) (A) (A) (A) (A) (A) (A) (A) (A) (A)
                 (A) (A) (A) (A) (A) (A) (A) (A) (A) (A) (A) (A)
                 (A) (A) (A) (A) (A) (A) (A) (A) (A) (A) (A) (A)
                 (A) (A) (A) (A) (A) (A) (A) (A) (A) (A) (A) (A)
                 (A) (A) (A) (A) (A) (A) (A) (A) (A) (A) (A) (A)
                 (A) (A) (A) (A) (A) (A) (A) (A) (A) (A) (A) (A)
                 (A) (A) (A) (A) (A) (A) (A) (A) (A) (A) (A) (A)
                 (A) (A) (A) (A) (A) (A) (A) (A) (A) (A) (A) (A)
                 (A) (A) (A) (A) (A) (A) (A) (A) (A) (A) (A) (A)
                 (A) (A) (A) (A) (A) (A) (A) (A) (A) (A) (A) (A)
                 (A) (A) (A) (A) (A) (A) (A) (A) (A) (A) (A) (A)
                 (A) (A) (A) (A) (A) (A) (A) (A) (A) (A) (A) (A)
                 (A) (A) (A) (A) (A) (A) (A) (A) (A) (A) (A) (A)
                 (A) (A) (A) (A) (A) (A) (A) (A) (A) (A) (A) (A)
                 (A) (A) (A) (A) (A) (A) (A) (A) (A) (A) (A) (A)
                 (A) (A) (A) (A) (A) (A) (A) (A) (A) (A) (A) (A)
                 (A) (A) (A) (A) (A) (A) (A) (A) (A) (A) (A) (A)
                 (A) (A) (A) (A) (A) (A) (A) (A) (A) (A) (A) (A)
                 (A) (A) (A) (A) (A) (A) (A) (A) (A) (A) (A) (A)
                 (A) (A) (A) (A) (A) (A) (A) (A) (A) (A) (A) (A)
                 (A) (A) (A) (A) (A) (A) (A) (A) (A) (A) (A) (A)
                 (A) (A) (A) (A) (A) (A) (A) (A) (A) (A) (A) (A)
                 (A) (A) (A) (A) (A) (A) (A) (A) (A) (A) (A) (A)
                 (A) (A) (A) (A) (A) (A) (A) (A) (A) (A) (A) (A)
                 (A) (A) (A) (A) (A) (A) (A) (A) (A) (A) (A) (A)
                 (A) (A) (A) (A) (A) (A) (A) (A) (A) (A) (A) (A)
                 (A) (A) (A) (A) (A) (A) (A) (A) (A) (A) (A) (A)
                 (A) (A) (A) (A) (A) (A) (A) (A) (A) (A) (A) (A)
                 (A) (A) (A) (A) (A) (A) (A) (A) (A) (A) (A) (A)
                 (A) (A) (A) (A) (A) (A) (A) (A) (A) (A) (A) (A)
                 (A) (A) (A) (A) (A) (A) (A) (A) (A) (A) (A) (A)
                 (A) (A) (A) (A) (A) (A) (A) (A) (A) (A) (A) (A)
                 (A) (A) (A) (A) (A) (A) (A) (A) (A) (A) (A) (A)
                 (A) (A) (A) (A) (A) (A) (A) (A) (A) (A) (A) (A)
                 (A) (A) (A) (A) (A) (A) (A) (A) (A) (A) (A) (A)
                 (A) (A) (A) (A) (A) (A) (A) (A) (A) (A) (A) (A)
                 (A) (A) (A) (A) (A) (A) (A) (A) (A) (A) (A) (A)
                 (A) (A) (A) (A) (A) (A) (A) (A) (A) (A) (A) (A)
                 (A) (A) (A) (A) (A) (A) (A) (A) (A) (A) (A) (A)
                 (A) (A) (A) (A) (A) (A) (A) (A) (A) (A) (A) (A)
                 (A) (A) (A) (A) (A) (A) (A) (A) (A) (A) (A) (A)
                 (A) (A) (A) (A) (A) (A) (A) (A) (A) (A) (A) (A)
                 (A) (A) (A) (A) (A) (A) (A) (A) (A) (A) (A) (A)
                 (A) (A) (A) (A) (A) (A) (A) (A) (A) (A) (A) (A)
                 (A) (A) (A) (A) (A) (A) (A) (A) (A) (A) (A) (A)
                 (A) (A) (A) (A) (A) (A) (A) (A) (A) (A) (A) (A)
                 (A) (A) (A) (A) (A) (A) (A) (A) (A) (A) (A) (A)
                 (A) (A) (A) (A) (A) (A) (A) (A) (A) (A) (A) (A)
                 (A) (A) (A) (A) (A) (A) (A) (A) (A) (A) (A) (A)
                 (A) (A) (A) (A) (A) (A) (A) (A) (A) (A) (A) (A)
                 (A) (A) (A) (A) (A) (A) (A) (A) (A) (A) (A) (A)
                 (A) (A) (A) (A) (A) (A) (A) (A) (A) (A) (A) (A)
                 (A) (A) (A) (A) (A) (A) (A) (A) (A) (A) (A) (A)
                 (A) (A) (A) (A) (A) (A) (A) (A) (A) (A) (A) (A)
                 (A) (A) (A) (A) (A) (A) (A) (A) (A) (A) (A) (A)
                 (A) (A) (A) (A) (A) (A) (A) (A) (A) (A) (A) (A)
                 (A) (A) (A) (A) (A) (A) (A) (A) (A) (A) (A) (A)
                 (A) (A) (A) (A) (A) (A) (A) (A) (A) (A) (A) (A)
                 (A) (A) (A) (A) (A) (A) (A) (A) (A) (A) (A) (A)
                 (A) (A) (A) (A) (A) (A) (A) (A) (A) (A) (A) (A)
                 (A) (A) (A) (A) (A) (A) (A) (A) (A) (A) (A) (A)
                 (A) (A) (A) (A) (A) (A) (A) (A) (A) (A) (A) (A)
                 (A) (A) (A) (A) (A) (A) (A) (A) (A) (A) (A) (A)
                 (A) (A) (A) (A) (A) (A) (A) (A) (A) (A) (A) (A)
                 (A) (A) (A) (A) (A) (A) (A) (A) (A) (A) (A) (A)
                 (A) (A) (A) (A) (A) (A) (A) (A) (A) (A) (A) (A)
                 (A) (A) (A) (A) (A) (A) (A) (A) (A) (A) (A) (A)
                 (A) (A) (A) (A) (A) (A) (A) (A) (A) (A) (A) (A)
                 (A) (A) (A) (A) (A) (A) (A) (A) (A) (A) (A) (A)
                 (A) (A) (A) (A) (A) (A) (A) (A) (A) (A) (A) (A)
                 (A) (A) (A) (A) (A) (A) (A) (A) (A) (A) (A) (A)
                 (A) (A) (A) (A) (A) (A) (A) (A) (A) (A) (A) (A)
                 (A) (A) (A) (A) (A) (A) (A) (A) (A) (A) (A) (A)
                 (A) (A) (A) (A) (A) (A) (A) (A) (A) (A) (A) (A)
                 (A) (A) (A) (A) (A) (A) (A) (A) (A) (A) (A) (A)
                 (A) (A) (A) (A) (A) (A) (A) (A) (A) (A) (A) (A)
                 (A) (A) (A) (A) (A) (A) (A) (A) (A) (A) (A) (A)
                 (A) (A) (A) (A) (A) (A) (A) (A) (A) (A) (A) (A)
                 (A) (A) (A) (A) (A) (A) (A) (A) (A) (A) (A) (A)
                 (A) (A) (A) (A) (A) (A) (A) (A) (A) (A) (A) (A)
                 (A) (A) (A) (A) (A) (A) (A) (A) (A) (A) (A) (A)
                 (A) (A) (A) (A) (A) (A) (A) (A) (A) (A) (A) (A)
                 (A) (A) (A) (A) (A) (A) (A) (A) (A) (A) (A) (A)
                 (A) (A) (A) (A) (A) (A) (A) (A) (A) (A) (A) (A)
                 (A) (A) (A) (A) (A) (A) (A) (A) (A) (A) (A) (A)
                 (A) (A) (A) (A) (A) (A) (A) (A) (A) (A) (A) (A)
                 (A) (A) (A) (A) (A) (A) (A) (A) (A) (A) (A) (A)
                 (A) (A) (A) (A) (A) (A) (A) (A) (A) (A) (A) (A)
                 (A) (A) (A) (A) (A) (A) (A) (A) (A) (A) (A) (A)
                 (A) (A) (A) (A) (A) (A) (A) (A) (A) (A) (A) (A)
                 (A) (A) (A) (A) (A) (A) (A) (A) (A) (A) (A) (A)
                 (A) (A) (A) (A) (A) (A) (A) (A) (A) (A) (A) (A)
                 (A) (A) (A) (A) (A) (A) (A) (A) (A) (A) (A) (A)
                 (A) (A) (A) (A) (A) (A) (A) (A) (A) (A) (A) (A)
                 (A) (A) (A) (A) (A) (A) (A) (A) (A) (A) (A) (A)
                 (A) (A) (A) (A) (A) (A) (A) (A) (A) (A) (A) (A)
                 (A) (A) (A)
 The electronic state is 1-A.
 Alpha  occ. eigenvalues -- -145.36049 -19.21685 -19.21449 -19.15694 -19.15007
 Alpha  occ. eigenvalues --  -19.12953 -19.12905 -19.12165 -19.10186 -19.09164
 Alpha  occ. eigenvalues --  -19.07671 -19.07252 -19.07223 -19.07200 -19.06155
 Alpha  occ. eigenvalues --  -19.05974 -19.05688 -19.05643 -19.05209 -19.04626
 Alpha  occ. eigenvalues --  -19.03834 -19.03247 -19.00031 -18.97632 -15.41822
 Alpha  occ. eigenvalues --  -14.57813 -14.40690 -14.39357 -14.38062 -14.37119
 Alpha  occ. eigenvalues --  -14.36311 -14.35191 -14.33859 -14.33760 -14.32363
 Alpha  occ. eigenvalues --  -14.31859 -14.31398 -14.30485 -14.30219 -14.29112
 Alpha  occ. eigenvalues --  -12.55443 -12.55391 -12.55374 -10.33770 -10.33429
 Alpha  occ. eigenvalues --  -10.31378 -10.31306 -10.30544 -10.30440 -10.29284
 Alpha  occ. eigenvalues --  -10.28418 -10.27795 -10.26591 -10.26515 -10.26199
 Alpha  occ. eigenvalues --  -10.26182 -10.25850 -10.25520 -10.25180 -10.24669
 Alpha  occ. eigenvalues --  -10.24592 -10.24576 -10.24166 -10.24162 -10.24110
 Alpha  occ. eigenvalues --  -10.23971 -10.23537 -10.22873 -10.22719 -10.21893
 Alpha  occ. eigenvalues --  -10.21812 -10.21469 -10.21116 -10.21096 -10.20783
 Alpha  occ. eigenvalues --  -10.20670 -10.19777 -10.19645 -10.19568 -10.19493
 Alpha  occ. eigenvalues --  -10.18928 -10.18655 -10.18633 -10.18454 -10.18408
 Alpha  occ. eigenvalues --  -10.18259 -10.18129 -10.18082 -10.18029 -10.17958
 Alpha  occ. eigenvalues --  -10.17946 -10.17607 -10.17509 -10.17112 -10.17066
 Alpha  occ. eigenvalues --  -10.15504 -10.11847  -1.78737  -1.13126  -1.10084
 Alpha  occ. eigenvalues --   -1.08170  -1.07622  -1.06710  -1.06570  -1.06144
 Alpha  occ. eigenvalues --   -1.05940  -1.05336  -1.05050  -1.04015  -1.03752
 Alpha  occ. eigenvalues --   -1.01931  -1.01866  -1.00950  -1.00567  -0.99961
 Alpha  occ. eigenvalues --   -0.99404  -0.98938  -0.98793  -0.98220  -0.97740
 Alpha  occ. eigenvalues --   -0.97579  -0.96334  -0.96162  -0.94728  -0.94115
 Alpha  occ. eigenvalues --   -0.93862  -0.92186  -0.91500  -0.91278  -0.91109
 Alpha  occ. eigenvalues --   -0.90018  -0.89729  -0.89257  -0.89014  -0.88212
 Alpha  occ. eigenvalues --   -0.87883  -0.87741  -0.87205  -0.85569  -0.84242
 Alpha  occ. eigenvalues --   -0.84009  -0.82921  -0.82642  -0.80635  -0.80431
 Alpha  occ. eigenvalues --   -0.79060  -0.78936  -0.77777  -0.76542  -0.76209
 Alpha  occ. eigenvalues --   -0.75688  -0.74138  -0.73479  -0.73250  -0.72535
 Alpha  occ. eigenvalues --   -0.71997  -0.71645  -0.71501  -0.71160  -0.71083
 Alpha  occ. eigenvalues --   -0.70397  -0.69629  -0.69137  -0.68355  -0.67802
 Alpha  occ. eigenvalues --   -0.67710  -0.66782  -0.66005  -0.65793  -0.65087
 Alpha  occ. eigenvalues --   -0.64041  -0.63323  -0.63212  -0.62042  -0.61772
 Alpha  occ. eigenvalues --   -0.61240  -0.61140  -0.60663  -0.60534  -0.60429
 Alpha  occ. eigenvalues --   -0.59898  -0.59852  -0.59745  -0.59597  -0.58968
 Alpha  occ. eigenvalues --   -0.58583  -0.58347  -0.57855  -0.57536  -0.56634
 Alpha  occ. eigenvalues --   -0.56399  -0.55821  -0.55531  -0.55274  -0.55160
 Alpha  occ. eigenvalues --   -0.54970  -0.54249  -0.53710  -0.53521  -0.53382
 Alpha  occ. eigenvalues --   -0.53144  -0.52889  -0.52437  -0.51849  -0.51587
 Alpha  occ. eigenvalues --   -0.51433  -0.51383  -0.51103  -0.50522  -0.50121
 Alpha  occ. eigenvalues --   -0.49837  -0.49689  -0.49532  -0.49174  -0.48904
 Alpha  occ. eigenvalues --   -0.48655  -0.48466  -0.48223  -0.48007  -0.47851
 Alpha  occ. eigenvalues --   -0.47788  -0.47717  -0.47524  -0.47469  -0.47237
 Alpha  occ. eigenvalues --   -0.46216  -0.46148  -0.46024  -0.45956  -0.45740
 Alpha  occ. eigenvalues --   -0.45618  -0.45311  -0.44856  -0.44796  -0.44625
 Alpha  occ. eigenvalues --   -0.44522  -0.44160  -0.44082  -0.43933  -0.43873
 Alpha  occ. eigenvalues --   -0.43770  -0.43718  -0.43434  -0.43335  -0.43163
 Alpha  occ. eigenvalues --   -0.43046  -0.43001  -0.42935  -0.42912  -0.42589
 Alpha  occ. eigenvalues --   -0.42233  -0.41946  -0.41682  -0.41611  -0.41497
 Alpha  occ. eigenvalues --   -0.41425  -0.41136  -0.41055  -0.40942  -0.40861
 Alpha  occ. eigenvalues --   -0.40802  -0.40705  -0.40564  -0.40412  -0.40190
 Alpha  occ. eigenvalues --   -0.40143  -0.39805  -0.39413  -0.39340  -0.39206
 Alpha  occ. eigenvalues --   -0.39058  -0.38982  -0.38950  -0.38835  -0.38783
 Alpha  occ. eigenvalues --   -0.38683  -0.38589  -0.38444  -0.38238  -0.38146
 Alpha  occ. eigenvalues --   -0.38010  -0.37900  -0.37640  -0.37563  -0.37393
 Alpha  occ. eigenvalues --   -0.37192  -0.37094  -0.37057  -0.36861  -0.36598
 Alpha  occ. eigenvalues --   -0.36485  -0.36325  -0.36144  -0.35987  -0.35894
 Alpha  occ. eigenvalues --   -0.35881  -0.35617  -0.35272  -0.34886  -0.34766
 Alpha  occ. eigenvalues --   -0.34674  -0.34424  -0.34386  -0.33957  -0.33816
 Alpha  occ. eigenvalues --   -0.33606  -0.33447  -0.33243  -0.33118  -0.32963
 Alpha  occ. eigenvalues --   -0.32434  -0.32326  -0.32157  -0.31947  -0.31839
 Alpha  occ. eigenvalues --   -0.31724  -0.31537  -0.31077  -0.30849  -0.30046
 Alpha  occ. eigenvalues --   -0.29704  -0.29319  -0.29265  -0.28611  -0.28183
 Alpha  occ. eigenvalues --   -0.28025  -0.27909  -0.27838  -0.26311  -0.25815
 Alpha  occ. eigenvalues --   -0.25743  -0.25655  -0.25079  -0.24925  -0.24645
 Alpha  occ. eigenvalues --   -0.24476  -0.24411  -0.24184  -0.23883  -0.23273
 Alpha  occ. eigenvalues --   -0.22942  -0.22535  -0.22371  -0.22351  -0.22320
 Alpha  occ. eigenvalues --   -0.22131  -0.21745  -0.21372  -0.21253  -0.21164
 Alpha  occ. eigenvalues --   -0.21104  -0.20712  -0.19781  -0.18899  -0.18481
 Alpha  occ. eigenvalues --   -0.17720  -0.16487  -0.13662
 Alpha virt. eigenvalues --   -0.09477  -0.05061  -0.03863  -0.02866  -0.02262
 Alpha virt. eigenvalues --   -0.02214  -0.01477  -0.00840  -0.00559  -0.00318
 Alpha virt. eigenvalues --   -0.00082   0.00040   0.00559   0.01100   0.01701
 Alpha virt. eigenvalues --    0.02913   0.03116   0.03415   0.03535   0.03623
 Alpha virt. eigenvalues --    0.03861   0.03983   0.04068   0.04241   0.04461
 Alpha virt. eigenvalues --    0.04699   0.04917   0.05281   0.05541   0.05635
 Alpha virt. eigenvalues --    0.05886   0.06008   0.06348   0.06394   0.06610
 Alpha virt. eigenvalues --    0.06884   0.07137   0.07306   0.07596   0.07770
 Alpha virt. eigenvalues --    0.08131   0.08358   0.08420   0.08559   0.08771
 Alpha virt. eigenvalues --    0.08968   0.09162   0.09175   0.09366   0.09533
 Alpha virt. eigenvalues --    0.09571   0.09990   0.10344   0.10476   0.10788
 Alpha virt. eigenvalues --    0.11110   0.11160   0.11221   0.11507   0.11537
 Alpha virt. eigenvalues --    0.11687   0.11958   0.12048   0.12150   0.12396
 Alpha virt. eigenvalues --    0.12493   0.12699   0.12798   0.13112   0.13409
 Alpha virt. eigenvalues --    0.13486   0.13616   0.13783   0.14015   0.14110
 Alpha virt. eigenvalues --    0.14349   0.14466   0.14727   0.14894   0.14975
 Alpha virt. eigenvalues --    0.15046   0.15357   0.15382   0.15545   0.15815
 Alpha virt. eigenvalues --    0.15927   0.16047   0.16161   0.16600   0.16921
 Alpha virt. eigenvalues --    0.16975   0.16993   0.17228   0.17752   0.17808
 Alpha virt. eigenvalues --    0.17990   0.18118   0.18188   0.18390   0.18590
 Alpha virt. eigenvalues --    0.18627   0.19132   0.19255   0.19424   0.19448
 Alpha virt. eigenvalues --    0.19685   0.19836   0.19925   0.20185   0.20450
 Alpha virt. eigenvalues --    0.20634   0.20936   0.20982   0.21301   0.21396
 Alpha virt. eigenvalues --    0.21688   0.21823   0.21967   0.22510   0.22625
 Alpha virt. eigenvalues --    0.22766   0.22826   0.22947   0.23290   0.23584
 Alpha virt. eigenvalues --    0.23836   0.24010   0.24115   0.24295   0.24445
 Alpha virt. eigenvalues --    0.24486   0.25050   0.25369   0.25495   0.25552
 Alpha virt. eigenvalues --    0.25671   0.25843   0.25956   0.26146   0.26325
 Alpha virt. eigenvalues --    0.26507   0.26814   0.27019   0.27231   0.27365
 Alpha virt. eigenvalues --    0.27826   0.28079   0.28190   0.28871   0.28935
 Alpha virt. eigenvalues --    0.29175   0.29345   0.29704   0.30143   0.30259
 Alpha virt. eigenvalues --    0.30412   0.30712   0.31034   0.31338   0.31435
 Alpha virt. eigenvalues --    0.31553   0.31880   0.32003   0.32205   0.32569
 Alpha virt. eigenvalues --    0.32710   0.33043   0.33136   0.33695   0.33985
 Alpha virt. eigenvalues --    0.34094   0.34264   0.34854   0.34960   0.35413
 Alpha virt. eigenvalues --    0.35846   0.36086   0.36545   0.36645   0.36937
 Alpha virt. eigenvalues --    0.37046   0.37246   0.37677   0.37907   0.37928
 Alpha virt. eigenvalues --    0.38057   0.38646   0.39069   0.39209   0.39335
 Alpha virt. eigenvalues --    0.39422   0.39746   0.40292   0.40539   0.41278
 Alpha virt. eigenvalues --    0.41312   0.41569   0.41808   0.42178   0.42224
 Alpha virt. eigenvalues --    0.42487   0.42640   0.42996   0.43055   0.43217
 Alpha virt. eigenvalues --    0.43441   0.43640   0.43710   0.44002   0.44196
 Alpha virt. eigenvalues --    0.44290   0.44409   0.44616   0.44730   0.44941
 Alpha virt. eigenvalues --    0.45262   0.45684   0.45696   0.45952   0.46179
 Alpha virt. eigenvalues --    0.46391   0.46716   0.46861   0.47053   0.47224
 Alpha virt. eigenvalues --    0.47426   0.47623   0.47735   0.48021   0.48195
 Alpha virt. eigenvalues --    0.48465   0.48584   0.48707   0.48751   0.49015
 Alpha virt. eigenvalues --    0.49203   0.49445   0.49584   0.49851   0.49934
 Alpha virt. eigenvalues --    0.50164   0.50252   0.50436   0.50685   0.50912
 Alpha virt. eigenvalues --    0.51177   0.51445   0.51651   0.51799   0.51925
 Alpha virt. eigenvalues --    0.52130   0.52157   0.52442   0.52648   0.52856
 Alpha virt. eigenvalues --    0.52994   0.53393   0.53628   0.53897   0.53924
 Alpha virt. eigenvalues --    0.54111   0.54311   0.54449   0.54645   0.54826
 Alpha virt. eigenvalues --    0.55097   0.55113   0.55450   0.55513   0.55726
 Alpha virt. eigenvalues --    0.55903   0.56172   0.56220   0.56433   0.56545
 Alpha virt. eigenvalues --    0.56841   0.57024   0.57282   0.57395   0.57469
 Alpha virt. eigenvalues --    0.57742   0.58040   0.58058   0.58287   0.58491
 Alpha virt. eigenvalues --    0.58691   0.58854   0.59002   0.59182   0.59297
 Alpha virt. eigenvalues --    0.59509   0.59605   0.59740   0.59982   0.60009
 Alpha virt. eigenvalues --    0.60120   0.60355   0.60713   0.60799   0.60994
 Alpha virt. eigenvalues --    0.61019   0.61213   0.61391   0.61565   0.61692
 Alpha virt. eigenvalues --    0.61802   0.61875   0.61986   0.62173   0.62306
 Alpha virt. eigenvalues --    0.62343   0.62444   0.62680   0.62832   0.62983
 Alpha virt. eigenvalues --    0.63165   0.63178   0.63314   0.63477   0.63557
 Alpha virt. eigenvalues --    0.63927   0.63966   0.64092   0.64303   0.64493
 Alpha virt. eigenvalues --    0.64546   0.64726   0.64844   0.64934   0.65194
 Alpha virt. eigenvalues --    0.65309   0.65417   0.65491   0.65539   0.65740
 Alpha virt. eigenvalues --    0.65773   0.65857   0.66054   0.66123   0.66276
 Alpha virt. eigenvalues --    0.66336   0.66409   0.66569   0.66815   0.66920
 Alpha virt. eigenvalues --    0.66943   0.67080   0.67205   0.67343   0.67391
 Alpha virt. eigenvalues --    0.67477   0.67529   0.67676   0.67737   0.67967
 Alpha virt. eigenvalues --    0.68038   0.68134   0.68227   0.68329   0.68369
 Alpha virt. eigenvalues --    0.68525   0.68625   0.68669   0.68793   0.68937
 Alpha virt. eigenvalues --    0.69082   0.69178   0.69405   0.69481   0.69566
 Alpha virt. eigenvalues --    0.69835   0.69923   0.70028   0.70215   0.70267
 Alpha virt. eigenvalues --    0.70467   0.70527   0.70711   0.70830   0.70966
 Alpha virt. eigenvalues --    0.71155   0.71300   0.71409   0.71656   0.71682
 Alpha virt. eigenvalues --    0.71786   0.71989   0.72084   0.72227   0.72431
 Alpha virt. eigenvalues --    0.72603   0.72812   0.72926   0.73088   0.73212
 Alpha virt. eigenvalues --    0.73348   0.73547   0.73652   0.73757   0.73964
 Alpha virt. eigenvalues --    0.74027   0.74217   0.74683   0.74800   0.74854
 Alpha virt. eigenvalues --    0.75103   0.75396   0.75488   0.75631   0.75881
 Alpha virt. eigenvalues --    0.76045   0.76070   0.76380   0.76511   0.76665
 Alpha virt. eigenvalues --    0.76898   0.77057   0.77354   0.77534   0.77594
 Alpha virt. eigenvalues --    0.78104   0.78357   0.78618   0.78699   0.78984
 Alpha virt. eigenvalues --    0.79166   0.79358   0.79604   0.79838   0.80193
 Alpha virt. eigenvalues --    0.80835   0.81003   0.81074   0.81345   0.81789
 Alpha virt. eigenvalues --    0.81990   0.82151   0.82387   0.82585   0.82971
 Alpha virt. eigenvalues --    0.83042   0.83512   0.83781   0.83859   0.84232
 Alpha virt. eigenvalues --    0.84472   0.84741   0.85149   0.85292   0.85440
 Alpha virt. eigenvalues --    0.85936   0.86023   0.86241   0.86947   0.87481
 Alpha virt. eigenvalues --    0.87701   0.87901   0.88021   0.88459   0.88630
 Alpha virt. eigenvalues --    0.88820   0.89381   0.89709   0.89882   0.90010
 Alpha virt. eigenvalues --    0.90412   0.90612   0.90772   0.91220   0.91575
 Alpha virt. eigenvalues --    0.91613   0.91849   0.92375   0.92799   0.92914
 Alpha virt. eigenvalues --    0.93112   0.93821   0.93853   0.94215   0.94623
 Alpha virt. eigenvalues --    0.94769   0.95014   0.95063   0.95552   0.95644
 Alpha virt. eigenvalues --    0.96028   0.96522   0.96681   0.97121   0.97250
 Alpha virt. eigenvalues --    0.97504   0.97681   0.97776   0.98050   0.98381
 Alpha virt. eigenvalues --    0.98614   0.98730   0.98830   0.99027   0.99562
 Alpha virt. eigenvalues --    0.99617   1.00425   1.00795   1.01048   1.01353
 Alpha virt. eigenvalues --    1.01425   1.01789   1.02095   1.02617   1.02736
 Alpha virt. eigenvalues --    1.02950   1.03095   1.03418   1.03783   1.03827
 Alpha virt. eigenvalues --    1.04437   1.04613   1.04885   1.05360   1.05749
 Alpha virt. eigenvalues --    1.06024   1.06148   1.06431   1.07126   1.07445
 Alpha virt. eigenvalues --    1.07500   1.07769   1.07842   1.08604   1.08783
 Alpha virt. eigenvalues --    1.09325   1.09697   1.10043   1.10172   1.10490
 Alpha virt. eigenvalues --    1.10636   1.10758   1.11084   1.11164   1.11529
 Alpha virt. eigenvalues --    1.11607   1.11895   1.12184   1.12680   1.13185
 Alpha virt. eigenvalues --    1.13231   1.13662   1.13812   1.13925   1.14219
 Alpha virt. eigenvalues --    1.14528   1.14808   1.14935   1.15312   1.15447
 Alpha virt. eigenvalues --    1.15930   1.16086   1.16354   1.16619   1.16876
 Alpha virt. eigenvalues --    1.16968   1.17102   1.17373   1.17808   1.17915
 Alpha virt. eigenvalues --    1.18299   1.18395   1.18717   1.19010   1.19257
 Alpha virt. eigenvalues --    1.19660   1.19763   1.20004   1.20507   1.20701
 Alpha virt. eigenvalues --    1.20779   1.20925   1.21271   1.21360   1.21639
 Alpha virt. eigenvalues --    1.21845   1.21887   1.22485   1.22766   1.22978
 Alpha virt. eigenvalues --    1.23220   1.23425   1.23742   1.23834   1.24236
 Alpha virt. eigenvalues --    1.24574   1.24894   1.25062   1.25413   1.25813
 Alpha virt. eigenvalues --    1.26276   1.26592   1.26774   1.27191   1.27330
 Alpha virt. eigenvalues --    1.27538   1.27768   1.28104   1.28301   1.28423
 Alpha virt. eigenvalues --    1.28743   1.29137   1.29357   1.29674   1.29740
 Alpha virt. eigenvalues --    1.30259   1.30337   1.30431   1.30640   1.31131
 Alpha virt. eigenvalues --    1.31476   1.31594   1.31879   1.32262   1.32476
 Alpha virt. eigenvalues --    1.32719   1.32964   1.33166   1.33672   1.33836
 Alpha virt. eigenvalues --    1.34085   1.34531   1.34789   1.34998   1.35122
 Alpha virt. eigenvalues --    1.35326   1.35725   1.35998   1.36164   1.36736
 Alpha virt. eigenvalues --    1.36775   1.36875   1.37175   1.37490   1.37623
 Alpha virt. eigenvalues --    1.37901   1.38210   1.38767   1.39169   1.39399
 Alpha virt. eigenvalues --    1.39473   1.39882   1.40170   1.40336   1.40686
 Alpha virt. eigenvalues --    1.40788   1.41252   1.41474   1.41975   1.42320
 Alpha virt. eigenvalues --    1.42428   1.42777   1.43562   1.43791   1.44056
 Alpha virt. eigenvalues --    1.44223   1.44294   1.44536   1.44731   1.45555
 Alpha virt. eigenvalues --    1.45995   1.46064   1.46153   1.46657   1.47273
 Alpha virt. eigenvalues --    1.47363   1.47661   1.47772   1.48294   1.48588
 Alpha virt. eigenvalues --    1.49476   1.49654   1.49753   1.49967   1.50159
 Alpha virt. eigenvalues --    1.50377   1.50715   1.51311   1.51372   1.51534
 Alpha virt. eigenvalues --    1.51820   1.51909   1.52220   1.52345   1.52510
 Alpha virt. eigenvalues --    1.52856   1.53024   1.53207   1.53517   1.53850
 Alpha virt. eigenvalues --    1.54053   1.54204   1.54387   1.54578   1.54596
 Alpha virt. eigenvalues --    1.55409   1.55462   1.55727   1.56097   1.56383
 Alpha virt. eigenvalues --    1.56506   1.57471   1.57733   1.58370   1.58578
 Alpha virt. eigenvalues --    1.58883   1.59348   1.59840   1.60100   1.60382
 Alpha virt. eigenvalues --    1.60473   1.60801   1.61319   1.61795   1.61861
 Alpha virt. eigenvalues --    1.62164   1.62619   1.62977   1.63164   1.63556
 Alpha virt. eigenvalues --    1.63665   1.63863   1.64322   1.65045   1.65350
 Alpha virt. eigenvalues --    1.65875   1.66066   1.66445   1.66628   1.66889
 Alpha virt. eigenvalues --    1.67378   1.67530   1.67776   1.67935   1.68204
 Alpha virt. eigenvalues --    1.68389   1.68473   1.68627   1.69289   1.69624
 Alpha virt. eigenvalues --    1.69941   1.70219   1.70336   1.70852   1.71446
 Alpha virt. eigenvalues --    1.71594   1.71646   1.71794   1.71992   1.72119
 Alpha virt. eigenvalues --    1.72566   1.73052   1.73158   1.73241   1.73443
 Alpha virt. eigenvalues --    1.73619   1.73763   1.73821   1.73985   1.74283
 Alpha virt. eigenvalues --    1.74420   1.74540   1.74736   1.74992   1.75300
 Alpha virt. eigenvalues --    1.75446   1.75629   1.75759   1.75884   1.76127
 Alpha virt. eigenvalues --    1.76214   1.76324   1.76450   1.76593   1.76729
 Alpha virt. eigenvalues --    1.77184   1.77357   1.77566   1.77728   1.77980
 Alpha virt. eigenvalues --    1.78235   1.78647   1.78711   1.78931   1.79245
 Alpha virt. eigenvalues --    1.79259   1.79527   1.79788   1.79833   1.80051
 Alpha virt. eigenvalues --    1.80182   1.80359   1.80410   1.80600   1.80735
 Alpha virt. eigenvalues --    1.80902   1.80993   1.81127   1.81293   1.81392
 Alpha virt. eigenvalues --    1.81457   1.81542   1.81857   1.82035   1.82117
 Alpha virt. eigenvalues --    1.82316   1.82367   1.82615   1.82796   1.83041
 Alpha virt. eigenvalues --    1.83065   1.83233   1.83525   1.83751   1.84090
 Alpha virt. eigenvalues --    1.84282   1.84506   1.84664   1.84730   1.84938
 Alpha virt. eigenvalues --    1.85333   1.85664   1.85885   1.86125   1.86318
 Alpha virt. eigenvalues --    1.86441   1.86545   1.86803   1.87025   1.87050
 Alpha virt. eigenvalues --    1.87264   1.87456   1.87599   1.87757   1.87866
 Alpha virt. eigenvalues --    1.88080   1.88246   1.88485   1.88693   1.88784
 Alpha virt. eigenvalues --    1.88892   1.89073   1.89545   1.89650   1.89884
 Alpha virt. eigenvalues --    1.90166   1.90361   1.90541   1.90793   1.90913
 Alpha virt. eigenvalues --    1.90931   1.91345   1.91496   1.91724   1.92298
 Alpha virt. eigenvalues --    1.92421   1.92718   1.92879   1.93069   1.93132
 Alpha virt. eigenvalues --    1.93192   1.93226   1.93607   1.93672   1.93784
 Alpha virt. eigenvalues --    1.94150   1.94331   1.94498   1.94678   1.94768
 Alpha virt. eigenvalues --    1.95019   1.95137   1.95172   1.95350   1.95408
 Alpha virt. eigenvalues --    1.95948   1.96136   1.96444   1.96676   1.97124
 Alpha virt. eigenvalues --    1.97411   1.97574   1.97825   1.98130   1.98190
 Alpha virt. eigenvalues --    1.98431   1.98533   1.98665   1.98748   1.99045
 Alpha virt. eigenvalues --    1.99143   1.99617   1.99863   2.00082   2.00152
 Alpha virt. eigenvalues --    2.00313   2.00818   2.00900   2.01078   2.01558
 Alpha virt. eigenvalues --    2.01708   2.02446   2.02601   2.02870   2.02983
 Alpha virt. eigenvalues --    2.03174   2.03439   2.03559   2.03683   2.03904
 Alpha virt. eigenvalues --    2.04154   2.04363   2.04564   2.04663   2.04903
 Alpha virt. eigenvalues --    2.05054   2.05754   2.05926   2.06585   2.06825
 Alpha virt. eigenvalues --    2.07067   2.07414   2.07619   2.07770   2.07891
 Alpha virt. eigenvalues --    2.08294   2.08317   2.08746   2.09226   2.09468
 Alpha virt. eigenvalues --    2.09921   2.10157   2.10387   2.10721   2.10815
 Alpha virt. eigenvalues --    2.11306   2.11472   2.11799   2.12166   2.12305
 Alpha virt. eigenvalues --    2.12749   2.12871   2.13015   2.13307   2.13654
 Alpha virt. eigenvalues --    2.13935   2.14409   2.14820   2.15254   2.15510
 Alpha virt. eigenvalues --    2.15774   2.16023   2.16386   2.16743   2.17043
 Alpha virt. eigenvalues --    2.17300   2.17389   2.17630   2.17698   2.17810
 Alpha virt. eigenvalues --    2.18241   2.18540   2.18579   2.18980   2.19298
 Alpha virt. eigenvalues --    2.19740   2.19925   2.19985   2.20475   2.20713
 Alpha virt. eigenvalues --    2.20946   2.21389   2.21625   2.21755   2.22155
 Alpha virt. eigenvalues --    2.22285   2.22384   2.22499   2.22871   2.23384
 Alpha virt. eigenvalues --    2.23672   2.24425   2.24449   2.24983   2.25432
 Alpha virt. eigenvalues --    2.25729   2.25910   2.26153   2.26603   2.27087
 Alpha virt. eigenvalues --    2.27528   2.27902   2.28105   2.28799   2.28848
 Alpha virt. eigenvalues --    2.29095   2.29317   2.29621   2.30011   2.30692
 Alpha virt. eigenvalues --    2.31060   2.31184   2.31300   2.31762   2.31948
 Alpha virt. eigenvalues --    2.32157   2.32417   2.32890   2.33579   2.33662
 Alpha virt. eigenvalues --    2.34124   2.34401   2.34521   2.34959   2.35179
 Alpha virt. eigenvalues --    2.35275   2.35418   2.35691   2.36103   2.36511
 Alpha virt. eigenvalues --    2.37063   2.37283   2.37538   2.37770   2.38265
 Alpha virt. eigenvalues --    2.38843   2.39168   2.39483   2.39687   2.40902
 Alpha virt. eigenvalues --    2.41000   2.41181   2.41356   2.41617   2.42536
 Alpha virt. eigenvalues --    2.42700   2.42756   2.43063   2.43250   2.43598
 Alpha virt. eigenvalues --    2.44045   2.44100   2.44282   2.44631   2.45009
 Alpha virt. eigenvalues --    2.45088   2.45369   2.45864   2.46178   2.46425
 Alpha virt. eigenvalues --    2.46950   2.47178   2.47934   2.48413   2.48504
 Alpha virt. eigenvalues --    2.48650   2.48987   2.49312   2.49518   2.50102
 Alpha virt. eigenvalues --    2.51100   2.51339   2.51914   2.52040   2.52397
 Alpha virt. eigenvalues --    2.52637   2.53109   2.53332   2.53361   2.53649
 Alpha virt. eigenvalues --    2.53945   2.54483   2.54828   2.55701   2.55915
 Alpha virt. eigenvalues --    2.56061   2.56226   2.56675   2.57163   2.57527
 Alpha virt. eigenvalues --    2.57790   2.57846   2.57915   2.58430   2.58519
 Alpha virt. eigenvalues --    2.58939   2.59057   2.59354   2.59749   2.60052
 Alpha virt. eigenvalues --    2.60389   2.60520   2.60860   2.61010   2.61189
 Alpha virt. eigenvalues --    2.61320   2.61522   2.61583   2.62015   2.62237
 Alpha virt. eigenvalues --    2.62464   2.62780   2.63079   2.63500   2.63644
 Alpha virt. eigenvalues --    2.63959   2.64606   2.64682   2.65096   2.65347
 Alpha virt. eigenvalues --    2.66122   2.66390   2.67447   2.67711   2.68039
 Alpha virt. eigenvalues --    2.68507   2.69110   2.69347   2.69655   2.69977
 Alpha virt. eigenvalues --    2.70085   2.70196   2.70447   2.70540   2.70942
 Alpha virt. eigenvalues --    2.71271   2.71437   2.71554   2.71814   2.72209
 Alpha virt. eigenvalues --    2.72553   2.72861   2.73116   2.73452   2.73636
 Alpha virt. eigenvalues --    2.73838   2.74112   2.74299   2.74360   2.74669
 Alpha virt. eigenvalues --    2.75103   2.75517   2.75812   2.75904   2.76101
 Alpha virt. eigenvalues --    2.76444   2.76510   2.76681   2.76851   2.77046
 Alpha virt. eigenvalues --    2.77364   2.77517   2.77619   2.77703   2.78378
 Alpha virt. eigenvalues --    2.78866   2.79148   2.79401   2.79577   2.79823
 Alpha virt. eigenvalues --    2.80285   2.80411   2.80720   2.81029   2.81395
 Alpha virt. eigenvalues --    2.81801   2.82028   2.82653   2.82828   2.83054
 Alpha virt. eigenvalues --    2.83148   2.83460   2.83862   2.83883   2.84098
 Alpha virt. eigenvalues --    2.85006   2.85054   2.85271   2.85405   2.85659
 Alpha virt. eigenvalues --    2.85944   2.86069   2.86298   2.86654   2.86666
 Alpha virt. eigenvalues --    2.87425   2.87827   2.88173   2.88629   2.89022
 Alpha virt. eigenvalues --    2.89108   2.89221   2.89506   2.90112   2.90232
 Alpha virt. eigenvalues --    2.90828   2.91199   2.91322   2.91657   2.91856
 Alpha virt. eigenvalues --    2.92147   2.92486   2.93014   2.93175   2.93585
 Alpha virt. eigenvalues --    2.93746   2.93944   2.94041   2.94074   2.94348
 Alpha virt. eigenvalues --    2.94457   2.95523   2.95736   2.95972   2.96261
 Alpha virt. eigenvalues --    2.96328   2.96584   2.96888   2.97378   2.97547
 Alpha virt. eigenvalues --    2.98139   2.98248   2.98575   2.99499   2.99848
 Alpha virt. eigenvalues --    3.00125   3.00222   3.00790   3.01119   3.01363
 Alpha virt. eigenvalues --    3.01627   3.01760   3.01848   3.02036   3.02322
 Alpha virt. eigenvalues --    3.02534   3.02970   3.03653   3.04198   3.04331
 Alpha virt. eigenvalues --    3.04741   3.05454   3.05825   3.06302   3.06669
 Alpha virt. eigenvalues --    3.06967   3.07809   3.08902   3.09173   3.09519
 Alpha virt. eigenvalues --    3.10562   3.10673   3.11189   3.11388   3.11820
 Alpha virt. eigenvalues --    3.11898   3.12528   3.12635   3.13080   3.14749
 Alpha virt. eigenvalues --    3.14944   3.14986   3.16182   3.16367   3.16738
 Alpha virt. eigenvalues --    3.17180   3.17821   3.17871   3.18062   3.18349
 Alpha virt. eigenvalues --    3.18529   3.18753   3.18989   3.19112   3.19564
 Alpha virt. eigenvalues --    3.20210   3.20388   3.20636   3.20969   3.21216
 Alpha virt. eigenvalues --    3.21269   3.21547   3.21784   3.23294   3.23438
 Alpha virt. eigenvalues --    3.23850   3.24353   3.24912   3.25170   3.25263
 Alpha virt. eigenvalues --    3.26066   3.26435   3.26579   3.26858   3.26918
 Alpha virt. eigenvalues --    3.27066   3.27658   3.28151   3.28467   3.29439
 Alpha virt. eigenvalues --    3.30674   3.31926   3.33212   3.33300   3.33384
 Alpha virt. eigenvalues --    3.34844   3.35168   3.37118   3.39168   3.42183
 Alpha virt. eigenvalues --    3.42733   3.43145   3.46861   3.48991   3.50168
 Alpha virt. eigenvalues --    3.52095   3.53285   3.53802   3.55048   3.55938
 Alpha virt. eigenvalues --    3.56826   3.56977   3.59317   3.59433   3.59568
 Alpha virt. eigenvalues --    3.60741   3.61212   3.61633   3.61773   3.62558
 Alpha virt. eigenvalues --    3.64434   3.66470   3.67676   3.68357   3.68717
 Alpha virt. eigenvalues --    3.69283   3.69519   3.69806   3.70160   3.71471
 Alpha virt. eigenvalues --    3.71798   3.72021   3.72141   3.72208   3.72938
 Alpha virt. eigenvalues --    3.73672   3.74064   3.74434   3.75543   3.76509
 Alpha virt. eigenvalues --    3.77750   3.78131   3.80581   3.81941
          Condensed to atoms (all electrons):
 Mulliken charges:
               1
     1  C    0.069863
     2  C    0.025401
     3  O   -0.292443
     4  H    0.039804
     5  H    0.001285
     6  H    0.035542
     7  N   -0.112854
     8  C    0.056242
     9  C    0.060075
    10  O   -0.277980
    11  C    0.080992
    12  C    0.162974
    13  O   -0.404403
    14  O   -0.455730
    15  H    0.110949
    16  H    0.039050
    17  H    0.006027
    18  H   -0.004266
    19  N   -0.149358
    20  C    0.187562
    21  C    0.059698
    22  O   -0.319599
    23  C   -0.067915
    24  C    0.030394
    25  C   -0.062748
    26  C    0.045097
    27  N    0.089777
    28  H    0.163027
    29  H   -0.008013
    30  H    0.039394
    31  H    0.036990
    32  H   -0.000221
    33  H    0.008766
    34  H    0.028984
    35  H    0.075657
    36  H    0.070930
    37  H    0.081996
    38  H    0.194063
    39  H    0.180277
    40  H    0.176357
    41  N   -0.148854
    42  C    0.171545
    43  C    0.058084
    44  O   -0.288614
    45  C    0.037304
    46  C    0.099175
    47  O   -0.492552
    48  O   -0.375594
    49  H    0.154729
    50  H    0.012905
    51  H   -0.023772
    52  H    0.018154
    53  N   -0.171172
    54  C    0.257870
    55  C    0.052809
    56  O   -0.275910
    57  H    0.149409
    58  H   -0.001279
    59  H    0.021966
    60  N   -0.172203
    61  C    0.090361
    62  C    0.030790
    63  O   -0.293429
    64  C    0.159039
    65  C    0.089679
    66  N   -0.038964
    67  O   -0.381792
    68  H    0.138996
    69  H    0.046274
    70  H    0.063788
    71  H   -0.007977
    72  H    0.131176
    73  H    0.116634
    74  N   -0.158571
    75  C    0.235738
    76  C    0.026316
    77  O   -0.289831
    78  H    0.144122
    79  H    0.026928
    80  H    0.043380
    81  N   -0.138636
    82  C    0.129613
    83  C    0.093278
    84  O   -0.362333
    85  C    0.121704
    86  C   -0.083919
    87  C   -0.015723
    88  C    0.005840
    89  C   -0.015013
    90  C   -0.035844
    91  C    0.193961
    92  O   -0.206746
    93  H    0.147995
    94  H    0.026301
    95  H   -0.033431
    96  H    0.032429
    97  H   -0.052378
    98  H    0.000601
    99  H   -0.036692
   100  H   -0.040391
   101  H    0.179742
   102  N   -0.118465
   103  C    0.151975
   104  C    0.022816
   105  O   -0.285294
   106  C   -0.056916
   107  C    0.004603
   108  C    0.064419
   109  C    0.021273
   110  H    0.132656
   111  H    0.018571
   112  H   -0.019936
   113  H    0.004025
   114  H    0.015617
   115  H    0.011809
   116  H    0.003815
   117  H    0.042367
   118  H    0.003862
   119  H    0.002978
   120  H    0.008151
   121  N   -0.115653
   122  C    0.100751
   123  C    0.113439
   124  O   -0.244783
   125  C    0.182246
   126  O   -0.289797
   127  H    0.148394
   128  H    0.043312
   129  H   -0.022027
   130  H    0.005286
   131  H    0.188938
   132  N   -0.136032
   133  C    0.096899
   134  C    0.031040
   135  O   -0.254088
   136  C    0.043760
   137  H    0.113284
   138  H    0.021993
   139  H    0.053058
   140  H    0.025214
   141  H   -0.010484
   142  N   -0.125297
   143  C    0.101265
   144  C    0.079027
   145  O   -0.266529
   146  C    0.043271
   147  H    0.085563
   148  H    0.021265
   149  H    0.029933
   150  H    0.017425
   151  H   -0.018557
   152  N   -0.146030
   153  C    0.117717
   154  C    0.065132
   155  O   -0.289023
   156  C   -0.021199
   157  C    0.100802
   158  C    0.094829
   159  O   -0.386135
   160  O   -0.409872
   161  H    0.132895
   162  H   -0.021758
   163  H    0.045882
   164  H   -0.023949
   165  H   -0.053478
   166  H   -0.017688
   167  N   -0.150677
   168  C    0.155949
   169  H    0.028598
   170  H    0.015152
   171  H    0.005974
   172  H    0.126235
   173  Ca   1.275515
   174  O   -0.275596
   175  H    0.182894
   176  H    0.188732
 Sum of Mulliken charges =  -0.00000
 Mulliken charges with hydrogens summed into heavy atoms:
               1
     1  C    0.146494
     2  C    0.025401
     3  O   -0.292443
     7  N   -0.001905
     8  C    0.095292
     9  C    0.060075
    10  O   -0.277980
    11  C    0.082754
    12  C    0.162974
    13  O   -0.404403
    14  O   -0.455730
    19  N    0.013669
    20  C    0.179549
    21  C    0.059698
    22  O   -0.319599
    23  C    0.008469
    24  C    0.038939
    25  C    0.041892
    26  C    0.198023
    27  N    0.640474
    41  N    0.005875
    42  C    0.184450
    43  C    0.058084
    44  O   -0.288614
    45  C    0.031686
    46  C    0.099175
    47  O   -0.492552
    48  O   -0.375594
    53  N   -0.021763
    54  C    0.278557
    55  C    0.052809
    56  O   -0.275910
    60  N   -0.033207
    61  C    0.136635
    62  C    0.030790
    63  O   -0.293429
    64  C    0.214850
    65  C    0.089679
    66  N    0.208846
    67  O   -0.381792
    74  N   -0.014449
    75  C    0.306046
    76  C    0.026316
    77  O   -0.289831
    81  N    0.009358
    82  C    0.155914
    83  C    0.093278
    84  O   -0.362333
    85  C    0.120703
    86  C   -0.083919
    87  C   -0.068100
    88  C    0.006441
    89  C   -0.051706
    90  C   -0.076235
    91  C    0.193961
    92  O   -0.027004
   102  N    0.014190
   103  C    0.170546
   104  C    0.022816
   105  O   -0.285294
   106  C   -0.076852
   107  C    0.024245
   108  C    0.122410
   109  C    0.036264
   121  N    0.032741
   122  C    0.144063
   123  C    0.113439
   124  O   -0.244783
   125  C    0.165506
   126  O   -0.100858
   132  N   -0.022748
   133  C    0.118892
   134  C    0.031040
   135  O   -0.254088
   136  C    0.111547
   142  N   -0.039734
   143  C    0.122531
   144  C    0.079027
   145  O   -0.266529
   146  C    0.072072
   152  N   -0.013135
   153  C    0.095959
   154  C    0.065132
   155  O   -0.289023
   156  C    0.000734
   157  C    0.029637
   158  C    0.094829
   159  O   -0.386135
   160  O   -0.409872
   167  N   -0.024442
   168  C    0.205672
   173  Ca   1.275515
   174  O    0.096031
 DipInt: DoE/N= T F RetVal/Mat= T F Init=T NMatP=  1 IDeriv=0 Min/MaxMlt=  0  4
 Entering OneElI...
 OneElI was handed  1333951383 working-precision words.
 Multipole integrals L=0 to 4 MinM= 0 MaxM= 0.
 Requested accuracy = 0.1000D-12
 ShPair: Thresh= 1.00D-13 NBox=     0 BxSize= 0.00D+00 RnKept= 2.55D+01
         NSMCal=               327645 NSMKep=              160859
 PrmmSu-InSpLW:  IPartL=    0 NPrtUS=    1 NPrtUL=    1 DoSpLW=F IThBeg=    0 IThEnd=    0 NThAct=    1.
 PrsmSu:  NPrtUS=   1 ThrOK=F IAlg=1 NPAlg=1 LenDen=           0 ISkipM=0 DoSpLW=F IThBeg=    0 IThEnd=    0.
 Prism:   IPart=     0 DynPar=F LinDyn=F Incr=         512.
 PRISM was handed  1323862169 working-precision words and160859 shell-pairs
 IPart=  0 NShTot=      160859 NBatch=         367 AvBLen=       438.3
 PrsmSu-ThDecC:  IPartSL=    0    0 NPrtUSL=    1    1 IThBeg=    0 IThEnd=    0 CPU=   -1 GPU=   -1 NThAct=    1.
 PrSmSu:  NxtVal=            513.
 Electronic moments (au):
       -716.00000000         10.89949983         -1.09316526         -4.39542931
     -50901.87562178     -33017.66747708     -11444.50349458        110.05250544
        -55.41833406         14.46611541     -71766.37192368      -3862.46127199
     -24369.41257122      38874.63306824      84164.49632239      47187.21219643
     -11751.26627411      -3610.11090218      26526.20675773     -10188.71614396
   -7034090.74575716   -3726812.48298665    -577114.56462729     232622.75861800
     237014.03492289    -944516.75169061      13207.24477362     -64410.12613992
      24306.03989573   -2367864.37485035    -591237.07475805    -306334.23773062
    -148625.12710761        492.46625267      57424.34299385
 Electronic spatial extent (au):  <R**2>=          95364.0466
 DipInt: DoE/N= F T RetVal/Mat= T F Init=T NMatP=  1 IDeriv=0 Min/MaxMlt=  0  4
 Nuclear    moments (au):
        716.00000000          0.00000000         -0.00000000         -0.00000000
      50461.85847777      32705.62316782      11048.82219292         -0.00000000
          0.00000000          0.00000000      72144.93352743       5743.35597897
      24449.75407526     -36431.76712039     -84189.90028419     -47933.39593036
      12009.84114158       3370.84358420     -27098.08291037       9784.72778890
    6844778.38567468    3642610.46231732     539050.48097981    -220812.10252513
    -243574.27083741     971827.22453526     -18836.43322380      63943.98958869
     -22311.58797552    2335174.06591033     558265.69909042     281044.28343046
     149808.49702548      -7282.39334893     -57113.30009728
 Total      moments (au):
         -0.00000000         10.89949983         -1.09316526         -4.39542931
       -440.01714401       -312.04430927       -395.68130165        110.05250544
        -55.41833406         14.46611541        378.56160375       1880.89470698
         80.34150404       2442.86594785        -25.40396180       -746.18373393
        258.57486747       -239.26731798       -571.87615264       -403.98835506
    -189312.36008248     -84202.02066932     -38064.08364749      11810.65609287
      -6560.23591452      27310.47284465      -5629.18845019       -466.13655123
       1994.45192020     -32690.30894003     -32971.37566763     -25289.95430016
       1183.36991786      -6789.92709626        311.04289656
 Traceless Quadrup. (au):
        -57.43622570         70.53660904        -13.10038334        110.05250544
        -55.41833406         14.46611541
 Charge=             -0.0000 electrons
 Dipole moment (field-independent basis, Debye):
    X=             27.7038    Y=             -2.7785    Z=            -11.1721  Tot=             30.0006
 Quadrupole moment (field-independent basis, Debye-Ang):
   XX=           -591.8381   YY=           -419.7103   ZZ=           -532.2049
   XY=            148.0244   XZ=            -74.5396   YZ=             19.4574
 Traceless Quadrupole moment (field-independent basis, Debye-Ang):
   XX=            -77.2537   YY=             94.8742   ZZ=            -17.6205
   XY=            148.0244   XZ=            -74.5396   YZ=             19.4574
 Octapole moment (field-independent basis, Debye-Ang**2):
  XXX=            269.4456  YYY=           1338.7484  ZZZ=             57.1840  XYY=           1738.7379
  XXY=            -18.0816  XXZ=           -531.1048  XZZ=            184.0436  YZZ=           -170.3013
  YYZ=           -407.0394  XYZ=           -287.5433
 Hexadecapole moment (field-independent basis, Debye-Ang**3):
 XXXX=         -71304.1126 YYYY=         -31714.5186 ZZZZ=         -14336.7591 XXXY=           4448.4594
 XXXZ=          -2470.8994 YYYX=          10286.4337 YYYZ=          -2120.2223 ZZZX=           -175.5694
 ZZZY=            751.2062 XXYY=         -12312.7379 XXZZ=         -12418.6011 YYZZ=          -9525.4095
 XXYZ=            445.7139 YYXZ=          -2557.4121 ZZXY=            117.1537
 N-N= 2.167992573238D+04 E-N=-5.584153118742D+04  KE= 5.290455218148D+03
 Leave Link  601 at Wed Sep 18 17:27:04 2019, MaxMem=  1342177280 cpu:              45.8 elap:               1.2
 FitSet:  NAtFit=   176 NAtPot=   176 NAtFrz=     0 MDM=   180 TotChg=   0.00000
 Merz-Kollman atomic radii used.
 Read replacement radii for each type of atom:
 Rad(20) =   1.700000000000D+00
 Atom Element Radius
    1     6    1.50
    2     6    1.50
    3     8    1.40
    4     1    1.20
    5     1    1.20
    6     1    1.20
    7     7    1.50
    8     6    1.50
    9     6    1.50
   10     8    1.40
   11     6    1.50
   12     6    1.50
   13     8    1.40
   14     8    1.40
   15     1    1.20
   16     1    1.20
   17     1    1.20
   18     1    1.20
   19     7    1.50
   20     6    1.50
   21     6    1.50
   22     8    1.40
   23     6    1.50
   24     6    1.50
   25     6    1.50
   26     6    1.50
   27     7    1.50
   28     1    1.20
   29     1    1.20
   30     1    1.20
   31     1    1.20
   32     1    1.20
   33     1    1.20
   34     1    1.20
   35     1    1.20
   36     1    1.20
   37     1    1.20
   38     1    1.20
   39     1    1.20
   40     1    1.20
   41     7    1.50
   42     6    1.50
   43     6    1.50
   44     8    1.40
   45     6    1.50
   46     6    1.50
   47     8    1.40
   48     8    1.40
   49     1    1.20
   50     1    1.20
   51     1    1.20
   52     1    1.20
   53     7    1.50
   54     6    1.50
   55     6    1.50
   56     8    1.40
   57     1    1.20
   58     1    1.20
   59     1    1.20
   60     7    1.50
   61     6    1.50
   62     6    1.50
   63     8    1.40
   64     6    1.50
   65     6    1.50
   66     7    1.50
   67     8    1.40
   68     1    1.20
   69     1    1.20
   70     1    1.20
   71     1    1.20
   72     1    1.20
   73     1    1.20
   74     7    1.50
   75     6    1.50
   76     6    1.50
   77     8    1.40
   78     1    1.20
   79     1    1.20
   80     1    1.20
   81     7    1.50
   82     6    1.50
   83     6    1.50
   84     8    1.40
   85     6    1.50
   86     6    1.50
   87     6    1.50
   88     6    1.50
   89     6    1.50
   90     6    1.50
   91     6    1.50
   92     8    1.40
   93     1    1.20
   94     1    1.20
   95     1    1.20
   96     1    1.20
   97     1    1.20
   98     1    1.20
   99     1    1.20
  100     1    1.20
  101     1    1.20
  102     7    1.50
  103     6    1.50
  104     6    1.50
  105     8    1.40
  106     6    1.50
  107     6    1.50
  108     6    1.50
  109     6    1.50
  110     1    1.20
  111     1    1.20
  112     1    1.20
  113     1    1.20
  114     1    1.20
  115     1    1.20
  116     1    1.20
  117     1    1.20
  118     1    1.20
  119     1    1.20
  120     1    1.20
  121     7    1.50
  122     6    1.50
  123     6    1.50
  124     8    1.40
  125     6    1.50
  126     8    1.40
  127     1    1.20
  128     1    1.20
  129     1    1.20
  130     1    1.20
  131     1    1.20
  132     7    1.50
  133     6    1.50
  134     6    1.50
  135     8    1.40
  136     6    1.50
  137     1    1.20
  138     1    1.20
  139     1    1.20
  140     1    1.20
  141     1    1.20
  142     7    1.50
  143     6    1.50
  144     6    1.50
  145     8    1.40
  146     6    1.50
  147     1    1.20
  148     1    1.20
  149     1    1.20
  150     1    1.20
  151     1    1.20
  152     7    1.50
  153     6    1.50
  154     6    1.50
  155     8    1.40
  156     6    1.50
  157     6    1.50
  158     6    1.50
  159     8    1.40
  160     8    1.40
  161     1    1.20
  162     1    1.20
  163     1    1.20
  164     1    1.20
  165     1    1.20
  166     1    1.20
  167     7    1.50
  168     6    1.50
  169     1    1.20
  170     1    1.20
  171     1    1.20
  172     1    1.20
  173    20    1.70
  174     8    1.40
[...]
 **** Fit      -0.016750
 **** Fit      -0.018249
 **** Fit      -0.021522
 **** Fit      -0.026670
 **** Fit      -0.045583
 **** Fit      -0.045122
 **** Fit      -0.043595
 **** Fit      -0.041187
 **** Fit      -0.038062
 **** Fit      -0.034366
 **** Fit      -0.030237
 **** Fit      -0.025834
 **** Fit      -0.021362
 **** Fit      -0.017117
 **** Fit      -0.013497
 **** Fit      -0.010968
 **** Fit      -0.009967
 **** Fit      -0.050827
 **** Fit      -0.049563
 **** Fit      -0.047100
 **** Fit      -0.043645
 **** Fit      -0.039403
 **** Fit      -0.034550
 **** Fit      -0.029243
 **** Fit      -0.023643
 **** Fit      -0.017971
 **** Fit      -0.012554
 **** Fit      -0.007837
 **** Fit      -0.041855
 **** Fit      -0.035543
 **** Fit      -0.028846
 **** Fit      -0.021927
 **** Fit      -0.015003
 **** Fit      -0.008387
 **** Fit      -0.035491
 **** Fit      -0.026686
 **** Fit      -0.017950
 **** Fit      -0.009510
 **** Fit       0.020677
 **** Fit       0.017249
 **** Fit       0.017190
 **** Fit       0.011631
 **** Fit       0.004859
 **** Fit      -0.004934
 **** Fit       0.018218
 **** Fit       0.010795
 **** Fit       0.001972
 **** Fit       0.011443
 **** Fit       0.001010
 **** Fit       0.002389
 **** Fit      -0.010051
 **** Fit      -0.013864
 **** Fit      -0.019618
 **** Fit      -0.027648
 **** Fit      -0.037963
 **** Fit      -0.012014
 **** Fit      -0.015511
 **** Fit      -0.019907
 **** Fit      -0.025990
 **** Fit      -0.034378
 **** Fit      -0.045476
 **** Fit      -0.009271
 **** Fit      -0.014382
 **** Fit      -0.019140
 **** Fit      -0.024358
 **** Fit      -0.030932
 **** Fit      -0.039718
 **** Fit      -0.051498
 **** Fit       0.019554
 **** Fit       0.011925
 **** Fit       0.003981
 **** Fit      -0.003215
 **** Fit      -0.015158
 **** Fit      -0.021281
 **** Fit      -0.027643
 **** Fit      -0.035192
 **** Fit      -0.045018
 **** Fit       0.004497
 **** Fit       0.009941
 **** Fit       0.011505
 **** Fit       0.009447
 **** Fit       0.004616
 **** Fit      -0.001841
 **** Fit      -0.008679
 **** Fit      -0.022057
 **** Fit      -0.029663
 **** Fit      -0.038622
 **** Fit      -0.050252
 **** Fit      -0.020654
 **** Fit      -0.010214
 **** Fit      -0.005321
 **** Fit      -0.005304
 **** Fit      -0.009073
 **** Fit      -0.015089
 **** Fit      -0.030046
 **** Fit      -0.039923
 **** Fit      -0.053220
 **** Fit      -0.033806
 **** Fit      -0.022711
 **** Fit      -0.019713
 **** Fit      -0.022931
 **** Fit      -0.039337
 **** Fit      -0.053371
 **** Fit      -0.043744
 **** Fit      -0.034430
 **** Fit      -0.050279
 **** Fit      -0.009597
 **** Fit      -0.004787
 **** Fit       0.015681
 **** Fit       0.023142
 **** Fit       0.018046
 **** Fit       0.026260
 **** Fit       0.022606
 **** Fit       0.018908
 **** Fit       0.024059
 **** Fit       0.016844
 **** Fit       0.021997
 **** Fit       0.026826
 **** Fit       0.023474
 **** Fit       0.027156
 **** Fit       0.021543
 **** Fit       0.022847
 **** Fit       0.025148
 **** Fit       0.019459
 **** Fit       0.020057
 **** Fit       0.020577
 **** Fit       0.019293
 **** Fit       0.003925
 **** Fit       0.015215
 **** Fit       0.014692
 **** Fit       0.011681
 **** Fit       0.003694
 **** Fit      -0.009653
 **** Fit       0.004965
 **** Fit      -0.006003
 **** Fit      -0.028930
 **** Fit      -0.008057
 **** Fit      -0.009717
 **** Fit      -0.003709
 **** Fit      -0.004354
 **** Fit      -0.005329
 **** Fit      -0.006578
 **** Fit      -0.008436
 **** Fit      -0.010161
 **** Fit      -0.012108
 **** Fit      -0.002528
 **** Fit      -0.002541
 **** Fit      -0.002877
 **** Fit      -0.003537
 **** Fit      -0.004470
 **** Fit      -0.005613
 **** Fit      -0.006931
 **** Fit      -0.008824
 **** Fit      -0.010454
 **** Fit      -0.012368
 **** Fit      -0.014587
 **** Fit      -0.017044
 **** Fit      -0.001981
 **** Fit      -0.001633
 **** Fit      -0.001513
 **** Fit      -0.001674
 **** Fit      -0.002145
 **** Fit      -0.002897
 **** Fit      -0.003856
 **** Fit      -0.004948
 **** Fit      -0.006130
 **** Fit      -0.007407
 **** Fit      -0.009256
 **** Fit      -0.010845
 **** Fit      -0.012780
 **** Fit      -0.015149
 **** Fit      -0.017976
 **** Fit      -0.021188
 **** Fit      -0.024593
 **** Fit      -0.002357
 **** Fit      -0.001553
 **** Fit      -0.000969
 **** Fit      -0.003039
 **** Fit      -0.004212
 **** Fit      -0.005419
 **** Fit      -0.006636
 **** Fit      -0.007890
 **** Fit      -0.022113
 **** Fit      -0.026338
 **** Fit      -0.030985
 **** Fit      -0.002469
 **** Fit      -0.001360
 **** Fit      -0.000533
 **** Fit      -0.003593
 **** Fit      -0.004915
 **** Fit      -0.006170
 **** Fit      -0.007358
 **** Fit      -0.008527
 **** Fit      -0.033852
 **** Fit      -0.000818
 **** Fit      -0.004427
 **** Fit      -0.005870
 **** Fit      -0.007151
 **** Fit      -0.008285
 **** Fit      -0.005796
 **** Fit      -0.007293
 **** Fit      -0.008538
 **** Fit      -0.007632
 **** Fit      -0.009176
 **** Fit      -0.010378
 **** Fit      -0.011607
 **** Fit      -0.015162
 **** Fit      -0.018626
 **** Fit      -0.020386
 **** Fit      -0.012829
 **** Fit      -0.015188
 **** Fit      -0.011089
 **** Fit      -0.012773
 **** Fit      -0.014936
 **** Fit      -0.017690
 **** Fit      -0.021056
 **** Fit      -0.009737
 **** Fit      -0.011451
 **** Fit      -0.012984
 **** Fit      -0.014990
 **** Fit      -0.017622
 **** Fit      -0.021032
 **** Fit      -0.025335
 **** Fit      -0.009202
 **** Fit      -0.010240
 **** Fit      -0.012108
 **** Fit      -0.013479
 **** Fit      -0.015291
 **** Fit      -0.017693
 **** Fit      -0.020866
 **** Fit      -0.025030
 **** Fit      -0.030441
 **** Fit      -0.009322
 **** Fit      -0.010164
 **** Fit      -0.011047
 **** Fit      -0.013159
 **** Fit      -0.014454
 **** Fit      -0.016214
 **** Fit      -0.018595
 **** Fit      -0.021798
 **** Fit      -0.026108
 **** Fit      -0.031935
 **** Fit      -0.010743
 **** Fit      -0.011439
 **** Fit      -0.012198
 **** Fit      -0.014720
 **** Fit      -0.015915
 **** Fit      -0.017593
 **** Fit      -0.019898
 **** Fit      -0.023027
 **** Fit      -0.027270
 **** Fit      -0.033086
 **** Fit      -0.012222
 **** Fit      -0.012781
 **** Fit      -0.013281
 **** Fit      -0.013882
 **** Fit      -0.016934
 **** Fit      -0.018044
 **** Fit      -0.019685
 **** Fit      -0.021997
 **** Fit      -0.025166
 **** Fit      -0.029481
 **** Fit      -0.035422
 **** Fit      -0.015355
 **** Fit      -0.015600
 **** Fit      -0.015839
 **** Fit      -0.016238
 **** Fit      -0.019987
 **** Fit      -0.021042
 **** Fit      -0.022768
 **** Fit      -0.025305
 **** Fit      -0.028853
 **** Fit      -0.033732
 **** Fit      -0.040501
 **** Fit      -0.019846
 **** Fit      -0.019587
 **** Fit      -0.019397
 **** Fit      -0.019480
 **** Fit      -0.024118
 **** Fit      -0.025087
 **** Fit      -0.026968
 **** Fit      -0.029900
 **** Fit      -0.034083
 **** Fit      -0.039844
 **** Fit      -0.025442
 **** Fit      -0.024441
 **** Fit      -0.023944
 **** Fit      -0.029632
 **** Fit      -0.030387
 **** Fit      -0.032405
 **** Fit      -0.035782
 **** Fit      -0.040649
 **** Fit      -0.047201
 **** Fit      -0.030059
 **** Fit      -0.036876
 **** Fit      -0.037286
 **** Fit      -0.039714
 **** Fit      -0.044133
 **** Fit      -0.007366
 **** Fit      -0.007746
 **** Fit      -0.009090
 **** Fit      -0.008797
 **** Fit      -0.007099
 **** Fit      -0.005965
 **** Fit      -0.006305
 **** Fit      -0.008227
 **** Fit      -0.009896
 **** Fit      -0.011213
 **** Fit      -0.011603
 **** Fit      -0.010747
 **** Fit      -0.008942
 **** Fit      -0.006967
 **** Fit      -0.005517
 **** Fit      -0.004831
 **** Fit      -0.004859
 **** Fit      -0.005501
 **** Fit      -0.006671
 **** Fit      -0.008795
 **** Fit      -0.010565
 **** Fit      -0.012340
 **** Fit      -0.013837
 **** Fit      -0.014686
 **** Fit      -0.014570
 **** Fit      -0.013413
 **** Fit      -0.011451
 **** Fit      -0.009143
 **** Fit      -0.007014
 **** Fit      -0.005410
 **** Fit      -0.004400
 **** Fit      -0.003917
 **** Fit      -0.003866
 **** Fit      -0.004187
 **** Fit      -0.004858
 **** Fit      -0.005870
 **** Fit      -0.007199
 **** Fit      -0.011364
 **** Fit      -0.013448
 **** Fit      -0.015537
 **** Fit      -0.017374
 **** Fit      -0.018612
 **** Fit      -0.018923
 **** Fit      -0.018150
 **** Fit      -0.016388
 **** Fit      -0.013918
 **** Fit      -0.011124
 **** Fit      -0.008478
 **** Fit      -0.006346
 **** Fit      -0.004818
 **** Fit      -0.003828
 **** Fit      -0.003284
 **** Fit      -0.003088
 **** Fit      -0.003174
 **** Fit      -0.003525
 **** Fit      -0.017303
 **** Fit      -0.019949
 **** Fit      -0.022317
 **** Fit      -0.023998
 **** Fit      -0.024600
 **** Fit      -0.023933
 **** Fit      -0.022101
 **** Fit      -0.019390
 **** Fit      -0.016107
 **** Fit      -0.012624
 **** Fit      -0.009456
 **** Fit      -0.006955
 **** Fit      -0.005126
 **** Fit      -0.003853
 **** Fit      -0.003044
 **** Fit      -0.002604
 **** Fit      -0.002432
 **** Fit      -0.025826
 **** Fit      -0.029001
 **** Fit      -0.031358
 **** Fit      -0.032386
 **** Fit      -0.031844
 **** Fit      -0.029891
 **** Fit      -0.026929
 **** Fit      -0.023289
 **** Fit      -0.019173
 **** Fit      -0.014950
 **** Fit      -0.011194
 **** Fit      -0.008242
 **** Fit      -0.006034
 **** Fit      -0.004394
 **** Fit      -0.003232
 **** Fit      -0.002486
 **** Fit      -0.035546
 **** Fit      -0.034070
 **** Fit      -0.029330
 **** Fit      -0.024099
 **** Fit      -0.018740
 **** Fit      -0.013979
 **** Fit      -0.010265
 **** Fit      -0.007506
 **** Fit      -0.005389
 **** Fit      -0.003773
 **** Fit      -0.036268
 **** Fit      -0.029820
 **** Fit      -0.023251
 **** Fit      -0.017400
 **** Fit      -0.000523
 **** Fit      -0.000340
 **** Fit      -0.000641
 **** Fit      -0.001372
 **** Fit       0.000392
 **** Fit       0.000740
 **** Fit       0.000681
 **** Fit       0.000224
 **** Fit      -0.000593
 **** Fit      -0.001686
 **** Fit      -0.000061
 **** Fit       0.000938
 **** Fit       0.001544
 **** Fit       0.001781
 **** Fit       0.001642
 **** Fit       0.001124
 **** Fit       0.000252
 **** Fit      -0.000911
 **** Fit      -0.002266
 **** Fit       0.001171
 **** Fit       0.002030
 **** Fit       0.002537
 **** Fit       0.002700
 **** Fit       0.002499
 **** Fit       0.001924
 **** Fit       0.000991
 **** Fit      -0.000248
 **** Fit      -0.001707
 **** Fit      -0.003282
 **** Fit       0.001225
 **** Fit       0.002354
 **** Fit       0.003094
 **** Fit       0.003457
 **** Fit       0.003424
 **** Fit       0.002964
 **** Fit       0.002073
 **** Fit       0.000789
 **** Fit      -0.000811
 **** Fit      -0.002616
 **** Fit      -0.004500
 **** Fit      -0.006329
 **** Fit       0.002246
 **** Fit       0.003296
 **** Fit       0.003937
 **** Fit       0.004144
 **** Fit       0.003869
 **** Fit       0.003082
 **** Fit       0.001798
 **** Fit       0.000084
 **** Fit      -0.001947
 **** Fit      -0.004151
 **** Fit      -0.006378
 **** Fit      -0.008479
 **** Fit       0.002483
 **** Fit       0.003686
 **** Fit       0.004418
 **** Fit       0.004603
 **** Fit       0.004164
 **** Fit       0.003063
 **** Fit       0.001331
 **** Fit      -0.000919
 **** Fit      -0.003519
 **** Fit      -0.006273
 **** Fit      -0.008986
 **** Fit       0.002700
 **** Fit       0.004102
 **** Fit       0.004783
 **** Fit       0.004589
 **** Fit       0.003411
 **** Fit       0.001263
 **** Fit      -0.001689
 **** Fit      -0.005162
 **** Fit      -0.008836
 **** Fit      -0.012406
 **** Fit       0.003781
 **** Fit      -0.002275
 **** Fit      -0.007096
 **** Fit      -0.012285
 **** Fit      -0.013857
 **** Fit       0.029009
 **** Fit       0.032464
 **** Fit       0.005614
 **** Fit      -0.017069
 **** Fit       0.014181
 **** Fit       0.020031
 **** Fit       0.022398
 **** Fit       0.020946
 **** Fit       0.014448
 **** Fit       0.001666
 **** Fit      -0.020795
 **** Fit      -0.026264
 **** Fit      -0.008466
 **** Fit       0.003304
 **** Fit       0.008764
 **** Fit       0.007223
 **** Fit      -0.002536
 **** Fit      -0.024154
 **** Fit      -0.027127
 **** Fit      -0.009994
 **** Fit      -0.008288
 **** Fit      -0.026408
 **** Fit       0.041865
 **** Fit       0.036591
 **** Fit       0.041908
 **** Fit       0.046864
 **** Fit       0.025964
 **** Fit       0.030013
 **** Fit       0.035283
 **** Fit       0.040962
 **** Fit       0.046463
 **** Fit       0.033034
 **** Fit       0.036233
 **** Fit       0.041776
 **** Fit       0.047849
 **** Fit       0.053591
 **** Fit       0.044426
 **** Fit       0.020272
 **** Fit       0.032940
 **** Fit       0.022283
 **** Fit       0.016868
 **** Fit       0.017063
 **** Fit       0.021607
 **** Fit       0.040866
 **** Fit       0.031155
 **** Fit       0.026548
 **** Fit       0.027174
 **** Fit       0.031501
 **** Fit       0.059753
 **** Fit       0.063245
 **** Fit       0.056555
 **** Fit       0.045176
 **** Fit       0.037194
 **** Fit       0.035384
 **** Fit       0.038852
 **** Fit       0.044878
 **** Fit       0.051222
 **** Fit       0.056687
 **** Fit       0.061241
 **** Fit       0.065294
 **** Fit       0.067909
 **** Fit       0.057259
 **** Fit       0.048549
 **** Fit       0.043565
 **** Fit       0.047331
 **** Fit       0.053996
 **** Fit       0.058672
 **** Fit       0.051380
 **** Fit       0.039110
 **** Fit       0.043379
 **** Fit       0.043884
 **** Fit       0.045671
 **** Fit       0.046305
 **** Fit       0.047339
 **** Fit       0.049387
 **** Fit       0.048209
 **** Fit       0.048422
 **** Fit       0.049502
 **** Fit       0.051496
 **** Fit       0.054652
 **** Fit       0.052559
 **** Fit       0.050880
 **** Fit       0.050087
 **** Fit       0.050336
 **** Fit       0.051594
 **** Fit       0.053883
 **** Fit       0.057349
 **** Fit       0.050818
 **** Fit       0.051930
 **** Fit       0.051682
 **** Fit       0.051350
 **** Fit       0.051732
 **** Fit       0.053098
 **** Fit       0.055536
 **** Fit       0.059131
 **** Fit       0.050177
 **** Fit       0.051320
 **** Fit       0.052101
 **** Fit       0.053414
 **** Fit       0.055738
 **** Fit       0.059234
 **** Fit       0.063872
 **** Fit       0.050468
 **** Fit       0.052294
 **** Fit       0.054451
 **** Fit       0.057713
 **** Fit       0.062184
 **** Fit       0.052544
 **** Fit       0.055377
 **** Fit       0.059715
 -----------------------------------------------------------------
 Leave Link  602 at Wed Sep 18 17:27:07 2019, MaxMem=  1342177280 cpu:             111.5 elap:               2.4

 Test job not archived.
 1\1\GINC-C503-134\SP\RB3LYP\SVP\C54H83Ca1N15O23\JAEBEOMH\18-Sep-2019\0
 \\#b3lyp/svp scf=(tight,noincore) Test #IOP(5/87=12) Density=Current P
 op=(MK,readradii) iop(6/33=2) iop(6/42=6)\\CaMKII_loop3_59.0\\0,1\C,0,
 77.68,57.78,21.2\C,0,77.59,56.4,20.56\O,0,78.6,55.84,20.13\H,0,78.355,
 58.407,20.617\H,0,76.69,58.236,21.223\H,0,78.061,57.685,22.217\N,0,76.
 41,55.77,20.52\C,0,76.22,54.45,19.97\C,0,76.15,54.6,18.45\O,0,75.22,55
 .15,17.87\C,0,74.91,53.87,20.48\C,0,74.42,52.6,19.78\O,0,73.21,52.32,1
 9.94\O,0,75.17,51.88,19.09\H,0,75.64,56.19,21.01\H,0,76.96,53.7,20.27\
 H,0,74.1,54.59,20.38\H,0,75.09,53.67,21.53\N,0,77.22,54.11,17.83\C,0,7
 7.52,54.28,16.42\C,0,76.67,53.47,15.46\O,0,76.62,53.81,14.28\C,0,79.02
 ,54.09,16.21\C,0,79.7,54.59,14.94\C,0,81.21,54.33,15.05\C,0,82.03,54.9
 7,13.93\N,0,81.65,54.6,12.56\H,0,77.96,53.78,18.45\H,0,77.32,55.31,16.
 14\H,0,79.2,53.02,16.32\H,0,79.47,54.58,17.08\H,0,79.58,55.66,14.78\H,
 0,79.29,54.03,14.1\H,0,81.37,53.26,15.\H,0,81.6,54.67,16.01\H,0,83.06,
 54.67,14.13\H,0,82.02,56.05,14.11\H,0,81.88,53.67,12.24\H,0,80.66,54.7
 5,12.44\H,0,81.94,55.2,11.81\N,0,76.05,52.37,15.92\C,0,75.3,51.47,15.0
 8\C,0,73.87,51.17,15.51\O,0,73.19,50.53,14.72\C,0,76.16,50.23,14.84\C,
 0,76.77,49.46,16.01\O,0,76.41,49.72,17.18\O,0,77.52,48.48,15.83\H,0,76
 .27,52.14,16.88\H,0,75.19,51.92,14.09\H,0,77.,50.35,14.15\H,0,75.45,49
 .54,14.39\N,0,73.42,51.75,16.62\C,0,72.02,51.69,17.\C,0,71.67,50.3,17.
 51\O,0,70.66,49.72,17.12\H,0,74.12,52.16,17.23\H,0,71.4,52.05,16.19\H,
 0,71.89,52.46,17.76\N,0,72.48,49.79,18.44\C,0,72.14,48.62,19.23\C,0,72
 .11,48.9,20.72\O,0,71.99,47.95,21.49\C,0,73.16,47.54,18.89\C,0,74.46,4
 7.56,19.69\N,0,74.75,46.47,20.39\O,0,75.16,48.53,19.96\H,0,73.27,50.27
 ,18.85\H,0,71.11,48.35,19.01\H,0,73.41,47.63,17.83\H,0,72.73,46.55,18.
 99\H,0,74.42,45.57,20.07\H,0,75.5,46.51,21.06\N,0,71.92,50.16,21.14\C,
 0,71.57,50.66,22.46\C,0,72.7,50.5,23.46\O,0,72.49,50.6,24.67\H,0,72.06
 ,50.88,20.45\H,0,70.7,50.15,22.87\H,0,71.26,51.7,22.35\N,0,73.92,50.31
 ,22.95\C,0,75.11,49.91,23.68\C,0,76.37,50.56,23.13\O,0,76.4,50.86,21.9
 4\C,0,75.3,48.4,23.51\C,0,74.82,47.69,24.75\C,0,75.6,47.57,25.91\C,0,7
 3.52,47.16,24.71\C,0,75.09,46.92,27.04\C,0,73.06,46.43,25.81\C,0,73.81
 ,46.32,27.\O,0,73.38,45.66,28.11\H,0,74.04,50.35,21.95\H,0,74.98,50.16
 ,24.73\H,0,76.34,48.11,23.4\H,0,74.7,48.09,22.65\H,0,76.55,48.08,25.92
 \H,0,72.9,47.42,23.87\H,0,75.75,46.85,27.88\H,0,72.04,46.08,25.79\H,0,
 72.47,45.34,28.07\N,0,77.32,51.01,23.96\C,0,78.47,51.85,23.71\C,0,79.6
 7,50.99,24.12\O,0,79.62,50.39,25.19\C,0,78.43,53.18,24.46\C,0,77.35,54
 .14,23.97\C,0,79.75,53.92,24.28\C,0,77.01,55.3,24.89\H,0,77.23,50.68,2
 4.91\H,0,78.52,52.01,22.63\H,0,78.19,52.93,25.49\H,0,76.39,53.64,23.83
 \H,0,77.52,54.48,22.95\H,0,79.72,54.77,24.96\H,0,80.57,53.3,24.64\H,0,
 79.9,54.14,23.22\H,0,77.81,56.02,25.07\H,0,76.24,56.,24.56\H,0,76.67,5
 4.89,25.84\N,0,80.75,51.,23.34\C,0,82.02,50.37,23.64\C,0,83.23,51.29,2
 3.59\O,0,83.15,52.43,23.15\C,0,82.28,49.29,22.6\O,0,82.56,49.9,21.36\H
 ,0,80.72,51.55,22.49\H,0,82.,49.98,24.66\H,0,81.32,48.78,22.64\H,0,83.
 07,48.57,22.83\H,0,82.6,49.18,20.73\N,0,84.37,50.75,24.03\C,0,85.57,51
 .56,23.92\C,0,85.73,52.17,22.54\O,0,85.93,53.38,22.49\C,0,86.84,50.78,
 24.27\H,0,84.52,49.79,24.27\H,0,85.44,52.4,24.61\H,0,87.79,51.3,24.09\
 H,0,86.85,50.45,25.3\H,0,86.81,49.89,23.64\N,0,85.58,51.42,21.45\C,0,8
 5.85,51.85,20.09\C,0,84.86,52.93,19.67\O,0,85.37,53.87,19.06\C,0,85.77
 ,50.58,19.24\H,0,85.28,50.47,21.6\H,0,86.86,52.28,20.1\H,0,86.04,50.75
 ,18.2\H,0,86.35,49.76,19.66\H,0,84.72,50.29,19.18\N,0,83.59,52.81,20.0
 5\C,0,82.69,53.9,19.74\C,0,82.89,55.17,20.56\O,0,82.88,56.21,19.91\C,0
 ,81.23,53.48,19.88\C,0,80.94,52.32,18.94\C,0,79.5,51.81,18.87\O,0,79.2
 5,50.82,18.15\O,0,78.64,52.29,19.63\H,0,83.2,51.91,20.29\H,0,82.92,54.
 14,18.7\H,0,80.59,54.35,19.71\H,0,80.98,53.27,20.92\H,0,81.59,51.58,19
 .41\H,0,81.24,52.49,17.91\N,0,83.22,55.1,21.85\C,0,83.7,56.21,22.65\H,
 0,84.609,56.612,22.203\H,0,82.938,56.989,22.686\H,0,83.915,55.864,23.6
 61\H,0,83.19,54.19,22.28\Ca,0,77.09,50.12,19.54\O,0,78.98,49.27,21.32\
 H,0,79.84,49.01,20.99\H,0,78.82,48.67,22.05\\Version=ES64L-G16RevA.03\
 State=1-A\HF=-5333.5738949\RMSD=3.125e-09\Dipole=11.756699,-0.4568081,
 -0.940883\Quadrupole=-48.2974344,-6.6347875,54.9322218,-31.784582,-98.
 9244181,-78.2405579\PG=C01 [X(C54H83Ca1N15O23)]\\@


 BUT 'GLORY' DOESN'T MEAN 'A NICE KNOCK DOWN ARGUMENT', ALICE OBJECTED.
 WHEN I USE A WORD, HUMPTY DUMPTY SAID, IN A RATHER SCORNFUL TONE,
 IT MEANS JUST WHAT I CHOOSE IT TO MEAN....
 NEITHER MORE NOR LESS....
 THE QUESTION IS, SAID ALICE,
 WHETHER YOU CAN MAKE WORDS MEAN SO MANY DIFFERENT THINGS...
 THE QUESTION IS, SAID HUMPTY DUMPTY,
 WHICH IS TO BE MASTER....
 THAT IS ALL.....

 ALICE THROUGH THE LOOKING GLASS
 Job cpu time:       0 days  8 hours 45 minutes 53.9 seconds.
 Elapsed time:       0 days  0 hours 11 minutes  4.9 seconds.
 File lengths (MBytes):  RWF=   1517 Int=      0 D2E=      0 Chk=    171 Scr=      1
 Normal termination of Gaussian 16 at Wed Sep 18 17:27:08 2019.
