 Entering Gaussian System, Link 0=g16
 Initial command:
 /home1/apps/gaussian/16rA.03/g16/l1.exe "/scratch/01990/pengzhi/4328930/Gau-457951.inp" -scrdir="/scratch/01990/pengzhi/4328930/"
 Entering Link 1 = /home1/apps/gaussian/16rA.03/g16/l1.exe PID=    457952.
  
 Copyright (c) 1988,1990,1992,1993,1995,1998,2003,2009,2016,
            Gaussian, Inc.  All Rights Reserved.
  
 This is part of the Gaussian(R) 16 program.  It is based on
 the Gaussian(R) 09 system (copyright 2009, Gaussian, Inc.),
 the Gaussian(R) 03 system (copyright 2003, Gaussian, Inc.),
 the Gaussian(R) 98 system (copyright 1998, Gaussian, Inc.),
 the Gaussian(R) 94 system (copyright 1995, Gaussian, Inc.),
 the Gaussian 92(TM) system (copyright 1992, Gaussian, Inc.),
 the Gaussian 90(TM) system (copyright 1990, Gaussian, Inc.),
 the Gaussian 88(TM) system (copyright 1988, Gaussian, Inc.),
 the Gaussian 86(TM) system (copyright 1986, Carnegie Mellon
 University), and the Gaussian 82(TM) system (copyright 1983,
 Carnegie Mellon University). Gaussian is a federally registered
 trademark of Gaussian, Inc.
  
 This software contains proprietary and confidential information,
 including trade secrets, belonging to Gaussian, Inc.
  
 This software is provided under written license and may be
 used, copied, transmitted, or stored only in accord with that
 written license.
  
 The following legend is applicable only to US Government
 contracts under FAR:
  
                    RESTRICTED RIGHTS LEGEND
  
 Use, reproduction and disclosure by the US Government is
 subject to restrictions as set forth in subparagraphs (a)
 and (c) of the Commercial Computer Software - Restricted
 Rights clause in FAR 52.227-19.
  
 Gaussian, Inc.
 340 Quinnipiac St., Bldg. 40, Wallingford CT 06492
  
  
 ---------------------------------------------------------------
 Warning -- This program may not be used in any manner that
 competes with the business of Gaussian, Inc. or will provide
 assistance to any competitor of Gaussian, Inc.  The licensee
 of this program is prohibited from giving any competitor of
 Gaussian, Inc. access to this program.  By using this program,
 the user acknowledges that Gaussian, Inc. is engaged in the
 business of creating and licensing software in the field of
 computational chemistry and represents and warrants to the
 licensee that it is not a competitor of Gaussian, Inc. and that
 it will not use this program in any manner prohibited above.
 ---------------------------------------------------------------
  

 Cite this work as:
 Gaussian 16, Revision A.03,
 M. J. Frisch, G. W. Trucks, H. B. Schlegel, G. E. Scuseria, 
 M. A. Robb, J. R. Cheeseman, G. Scalmani, V. Barone, 
 G. A. Petersson, H. Nakatsuji, X. Li, M. Caricato, A. V. Marenich, 
 J. Bloino, B. G. Janesko, R. Gomperts, B. Mennucci, H. P. Hratchian, 
 J. V. Ortiz, A. F. Izmaylov, J. L. Sonnenberg, D. Williams-Young, 
 F. Ding, F. Lipparini, F. Egidi, J. Goings, B. Peng, A. Petrone, 
 T. Henderson, D. Ranasinghe, V. G. Zakrzewski, J. Gao, N. Rega, 
 G. Zheng, W. Liang, M. Hada, M. Ehara, K. Toyota, R. Fukuda, 
 J. Hasegawa, M. Ishida, T. Nakajima, Y. Honda, O. Kitao, H. Nakai, 
 T. Vreven, K. Throssell, J. A. Montgomery, Jr., J. E. Peralta, 
 F. Ogliaro, M. J. Bearpark, J. J. Heyd, E. N. Brothers, K. N. Kudin, 
 V. N. Staroverov, T. A. Keith, R. Kobayashi, J. Normand, 
 K. Raghavachari, A. P. Rendell, J. C. Burant, S. S. Iyengar, 
 J. Tomasi, M. Cossi, J. M. Millam, M. Klene, C. Adamo, R. Cammi, 
 J. W. Ochterski, R. L. Martin, K. Morokuma, O. Farkas, 
 J. B. Foresman, and D. J. Fox, Gaussian, Inc., Wallingford CT, 2016.
 
 ******************************************
 Gaussian 16:  ES64L-G16RevA.03 25-Dec-2016
                14-Sep-2019 
 ******************************************
 %chk=CaMKII_loop3_110.0.chk
 %nprocshared=48
 Will use up to   48 processors via shared memory.
 %mem=10GB
 %nosave
 ----------------------------------------------------------------------
 #b3lyp/svp scf=(tight,noincore) Test #IOP(5/87=12) Density=Current Pop
 =(MK,readradii) iop(6/33=2) iop(6/42=6)
 ----------------------------------------------------------------------
 1/30=1,38=1,172=1/1;
 2/12=2,17=6,18=5,40=1/2;
 3/5=18,7=101,11=2,25=1,30=1,74=-5/1,2,3;
 4//1;
 5/5=4,32=2,38=5,87=12/2;
 6/7=2,8=2,9=2,10=2,15=8,20=101,22=-1,28=1,33=2,42=6/1,2;
 99/5=1,9=1/99;
 ------------------
 CaMKII_loop3_110.0
 ------------------
 Symbolic Z-matrix:
 Charge =  0 Multiplicity = 1
 C                     60.07     45.83     33.08 
 C                     59.8      44.89     34.24 
 O                     60.64     44.02     34.5 
 H                     61.102    45.71     32.749 
 H                     59.395    45.595    32.257 
 H                     59.909    46.859    33.401 
 N                     58.7      45.17     34.94 
 C                     58.4      44.36     36.11 
 C                     57.96     42.96     35.71 
 O                     57.25     42.66     34.75 
 C                     57.4      45.12     36.97 
 C                     57.42     44.63     38.41 
 O                     58.       45.33     39.28 
 O                     57.03     43.5      38.75 
 H                     58.06     45.89     34.64 
 H                     59.3      44.38     36.73 
 H                     56.4      45.       36.57 
 H                     57.69     46.18     37. 
 N                     58.34     41.98     36.54 
 C                     58.05     40.57     36.43 
 C                     56.73     40.14     37.05 
 O                     56.32     39.02     36.73 
 C                     59.19     39.74     37.02 
 C                     60.59     39.87     36.42 
 C                     60.56     39.31     35. 
 C                     61.85     39.64     34.25 
 N                     61.81     39.23     32.84 
 H                     58.77     42.26     37.41 
 H                     57.99     40.22     35.4 
 H                     58.88     38.7      36.97 
 H                     59.21     40.06     38.07 
 H                     61.18     39.3      37.14 
 H                     60.98     40.89     36.32 
 H                     59.75     39.75     34.42 
 H                     60.54     38.23     35.07 
 H                     62.68     39.2      34.79 
 H                     62.03     40.71     34.38 
 H                     61.58     38.26     32.68 
 H                     61.25     39.81     32.23 
 H                     62.73     39.29     32.43 
 N                     56.13     40.91     37.96 
 C                     54.8      40.65     38.49 
 C                     53.9      41.85     38.73 
 O                     52.7      41.75     39.01 
 C                     54.86     40.06     39.9 
 C                     55.83     40.73     40.86 
 O                     56.63     40.02     41.52 
 O                     56.09     41.95     40.91 
 H                     56.6      41.77     38.21 
 H                     54.21     39.98     37.87 
 H                     55.27     39.08     39.66 
 H                     53.86     39.98     40.32 
 N                     54.42     43.05     38.46 
 C                     53.74     44.33     38.52 
 C                     53.29     44.68     39.93 
 O                     52.25     45.31     40.12 
 H                     55.38     42.94     38.17 
 H                     52.86     44.3      37.87 
 H                     54.41     45.05     38.05 
 N                     54.01     44.26     40.97 
 C                     53.73     44.52     42.36 
 C                     53.96     45.96     42.79 
 O                     53.89     46.18     43.99 
 C                     54.26     43.42     43.28 
 C                     55.73     43.43     43.68 
 N                     56.22     42.71     44.69 
 O                     56.45     44.18     43.03 
 H                     54.71     43.53     40.89 
 H                     52.64     44.46     42.44 
 H                     54.05     42.42     42.88 
 H                     53.66     43.46     44.19 
 H                     55.61     42.15     45.26 
 H                     57.19     42.82     44.97 
 N                     54.3      46.86     41.86 
 C                     54.55     48.28     42. 
 C                     55.92     48.71     42.5 
 O                     56.13     49.84     42.92 
 H                     54.21     46.6      40.88 
 H                     53.82     48.59     42.74 
 H                     54.32     48.79     41.06 
 N                     56.91     47.81     42.56 
 C                     58.34     48.03     42.57 
 C                     59.21     47.02     41.84 
 O                     58.85     45.86     41.73 
 C                     58.78     48.11     44.03 
 C                     58.81     46.82     44.82 
 C                     57.77     46.4      45.65 
 C                     59.9      45.95     44.69 
 C                     57.88     45.14     46.24 
 C                     60.05     44.66     45.23 
 C                     59.01     44.31     46.11 
 O                     59.01     43.16     46.85 
 H                     56.68     46.86     42.29 
 H                     58.43     49.03     42.13 
 H                     58.09     48.74     44.59 
 H                     59.77     48.56     44.08 
 H                     56.96     47.1      45.83 
 H                     60.71     46.19     44.02 
 H                     57.13     44.93     46.99 
 H                     60.92     44.04     45.07 
 H                     59.81     42.66     46.65 
 N                     60.36     47.5      41.35 
 C                     61.42     46.7      40.78 
 C                     62.5      46.35     41.8 
 O                     63.04     47.26     42.42 
 C                     61.97     47.22     39.46 
 C                     60.86     47.91     38.68 
 C                     62.74     46.26     38.56 
 C                     61.25     48.48     37.31 
 H                     60.49     48.49     41.2 
 H                     60.92     45.79     40.44 
 H                     62.65     48.01     39.78 
 H                     60.65     48.8      39.27 
 H                     60.03     47.22     38.54 
 H                     63.55     45.79     39.11 
 H                     62.06     45.58     38.04 
 H                     63.26     46.88     37.83 
 H                     62.21     49.       37.36 
 H                     61.34     47.63     36.64 
 H                     60.48     49.15     36.93 
 N                     62.75     45.05     42. 
 C                     63.87     44.56     42.78 
 C                     65.06     44.11     41.96 
 O                     64.99     43.95     40.74 
 C                     63.37     43.55     43.81 
 O                     62.67     42.49     43.19 
 H                     62.24     44.42     41.39 
 H                     64.25     45.39     43.38 
 H                     62.71     44.13     44.46 
 H                     64.14     43.14     44.46 
 H                     61.98     42.88     42.65 
 N                     66.25     44.12     42.57 
 C                     67.51     43.83     41.91 
 C                     67.53     42.54     41.11 
 O                     68.06     42.62     40. 
 C                     68.48     43.72     43.09 
 H                     66.37     44.3      43.55 
 H                     67.82     44.61     41.22 
 H                     68.66     44.73     43.46 
 H                     68.15     43.12     43.94 
 H                     69.37     43.24     42.67 
 N                     66.97     41.37     41.44 
 C                     66.94     40.2      40.59 
 C                     65.85     40.15     39.52 
 O                     65.99     39.38     38.57 
 C                     66.91     38.98     41.5 
 H                     66.85     41.21     42.43 
 H                     67.84     40.16     39.97 
 H                     67.85     38.97     42.06 
 H                     66.19     39.19     42.28 
 H                     66.77     38.06     40.93 
 N                     64.86     41.04     39.56 
 C                     64.09     41.38     38.38 
 C                     65.       42.16     37.44 
 O                     65.03     42.01     36.22 
 C                     62.8      42.14     38.63 
 C                     61.87     41.52     39.67 
 C                     60.69     42.4      40.02 
 O                     59.64     42.34     39.34 
 O                     60.77     43.19     40.99 
 H                     64.65     41.58     40.38 
 H                     63.77     40.46     37.88 
 H                     62.28     42.23     37.67 
 H                     63.06     43.13     39.02 
 H                     62.49     41.31     40.54 
 H                     61.56     40.51     39.39 
 N                     65.8      43.09     37.96 
 C                     66.67     43.91     37.14 
 H                     67.629    43.408    37.015 
 H                     66.211    44.064    36.163 
 H                     66.825    44.874    37.625 
 H                     65.71     43.37     38.93 
 Ca                    58.11     43.46     41.12 
 O                     58.31     41.52     42.86 
 H                     57.7      40.81     42.64 
 H                     58.61     41.31     43.74 
 
 Stoichiometry    C54H83CaN15O23
 Framework group  C1[X(C54H83CaN15O23)]
 Deg. of freedom   522
 Full point group                 C1      NOp   1
 Largest Abelian subgroup         C1      NOp   1
 Largest concise Abelian subgroup C1      NOp   1
                         Standard orientation:                         
 ---------------------------------------------------------------------
 Center     Atomic      Atomic             Coordinates (Angstroms)
 Number     Number       Type             X           Y           Z
 ---------------------------------------------------------------------
      1          6           0        1.179891    4.918287    5.369351
      2          6           0        0.908446    4.429880    3.958722
      3          8           0        1.856753    4.360404    3.167529
      4          1           0        2.256463    4.961154    5.537102
      5          1           0        0.752380    5.912662    5.498312
      6          1           0        0.728001    4.231628    6.084962
      7          7           0       -0.342288    4.021534    3.741190
      8          6           0       -0.674006    3.475043    2.434932
      9          6           0       -0.694748    4.564379    1.373556
     10          8           0       -1.113756    5.713976    1.509783
     11          6           0       -1.970621    2.688184    2.564708
     12          6           0       -2.123622    1.679100    1.436684
     13          8           0       -1.902185    0.463951    1.676846
     14          8           0       -2.304333    2.005542    0.251197
     15          1           0       -1.057763    4.135442    4.443415
     16          1           0        0.057170    2.685431    2.243371
     17          1           0       -2.817678    3.363991    2.551282
     18          1           0       -1.942231    2.107209    3.497587
     19          7           0       -0.272280    4.190228    0.158965
     20          6           0       -0.204931    4.995468   -1.037427
     21          6           0       -1.487418    5.034396   -1.853154
     22          8           0       -1.559307    5.922259   -2.708392
     23          6           0        0.955161    4.543206   -1.924133
     24          6           0        2.378512    4.598708   -1.369252
     25          6           0        2.757919    6.062713   -1.160351
     26          6           0        4.060292    6.187288   -0.370537
     27          7           0        4.393924    7.578621   -0.037849
     28          1           0       -0.097895    3.205107    0.019952
     29          1           0        0.020978    6.043090   -0.841336
     30          1           0        0.907079    5.137877   -2.832018
     31          1           0        0.694027    3.503315   -2.160216
     32          1           0        2.929213    4.075410   -2.153017
     33          1           0        2.537017    4.117685   -0.396630
     34          1           0        1.999565    6.587434   -0.580983
     35          1           0        2.971783    6.491420   -2.131007
     36          1           0        4.845602    5.690867   -0.928170
     37          1           0        3.961804    5.548054    0.510303
     38          1           0        4.427814    8.212779   -0.822765
     39          1           0        3.847844    7.995599    0.703789
     40          1           0        5.338178    7.639792    0.312499
     41          7           0       -2.414834    4.087563   -1.696924
     42          6           0       -3.727943    4.129769   -2.322515
     43          6           0       -4.907460    3.644362   -1.497458
     44          8           0       -6.083877    3.790554   -1.848273
     45          6           0       -3.814046    3.179516   -3.518093
     46          6           0       -3.231694    1.791135   -3.306756
     47          8           0       -2.436968    1.321951   -4.159972
     48          8           0       -3.272403    1.130185   -2.248461
     49          1           0       -2.212537    3.358310   -1.025905
     50          1           0       -4.015075    5.122132   -2.660404
     51          1           0       -3.151939    3.705146   -4.204699
     52          1           0       -4.831972    3.141404   -3.899111
     53          7           0       -4.632611    3.190484   -0.271998
     54          6           0       -5.585163    2.759944    0.733825
     55          6           0       -6.372236    1.533920    0.297385
     56          8           0       -7.545141    1.385166    0.639099
     57          1           0       -3.635052    3.214433   -0.123326
     58          1           0       -6.289069    3.573835    0.933566
     59          1           0       -5.018201    2.647867    1.658050
     60          7           0       -5.794981    0.635237   -0.499826
     61          6           0       -6.395477   -0.581658   -0.986317
     62          6           0       -6.589996   -1.654969    0.072723
     63          8           0       -6.943672   -2.752073   -0.332957
     64          6           0       -5.820340   -1.020995   -2.332980
     65          6           0       -4.500071   -1.780512   -2.364971
     66          7           0       -4.067635   -2.454697   -3.431307
     67          8           0       -3.856792   -1.767333   -1.321218
     68          1           0       -4.945071    0.831396   -1.017970
     69          1           0       -7.436715   -0.314659   -1.192796
     70          1           0       -5.713192   -0.175366   -3.024016
     71          1           0       -6.580979   -1.641712   -2.808205
     72          1           0       -4.633672   -2.515942   -4.259831
     73          1           0       -3.223226   -3.015696   -3.370848
     74          7           0       -6.288041   -1.363712    1.343350
     75          6           0       -6.401727   -2.187578    2.529445
     76          6           0       -5.292471   -3.191341    2.801127
     77          8           0       -5.433263   -4.112022    3.594804
     78          1           0       -6.121156   -0.390258    1.589593
     79          1           0       -7.314458   -2.747864    2.357397
     80          1           0       -6.552117   -1.552489    3.407309
     81          7           0       -4.154859   -3.120046    2.097952
     82          6           0       -2.843780   -3.631023    2.434666
     83          6           0       -1.639628   -2.806084    2.011120
     84          8           0       -1.696129   -2.092741    1.023572
     85          6           0       -2.730536   -5.030441    1.834328
     86          6           0       -2.563034   -5.133218    0.334168
     87          6           0       -3.622283   -5.356159   -0.546280
     88          6           0       -1.299465   -4.942312   -0.239284
     89          6           0       -3.345919   -5.325183   -1.913929
     90          6           0       -0.968251   -4.866798   -1.604127
     91          6           0       -2.053353   -5.163453   -2.448549
     92          8           0       -1.936575   -5.277851   -3.806258
     93          1           0       -4.103842   -2.401450    1.384288
     94          1           0       -2.899656   -3.729706    3.525005
     95          1           0       -3.642738   -5.592197    2.031600
     96          1           0       -1.899373   -5.553748    2.303815
     97          1           0       -4.589933   -5.592708   -0.114774
     98          1           0       -0.449924   -4.709761    0.382649
     99          1           0       -4.160890   -5.656003   -2.542801
    100          1           0        0.034380   -4.699925   -1.969893
    101          1           0       -1.020206   -5.110846   -4.056012
    102          7           0       -0.556275   -2.929645    2.788346
    103          6           0        0.749483   -2.388041    2.488079
    104          6           0        1.657902   -3.402777    1.799322
    105          8           0        1.842535   -4.488223    2.339522
    106          6           0        1.415381   -1.655337    3.643512
    107          6           0        0.353349   -0.987732    4.505482
    108          6           0        2.546304   -0.680165    3.336016
    109          6           0        0.865147   -0.189697    5.711758
    110          1           0       -0.628929   -3.281332    3.732029
    111          1           0        0.547759   -1.551576    1.814779
    112          1           0        1.820071   -2.472096    4.241869
    113          1           0       -0.166555   -1.826782    4.963733
    114          1           0       -0.252694   -0.326038    3.889467
    115          1           0        3.317428   -1.166019    2.745412
    116          1           0        2.155930    0.257222    2.930905
    117          1           0        3.044387   -0.484470    4.285392
    118          1           0        1.651716   -0.735796    6.238621
    119          1           0        1.277287    0.733311    5.314647
    120          1           0        0.052935    0.051201    6.396215
    121          7           0        2.153796   -3.062456    0.603174
    122          6           0        3.179669   -3.822234   -0.084737
    123          6           0        4.578712   -3.261522    0.054124
    124          8           0        4.789153   -2.134672    0.506699
    125          6           0        2.730583   -4.104008   -1.516493
    126          8           0        2.427680   -2.906325   -2.203374
    127          1           0        1.931822   -2.119063    0.303445
    128          1           0        3.233986   -4.809739    0.379141
    129          1           0        1.840654   -4.728303   -1.403440
    130          1           0        3.430142   -4.690243   -2.108477
    131          1           0        1.787264   -2.427140   -1.674178
    132          7           0        5.590620   -4.120150   -0.110496
    133          6           0        6.988287   -3.786517    0.095697
    134          6           0        7.459855   -2.536810   -0.625661
    135          8           0        8.165789   -1.780147    0.044052
    136          6           0        7.705448   -5.013191   -0.475575
    137          1           0        5.470613   -5.066346   -0.422765
    138          1           0        7.241721   -3.636894    1.141634
    139          1           0        7.573332   -5.829342    0.235650
    140          1           0        7.360266   -5.373386   -1.446404
    141          1           0        8.746441   -4.693814   -0.590600
    142          7           0        7.128183   -2.135958   -1.858833
    143          6           0        7.534529   -0.883285   -2.457157
    144          6           0        6.717823    0.355413   -2.090936
    145          8           0        7.214579    1.466224   -2.276222
    146          6           0        7.605169   -1.102235   -3.961973
    147          1           0        6.855073   -2.870914   -2.495504
    148          1           0        8.523980   -0.593530   -2.092426
    149          1           0        8.393167   -1.838821   -4.145823
    150          1           0        6.716928   -1.654628   -4.239083
    151          1           0        7.794304   -0.167828   -4.493020
    152          7           0        5.562772    0.203702   -1.445459
    153          6           0        4.983738    1.271094   -0.654072
    154          6           0        5.858499    1.463330    0.577974
    155          8           0        6.161993    2.557446    1.049781
    156          6           0        3.530959    1.084000   -0.255791
    157          6           0        2.580853    0.741057   -1.400601
    158          6           0        1.185805    0.384378   -0.935927
    159          8           0        0.332598    1.285189   -0.765410
    160          8           0        0.890275   -0.814531   -0.719871
    161          1           0        5.077465   -0.674225   -1.402770
    162          1           0        4.987461    2.196962   -1.238500
    163          1           0        3.203990    2.005666    0.237893
    164          1           0        3.475737    0.237194    0.436790
    165          1           0        3.048324   -0.078871   -1.943361
    166          1           0        2.571281    1.517559   -2.169726
    167          7           0        6.306162    0.380340    1.212034
    168          6           0        7.109982    0.464152    2.415591
    169          1           0        8.163600    0.523444    2.144146
    170          1           0        6.829900    1.354414    2.979429
    171          1           0        6.941859   -0.422000    3.027976
    172          1           0        5.965074   -0.542681    0.968949
    173         20           0       -1.733001   -0.293617   -0.831554
    174          8           0       -1.442298   -0.960469   -3.341932
    175          1           0       -1.818252   -0.284119   -3.912729
    176          1           0       -1.281876   -1.698433   -3.923459
 ---------------------------------------------------------------------
 Rotational constants (GHZ):           0.0235055           0.0164640           0.0129215
 Standard basis: SVP (5D, 7F)
 There are  1809 symmetry adapted cartesian basis functions of A   symmetry.
 There are  1717 symmetry adapted basis functions of A   symmetry.
  1717 basis functions,  2922 primitive gaussians,  1809 cartesian basis functions
   358 alpha electrons      358 beta electrons
       nuclear repulsion energy     22020.7905905985 Hartrees.
 NAtoms=  176 NActive=  176 NUniq=  176 SFac= 1.00D+00 NAtFMM=   60 NAOKFM=T Big=T
 Integral buffers will be    131072 words long.
 Raffenetti 2 integral format.
 Two-electron integral symmetry is turned on.
 One-electron integrals computed using PRISM.
 NBasis=  1717 RedAO= T EigKep=  2.92D-04  NBF=  1717
 NBsUse=  1717 1.00D-06 EigRej= -1.00D+00 NBFU=  1717
 ExpMin= 1.98D-02 ExpMax= 3.51D+04 ExpMxC= 5.28D+03 IAcc=3 IRadAn=         5 AccDes= 0.00D+00
 Harris functional with IExCor=  402 and IRadAn=       5 diagonalized for initial guess.
 HarFok:  IExCor=  402 AccDes= 0.00D+00 IRadAn=         5 IDoV= 1 UseB2=F ITyADJ=14
 ICtDFT=  3500011 ScaDFX=  1.000000  1.000000  1.000000  1.000000
 FoFCou: FMM=F IPFlag=           0 FMFlag=      100000 FMFlg1=        2001
         NFxFlg=           0 DoJE=T BraDBF=F KetDBF=T FulRan=T
         wScrn=  0.000000 ICntrl=       500 IOpCl=  0 I1Cent=   200000004 NGrid=           0
         NMat0=    1 NMatS0=      1 NMatT0=    0 NMatD0=    1 NMtDS0=    0 NMtDT0=    0
 Petite list used in FoFCou.
 Requested convergence on RMS density matrix=1.00D-08 within 128 cycles.
 Requested convergence on MAX density matrix=1.00D-06.
 Requested convergence on             energy=1.00D-06.
 No special actions if energy rises.
 SCF Done:  E(RB3LYP) =  -5333.61695531     A.U. after   15 cycles
            NFock= 15  Conv=0.29D-08     -V/T= 2.0081
 SCF density gives NOpUse=  1 NOpAll=  1.
 Hyperfine terms turned off by default for NAtoms > 100.

 **********************************************************************

            Population analysis using the SCF density.

 **********************************************************************

 Orbital symmetries:
 BldTbl:  Degeneracy threshold= 1.00D-02
       Occupied  (A) (A) (A) (A) (A) (A) (A) (A) (A) (A) (A) (A)
                 (A) (A) (A) (A) (A) (A) (A) (A) (A) (A) (A) (A)
                 (A) (A) (A) (A) (A) (A) (A) (A) (A) (A) (A) (A)
                 (A) (A) (A) (A) (A) (A) (A) (A) (A) (A) (A) (A)
                 (A) (A) (A) (A) (A) (A) (A) (A) (A) (A) (A) (A)
                 (A) (A) (A) (A) (A) (A) (A) (A) (A) (A) (A) (A)
                 (A) (A) (A) (A) (A) (A) (A) (A) (A) (A) (A) (A)
                 (A) (A) (A) (A) (A) (A) (A) (A) (A) (A) (A) (A)
                 (A) (A) (A) (A) (A) (A) (A) (A) (A) (A) (A) (A)
                 (A) (A) (A) (A) (A) (A) (A) (A) (A) (A) (A) (A)
                 (A) (A) (A) (A) (A) (A) (A) (A) (A) (A) (A) (A)
                 (A) (A) (A) (A) (A) (A) (A) (A) (A) (A) (A) (A)
                 (A) (A) (A) (A) (A) (A) (A) (A) (A) (A) (A) (A)
                 (A) (A) (A) (A) (A) (A) (A) (A) (A) (A) (A) (A)
                 (A) (A) (A) (A) (A) (A) (A) (A) (A) (A) (A) (A)
                 (A) (A) (A) (A) (A) (A) (A) (A) (A) (A) (A) (A)
                 (A) (A) (A) (A) (A) (A) (A) (A) (A) (A) (A) (A)
                 (A) (A) (A) (A) (A) (A) (A) (A) (A) (A) (A) (A)
                 (A) (A) (A) (A) (A) (A) (A) (A) (A) (A) (A) (A)
                 (A) (A) (A) (A) (A) (A) (A) (A) (A) (A) (A) (A)
                 (A) (A) (A) (A) (A) (A) (A) (A) (A) (A) (A) (A)
                 (A) (A) (A) (A) (A) (A) (A) (A) (A) (A) (A) (A)
                 (A) (A) (A) (A) (A) (A) (A) (A) (A) (A) (A) (A)
                 (A) (A) (A) (A) (A) (A) (A) (A) (A) (A) (A) (A)
                 (A) (A) (A) (A) (A) (A) (A) (A) (A) (A) (A) (A)
                 (A) (A) (A) (A) (A) (A) (A) (A) (A) (A) (A) (A)
                 (A) (A) (A) (A) (A) (A) (A) (A) (A) (A) (A) (A)
                 (A) (A) (A) (A) (A) (A) (A) (A) (A) (A) (A) (A)
                 (A) (A) (A) (A) (A) (A) (A) (A) (A) (A) (A) (A)
                 (A) (A) (A) (A) (A) (A) (A) (A) (A) (A)
       Virtual   (A) (A) (A) (A) (A) (A) (A) (A) (A) (A) (A) (A)
                 (A) (A) (A) (A) (A) (A) (A) (A) (A) (A) (A) (A)
                 (A) (A) (A) (A) (A) (A) (A) (A) (A) (A) (A) (A)
                 (A) (A) (A) (A) (A) (A) (A) (A) (A) (A) (A) (A)
                 (A) (A) (A) (A) (A) (A) (A) (A) (A) (A) (A) (A)
                 (A) (A) (A) (A) (A) (A) (A) (A) (A) (A) (A) (A)
                 (A) (A) (A) (A) (A) (A) (A) (A) (A) (A) (A) (A)
                 (A) (A) (A) (A) (A) (A) (A) (A) (A) (A) (A) (A)
                 (A) (A) (A) (A) (A) (A) (A) (A) (A) (A) (A) (A)
                 (A) (A) (A) (A) (A) (A) (A) (A) (A) (A) (A) (A)
                 (A) (A) (A) (A) (A) (A) (A) (A) (A) (A) (A) (A)
                 (A) (A) (A) (A) (A) (A) (A) (A) (A) (A) (A) (A)
                 (A) (A) (A) (A) (A) (A) (A) (A) (A) (A) (A) (A)
                 (A) (A) (A) (A) (A) (A) (A) (A) (A) (A) (A) (A)
                 (A) (A) (A) (A) (A) (A) (A) (A) (A) (A) (A) (A)
                 (A) (A) (A) (A) (A) (A) (A) (A) (A) (A) (A) (A)
                 (A) (A) (A) (A) (A) (A) (A) (A) (A) (A) (A) (A)
                 (A) (A) (A) (A) (A) (A) (A) (A) (A) (A) (A) (A)
                 (A) (A) (A) (A) (A) (A) (A) (A) (A) (A) (A) (A)
                 (A) (A) (A) (A) (A) (A) (A) (A) (A) (A) (A) (A)
                 (A) (A) (A) (A) (A) (A) (A) (A) (A) (A) (A) (A)
                 (A) (A) (A) (A) (A) (A) (A) (A) (A) (A) (A) (A)
                 (A) (A) (A) (A) (A) (A) (A) (A) (A) (A) (A) (A)
                 (A) (A) (A) (A) (A) (A) (A) (A) (A) (A) (A) (A)
                 (A) (A) (A) (A) (A) (A) (A) (A) (A) (A) (A) (A)
                 (A) (A) (A) (A) (A) (A) (A) (A) (A) (A) (A) (A)
                 (A) (A) (A) (A) (A) (A) (A) (A) (A) (A) (A) (A)
                 (A) (A) (A) (A) (A) (A) (A) (A) (A) (A) (A) (A)
                 (A) (A) (A) (A) (A) (A) (A) (A) (A) (A) (A) (A)
                 (A) (A) (A) (A) (A) (A) (A) (A) (A) (A) (A) (A)
                 (A) (A) (A) (A) (A) (A) (A) (A) (A) (A) (A) (A)
                 (A) (A) (A) (A) (A) (A) (A) (A) (A) (A) (A) (A)
                 (A) (A) (A) (A) (A) (A) (A) (A) (A) (A) (A) (A)
                 (A) (A) (A) (A) (A) (A) (A) (A) (A) (A) (A) (A)
                 (A) (A) (A) (A) (A) (A) (A) (A) (A) (A) (A) (A)
                 (A) (A) (A) (A) (A) (A) (A) (A) (A) (A) (A) (A)
                 (A) (A) (A) (A) (A) (A) (A) (A) (A) (A) (A) (A)
                 (A) (A) (A) (A) (A) (A) (A) (A) (A) (A) (A) (A)
                 (A) (A) (A) (A) (A) (A) (A) (A) (A) (A) (A) (A)
                 (A) (A) (A) (A) (A) (A) (A) (A) (A) (A) (A) (A)
                 (A) (A) (A) (A) (A) (A) (A) (A) (A) (A) (A) (A)
                 (A) (A) (A) (A) (A) (A) (A) (A) (A) (A) (A) (A)
                 (A) (A) (A) (A) (A) (A) (A) (A) (A) (A) (A) (A)
                 (A) (A) (A) (A) (A) (A) (A) (A) (A) (A) (A) (A)
                 (A) (A) (A) (A) (A) (A) (A) (A) (A) (A) (A) (A)
                 (A) (A) (A) (A) (A) (A) (A) (A) (A) (A) (A) (A)
                 (A) (A) (A) (A) (A) (A) (A) (A) (A) (A) (A) (A)
                 (A) (A) (A) (A) (A) (A) (A) (A) (A) (A) (A) (A)
                 (A) (A) (A) (A) (A) (A) (A) (A) (A) (A) (A) (A)
                 (A) (A) (A) (A) (A) (A) (A) (A) (A) (A) (A) (A)
                 (A) (A) (A) (A) (A) (A) (A) (A) (A) (A) (A) (A)
                 (A) (A) (A) (A) (A) (A) (A) (A) (A) (A) (A) (A)
                 (A) (A) (A) (A) (A) (A) (A) (A) (A) (A) (A) (A)
                 (A) (A) (A) (A) (A) (A) (A) (A) (A) (A) (A) (A)
                 (A) (A) (A) (A) (A) (A) (A) (A) (A) (A) (A) (A)
                 (A) (A) (A) (A) (A) (A) (A) (A) (A) (A) (A) (A)
                 (A) (A) (A) (A) (A) (A) (A) (A) (A) (A) (A) (A)
                 (A) (A) (A) (A) (A) (A) (A) (A) (A) (A) (A) (A)
                 (A) (A) (A) (A) (A) (A) (A) (A) (A) (A) (A) (A)
                 (A) (A) (A) (A) (A) (A) (A) (A) (A) (A) (A) (A)
                 (A) (A) (A) (A) (A) (A) (A) (A) (A) (A) (A) (A)
                 (A) (A) (A) (A) (A) (A) (A) (A) (A) (A) (A) (A)
                 (A) (A) (A) (A) (A) (A) (A) (A) (A) (A) (A) (A)
                 (A) (A) (A) (A) (A) (A) (A) (A) (A) (A) (A) (A)
                 (A) (A) (A) (A) (A) (A) (A) (A) (A) (A) (A) (A)
                 (A) (A) (A) (A) (A) (A) (A) (A) (A) (A) (A) (A)
                 (A) (A) (A) (A) (A) (A) (A) (A) (A) (A) (A) (A)
                 (A) (A) (A) (A) (A) (A) (A) (A) (A) (A) (A) (A)
                 (A) (A) (A) (A) (A) (A) (A) (A) (A) (A) (A) (A)
                 (A) (A) (A) (A) (A) (A) (A) (A) (A) (A) (A) (A)
                 (A) (A) (A) (A) (A) (A) (A) (A) (A) (A) (A) (A)
                 (A) (A) (A) (A) (A) (A) (A) (A) (A) (A) (A) (A)
                 (A) (A) (A) (A) (A) (A) (A) (A) (A) (A) (A) (A)
                 (A) (A) (A) (A) (A) (A) (A) (A) (A) (A) (A) (A)
                 (A) (A) (A) (A) (A) (A) (A) (A) (A) (A) (A) (A)
                 (A) (A) (A) (A) (A) (A) (A) (A) (A) (A) (A) (A)
                 (A) (A) (A) (A) (A) (A) (A) (A) (A) (A) (A) (A)
                 (A) (A) (A) (A) (A) (A) (A) (A) (A) (A) (A) (A)
                 (A) (A) (A) (A) (A) (A) (A) (A) (A) (A) (A) (A)
                 (A) (A) (A) (A) (A) (A) (A) (A) (A) (A) (A) (A)
                 (A) (A) (A) (A) (A) (A) (A) (A) (A) (A) (A) (A)
                 (A) (A) (A) (A) (A) (A) (A) (A) (A) (A) (A) (A)
                 (A) (A) (A) (A) (A) (A) (A) (A) (A) (A) (A) (A)
                 (A) (A) (A) (A) (A) (A) (A) (A) (A) (A) (A) (A)
                 (A) (A) (A) (A) (A) (A) (A) (A) (A) (A) (A) (A)
                 (A) (A) (A) (A) (A) (A) (A) (A) (A) (A) (A) (A)
                 (A) (A) (A) (A) (A) (A) (A) (A) (A) (A) (A) (A)
                 (A) (A) (A) (A) (A) (A) (A) (A) (A) (A) (A) (A)
                 (A) (A) (A) (A) (A) (A) (A) (A) (A) (A) (A) (A)
                 (A) (A) (A) (A) (A) (A) (A) (A) (A) (A) (A) (A)
                 (A) (A) (A) (A) (A) (A) (A) (A) (A) (A) (A) (A)
                 (A) (A) (A) (A) (A) (A) (A) (A) (A) (A) (A) (A)
                 (A) (A) (A) (A) (A) (A) (A) (A) (A) (A) (A) (A)
                 (A) (A) (A) (A) (A) (A) (A) (A) (A) (A) (A) (A)
                 (A) (A) (A) (A) (A) (A) (A) (A) (A) (A) (A) (A)
                 (A) (A) (A) (A) (A) (A) (A) (A) (A) (A) (A) (A)
                 (A) (A) (A) (A) (A) (A) (A) (A) (A) (A) (A) (A)
                 (A) (A) (A) (A) (A) (A) (A) (A) (A) (A) (A) (A)
                 (A) (A) (A) (A) (A) (A) (A) (A) (A) (A) (A) (A)
                 (A) (A) (A) (A) (A) (A) (A) (A) (A) (A) (A) (A)
                 (A) (A) (A) (A) (A) (A) (A) (A) (A) (A) (A) (A)
                 (A) (A) (A) (A) (A) (A) (A) (A) (A) (A) (A) (A)
                 (A) (A) (A) (A) (A) (A) (A) (A) (A) (A) (A) (A)
                 (A) (A) (A) (A) (A) (A) (A) (A) (A) (A) (A) (A)
                 (A) (A) (A) (A) (A) (A) (A) (A) (A) (A) (A) (A)
                 (A) (A) (A) (A) (A) (A) (A) (A) (A) (A) (A) (A)
                 (A) (A) (A) (A) (A) (A) (A) (A) (A) (A) (A) (A)
                 (A) (A) (A) (A) (A) (A) (A) (A) (A) (A) (A) (A)
                 (A) (A) (A) (A) (A) (A) (A) (A) (A) (A) (A) (A)
                 (A) (A) (A) (A) (A) (A) (A) (A) (A) (A) (A) (A)
                 (A) (A) (A) (A) (A) (A) (A) (A) (A) (A) (A) (A)
                 (A) (A) (A) (A) (A) (A) (A) (A) (A) (A) (A) (A)
                 (A) (A) (A) (A) (A) (A) (A) (A) (A) (A) (A) (A)
                 (A) (A) (A)
 The electronic state is 1-A.
 Alpha  occ. eigenvalues -- -145.33954 -19.17109 -19.13945 -19.13904 -19.11647
 Alpha  occ. eigenvalues --  -19.11311 -19.10959 -19.10093 -19.09865 -19.09759
 Alpha  occ. eigenvalues --  -19.09567 -19.09467 -19.08528 -19.08199 -19.07485
 Alpha  occ. eigenvalues --  -19.07457 -19.07321 -19.07267 -19.06525 -19.06405
 Alpha  occ. eigenvalues --  -19.06175 -19.05072 -19.04413 -19.02556 -15.39722
 Alpha  occ. eigenvalues --  -14.57212 -14.39359 -14.37845 -14.36430 -14.36013
 Alpha  occ. eigenvalues --  -14.35869 -14.35298 -14.35292 -14.33842 -14.33053
 Alpha  occ. eigenvalues --  -14.33035 -14.32548 -14.32388 -14.31661 -14.30353
 Alpha  occ. eigenvalues --  -12.53328 -12.53309 -12.53277 -10.32053 -10.31928
 Alpha  occ. eigenvalues --  -10.30127 -10.29957 -10.28878 -10.28581 -10.28487
 Alpha  occ. eigenvalues --  -10.28252 -10.27994 -10.27043 -10.26711 -10.26666
 Alpha  occ. eigenvalues --  -10.26286 -10.26221 -10.26027 -10.25785 -10.25512
 Alpha  occ. eigenvalues --  -10.25434 -10.25316 -10.24978 -10.24943 -10.24289
 Alpha  occ. eigenvalues --  -10.23842 -10.23405 -10.23403 -10.23124 -10.22815
 Alpha  occ. eigenvalues --  -10.22732 -10.22436 -10.21805 -10.21763 -10.21747
 Alpha  occ. eigenvalues --  -10.21291 -10.20591 -10.20560 -10.20022 -10.19830
 Alpha  occ. eigenvalues --  -10.19418 -10.19323 -10.19091 -10.19088 -10.19047
 Alpha  occ. eigenvalues --  -10.18989 -10.18882 -10.18322 -10.18260 -10.18191
 Alpha  occ. eigenvalues --  -10.18073 -10.18025 -10.17827 -10.17791 -10.17702
 Alpha  occ. eigenvalues --  -10.17634 -10.14864  -1.76712  -1.12238  -1.06891
 Alpha  occ. eigenvalues --   -1.05536  -1.05217  -1.04907  -1.04732  -1.04603
 Alpha  occ. eigenvalues --   -1.03855  -1.03279  -1.03061  -1.02577  -1.02533
 Alpha  occ. eigenvalues --   -1.02446  -1.02175  -1.02048  -1.01093  -1.00963
 Alpha  occ. eigenvalues --   -1.00503  -1.00490  -0.99672  -0.99430  -0.99209
 Alpha  occ. eigenvalues --   -0.97905  -0.97549  -0.96319  -0.94083  -0.93485
 Alpha  occ. eigenvalues --   -0.93475  -0.92771  -0.92666  -0.92254  -0.91455
 Alpha  occ. eigenvalues --   -0.90998  -0.90451  -0.90004  -0.89941  -0.89286
 Alpha  occ. eigenvalues --   -0.88874  -0.88428  -0.87161  -0.86996  -0.86825
 Alpha  occ. eigenvalues --   -0.84317  -0.82288  -0.81700  -0.80188  -0.79878
 Alpha  occ. eigenvalues --   -0.78630  -0.78393  -0.78126  -0.77539  -0.76404
 Alpha  occ. eigenvalues --   -0.75476  -0.74369  -0.73767  -0.73702  -0.73165
 Alpha  occ. eigenvalues --   -0.72861  -0.72677  -0.71565  -0.71397  -0.70552
 Alpha  occ. eigenvalues --   -0.70474  -0.69748  -0.69306  -0.68139  -0.67414
 Alpha  occ. eigenvalues --   -0.67206  -0.66283  -0.66101  -0.65329  -0.65152
 Alpha  occ. eigenvalues --   -0.64872  -0.62993  -0.62684  -0.61812  -0.61785
 Alpha  occ. eigenvalues --   -0.61427  -0.60998  -0.60721  -0.60615  -0.60027
 Alpha  occ. eigenvalues --   -0.59228  -0.59135  -0.59058  -0.58683  -0.57925
 Alpha  occ. eigenvalues --   -0.57843  -0.57566  -0.57262  -0.56736  -0.56704
 Alpha  occ. eigenvalues --   -0.56178  -0.55579  -0.55368  -0.54857  -0.54695
 Alpha  occ. eigenvalues --   -0.54605  -0.54399  -0.54216  -0.53716  -0.53457
 Alpha  occ. eigenvalues --   -0.53020  -0.52551  -0.52198  -0.51867  -0.51509
 Alpha  occ. eigenvalues --   -0.51267  -0.50942  -0.50851  -0.50762  -0.49922
 Alpha  occ. eigenvalues --   -0.49565  -0.49246  -0.49111  -0.48716  -0.48669
 Alpha  occ. eigenvalues --   -0.48448  -0.48343  -0.48131  -0.48092  -0.47763
 Alpha  occ. eigenvalues --   -0.47637  -0.47556  -0.47060  -0.46929  -0.46339
 Alpha  occ. eigenvalues --   -0.46239  -0.46016  -0.45990  -0.45809  -0.45680
 Alpha  occ. eigenvalues --   -0.45297  -0.45195  -0.44969  -0.44806  -0.44647
 Alpha  occ. eigenvalues --   -0.44567  -0.44461  -0.44021  -0.43920  -0.43840
 Alpha  occ. eigenvalues --   -0.43732  -0.43606  -0.43578  -0.43406  -0.43354
 Alpha  occ. eigenvalues --   -0.43186  -0.43047  -0.42957  -0.42795  -0.42670
 Alpha  occ. eigenvalues --   -0.42364  -0.42240  -0.41927  -0.41857  -0.41818
 Alpha  occ. eigenvalues --   -0.41649  -0.41583  -0.41411  -0.41369  -0.41170
 Alpha  occ. eigenvalues --   -0.40999  -0.40781  -0.40701  -0.40644  -0.40544
 Alpha  occ. eigenvalues --   -0.40323  -0.40245  -0.40142  -0.39968  -0.39794
 Alpha  occ. eigenvalues --   -0.39713  -0.39596  -0.39444  -0.39421  -0.39126
 Alpha  occ. eigenvalues --   -0.38975  -0.38900  -0.38842  -0.38783  -0.38685
 Alpha  occ. eigenvalues --   -0.38628  -0.38362  -0.38068  -0.37975  -0.37670
 Alpha  occ. eigenvalues --   -0.37422  -0.37281  -0.37228  -0.36858  -0.36792
 Alpha  occ. eigenvalues --   -0.36719  -0.36513  -0.36433  -0.36211  -0.36124
 Alpha  occ. eigenvalues --   -0.35994  -0.35873  -0.35860  -0.35803  -0.35114
 Alpha  occ. eigenvalues --   -0.35000  -0.34938  -0.34702  -0.34553  -0.34503
 Alpha  occ. eigenvalues --   -0.33839  -0.33765  -0.33674  -0.33561  -0.33140
 Alpha  occ. eigenvalues --   -0.32855  -0.32635  -0.32439  -0.32164  -0.31968
 Alpha  occ. eigenvalues --   -0.31399  -0.30792  -0.30425  -0.30295  -0.29743
 Alpha  occ. eigenvalues --   -0.29112  -0.29048  -0.28305  -0.27991  -0.27578
 Alpha  occ. eigenvalues --   -0.27392  -0.27225  -0.26987  -0.26806  -0.26757
 Alpha  occ. eigenvalues --   -0.26491  -0.26471  -0.26295  -0.25953  -0.25497
 Alpha  occ. eigenvalues --   -0.25266  -0.25100  -0.25022  -0.24977  -0.24818
 Alpha  occ. eigenvalues --   -0.24633  -0.24588  -0.24280  -0.24113  -0.24005
 Alpha  occ. eigenvalues --   -0.23422  -0.23387  -0.22809  -0.22728  -0.22682
 Alpha  occ. eigenvalues --   -0.22247  -0.21781  -0.21771  -0.21363  -0.21245
 Alpha  occ. eigenvalues --   -0.20816  -0.20338  -0.17968
 Alpha virt. eigenvalues --   -0.09027  -0.02867  -0.02703  -0.02490  -0.01168
 Alpha virt. eigenvalues --   -0.00835   0.00065   0.00144   0.00821   0.00876
 Alpha virt. eigenvalues --    0.01094   0.01296   0.01600   0.01934   0.02355
 Alpha virt. eigenvalues --    0.02439   0.02811   0.03043   0.03529   0.03824
 Alpha virt. eigenvalues --    0.03897   0.04175   0.04228   0.04547   0.04602
 Alpha virt. eigenvalues --    0.04793   0.05086   0.05291   0.05536   0.05563
 Alpha virt. eigenvalues --    0.05824   0.05958   0.06171   0.06663   0.06868
 Alpha virt. eigenvalues --    0.07297   0.07474   0.07653   0.07981   0.08103
 Alpha virt. eigenvalues --    0.08156   0.08377   0.08652   0.08772   0.09490
 Alpha virt. eigenvalues --    0.09556   0.09717   0.09942   0.10187   0.10267
 Alpha virt. eigenvalues --    0.10562   0.10732   0.10854   0.10937   0.11105
 Alpha virt. eigenvalues --    0.11538   0.11631   0.11739   0.12131   0.12249
 Alpha virt. eigenvalues --    0.12323   0.12392   0.12449   0.12574   0.12738
 Alpha virt. eigenvalues --    0.13018   0.13260   0.13534   0.13615   0.13731
 Alpha virt. eigenvalues --    0.13798   0.14075   0.14178   0.14415   0.14514
 Alpha virt. eigenvalues --    0.14611   0.14815   0.14862   0.14946   0.15248
 Alpha virt. eigenvalues --    0.15465   0.15500   0.15571   0.15715   0.15852
 Alpha virt. eigenvalues --    0.16128   0.16195   0.16479   0.16563   0.16697
 Alpha virt. eigenvalues --    0.16799   0.17221   0.17279   0.17488   0.17538
 Alpha virt. eigenvalues --    0.17859   0.17975   0.18120   0.18313   0.18464
 Alpha virt. eigenvalues --    0.18603   0.18913   0.19319   0.19411   0.19703
 Alpha virt. eigenvalues --    0.19758   0.19868   0.20020   0.20247   0.20439
 Alpha virt. eigenvalues --    0.20827   0.20902   0.21135   0.21206   0.21330
 Alpha virt. eigenvalues --    0.21376   0.21847   0.22006   0.22272   0.22472
 Alpha virt. eigenvalues --    0.22693   0.22760   0.22875   0.23283   0.23341
 Alpha virt. eigenvalues --    0.23608   0.23805   0.23911   0.24292   0.24452
 Alpha virt. eigenvalues --    0.24691   0.24780   0.25112   0.25262   0.25674
 Alpha virt. eigenvalues --    0.25854   0.26105   0.26247   0.26367   0.26650
 Alpha virt. eigenvalues --    0.26681   0.27124   0.27232   0.27453   0.27650
 Alpha virt. eigenvalues --    0.28037   0.28093   0.28470   0.28714   0.28954
 Alpha virt. eigenvalues --    0.28976   0.29325   0.29504   0.29695   0.29902
 Alpha virt. eigenvalues --    0.30200   0.30343   0.30728   0.30921   0.31326
 Alpha virt. eigenvalues --    0.31525   0.31949   0.32011   0.32165   0.32497
 Alpha virt. eigenvalues --    0.32727   0.32971   0.33240   0.33248   0.33776
 Alpha virt. eigenvalues --    0.33851   0.34363   0.34697   0.34937   0.35368
 Alpha virt. eigenvalues --    0.35602   0.35968   0.36345   0.36454   0.36854
 Alpha virt. eigenvalues --    0.36986   0.37287   0.37476   0.37766   0.38032
 Alpha virt. eigenvalues --    0.38251   0.38540   0.38583   0.39061   0.39182
 Alpha virt. eigenvalues --    0.39610   0.39785   0.40279   0.40353   0.40604
 Alpha virt. eigenvalues --    0.40943   0.40998   0.41327   0.41644   0.41892
 Alpha virt. eigenvalues --    0.42097   0.42292   0.42377   0.42553   0.42851
 Alpha virt. eigenvalues --    0.43104   0.43249   0.43639   0.43894   0.43979
 Alpha virt. eigenvalues --    0.44149   0.44292   0.44440   0.44824   0.45031
 Alpha virt. eigenvalues --    0.45065   0.45357   0.45467   0.45577   0.45920
 Alpha virt. eigenvalues --    0.46277   0.46435   0.46841   0.47013   0.47265
 Alpha virt. eigenvalues --    0.47344   0.47472   0.47687   0.47776   0.48282
 Alpha virt. eigenvalues --    0.48496   0.48527   0.48754   0.48877   0.49053
 Alpha virt. eigenvalues --    0.49132   0.49456   0.49728   0.49860   0.50064
 Alpha virt. eigenvalues --    0.50214   0.50431   0.50802   0.50996   0.51099
 Alpha virt. eigenvalues --    0.51141   0.51394   0.51529   0.51724   0.51980
 Alpha virt. eigenvalues --    0.52075   0.52244   0.52459   0.52840   0.52941
 Alpha virt. eigenvalues --    0.53228   0.53395   0.53558   0.53822   0.54055
 Alpha virt. eigenvalues --    0.54218   0.54432   0.54584   0.54882   0.55070
 Alpha virt. eigenvalues --    0.55335   0.55476   0.55700   0.55768   0.56005
 Alpha virt. eigenvalues --    0.56257   0.56378   0.56478   0.56702   0.56814
 Alpha virt. eigenvalues --    0.57148   0.57228   0.57409   0.57534   0.57728
 Alpha virt. eigenvalues --    0.57991   0.58152   0.58380   0.58496   0.58770
 Alpha virt. eigenvalues --    0.58890   0.59227   0.59241   0.59418   0.59521
 Alpha virt. eigenvalues --    0.59706   0.59752   0.60120   0.60246   0.60407
 Alpha virt. eigenvalues --    0.60534   0.60936   0.61023   0.61126   0.61308
 Alpha virt. eigenvalues --    0.61603   0.61644   0.61754   0.61834   0.62087
 Alpha virt. eigenvalues --    0.62228   0.62353   0.62513   0.62667   0.62743
 Alpha virt. eigenvalues --    0.62800   0.62920   0.63132   0.63234   0.63395
 Alpha virt. eigenvalues --    0.63464   0.63594   0.63656   0.63784   0.63868
 Alpha virt. eigenvalues --    0.63969   0.64024   0.64182   0.64323   0.64427
 Alpha virt. eigenvalues --    0.64469   0.64572   0.64741   0.64965   0.65007
 Alpha virt. eigenvalues --    0.65197   0.65235   0.65325   0.65481   0.65551
 Alpha virt. eigenvalues --    0.65606   0.65689   0.65854   0.66074   0.66188
 Alpha virt. eigenvalues --    0.66215   0.66306   0.66449   0.66649   0.66672
 Alpha virt. eigenvalues --    0.66826   0.66943   0.67002   0.67124   0.67171
 Alpha virt. eigenvalues --    0.67428   0.67532   0.67657   0.67699   0.67839
 Alpha virt. eigenvalues --    0.67916   0.67936   0.68020   0.68178   0.68318
 Alpha virt. eigenvalues --    0.68395   0.68483   0.68657   0.68776   0.68800
 Alpha virt. eigenvalues --    0.68901   0.69132   0.69219   0.69311   0.69344
 Alpha virt. eigenvalues --    0.69452   0.69625   0.69733   0.69896   0.70122
 Alpha virt. eigenvalues --    0.70225   0.70349   0.70502   0.70615   0.70779
 Alpha virt. eigenvalues --    0.70846   0.70892   0.70977   0.71256   0.71430
 Alpha virt. eigenvalues --    0.71591   0.71669   0.71745   0.71884   0.71989
 Alpha virt. eigenvalues --    0.72210   0.72423   0.72484   0.72734   0.72970
 Alpha virt. eigenvalues --    0.73074   0.73344   0.73429   0.73755   0.73914
 Alpha virt. eigenvalues --    0.74134   0.74249   0.74342   0.74609   0.74763
 Alpha virt. eigenvalues --    0.74956   0.75084   0.75438   0.75542   0.75671
 Alpha virt. eigenvalues --    0.75996   0.76178   0.76301   0.76400   0.76687
 Alpha virt. eigenvalues --    0.76986   0.77178   0.77259   0.77637   0.77929
 Alpha virt. eigenvalues --    0.78097   0.78290   0.78540   0.78723   0.78910
 Alpha virt. eigenvalues --    0.79252   0.79421   0.79807   0.80053   0.80175
 Alpha virt. eigenvalues --    0.80396   0.80606   0.80688   0.80825   0.81130
 Alpha virt. eigenvalues --    0.81541   0.81813   0.81979   0.82248   0.82614
 Alpha virt. eigenvalues --    0.82787   0.82845   0.83085   0.83353   0.83916
 Alpha virt. eigenvalues --    0.84167   0.84370   0.84544   0.84671   0.85318
 Alpha virt. eigenvalues --    0.85436   0.85822   0.86138   0.86350   0.87066
 Alpha virt. eigenvalues --    0.87269   0.87617   0.88044   0.88326   0.88369
 Alpha virt. eigenvalues --    0.88715   0.88902   0.89389   0.89736   0.89983
 Alpha virt. eigenvalues --    0.90175   0.90299   0.90555   0.90744   0.90965
 Alpha virt. eigenvalues --    0.91164   0.91442   0.91858   0.92041   0.92205
 Alpha virt. eigenvalues --    0.92290   0.92642   0.92830   0.93206   0.93677
 Alpha virt. eigenvalues --    0.93963   0.94080   0.94368   0.94735   0.94966
 Alpha virt. eigenvalues --    0.95284   0.95339   0.95848   0.96281   0.96423
 Alpha virt. eigenvalues --    0.96754   0.96922   0.96959   0.97137   0.97829
 Alpha virt. eigenvalues --    0.97891   0.98127   0.98256   0.98858   0.99297
 Alpha virt. eigenvalues --    0.99575   0.99733   1.00084   1.00184   1.00808
 Alpha virt. eigenvalues --    1.00979   1.01248   1.01644   1.02152   1.02564
 Alpha virt. eigenvalues --    1.02785   1.03201   1.03671   1.03782   1.04096
 Alpha virt. eigenvalues --    1.04355   1.04688   1.04930   1.05179   1.05724
 Alpha virt. eigenvalues --    1.05811   1.05994   1.06397   1.06734   1.07052
 Alpha virt. eigenvalues --    1.07229   1.07342   1.08364   1.08412   1.08732
 Alpha virt. eigenvalues --    1.09042   1.09170   1.09588   1.09816   1.10054
 Alpha virt. eigenvalues --    1.10428   1.10758   1.10893   1.11102   1.11362
 Alpha virt. eigenvalues --    1.11580   1.11944   1.11993   1.12485   1.12745
 Alpha virt. eigenvalues --    1.12994   1.13238   1.13547   1.14156   1.14285
 Alpha virt. eigenvalues --    1.14362   1.14611   1.14939   1.15043   1.15279
 Alpha virt. eigenvalues --    1.15735   1.15894   1.16003   1.16640   1.16925
 Alpha virt. eigenvalues --    1.17300   1.17604   1.17652   1.17837   1.18143
 Alpha virt. eigenvalues --    1.18276   1.18522   1.18840   1.19174   1.19486
 Alpha virt. eigenvalues --    1.19845   1.20019   1.20058   1.20441   1.20776
 Alpha virt. eigenvalues --    1.21059   1.21150   1.21566   1.21832   1.22007
 Alpha virt. eigenvalues --    1.22383   1.22891   1.23142   1.23320   1.23474
 Alpha virt. eigenvalues --    1.23780   1.23877   1.24157   1.24765   1.24843
 Alpha virt. eigenvalues --    1.24963   1.25275   1.25432   1.25725   1.26079
 Alpha virt. eigenvalues --    1.26388   1.26552   1.26689   1.27083   1.27525
 Alpha virt. eigenvalues --    1.27759   1.27765   1.28402   1.28503   1.28759
 Alpha virt. eigenvalues --    1.28980   1.29335   1.29544   1.29679   1.29958
 Alpha virt. eigenvalues --    1.30043   1.30272   1.30405   1.30840   1.31136
 Alpha virt. eigenvalues --    1.31318   1.31607   1.31731   1.32195   1.32349
 Alpha virt. eigenvalues --    1.32806   1.32997   1.33517   1.33728   1.33878
 Alpha virt. eigenvalues --    1.34201   1.34428   1.34868   1.35270   1.35659
 Alpha virt. eigenvalues --    1.35760   1.35867   1.36110   1.36785   1.36959
 Alpha virt. eigenvalues --    1.37106   1.37381   1.37652   1.37762   1.38122
 Alpha virt. eigenvalues --    1.38338   1.38508   1.39017   1.39214   1.39351
 Alpha virt. eigenvalues --    1.39893   1.40406   1.40720   1.40847   1.41031
 Alpha virt. eigenvalues --    1.41644   1.41832   1.41942   1.42392   1.42571
 Alpha virt. eigenvalues --    1.42805   1.43178   1.43697   1.43788   1.44097
 Alpha virt. eigenvalues --    1.44390   1.44520   1.44944   1.45192   1.45448
 Alpha virt. eigenvalues --    1.45943   1.46096   1.46185   1.46401   1.46590
 Alpha virt. eigenvalues --    1.46687   1.47328   1.47656   1.47789   1.47938
 Alpha virt. eigenvalues --    1.48292   1.48521   1.48582   1.48962   1.49241
 Alpha virt. eigenvalues --    1.49584   1.49697   1.50227   1.50582   1.50889
 Alpha virt. eigenvalues --    1.50982   1.51214   1.51458   1.51623   1.51762
 Alpha virt. eigenvalues --    1.51951   1.52697   1.52998   1.53165   1.53393
 Alpha virt. eigenvalues --    1.54233   1.54410   1.54704   1.54808   1.55196
 Alpha virt. eigenvalues --    1.55521   1.55623   1.55846   1.56003   1.56546
 Alpha virt. eigenvalues --    1.56795   1.57117   1.58024   1.58469   1.58874
 Alpha virt. eigenvalues --    1.59278   1.59472   1.60094   1.60447   1.60577
 Alpha virt. eigenvalues --    1.60942   1.61179   1.61286   1.62035   1.62205
 Alpha virt. eigenvalues --    1.62517   1.62933   1.63334   1.63835   1.63959
 Alpha virt. eigenvalues --    1.64050   1.64431   1.64645   1.64892   1.65076
 Alpha virt. eigenvalues --    1.65339   1.65717   1.65885   1.66545   1.66831
 Alpha virt. eigenvalues --    1.67108   1.67533   1.67630   1.67806   1.67953
 Alpha virt. eigenvalues --    1.68039   1.68412   1.68870   1.69307   1.69605
 Alpha virt. eigenvalues --    1.69946   1.70155   1.70343   1.70699   1.71061
 Alpha virt. eigenvalues --    1.71327   1.71533   1.71727   1.72216   1.72312
 Alpha virt. eigenvalues --    1.72570   1.72652   1.72743   1.72918   1.73414
 Alpha virt. eigenvalues --    1.73735   1.73845   1.74009   1.74125   1.74403
 Alpha virt. eigenvalues --    1.74744   1.74805   1.75109   1.75201   1.75353
 Alpha virt. eigenvalues --    1.75447   1.75730   1.75773   1.76147   1.76195
 Alpha virt. eigenvalues --    1.76338   1.76562   1.76654   1.77035   1.77133
 Alpha virt. eigenvalues --    1.77268   1.77459   1.77714   1.77950   1.78030
 Alpha virt. eigenvalues --    1.78084   1.78226   1.78395   1.78676   1.78729
 Alpha virt. eigenvalues --    1.79014   1.79200   1.79415   1.79583   1.79901
 Alpha virt. eigenvalues --    1.80054   1.80132   1.80283   1.80353   1.80603
 Alpha virt. eigenvalues --    1.80719   1.80842   1.81041   1.81248   1.81300
 Alpha virt. eigenvalues --    1.81524   1.81670   1.81847   1.82188   1.82200
 Alpha virt. eigenvalues --    1.82453   1.82652   1.82869   1.82920   1.83136
 Alpha virt. eigenvalues --    1.83230   1.83451   1.83635   1.83810   1.83900
 Alpha virt. eigenvalues --    1.84020   1.84218   1.84317   1.84569   1.84708
 Alpha virt. eigenvalues --    1.84832   1.85045   1.85300   1.85571   1.85775
 Alpha virt. eigenvalues --    1.86054   1.86289   1.86433   1.86745   1.86864
 Alpha virt. eigenvalues --    1.86953   1.87517   1.87815   1.87889   1.87970
 Alpha virt. eigenvalues --    1.88356   1.88627   1.88795   1.88855   1.89015
 Alpha virt. eigenvalues --    1.89287   1.89473   1.89861   1.89968   1.90276
 Alpha virt. eigenvalues --    1.90426   1.90455   1.90747   1.91291   1.91342
 Alpha virt. eigenvalues --    1.91513   1.91716   1.91753   1.92114   1.92286
 Alpha virt. eigenvalues --    1.92450   1.92668   1.92700   1.92810   1.93118
 Alpha virt. eigenvalues --    1.93229   1.93549   1.93609   1.93729   1.93953
 Alpha virt. eigenvalues --    1.94107   1.94310   1.94601   1.94685   1.94844
 Alpha virt. eigenvalues --    1.94921   1.95106   1.95267   1.95386   1.95724
 Alpha virt. eigenvalues --    1.95861   1.96126   1.96498   1.96623   1.96949
 Alpha virt. eigenvalues --    1.97140   1.97546   1.97720   1.97820   1.97921
 Alpha virt. eigenvalues --    1.98408   1.98647   1.98872   1.98988   1.99174
 Alpha virt. eigenvalues --    1.99306   1.99467   1.99732   1.99939   2.00231
 Alpha virt. eigenvalues --    2.00404   2.00612   2.00988   2.01199   2.01450
 Alpha virt. eigenvalues --    2.01914   2.02187   2.02407   2.02670   2.02703
 Alpha virt. eigenvalues --    2.03051   2.03571   2.03688   2.03879   2.04083
 Alpha virt. eigenvalues --    2.04254   2.04706   2.04833   2.05225   2.05367
 Alpha virt. eigenvalues --    2.05979   2.06158   2.06345   2.06700   2.06913
 Alpha virt. eigenvalues --    2.07386   2.07582   2.07699   2.07728   2.07944
 Alpha virt. eigenvalues --    2.08351   2.08665   2.09151   2.09222   2.09566
 Alpha virt. eigenvalues --    2.09817   2.10002   2.10221   2.10252   2.10440
 Alpha virt. eigenvalues --    2.10563   2.11189   2.11530   2.11890   2.12006
 Alpha virt. eigenvalues --    2.12163   2.12498   2.12711   2.12868   2.12969
 Alpha virt. eigenvalues --    2.13425   2.13536   2.13622   2.14008   2.14223
 Alpha virt. eigenvalues --    2.14740   2.14941   2.15022   2.15515   2.15924
 Alpha virt. eigenvalues --    2.15951   2.16761   2.17002   2.17263   2.17863
 Alpha virt. eigenvalues --    2.17945   2.18169   2.18465   2.18958   2.19215
 Alpha virt. eigenvalues --    2.19432   2.19795   2.20275   2.20365   2.20988
 Alpha virt. eigenvalues --    2.21214   2.21825   2.22222   2.22471   2.22653
 Alpha virt. eigenvalues --    2.22818   2.23774   2.24005   2.24395   2.24659
 Alpha virt. eigenvalues --    2.24737   2.25147   2.25278   2.26093   2.26246
 Alpha virt. eigenvalues --    2.26296   2.26841   2.26863   2.27026   2.27205
 Alpha virt. eigenvalues --    2.27948   2.28096   2.28343   2.28948   2.29132
 Alpha virt. eigenvalues --    2.29608   2.29872   2.30180   2.30254   2.30691
 Alpha virt. eigenvalues --    2.31023   2.31232   2.31306   2.31766   2.32053
 Alpha virt. eigenvalues --    2.32606   2.33094   2.33231   2.33366   2.33739
 Alpha virt. eigenvalues --    2.33969   2.34064   2.34710   2.34827   2.35228
 Alpha virt. eigenvalues --    2.35394   2.35983   2.36164   2.36305   2.36511
 Alpha virt. eigenvalues --    2.36653   2.36960   2.37406   2.37545   2.38025
 Alpha virt. eigenvalues --    2.38327   2.38790   2.39034   2.39232   2.40155
 Alpha virt. eigenvalues --    2.40268   2.40377   2.40798   2.40999   2.41165
 Alpha virt. eigenvalues --    2.41327   2.41400   2.42632   2.42817   2.43098
 Alpha virt. eigenvalues --    2.43536   2.43697   2.43812   2.44130   2.44263
 Alpha virt. eigenvalues --    2.44621   2.45543   2.46109   2.46246   2.46475
 Alpha virt. eigenvalues --    2.46639   2.47065   2.47313   2.47660   2.47872
 Alpha virt. eigenvalues --    2.48097   2.48550   2.48875   2.49163   2.49778
 Alpha virt. eigenvalues --    2.50121   2.50353   2.50671   2.51313   2.51734
 Alpha virt. eigenvalues --    2.52656   2.52740   2.53208   2.53543   2.53979
 Alpha virt. eigenvalues --    2.54188   2.54352   2.54712   2.55468   2.55810
 Alpha virt. eigenvalues --    2.56182   2.56287   2.56453   2.56802   2.56925
 Alpha virt. eigenvalues --    2.57423   2.57742   2.57974   2.58264   2.58789
 Alpha virt. eigenvalues --    2.58884   2.59177   2.59376   2.59897   2.60036
 Alpha virt. eigenvalues --    2.60291   2.60308   2.60676   2.61243   2.61305
 Alpha virt. eigenvalues --    2.61772   2.62041   2.62268   2.62282   2.62720
 Alpha virt. eigenvalues --    2.62937   2.63123   2.63787   2.64182   2.64392
 Alpha virt. eigenvalues --    2.64710   2.64920   2.65179   2.65645   2.65968
 Alpha virt. eigenvalues --    2.66226   2.66847   2.67300   2.67877   2.68005
 Alpha virt. eigenvalues --    2.68383   2.68545   2.68691   2.69202   2.69415
 Alpha virt. eigenvalues --    2.69723   2.69773   2.69910   2.70445   2.70925
 Alpha virt. eigenvalues --    2.71239   2.71394   2.71597   2.72151   2.72254
 Alpha virt. eigenvalues --    2.72322   2.72691   2.72979   2.73251   2.73394
 Alpha virt. eigenvalues --    2.73551   2.73659   2.73842   2.74107   2.74367
 Alpha virt. eigenvalues --    2.74778   2.74883   2.75383   2.75651   2.76155
 Alpha virt. eigenvalues --    2.76323   2.76509   2.76554   2.77021   2.77146
 Alpha virt. eigenvalues --    2.77413   2.78004   2.78218   2.78383   2.78626
 Alpha virt. eigenvalues --    2.78707   2.79007   2.79143   2.79205   2.79376
 Alpha virt. eigenvalues --    2.79766   2.79909   2.80221   2.80454   2.80627
 Alpha virt. eigenvalues --    2.80690   2.80854   2.81218   2.82112   2.82247
 Alpha virt. eigenvalues --    2.82791   2.83005   2.83408   2.84075   2.84255
 Alpha virt. eigenvalues --    2.84357   2.84735   2.85987   2.86158   2.86284
 Alpha virt. eigenvalues --    2.86557   2.86752   2.87293   2.87460   2.87792
 Alpha virt. eigenvalues --    2.88202   2.88621   2.88800   2.88851   2.89264
 Alpha virt. eigenvalues --    2.89663   2.89712   2.89947   2.90163   2.90567
 Alpha virt. eigenvalues --    2.90614   2.91216   2.91394   2.91479   2.91755
 Alpha virt. eigenvalues --    2.92231   2.92681   2.93147   2.93193   2.93552
 Alpha virt. eigenvalues --    2.93848   2.94130   2.94204   2.94333   2.94978
 Alpha virt. eigenvalues --    2.95099   2.95362   2.95592   2.96160   2.96325
 Alpha virt. eigenvalues --    2.96902   2.97016   2.97473   2.97619   2.97852
 Alpha virt. eigenvalues --    2.98203   2.98620   2.99099   2.99358   2.99777
 Alpha virt. eigenvalues --    3.00003   3.00428   3.00683   3.01089   3.01333
 Alpha virt. eigenvalues --    3.01407   3.01625   3.01822   3.01994   3.02194
 Alpha virt. eigenvalues --    3.02258   3.02732   3.03168   3.03694   3.03878
 Alpha virt. eigenvalues --    3.03958   3.04849   3.05175   3.05486   3.06181
 Alpha virt. eigenvalues --    3.06589   3.07057   3.07464   3.08341   3.08617
 Alpha virt. eigenvalues --    3.08668   3.09220   3.09537   3.10135   3.10237
 Alpha virt. eigenvalues --    3.10558   3.11101   3.11461   3.12869   3.13913
 Alpha virt. eigenvalues --    3.14091   3.14946   3.15204   3.15634   3.16604
 Alpha virt. eigenvalues --    3.16715   3.16794   3.16939   3.17279   3.17358
 Alpha virt. eigenvalues --    3.17475   3.17647   3.17956   3.18318   3.18802
 Alpha virt. eigenvalues --    3.18846   3.19380   3.19757   3.19920   3.20315
 Alpha virt. eigenvalues --    3.20825   3.20935   3.21109   3.21315   3.22071
 Alpha virt. eigenvalues --    3.22156   3.22679   3.23625   3.23652   3.23900
 Alpha virt. eigenvalues --    3.24237   3.24609   3.25459   3.25618   3.26537
 Alpha virt. eigenvalues --    3.27678   3.28338   3.29754   3.30544   3.30859
 Alpha virt. eigenvalues --    3.31458   3.32191   3.33120   3.33853   3.34553
 Alpha virt. eigenvalues --    3.35507   3.35982   3.36249   3.36794   3.38664
 Alpha virt. eigenvalues --    3.39115   3.39493   3.47414   3.49060   3.51876
 Alpha virt. eigenvalues --    3.51896   3.52942   3.53692   3.54956   3.55834
 Alpha virt. eigenvalues --    3.56849   3.57451   3.57951   3.58265   3.58941
 Alpha virt. eigenvalues --    3.59550   3.61309   3.61893   3.62025   3.62918
 Alpha virt. eigenvalues --    3.64186   3.65503   3.66310   3.67250   3.67933
 Alpha virt. eigenvalues --    3.67952   3.68394   3.69277   3.69443   3.70284
 Alpha virt. eigenvalues --    3.70499   3.70961   3.71107   3.71290   3.71565
 Alpha virt. eigenvalues --    3.71999   3.72073   3.72501   3.72910   3.73788
 Alpha virt. eigenvalues --    3.74529   3.80850   3.83136   3.87886
          Condensed to atoms (all electrons):
 Mulliken charges:
               1
     1  C    0.039518
     2  C    0.044852
     3  O   -0.312202
     4  H    0.023078
     5  H    0.032103
     6  H    0.020041
     7  N   -0.121927
     8  C    0.043871
     9  C    0.089345
    10  O   -0.288273
    11  C    0.146323
    12  C    0.093465
    13  O   -0.400407
    14  O   -0.431510
    15  H    0.124196
    16  H    0.025068
    17  H   -0.002334
    18  H    0.008773
    19  N   -0.150216
    20  C    0.130215
    21  C    0.074708
    22  O   -0.310695
    23  C    0.000828
    24  C    0.035177
    25  C   -0.045929
    26  C    0.011729
    27  N    0.094815
    28  H    0.154703
    29  H   -0.009105
    30  H    0.004842
    31  H    0.032825
    32  H    0.031971
    33  H    0.037059
    34  H    0.035763
    35  H    0.012821
    36  H    0.076793
    37  H    0.099275
    38  H    0.182233
    39  H    0.195787
    40  H    0.182588
    41  N   -0.140562
    42  C    0.123158
    43  C    0.008772
    44  O   -0.292950
    45  C    0.085610
    46  C    0.126288
    47  O   -0.395299
    48  O   -0.467433
    49  H    0.167738
    50  H    0.024174
    51  H    0.008692
    52  H    0.030363
    53  N   -0.145994
    54  C    0.273840
    55  C   -0.004338
    56  O   -0.290274
    57  H    0.111241
    58  H    0.018420
    59  H    0.003341
    60  N   -0.167021
    61  C    0.146484
    62  C    0.059597
    63  O   -0.274060
    64  C    0.047981
    65  C    0.098697
    66  N   -0.026140
    67  O   -0.361002
    68  H    0.146899
    69  H    0.026776
    70  H    0.050830
    71  H    0.017090
    72  H    0.120627
    73  H    0.128252
    74  N   -0.152030
    75  C    0.200514
    76  C    0.030334
    77  O   -0.285101
    78  H    0.136395
    79  H    0.034176
    80  H    0.039973
    81  N   -0.128934
    82  C    0.116191
    83  C    0.150458
    84  O   -0.316331
    85  C    0.180256
    86  C   -0.071176
    87  C    0.005063
    88  C    0.008687
    89  C   -0.003899
    90  C   -0.028372
    91  C    0.106723
    92  O   -0.214830
    93  H    0.140462
    94  H   -0.004073
    95  H    0.009254
    96  H   -0.003257
    97  H   -0.009045
    98  H   -0.026460
    99  H   -0.019305
   100  H   -0.060810
   101  H    0.174928
   102  N   -0.122009
   103  C    0.125438
   104  C    0.106513
   105  O   -0.287850
   106  C   -0.132001
   107  C    0.003139
   108  C    0.061409
   109  C    0.029216
   110  H    0.129395
   111  H    0.016051
   112  H   -0.027554
   113  H   -0.029170
   114  H    0.029896
   115  H    0.019781
   116  H    0.034706
   117  H    0.002629
   118  H    0.005992
   119  H    0.008358
   120  H    0.007195
   121  N   -0.154745
   122  C    0.049644
   123  C    0.138027
   124  O   -0.283019
   125  C    0.258910
   126  O   -0.332569
   127  H    0.149606
   128  H    0.018376
   129  H    0.001690
   130  H   -0.019980
   131  H    0.175811
   132  N   -0.109529
   133  C    0.118892
   134  C    0.032288
   135  O   -0.269210
   136  C   -0.014577
   137  H    0.115594
   138  H    0.026918
   139  H    0.039929
   140  H    0.018848
   141  H    0.045919
   142  N   -0.123219
   143  C    0.081671
   144  C    0.084192
   145  O   -0.285834
   146  C    0.038916
   147  H    0.104933
   148  H    0.038875
   149  H    0.009426
   150  H    0.001186
   151  H    0.049925
   152  N   -0.139717
   153  C    0.147685
   154  C    0.060834
   155  O   -0.304699
   156  C   -0.027180
   157  C    0.111526
   158  C    0.186407
   159  O   -0.403154
   160  O   -0.442901
   161  H    0.129538
   162  H   -0.024903
   163  H    0.024318
   164  H    0.009780
   165  H   -0.033598
   166  H   -0.008368
   167  N   -0.170865
   168  C    0.146427
   169  H    0.024375
   170  H    0.020098
   171  H    0.002295
   172  H    0.134421
   173  Ca   1.286146
   174  O   -0.312881
   175  H    0.164473
   176  H    0.150158
 Sum of Mulliken charges =  -0.00000
 Mulliken charges with hydrogens summed into heavy atoms:
               1
     1  C    0.114739
     2  C    0.044852
     3  O   -0.312202
     7  N    0.002269
     8  C    0.068939
     9  C    0.089345
    10  O   -0.288273
    11  C    0.152761
    12  C    0.093465
    13  O   -0.400407
    14  O   -0.431510
    19  N    0.004486
    20  C    0.121110
    21  C    0.074708
    22  O   -0.310695
    23  C    0.038494
    24  C    0.104208
    25  C    0.002655
    26  C    0.187798
    27  N    0.655423
    41  N    0.027176
    42  C    0.147332
    43  C    0.008772
    44  O   -0.292950
    45  C    0.124664
    46  C    0.126288
    47  O   -0.395299
    48  O   -0.467433
    53  N   -0.034752
    54  C    0.295601
    55  C   -0.004338
    56  O   -0.290274
    60  N   -0.020121
    61  C    0.173260
    62  C    0.059597
    63  O   -0.274060
    64  C    0.115900
    65  C    0.098697
    66  N    0.222739
    67  O   -0.361002
    74  N   -0.015634
    75  C    0.274664
    76  C    0.030334
    77  O   -0.285101
    81  N    0.011528
    82  C    0.112118
    83  C    0.150458
    84  O   -0.316331
    85  C    0.186254
    86  C   -0.071176
    87  C   -0.003982
    88  C   -0.017773
    89  C   -0.023204
    90  C   -0.089182
    91  C    0.106723
    92  O   -0.039902
   102  N    0.007385
   103  C    0.141489
   104  C    0.106513
   105  O   -0.287850
   106  C   -0.159555
   107  C    0.003866
   108  C    0.118525
   109  C    0.050762
   121  N   -0.005139
   122  C    0.068020
   123  C    0.138027
   124  O   -0.283019
   125  C    0.240620
   126  O   -0.156758
   132  N    0.006065
   133  C    0.145810
   134  C    0.032288
   135  O   -0.269210
   136  C    0.090120
   142  N   -0.018285
   143  C    0.120547
   144  C    0.084192
   145  O   -0.285834
   146  C    0.099452
   152  N   -0.010179
   153  C    0.122783
   154  C    0.060834
   155  O   -0.304699
   156  C    0.006917
   157  C    0.069560
   158  C    0.186407
   159  O   -0.403154
   160  O   -0.442901
   167  N   -0.036444
   168  C    0.193196
   173  Ca   1.286146
   174  O    0.001751
 DipInt: DoE/N= T F RetVal/Mat= T F Init=T NMatP=  1 IDeriv=0 Min/MaxMlt=  0  4
 Entering OneElI...
 OneElI was handed  1333951383 working-precision words.
 Multipole integrals L=0 to 4 MinM= 0 MaxM= 0.
 Requested accuracy = 0.1000D-12
 ShPair: Thresh= 1.00D-13 NBox=     0 BxSize= 0.00D+00 RnKept= 2.55D+01
         NSMCal=               327645 NSMKep=              166208
 PrmmSu-InSpLW:  IPartL=    0 NPrtUS=    1 NPrtUL=    1 DoSpLW=F IThBeg=    0 IThEnd=    0 NThAct=    1.
 PrsmSu:  NPrtUS=   1 ThrOK=F IAlg=1 NPAlg=1 LenDen=           0 ISkipM=0 DoSpLW=F IThBeg=    0 IThEnd=    0.
 Prism:   IPart=     0 DynPar=F LinDyn=F Incr=         512.
 PRISM was handed  1323670511 working-precision words and166208 shell-pairs
 IPart=  0 NShTot=      166208 NBatch=         379 AvBLen=       438.5
 PrsmSu-ThDecC:  IPartSL=    0    0 NPrtUSL=    1    1 IThBeg=    0 IThEnd=    0 CPU=   -1 GPU=   -1 NThAct=    1.
 PrSmSu:  NxtVal=            513.
 Electronic moments (au):
       -716.00000000         10.26148745          3.02362115          0.24387597
     -46446.94940198     -29086.22177693     -13317.91644885         51.90458256
        -18.14969052         46.94451080     -93015.98600542     -41556.86252313
     -20724.82374591      -6835.17070795      48052.20860690      33802.08209543
       5119.47759017      -4906.61786881       1945.85246744     -17922.63563456
   -6405956.33637381   -2509861.38529059    -671269.58442998     409011.21393085
     404047.23887191    -296919.52979068     -45007.04560101     -49434.35289909
     -93897.33695481   -1375964.26021884    -613546.57360804    -499308.79486682
      49970.00442593     -35984.51119163     -57618.19395054
 Electronic spatial extent (au):  <R**2>=          88851.0876
 DipInt: DoE/N= F T RetVal/Mat= T F Init=T NMatP=  1 IDeriv=0 Min/MaxMlt=  0  4
 Nuclear    moments (au):
        716.00000000         -0.00000000          0.00000000         -0.00000000
      45986.44809103      28780.96999871      12914.27936262         -0.00000000
          0.00000000          0.00000000      94090.87849571      43452.92468139
      20799.37174228       8891.40790709     -47981.42297290     -34064.20327710
      -5073.85933673       4851.00693274      -2026.07422375      17751.94930442
    6225423.07100321    2437764.45926747     626395.91257168    -408833.29375958
    -404652.31391281     315948.74097411      48404.45263040      49931.16098043
      97322.39342538    1342877.48375297     580050.39228878     474129.21787245
     -46345.20087564      34691.12786842      57173.93095543
 Total      moments (au):
         -0.00000000         10.26148745          3.02362115          0.24387597
       -460.50131094       -305.25177822       -403.63708623         51.90458256
        -18.14969052         46.94451080       1074.89249029       1896.06215827
         74.54799637       2056.23719914         70.78563400       -262.12118167
         45.61825344        -55.61093607        -80.22175632       -170.68633014
    -180533.26537060     -72096.92602311     -44873.67185830        177.92017127
       -605.07504090      19029.21118342       3397.40702939        496.80808135
       3425.05647057     -33086.77646587     -33496.18131926     -25179.57699437
       3624.80355029      -1293.38332321       -444.26299511
 Traceless Quadrup. (au):
        -70.70458581         84.54494691        -13.84036110         51.90458256
        -18.14969052         46.94451080
 Charge=             -0.0000 electrons
 Dipole moment (field-independent basis, Debye):
    X=             26.0821    Y=              7.6853    Z=              0.6199  Tot=             27.1979
 Quadrupole moment (field-independent basis, Debye-Ang):
   XX=           -619.3900   YY=           -410.5741   ZZ=           -542.9057
   XY=             69.8134   XZ=            -24.4120   YZ=             63.1420
 Traceless Quadrupole moment (field-independent basis, Debye-Ang):
   XX=            -95.1001   YY=            113.7158   ZZ=            -18.6158
   XY=             69.8134   XZ=            -24.4120   YZ=             63.1420
 Octapole moment (field-independent basis, Debye-Ang**2):
  XXX=            765.0671  YYY=           1349.5440  ZZZ=             53.0604  XYY=           1463.5504
  XXY=             50.3825  XXZ=           -186.5678  XZZ=             32.4693  YZZ=            -39.5817
  YYZ=            -57.0988  XYZ=           -121.4880
 Hexadecapole moment (field-independent basis, Debye-Ang**3):
 XXXX=         -67997.4846 YYYY=         -27155.1595 ZZZZ=         -16901.5766 XXXY=             67.0133
 XXXZ=           -227.9003 YYYX=           7167.3134 YYYZ=           1279.6264 ZZZX=            187.1217
 ZZZY=           1290.0405 XXYY=         -12462.0666 XXZZ=         -12616.2681 YYZZ=          -9483.8361
 XXYZ=           1365.2748 YYXZ=           -487.1502 ZZXY=           -167.3307
 N-N= 2.202079059060D+04 E-N=-5.652217364036D+04  KE= 5.290573779469D+03
 Leave Link  601 at Sat Sep 14 23:47:12 2019, MaxMem=  1342177280 cpu:              44.4 elap:               1.2
 FitSet:  NAtFit=   176 NAtPot=   176 NAtFrz=     0 MDM=   180 TotChg=   0.00000
 Merz-Kollman atomic radii used.
 Read replacement radii for each type of atom:
 Rad(20) =   1.700000000000D+00
 Atom Element Radius
    1     6    1.50
    2     6    1.50
    3     8    1.40
    4     1    1.20
    5     1    1.20
    6     1    1.20
    7     7    1.50
    8     6    1.50
    9     6    1.50
   10     8    1.40
   11     6    1.50
   12     6    1.50
   13     8    1.40
   14     8    1.40
   15     1    1.20
   16     1    1.20
   17     1    1.20
   18     1    1.20
   19     7    1.50
   20     6    1.50
   21     6    1.50
   22     8    1.40
   23     6    1.50
   24     6    1.50
   25     6    1.50
   26     6    1.50
   27     7    1.50
   28     1    1.20
   29     1    1.20
   30     1    1.20
   31     1    1.20
   32     1    1.20
   33     1    1.20
   34     1    1.20
   35     1    1.20
   36     1    1.20
   37     1    1.20
   38     1    1.20
   39     1    1.20
   40     1    1.20
   41     7    1.50
   42     6    1.50
   43     6    1.50
   44     8    1.40
   45     6    1.50
   46     6    1.50
   47     8    1.40
   48     8    1.40
   49     1    1.20
   50     1    1.20
   51     1    1.20
   52     1    1.20
   53     7    1.50
   54     6    1.50
   55     6    1.50
   56     8    1.40
   57     1    1.20
   58     1    1.20
   59     1    1.20
   60     7    1.50
   61     6    1.50
   62     6    1.50
   63     8    1.40
   64     6    1.50
   65     6    1.50
   66     7    1.50
   67     8    1.40
   68     1    1.20
   69     1    1.20
   70     1    1.20
   71     1    1.20
   72     1    1.20
   73     1    1.20
   74     7    1.50
   75     6    1.50
   76     6    1.50
   77     8    1.40
   78     1    1.20
   79     1    1.20
   80     1    1.20
   81     7    1.50
   82     6    1.50
   83     6    1.50
   84     8    1.40
   85     6    1.50
   86     6    1.50
   87     6    1.50
   88     6    1.50
   89     6    1.50
   90     6    1.50
   91     6    1.50
   92     8    1.40
   93     1    1.20
   94     1    1.20
   95     1    1.20
   96     1    1.20
   97     1    1.20
   98     1    1.20
   99     1    1.20
  100     1    1.20
  101     1    1.20
  102     7    1.50
  103     6    1.50
  104     6    1.50
  105     8    1.40
  106     6    1.50
  107     6    1.50
  108     6    1.50
  109     6    1.50
  110     1    1.20
  111     1    1.20
  112     1    1.20
  113     1    1.20
  114     1    1.20
  115     1    1.20
  116     1    1.20
  117     1    1.20
  118     1    1.20
  119     1    1.20
  120     1    1.20
  121     7    1.50
  122     6    1.50
  123     6    1.50
  124     8    1.40
  125     6    1.50
  126     8    1.40
  127     1    1.20
  128     1    1.20
  129     1    1.20
  130     1    1.20
  131     1    1.20
  132     7    1.50
  133     6    1.50
  134     6    1.50
  135     8    1.40
  136     6    1.50
  137     1    1.20
  138     1    1.20
  139     1    1.20
  140     1    1.20
  141     1    1.20
  142     7    1.50
  143     6    1.50
  144     6    1.50
  145     8    1.40
  146     6    1.50
  147     1    1.20
  148     1    1.20
  149     1    1.20
  150     1    1.20
  151     1    1.20
  152     7    1.50
  153     6    1.50
  154     6    1.50
  155     8    1.40
  156     6    1.50
  157     6    1.50
  158     6    1.50
  159     8    1.40
  160     8    1.40
  161     1    1.20
  162     1    1.20
  163     1    1.20
  164     1    1.20
  165     1    1.20
  166     1    1.20
  167     7    1.50
  168     6    1.50
  169     1    1.20
  170     1    1.20
  171     1    1.20
  172     1    1.20
  173    20    1.70
  174     8    1.40
  175     1    1.20
  176     1    1.20
[...]
 **** Fit      -0.010486
 **** Fit      -0.007037
 **** Fit      -0.003841
 **** Fit      -0.001616
 **** Fit      -0.001192
 **** Fit      -0.003300
 **** Fit      -0.008294
 **** Fit      -0.015754
 **** Fit      -0.025286
 **** Fit      -0.018949
 **** Fit      -0.016987
 **** Fit      -0.014150
 **** Fit      -0.010533
 **** Fit      -0.006301
 **** Fit      -0.001751
 **** Fit       0.002614
 **** Fit       0.006056
 **** Fit       0.007697
 **** Fit       0.006725
 **** Fit      -0.021038
 **** Fit      -0.019831
 **** Fit      -0.017660
 **** Fit      -0.014572
 **** Fit      -0.010595
 **** Fit      -0.005784
 **** Fit      -0.000278
 **** Fit       0.005612
 **** Fit       0.011311
 **** Fit       0.015964
 **** Fit       0.018610
 **** Fit      -0.022165
 **** Fit      -0.020638
 **** Fit      -0.018102
 **** Fit      -0.014566
 **** Fit      -0.010009
 **** Fit      -0.004410
 **** Fit       0.002190
 **** Fit       0.009585
 **** Fit       0.017259
 **** Fit       0.024279
 **** Fit      -0.023526
 **** Fit      -0.021663
 **** Fit      -0.018802
 **** Fit      -0.014911
 **** Fit      -0.009921
 **** Fit      -0.003749
 **** Fit       0.003655
 **** Fit       0.012210
 **** Fit       0.021524
 **** Fit      -0.026563
 **** Fit      -0.025221
 **** Fit      -0.022928
 **** Fit      -0.019640
 **** Fit      -0.015286
 **** Fit      -0.009760
 **** Fit      -0.002935
 **** Fit       0.005300
 **** Fit       0.014926
 **** Fit       0.025585
 **** Fit      -0.029326
 **** Fit      -0.027418
 **** Fit      -0.024567
 **** Fit      -0.020701
 **** Fit      -0.015724
 **** Fit      -0.009507
 **** Fit      -0.001892
 **** Fit       0.007250
 **** Fit       0.017890
 **** Fit      -0.030394
 **** Fit      -0.033029
 **** Fit      -0.030474
 **** Fit      -0.026962
 **** Fit      -0.022452
 **** Fit      -0.016857
 **** Fit      -0.010047
 **** Fit      -0.001866
 **** Fit       0.007799
 **** Fit       0.018888
 **** Fit      -0.034667
 **** Fit      -0.029963
 **** Fit      -0.024247
 **** Fit      -0.017461
 **** Fit      -0.009461
 **** Fit      -0.000097
 **** Fit       0.010698
 **** Fit      -0.026205
 **** Fit      -0.017700
 **** Fit      -0.008099
 **** Fit       0.002736
 **** Fit      -0.018202
 **** Fit      -0.007103
 **** Fit      -0.022686
 **** Fit      -0.022723
 **** Fit      -0.020861
 **** Fit      -0.017997
 **** Fit      -0.015482
 **** Fit       0.001030
 **** Fit      -0.017250
 **** Fit      -0.016478
 **** Fit      -0.014392
 **** Fit      -0.012124
 **** Fit      -0.000332
 **** Fit      -0.011769
 **** Fit      -0.009665
 **** Fit      -0.007351
 **** Fit      -0.004427
 **** Fit      -0.031410
 **** Fit      -0.027537
 **** Fit       0.007819
 **** Fit       0.018419
 **** Fit       0.010460
 **** Fit       0.005658
 **** Fit       0.003755
 **** Fit       0.008358
 **** Fit       0.008857
 **** Fit       0.002176
 **** Fit       0.002415
 **** Fit       0.003367
 **** Fit      -0.002950
 **** Fit       0.002172
 **** Fit       0.004225
 **** Fit       0.001378
 **** Fit       0.000751
 **** Fit      -0.010218
 **** Fit      -0.009825
 **** Fit      -0.007409
 **** Fit      -0.002977
 **** Fit       0.000525
 **** Fit      -0.001107
 **** Fit      -0.001772
 **** Fit      -0.006600
 **** Fit      -0.006328
 **** Fit      -0.003287
 **** Fit      -0.003771
 **** Fit       0.002958
 **** Fit       0.006276
 **** Fit       0.002304
 **** Fit       0.003888
 **** Fit       0.006429
 **** Fit       0.009171
 **** Fit      -0.021365
 **** Fit      -0.022346
 **** Fit       0.001690
 **** Fit       0.002271
 **** Fit       0.003726
 **** Fit       0.005401
 **** Fit       0.006284
 **** Fit       0.005190
 **** Fit       0.001632
 **** Fit      -0.003687
 **** Fit      -0.009403
 **** Fit      -0.014123
 **** Fit      -0.016545
 **** Fit      -0.016156
 **** Fit       0.001248
 **** Fit       0.001239
 **** Fit       0.002418
 **** Fit       0.002582
 **** Fit       0.000446
 **** Fit      -0.003953
 **** Fit      -0.008700
 **** Fit      -0.011386
 **** Fit      -0.010936
 **** Fit      -0.008389
 **** Fit      -0.005246
 **** Fit      -0.002361
 **** Fit      -0.000245
 **** Fit      -0.000681
 **** Fit      -0.000600
 **** Fit      -0.003816
 **** Fit      -0.006997
 **** Fit      -0.006006
 **** Fit      -0.002919
 **** Fit      -0.003430
 **** Fit       0.000879
 **** Fit       0.000904
 **** Fit       0.000448
 **** Fit       0.000291
 **** Fit       0.000709
 **** Fit       0.001417
 **** Fit       0.001439
 **** Fit       0.000778
 **** Fit       0.000361
 **** Fit       0.000060
 **** Fit      -0.000217
 **** Fit       0.000403
 **** Fit       0.001334
 **** Fit       0.000497
 **** Fit       0.000133
 **** Fit      -0.000152
 **** Fit      -0.000034
 **** Fit       0.001619
 **** Fit       0.000976
 **** Fit       0.000060
 **** Fit      -0.000262
 **** Fit      -0.000544
 **** Fit      -0.000784
 **** Fit      -0.001197
 **** Fit       0.000030
 **** Fit       0.001039
 **** Fit       0.000466
 **** Fit      -0.000524
 **** Fit      -0.000784
 **** Fit      -0.001051
 **** Fit      -0.001324
 **** Fit      -0.002084
 **** Fit       0.000826
 **** Fit       0.000191
 **** Fit      -0.000227
 **** Fit      -0.001235
 **** Fit      -0.001441
 **** Fit      -0.001706
 **** Fit      -0.002033
 **** Fit      -0.002394
 **** Fit      -0.000283
 **** Fit      -0.000766
 **** Fit      -0.001042
 **** Fit      -0.002046
 **** Fit      -0.002179
 **** Fit      -0.002437
 **** Fit      -0.002820
 **** Fit      -0.003301
 **** Fit      -0.003850
 **** Fit      -0.001081
 **** Fit      -0.001652
 **** Fit      -0.001905
 **** Fit      -0.001989
 **** Fit      -0.003691
 **** Fit      -0.004322
 **** Fit      -0.005094
 **** Fit      -0.002225
 **** Fit      -0.002985
 **** Fit      -0.003260
 **** Fit      -0.006394
 **** Fit      -0.007623
 **** Fit      -0.005021
 **** Fit      -0.005362
 **** Fit      -0.009512
 **** Fit      -0.011541
 **** Fit      -0.008065
 **** Fit      -0.008638
 **** Fit      -0.012141
 **** Fit      -0.015002
 **** Fit      -0.018817
 **** Fit      -0.019007
 **** Fit      -0.002458
 **** Fit      -0.002567
 **** Fit      -0.002475
 **** Fit      -0.003146
 **** Fit      -0.003137
 **** Fit      -0.003378
 **** Fit      -0.003921
 **** Fit      -0.003598
 **** Fit      -0.003334
 **** Fit      -0.003987
 **** Fit      -0.003851
 **** Fit      -0.003991
 **** Fit      -0.004457
 **** Fit      -0.005307
 **** Fit      -0.005830
 **** Fit      -0.005408
 **** Fit      -0.004856
 **** Fit      -0.004346
 **** Fit      -0.005062
 **** Fit      -0.004787
 **** Fit      -0.004847
 **** Fit      -0.005290
 **** Fit      -0.006184
 **** Fit      -0.007644
 **** Fit      -0.009223
 **** Fit      -0.008448
 **** Fit      -0.007444
 **** Fit      -0.006457
 **** Fit      -0.005635
 **** Fit      -0.006456
 **** Fit      -0.006022
 **** Fit      -0.005986
 **** Fit      -0.006379
 **** Fit      -0.007272
 **** Fit      -0.008793
 **** Fit      -0.011161
 **** Fit      -0.013543
 **** Fit      -0.011731
 **** Fit      -0.009969
 **** Fit      -0.008453
 **** Fit      -0.007271
 **** Fit      -0.008253
 **** Fit      -0.007633
 **** Fit      -0.007501
 **** Fit      -0.007872
 **** Fit      -0.008814
 **** Fit      -0.010468
 **** Fit      -0.013100
 **** Fit      -0.016115
 **** Fit      -0.013280
 **** Fit      -0.011039
 **** Fit      -0.009377
 **** Fit      -0.010538
 **** Fit      -0.009678
 **** Fit      -0.009475
 **** Fit      -0.009923
 **** Fit      -0.011093
 **** Fit      -0.013176
 **** Fit      -0.016549
 **** Fit      -0.018012
 **** Fit      -0.014553
 **** Fit      -0.012121
 **** Fit      -0.013390
 **** Fit      -0.012234
 **** Fit      -0.011990
 **** Fit      -0.012615
 **** Fit      -0.014192
 **** Fit      -0.016985
 **** Fit      -0.021555
 **** Fit      -0.019218
 **** Fit      -0.015620
 **** Fit      -0.016871
 **** Fit      -0.015383
 **** Fit      -0.015128
 **** Fit      -0.015996
 **** Fit      -0.018061
 **** Fit      -0.021638
 **** Fit      -0.019899
 **** Fit      -0.020989
 **** Fit      -0.019107
 **** Fit      -0.019040
 **** Fit      -0.020558
 **** Fit      -0.023737
 **** Fit      -0.023440
 **** Fit      -0.023783
 **** Fit      -0.026216
 **** Fit      -0.030649
 **** Fit      -0.028220
 **** Fit      -0.029472
 **** Fit      -0.000278
 **** Fit      -0.000107
 **** Fit      -0.000440
 **** Fit      -0.000787
 **** Fit      -0.000694
 **** Fit      -0.000153
 **** Fit      -0.000164
 **** Fit      -0.000433
 **** Fit      -0.000714
 **** Fit      -0.001115
 **** Fit      -0.001562
 **** Fit      -0.001732
 **** Fit      -0.001389
 **** Fit      -0.000696
 **** Fit      -0.000719
 **** Fit      -0.000931
 **** Fit      -0.001182
 **** Fit      -0.001577
 **** Fit      -0.002145
 **** Fit      -0.002759
 **** Fit      -0.003138
 **** Fit      -0.003030
 **** Fit      -0.002417
 **** Fit      -0.001515
 **** Fit      -0.001510
 **** Fit      -0.001716
 **** Fit      -0.001998
 **** Fit      -0.002453
 **** Fit      -0.003134
 **** Fit      -0.003989
 **** Fit      -0.004811
 **** Fit      -0.005280
 **** Fit      -0.005143
 **** Fit      -0.004394
 **** Fit      -0.003247
 **** Fit      -0.002417
 **** Fit      -0.002665
 **** Fit      -0.002942
 **** Fit      -0.003341
 **** Fit      -0.003954
 **** Fit      -0.004844
 **** Fit      -0.005982
 **** Fit      -0.007189
 **** Fit      -0.008117
 **** Fit      -0.008382
 **** Fit      -0.007812
 **** Fit      -0.006563
 **** Fit      -0.004951
 **** Fit      -0.003999
 **** Fit      -0.004364
 **** Fit      -0.004806
 **** Fit      -0.005406
 **** Fit      -0.006248
 **** Fit      -0.007392
 **** Fit      -0.008826
 **** Fit      -0.010407
 **** Fit      -0.011809
 **** Fit      -0.012574
 **** Fit      -0.012340
 **** Fit      -0.011112
 **** Fit      -0.009265
 **** Fit      -0.006425
 **** Fit      -0.007107
 **** Fit      -0.007952
 **** Fit      -0.009041
 **** Fit      -0.010439
 **** Fit      -0.012166
 **** Fit      -0.014139
 **** Fit      -0.016105
 **** Fit      -0.017605
 **** Fit      -0.018065
 **** Fit      -0.017132
 **** Fit      -0.015019
 **** Fit      -0.012394
 **** Fit      -0.009124
 **** Fit      -0.010225
 **** Fit      -0.011531
 **** Fit      -0.013114
 **** Fit      -0.018984
 **** Fit      -0.014557
 **** Fit      -0.016730
 **** Fit       0.002410
 **** Fit       0.002304
 **** Fit       0.001753
 **** Fit       0.001723
 **** Fit       0.002399
 **** Fit       0.003028
 **** Fit       0.002933
 **** Fit       0.002049
 **** Fit       0.001401
 **** Fit       0.002301
 **** Fit       0.003097
 **** Fit       0.003572
 **** Fit       0.003658
 **** Fit       0.003316
 **** Fit       0.002693
 **** Fit       0.001611
 **** Fit       0.001074
 **** Fit       0.002140
 **** Fit       0.003009
 **** Fit       0.003606
 **** Fit       0.004005
 **** Fit       0.004188
 **** Fit       0.004053
 **** Fit       0.003579
 **** Fit       0.002894
 **** Fit       0.002193
 **** Fit       0.001291
 **** Fit       0.002450
 **** Fit       0.003213
 **** Fit       0.003730
 **** Fit       0.004166
 **** Fit       0.004521
 **** Fit       0.004659
 **** Fit       0.004441
 **** Fit       0.003856
 **** Fit       0.003041
 **** Fit       0.002194
 **** Fit       0.001475
 **** Fit       0.003448
 **** Fit       0.003910
 **** Fit       0.004437
 **** Fit       0.004928
 **** Fit       0.005157
 **** Fit       0.004936
 **** Fit       0.004246
 **** Fit       0.003236
 **** Fit       0.002145
 **** Fit       0.001183
 **** Fit       0.003328
 **** Fit       0.003919
 **** Fit       0.004685
 **** Fit       0.005408
 **** Fit       0.005770
 **** Fit       0.005543
 **** Fit       0.004700
 **** Fit       0.003422
 **** Fit       0.002001
 **** Fit       0.000707
 **** Fit      -0.000284
 **** Fit       0.003156
 **** Fit       0.004229
 **** Fit       0.005471
 **** Fit       0.006406
 **** Fit       0.006596
 **** Fit       0.005838
 **** Fit       0.004272
 **** Fit       0.002298
 **** Fit       0.000365
 **** Fit      -0.001199
 **** Fit       0.003124
 **** Fit       0.005054
 **** Fit       0.006851
 **** Fit       0.007829
 **** Fit       0.007468
 **** Fit       0.005702
 **** Fit       0.003013
 **** Fit       0.000130
 **** Fit      -0.002346
 **** Fit      -0.003324
 **** Fit      -0.006483
 **** Fit      -0.018130
 **** Fit      -0.019158
 **** Fit      -0.020679
 **** Fit      -0.023242
 **** Fit      -0.027318
 **** Fit      -0.033248
 **** Fit      -0.015092
 **** Fit      -0.017581
 **** Fit      -0.020318
 **** Fit      -0.023803
 **** Fit      -0.028525
 **** Fit      -0.035042
 **** Fit      -0.012248
 **** Fit      -0.011907
 **** Fit      -0.015724
 **** Fit      -0.019644
 **** Fit      -0.024232
 **** Fit      -0.030114
 **** Fit      -0.008977
 **** Fit      -0.013961
 **** Fit      -0.019013
 **** Fit      -0.024803
 **** Fit      -0.032149
 **** Fit      -0.012391
 **** Fit      -0.018383
 **** Fit      -0.025221
 **** Fit      -0.011350
 **** Fit      -0.018296
 **** Fit      -0.011103
 **** Fit      -0.025116
 **** Fit      -0.016945
 **** Fit      -0.007398
 **** Fit      -0.018343
 **** Fit      -0.015744
 **** Fit      -0.007122
 **** Fit      -0.009391
 **** Fit      -0.020401
 **** Fit      -0.014737
 **** Fit      -0.012716
 **** Fit       0.020302
 **** Fit      -0.004321
 **** Fit       0.024461
 **** Fit       0.014621
 **** Fit       0.006591
 **** Fit       0.000439
 **** Fit      -0.000121
 **** Fit      -0.004787
 **** Fit       0.025512
 **** Fit       0.017734
 **** Fit       0.010796
 **** Fit       0.004911
 **** Fit       0.002917
 **** Fit      -0.002097
 **** Fit       0.025740
 **** Fit       0.019909
 **** Fit       0.013839
 **** Fit       0.008147
 **** Fit       0.004942
 **** Fit      -0.000139
 **** Fit      -0.005320
 **** Fit       0.019468
 **** Fit       0.020969
 **** Fit       0.023223
 **** Fit       0.024623
 **** Fit       0.023499
 **** Fit       0.019987
 **** Fit       0.015206
 **** Fit       0.010060
 **** Fit       0.006148
 **** Fit       0.001020
 **** Fit      -0.004114
 **** Fit       0.006181
 **** Fit       0.011741
 **** Fit       0.015352
 **** Fit       0.017576
 **** Fit       0.019251
 **** Fit       0.020015
 **** Fit       0.018820
 **** Fit       0.015588
 **** Fit       0.011119
 **** Fit       0.006720
 **** Fit       0.001442
 **** Fit      -0.003230
 **** Fit      -0.005845
 **** Fit      -0.000028
 **** Fit       0.006132
 **** Fit       0.011286
 **** Fit       0.014486
 **** Fit       0.015858
 **** Fit       0.014951
 **** Fit       0.011590
 **** Fit       0.006830
 **** Fit       0.001973
 **** Fit       0.001518
 **** Fit       0.006351
 **** Fit       0.010819
 **** Fit       0.011013
 **** Fit       0.006647
 -----------------------------------------------------------------
 Leave Link  602 at Sat Sep 14 23:47:15 2019, MaxMem=  1342177280 cpu:             108.6 elap:               2.3

 Test job not archived.
 1\1\GINC-C491-014\SP\RB3LYP\SVP\C54H83Ca1N15O23\PENGZHI\14-Sep-2019\0\
 \#b3lyp/svp scf=(tight,noincore) Test #IOP(5/87=12) Density=Current Po
 p=(MK,readradii) iop(6/33=2) iop(6/42=6)\\CaMKII_loop3_110.0\\0,1\C,0,
 60.07,45.83,33.08\C,0,59.8,44.89,34.24\O,0,60.64,44.02,34.5\H,0,61.102
 ,45.71,32.749\H,0,59.395,45.595,32.257\H,0,59.909,46.859,33.401\N,0,58
 .7,45.17,34.94\C,0,58.4,44.36,36.11\C,0,57.96,42.96,35.71\O,0,57.25,42
 .66,34.75\C,0,57.4,45.12,36.97\C,0,57.42,44.63,38.41\O,0,58.,45.33,39.
 28\O,0,57.03,43.5,38.75\H,0,58.06,45.89,34.64\H,0,59.3,44.38,36.73\H,0
 ,56.4,45.,36.57\H,0,57.69,46.18,37.\N,0,58.34,41.98,36.54\C,0,58.05,40
 .57,36.43\C,0,56.73,40.14,37.05\O,0,56.32,39.02,36.73\C,0,59.19,39.74,
 37.02\C,0,60.59,39.87,36.42\C,0,60.56,39.31,35.\C,0,61.85,39.64,34.25\
 N,0,61.81,39.23,32.84\H,0,58.77,42.26,37.41\H,0,57.99,40.22,35.4\H,0,5
 8.88,38.7,36.97\H,0,59.21,40.06,38.07\H,0,61.18,39.3,37.14\H,0,60.98,4
 0.89,36.32\H,0,59.75,39.75,34.42\H,0,60.54,38.23,35.07\H,0,62.68,39.2,
 34.79\H,0,62.03,40.71,34.38\H,0,61.58,38.26,32.68\H,0,61.25,39.81,32.2
 3\H,0,62.73,39.29,32.43\N,0,56.13,40.91,37.96\C,0,54.8,40.65,38.49\C,0
 ,53.9,41.85,38.73\O,0,52.7,41.75,39.01\C,0,54.86,40.06,39.9\C,0,55.83,
 40.73,40.86\O,0,56.63,40.02,41.52\O,0,56.09,41.95,40.91\H,0,56.6,41.77
 ,38.21\H,0,54.21,39.98,37.87\H,0,55.27,39.08,39.66\H,0,53.86,39.98,40.
 32\N,0,54.42,43.05,38.46\C,0,53.74,44.33,38.52\C,0,53.29,44.68,39.93\O
 ,0,52.25,45.31,40.12\H,0,55.38,42.94,38.17\H,0,52.86,44.3,37.87\H,0,54
 .41,45.05,38.05\N,0,54.01,44.26,40.97\C,0,53.73,44.52,42.36\C,0,53.96,
 45.96,42.79\O,0,53.89,46.18,43.99\C,0,54.26,43.42,43.28\C,0,55.73,43.4
 3,43.68\N,0,56.22,42.71,44.69\O,0,56.45,44.18,43.03\H,0,54.71,43.53,40
 .89\H,0,52.64,44.46,42.44\H,0,54.05,42.42,42.88\H,0,53.66,43.46,44.19\
 H,0,55.61,42.15,45.26\H,0,57.19,42.82,44.97\N,0,54.3,46.86,41.86\C,0,5
 4.55,48.28,42.\C,0,55.92,48.71,42.5\O,0,56.13,49.84,42.92\H,0,54.21,46
 .6,40.88\H,0,53.82,48.59,42.74\H,0,54.32,48.79,41.06\N,0,56.91,47.81,4
 2.56\C,0,58.34,48.03,42.57\C,0,59.21,47.02,41.84\O,0,58.85,45.86,41.73
 \C,0,58.78,48.11,44.03\C,0,58.81,46.82,44.82\C,0,57.77,46.4,45.65\C,0,
 59.9,45.95,44.69\C,0,57.88,45.14,46.24\C,0,60.05,44.66,45.23\C,0,59.01
 ,44.31,46.11\O,0,59.01,43.16,46.85\H,0,56.68,46.86,42.29\H,0,58.43,49.
 03,42.13\H,0,58.09,48.74,44.59\H,0,59.77,48.56,44.08\H,0,56.96,47.1,45
 .83\H,0,60.71,46.19,44.02\H,0,57.13,44.93,46.99\H,0,60.92,44.04,45.07\
 H,0,59.81,42.66,46.65\N,0,60.36,47.5,41.35\C,0,61.42,46.7,40.78\C,0,62
 .5,46.35,41.8\O,0,63.04,47.26,42.42\C,0,61.97,47.22,39.46\C,0,60.86,47
 .91,38.68\C,0,62.74,46.26,38.56\C,0,61.25,48.48,37.31\H,0,60.49,48.49,
 41.2\H,0,60.92,45.79,40.44\H,0,62.65,48.01,39.78\H,0,60.65,48.8,39.27\
 H,0,60.03,47.22,38.54\H,0,63.55,45.79,39.11\H,0,62.06,45.58,38.04\H,0,
 63.26,46.88,37.83\H,0,62.21,49.,37.36\H,0,61.34,47.63,36.64\H,0,60.48,
 49.15,36.93\N,0,62.75,45.05,42.\C,0,63.87,44.56,42.78\C,0,65.06,44.11,
 41.96\O,0,64.99,43.95,40.74\C,0,63.37,43.55,43.81\O,0,62.67,42.49,43.1
 9\H,0,62.24,44.42,41.39\H,0,64.25,45.39,43.38\H,0,62.71,44.13,44.46\H,
 0,64.14,43.14,44.46\H,0,61.98,42.88,42.65\N,0,66.25,44.12,42.57\C,0,67
 .51,43.83,41.91\C,0,67.53,42.54,41.11\O,0,68.06,42.62,40.\C,0,68.48,43
 .72,43.09\H,0,66.37,44.3,43.55\H,0,67.82,44.61,41.22\H,0,68.66,44.73,4
 3.46\H,0,68.15,43.12,43.94\H,0,69.37,43.24,42.67\N,0,66.97,41.37,41.44
 \C,0,66.94,40.2,40.59\C,0,65.85,40.15,39.52\O,0,65.99,39.38,38.57\C,0,
 66.91,38.98,41.5\H,0,66.85,41.21,42.43\H,0,67.84,40.16,39.97\H,0,67.85
 ,38.97,42.06\H,0,66.19,39.19,42.28\H,0,66.77,38.06,40.93\N,0,64.86,41.
 04,39.56\C,0,64.09,41.38,38.38\C,0,65.,42.16,37.44\O,0,65.03,42.01,36.
 22\C,0,62.8,42.14,38.63\C,0,61.87,41.52,39.67\C,0,60.69,42.4,40.02\O,0
 ,59.64,42.34,39.34\O,0,60.77,43.19,40.99\H,0,64.65,41.58,40.38\H,0,63.
 77,40.46,37.88\H,0,62.28,42.23,37.67\H,0,63.06,43.13,39.02\H,0,62.49,4
 1.31,40.54\H,0,61.56,40.51,39.39\N,0,65.8,43.09,37.96\C,0,66.67,43.91,
 37.14\H,0,67.629,43.408,37.015\H,0,66.211,44.064,36.163\H,0,66.825,44.
 874,37.625\H,0,65.71,43.37,38.93\Ca,0,58.11,43.46,41.12\O,0,58.31,41.5
 2,42.86\H,0,57.7,40.81,42.64\H,0,58.61,41.31,43.74\\Version=ES64L-G16R
 evA.03\State=1-A\HF=-5333.6169553\RMSD=2.948e-09\Dipole=8.9540868,-3.4
 841497,-4.7100865\Quadrupole=-92.1084777,-15.6863799,107.7948575,-22.1
 712944,6.3455628,26.2648033\PG=C01 [X(C54H83Ca1N15O23)]\\@


 THEREFORE SHALL EVIL COME UPON THEE...
 THOU SHALT NOT KNOW FROM WHENCE IT RISETH...
 AND MISCHIEF SHALL FALL UPON THEE...
 THOU SHALT NOT BE ABLE TO PUT IT OFF...
 AND DESOLATION SHALL COME UPON THEE SUDDENLY...
 WHICH THOU SHALT NOT KNOW...

                                         ISAIAH 47.11
 Job cpu time:       0 days  7 hours 29 minutes 24.2 seconds.
 Elapsed time:       0 days  0 hours  9 minutes 28.4 seconds.
 File lengths (MBytes):  RWF=   1517 Int=      0 D2E=      0 Chk=    171 Scr=      1
 Normal termination of Gaussian 16 at Sat Sep 14 23:47:16 2019.
