 Entering Gaussian System, Link 0=g16
 Initial command:
 /home1/apps/gaussian/16rA.03/g16/l1.exe "/scratch/01990/pengzhi/4329072/Gau-7883.inp" -scrdir="/scratch/01990/pengzhi/4329072/"
 Entering Link 1 = /home1/apps/gaussian/16rA.03/g16/l1.exe PID=      7884.
  
 Copyright (c) 1988,1990,1992,1993,1995,1998,2003,2009,2016,
            Gaussian, Inc.  All Rights Reserved.
  
 This is part of the Gaussian(R) 16 program.  It is based on
 the Gaussian(R) 09 system (copyright 2009, Gaussian, Inc.),
 the Gaussian(R) 03 system (copyright 2003, Gaussian, Inc.),
 the Gaussian(R) 98 system (copyright 1998, Gaussian, Inc.),
 the Gaussian(R) 94 system (copyright 1995, Gaussian, Inc.),
 the Gaussian 92(TM) system (copyright 1992, Gaussian, Inc.),
 the Gaussian 90(TM) system (copyright 1990, Gaussian, Inc.),
 the Gaussian 88(TM) system (copyright 1988, Gaussian, Inc.),
 the Gaussian 86(TM) system (copyright 1986, Carnegie Mellon
 University), and the Gaussian 82(TM) system (copyright 1983,
 Carnegie Mellon University). Gaussian is a federally registered
 trademark of Gaussian, Inc.
  
 This software contains proprietary and confidential information,
 including trade secrets, belonging to Gaussian, Inc.
  
 This software is provided under written license and may be
 used, copied, transmitted, or stored only in accord with that
 written license.
  
 The following legend is applicable only to US Government
 contracts under FAR:
  
                    RESTRICTED RIGHTS LEGEND
  
 Use, reproduction and disclosure by the US Government is
 subject to restrictions as set forth in subparagraphs (a)
 and (c) of the Commercial Computer Software - Restricted
 Rights clause in FAR 52.227-19.
  
 Gaussian, Inc.
 340 Quinnipiac St., Bldg. 40, Wallingford CT 06492
  
  
 ---------------------------------------------------------------
 Warning -- This program may not be used in any manner that
 competes with the business of Gaussian, Inc. or will provide
 assistance to any competitor of Gaussian, Inc.  The licensee
 of this program is prohibited from giving any competitor of
 Gaussian, Inc. access to this program.  By using this program,
 the user acknowledges that Gaussian, Inc. is engaged in the
 business of creating and licensing software in the field of
 computational chemistry and represents and warrants to the
 licensee that it is not a competitor of Gaussian, Inc. and that
 it will not use this program in any manner prohibited above.
 ---------------------------------------------------------------
  

 Cite this work as:
 Gaussian 16, Revision A.03,
 M. J. Frisch, G. W. Trucks, H. B. Schlegel, G. E. Scuseria, 
 M. A. Robb, J. R. Cheeseman, G. Scalmani, V. Barone, 
 G. A. Petersson, H. Nakatsuji, X. Li, M. Caricato, A. V. Marenich, 
 J. Bloino, B. G. Janesko, R. Gomperts, B. Mennucci, H. P. Hratchian, 
 J. V. Ortiz, A. F. Izmaylov, J. L. Sonnenberg, D. Williams-Young, 
 F. Ding, F. Lipparini, F. Egidi, J. Goings, B. Peng, A. Petrone, 
 T. Henderson, D. Ranasinghe, V. G. Zakrzewski, J. Gao, N. Rega, 
 G. Zheng, W. Liang, M. Hada, M. Ehara, K. Toyota, R. Fukuda, 
 J. Hasegawa, M. Ishida, T. Nakajima, Y. Honda, O. Kitao, H. Nakai, 
 T. Vreven, K. Throssell, J. A. Montgomery, Jr., J. E. Peralta, 
 F. Ogliaro, M. J. Bearpark, J. J. Heyd, E. N. Brothers, K. N. Kudin, 
 V. N. Staroverov, T. A. Keith, R. Kobayashi, J. Normand, 
 K. Raghavachari, A. P. Rendell, J. C. Burant, S. S. Iyengar, 
 J. Tomasi, M. Cossi, J. M. Millam, M. Klene, C. Adamo, R. Cammi, 
 J. W. Ochterski, R. L. Martin, K. Morokuma, O. Farkas, 
 J. B. Foresman, and D. J. Fox, Gaussian, Inc., Wallingford CT, 2016.
 
 ******************************************
 Gaussian 16:  ES64L-G16RevA.03 25-Dec-2016
                15-Sep-2019 
 ******************************************
 %chk=CaMKII_loop3_86.0.chk
 %nprocshared=48
 Will use up to   48 processors via shared memory.
 %mem=10GB
 %nosave
 ----------------------------------------------------------------------
 #b3lyp/svp scf=(tight,noincore) Test #IOP(5/87=12) Density=Current Pop
 =(MK,readradii) iop(6/33=2) iop(6/42=6)
 ----------------------------------------------------------------------
 1/30=1,38=1,172=1/1;
 2/12=2,17=6,18=5,40=1/2;
 3/5=18,7=101,11=2,25=1,30=1,74=-5/1,2,3;
 4//1;
 5/5=4,32=2,38=5,87=12/2;
 6/7=2,8=2,9=2,10=2,15=8,20=101,22=-1,28=1,33=2,42=6/1,2;
 99/5=1,9=1/99;
 -----------------
 CaMKII_loop3_86.0
 -----------------
 Symbolic Z-matrix:
 Charge =  0 Multiplicity = 1
 C                     81.419    65.05     33.6 
 C                     80.869    64.65     34.97 
 O                     81.159    63.57     35.48 
 H                     82.441    64.684    33.498 
 H                     80.798    64.615    32.817 
 H                     81.412    66.136    33.508 
 N                     80.039    65.53     35.54 
 C                     79.559    65.51     36.9 
 C                     78.249    64.73     36.84 
 O                     77.409    64.77     35.94 
 C                     79.439    66.91     37.48 
 C                     79.449    66.91     39. 
 O                     78.419    66.8      39.7 
 O                     80.559    66.95     39.58 
 H                     79.899    66.41     35.06 
 H                     80.279    64.87     37.41 
 H                     78.569    67.47     37.13 
 H                     80.339    67.39     37.08 
 N                     78.029    63.99     37.93 
 C                     77.049    62.96     38.19 
 C                     76.009    63.39     39.22 
 O                     74.839    63.11     38.97 
 C                     77.819    61.71     38.6 
 C                     76.849    60.53     38.65 
 C                     77.619    59.22     38.8 
 C                     78.289    59.12     40.16 
 N                     78.989    57.83     40.23 
 H                     78.699    64.05     38.68 
 H                     76.629    62.74     37.21 
 H                     78.359    61.97     39.52 
 H                     78.519    61.57     37.78 
 H                     76.349    60.48     37.68 
 H                     76.119    60.64     39.44 
 H                     78.439    59.22     38.08 
 H                     76.949    58.37     38.66 
 H                     77.529    59.38     40.9 
 H                     78.999    59.95     40.21 
 H                     79.389    57.6      41.14 
 H                     78.329    57.1      40. 
 H                     79.759    57.92     39.58 
 N                     76.449    64.01     40.31 
 C                     75.519    64.35     41.37 
 C                     75.039    65.79     41.32 
 O                     73.979    66.09     41.88 
 C                     76.199    64.15     42.72 
 C                     77.559    64.84     42.8 
 O                     77.699    66.06     42.56 
 O                     78.599    64.18     43.01 
 H                     77.449    64.17     40.4 
 H                     74.609    63.75     41.34 
 H                     76.329    63.12     43.04 
 H                     75.549    64.65     43.44 
 N                     75.719    66.75     40.68 
 C                     75.149    68.06     40.45 
 C                     75.459    69.12     41.5 
 O                     74.759    70.12     41.63 
 H                     76.639    66.43     40.43 
 H                     74.089    67.95     40.23 
 H                     75.529    68.37     39.47 
 N                     76.599    68.95     42.17 
 C                     77.169    69.94     43.07 
 C                     78.099    70.99     42.47 
 O                     78.439    71.93     43.19 
 C                     77.849    69.24     44.24 
 C                     79.089    68.42     43.88 
 N                     79.499    67.47     44.72 
 O                     79.749    68.56     42.85 
 H                     76.929    68.       42.16 
 H                     76.339    70.49     43.51 
 H                     77.189    68.7      44.92 
 H                     78.299    69.98     44.89 
 H                     78.989    67.17     45.54 
 H                     80.429    67.09     44.65 
 N                     78.489    70.87     41.2 
 C                     79.309    71.77     40.41 
 C                     80.799    71.57     40.59 
 O                     81.549    72.44     40.14 
 H                     78.149    70.03     40.77 
 H                     79.059    72.79     40.7 
 H                     79.029    71.66     39.36 
 N                     81.219    70.54     41.33 
 C                     82.639    70.24     41.26 
 C                     82.879    68.74     41.16 
 O                     82.179    67.95     41.79 
 C                     83.349    70.87     42.45 
 C                     82.779    70.43     43.77 
 C                     81.819    71.22     44.41 
 C                     83.269    69.29     44.42 
 C                     81.309    70.84     45.66 
 C                     82.779    68.9      45.67 
 C                     81.729    69.63     46.26 
 O                     81.159    69.13     47.39 
 H                     80.619    69.94     41.87 
 H                     83.009    70.72     40.35 
 H                     83.439    71.96     42.35 
 H                     84.379    70.51     42.37 
 H                     81.389    72.05     43.87 
 H                     84.069    68.74     43.93 
 H                     80.479    71.32     46.16 
 H                     83.209    68.08     46.22 
 H                     81.559    68.31     47.69 
 N                     83.919    68.31     40.45 
 C                     84.209    67.02     39.87 
 C                     85.099    66.18     40.78 
 O                     86.119    66.73     41.18 
 C                     84.849    67.17     38.49 
 C                     83.809    67.56     37.44 
 C                     85.569    65.92     38. 
 C                     84.469    68.21     36.22 
 H                     84.429    69.06     40.01 
 H                     83.239    66.53     39.75 
 H                     85.599    67.95     38.59 
 H                     83.089    68.23     37.9 
 H                     83.329    66.63     37.13 
 H                     85.949    66.1      37. 
 H                     86.379    65.6      38.65 
 H                     84.899    65.06     37.92 
 H                     85.239    67.59     35.76 
 H                     83.759    68.42     35.43 
 H                     84.889    69.18     36.5 
 N                     84.769    64.9      40.99 
 C                     85.549    63.99     41.8 
 C                     86.299    62.97     40.96 
 O                     85.799    62.68     39.87 
 C                     84.699    63.51     42.98 
 O                     83.639    62.77     42.42 
 H                     83.879    64.61     40.62 
 H                     86.339    64.56     42.29 
 H                     84.249    64.37     43.48 
 H                     85.369    62.92     43.6 
 H                     83.149    63.37     41.86 
 N                     87.269    62.26     41.54 
 C                     88.019    61.25     40.82 
 C                     87.159    60.13     40.25 
 O                     87.309    59.81     39.07 
 C                     89.159    60.81     41.73 
 H                     87.599    62.55     42.45 
 H                     88.389    61.8      39.95 
 H                     90.059    60.63     41.14 
 H                     89.489    61.61     42.4 
 H                     88.839    59.99     42.37 
 N                     86.189    59.63     41.02 
 C                     85.179    58.67     40.63 
 C                     84.219    59.14     39.55 
 O                     83.789    58.33     38.73 
 C                     84.339    58.32     41.85 
 H                     86.159    59.94     41.98 
 H                     85.709    57.77     40.31 
 H                     83.949    59.25     42.27 
 H                     83.509    57.71     41.49 
 H                     84.979    57.84     42.59 
 N                     83.969    60.44     39.36 
 C                     83.249    60.98     38.23 
 C                     84.199    61.08     37.04 
 O                     83.809    60.7      35.94 
 C                     82.629    62.34     38.56 
 C                     81.479    62.24     39.56 
 C                     81.019    63.49     40.29 
 O                     81.819    64.19     40.96 
 O                     79.839    63.88     40.16 
 H                     84.549    61.06     39.9 
 H                     82.469    60.26     37.97 
 H                     82.299    62.77     37.61 
 H                     83.389    62.98     39.02 
 H                     81.779    61.64     40.42 
 H                     80.629    61.74     39.09 
 N                     85.439    61.53     37.24 
 C                     86.329    61.62     36.09 
 H                     87.294    61.18     36.343 
 H                     85.893    61.08     35.249 
 H                     86.467    62.666    35.818 
 H                     85.669    61.95     38.13 
 Ca                    80.24     66.13     41.89 
 O                     81.91     66.02     43.97 
 H                     82.       65.42     44.71 
 H                     82.69     66.58     44.02 
 
 Stoichiometry    C54H83CaN15O23
 Framework group  C1[X(C54H83CaN15O23)]
 Deg. of freedom   522
 Full point group                 C1      NOp   1
 Largest Abelian subgroup         C1      NOp   1
 Largest concise Abelian subgroup C1      NOp   1
                         Standard orientation:                         
 ---------------------------------------------------------------------
 Center     Atomic      Atomic             Coordinates (Angstroms)
 Number     Number       Type             X           Y           Z
 ---------------------------------------------------------------------
      1          6           0        2.421761    2.284200    6.056651
      2          6           0        2.005707    2.442246    4.593326
      3          8           0        2.845561    2.525866    3.699875
      4          1           0        3.309104    1.653353    6.115800
      5          1           0        2.644065    3.263653    6.479980
      6          1           0        1.610013    1.821554    6.617839
      7          7           0        0.689267    2.517024    4.370633
      8          6           0        0.023214    2.446301    3.093225
      9          6           0       -0.095302    3.896578    2.634147
     10          8           0       -0.326283    4.876716    3.343496
     11          6           0       -1.297013    1.698066    3.182358
     12          6           0       -1.751245    1.162321    1.834340
     13          8           0       -2.457737    1.811426    1.032760
     14          8           0       -1.333138    0.035837    1.478923
     15          1           0        0.078603    2.392594    5.168134
     16          1           0        0.766368    1.975961    2.449330
     17          1           0       -2.111389    2.272259    3.629677
     18          1           0       -1.039109    0.880578    3.864706
     19          7           0        0.020594    4.038867    1.311112
     20          6           0        0.183254    5.223671    0.499521
     21          6           0       -1.044214    5.517640   -0.357395
     22          8           0       -1.411234    6.689160   -0.408748
     23          6           0        1.454163    5.028210   -0.319066
     24          6           0        1.801401    6.346836   -1.009320
     25          6           0        3.197138    6.269259   -1.623649
     26          6           0        3.239499    5.295970   -2.789588
     27          7           0        4.604676    5.294128   -3.332993
     28          1           0        0.124387    3.203595    0.757445
     29          1           0        0.412780    6.008261    1.218504
     30          1           0        1.279508    4.147992   -0.951768
     31          1           0        2.203708    4.805498    0.436303
     32          1           0        1.852094    7.114991   -0.234227
     33          1           0        1.067142    6.618288   -1.755160
     34          1           0        3.876202    5.849316   -0.879793
     35          1           0        3.516679    7.256742   -1.960948
     36          1           0        2.388072    5.540181   -3.428519
     37          1           0        2.985076    4.316263   -2.376136
     38          1           0        4.731339    4.757478   -4.191459
     39          1           0        4.864733    6.249400   -3.536038
     40          1           0        5.165185    4.849273   -2.617848
     41          7           0       -1.603558    4.494261   -0.994522
     42          6           0       -2.708976    4.729420   -1.903835
     43          6           0       -4.071878    4.475503   -1.283733
     44          8           0       -5.068372    5.008829   -1.783496
     45          6           0       -2.581018    3.797501   -3.103858
     46          6           0       -2.371178    2.340900   -2.695961
     47          8           0       -3.158574    1.747810   -1.925344
     48          8           0       -1.341877    1.722497   -3.041531
     49          1           0       -1.191417    3.572427   -0.875932
     50          1           0       -2.750079    5.759607   -2.258836
     51          1           0       -1.812154    4.054736   -3.826960
     52          1           0       -3.549194    3.848234   -3.604818
     53          7           0       -4.234456    3.699906   -0.204096
     54          6           0       -5.493493    3.641873    0.506789
     55          6           0       -6.452425    2.535875    0.083212
     56          8           0       -7.654963    2.601896    0.320790
     57          1           0       -3.395107    3.182560   -0.006244
     58          1           0       -5.938526    4.634808    0.518056
     59          1           0       -5.221799    3.528794    1.562391
     60          7           0       -5.883084    1.450389   -0.441165
     61          6           0       -6.596526    0.216311   -0.729352
     62          6           0       -6.699837   -0.818852    0.386518
     63          8           0       -7.449721   -1.779536    0.206626
     64          6           0       -6.029377   -0.422792   -1.990775
     65          6           0       -4.592018   -0.933023   -1.875598
     66          7           0       -3.884535   -1.121857   -2.989155
     67          8           0       -4.016892   -1.179161   -0.815058
     68          1           0       -4.963442    1.621932   -0.810398
     69          1           0       -7.619712    0.488235   -0.982626
     70          1           0       -6.190827    0.129099   -2.917571
     71          1           0       -6.542315   -1.356901   -2.182955
     72          1           0       -4.188641   -0.851655   -3.914903
     73          1           0       -3.047849   -1.682208   -2.976354
     74          7           0       -6.003910   -0.641352    1.510608
     75          6           0       -5.996192   -1.451609    2.714736
     76          6           0       -5.058654   -2.639111    2.656754
     77          8           0       -5.170088   -3.496376    3.536856
     78          1           0       -5.418709    0.172608    1.477306
     79          1           0       -7.009407   -1.817936    2.876597
     80          1           0       -5.751382   -0.807762    3.562397
     81          7           0       -4.253734   -2.764551    1.597854
     82          6           0       -3.202989   -3.762031    1.708619
     83          6           0       -1.883535   -3.232357    1.164481
     84          8           0       -1.859991   -2.515266    0.166369
     85          6           0       -3.648410   -5.045284    1.021626
     86          6           0       -4.029808   -4.835119   -0.417563
     87          6           0       -5.371297   -4.636981   -0.758809
     88          6           0       -3.073645   -4.935828   -1.436292
     89          6           0       -5.743937   -4.479173   -2.101655
     90          6           0       -3.427340   -4.789751   -2.781009
     91          6           0       -4.758158   -4.473098   -3.115905
     92          8           0       -5.035905   -4.169345   -4.412975
     93          1           0       -4.292913   -2.185440    0.776455
     94          1           0       -3.088907   -3.969553    2.776008
     95          1           0       -4.406255   -5.586235    1.604073
     96          1           0       -2.767840   -5.693066    1.064922
     97          1           0       -6.088455   -4.480654    0.032801
     98          1           0       -2.052207   -5.165891   -1.142464
     99          1           0       -6.731412   -4.195828   -2.439157
    100          1           0       -2.720902   -4.954156   -3.577072
    101          1           0       -4.270708   -4.222470   -4.990946
    102          7           0       -0.752878   -3.637393    1.737335
    103          6           0        0.578329   -3.078703    1.718573
    104          6           0        1.449985   -3.734614    0.652835
    105          8           0        1.479496   -4.960048    0.671319
    106          6           0        1.240399   -3.191629    3.091675
    107          6           0        0.672987   -2.157287    4.063467
    108          6           0        2.755468   -3.033865    3.065628
    109          6           0        0.913166   -2.572424    5.518279
    110          1           0       -0.909998   -4.246795    2.524827
    111          1           0        0.446064   -2.018940    1.484462
    112          1           0        1.031822   -4.198332    3.443732
    113          1           0       -0.386713   -2.037444    3.859571
    114          1           0        1.212388   -1.229152    3.865950
    115          1           0        3.133244   -3.080115    4.081475
    116          1           0        3.260661   -3.773735    2.450507
    117          1           0        3.064550   -2.062600    2.670643
    118          1           0        1.962517   -2.756145    5.750679
    119          1           0        0.591218   -1.814976    6.221785
    120          1           0        0.318313   -3.459559    5.752459
    121          7           0        2.185754   -2.948262   -0.141957
    122          6           0        3.079654   -3.447359   -1.163938
    123          6           0        4.540506   -3.298577   -0.773717
    124          8           0        4.812176   -2.378209    0.001731
    125          6           0        2.613894   -2.941446   -2.532302
    126          8           0        2.756490   -1.540273   -2.497913
    127          1           0        2.020228   -1.959213   -0.055453
    128          1           0        2.937175   -4.525361   -1.245872
    129          1           0        1.547764   -3.143575   -2.653176
    130          1           0        3.257172   -3.432155   -3.258110
    131          1           0        2.188612   -1.222036   -1.797956
    132          7           0        5.456968   -3.965187   -1.478791
    133          6           0        6.873821   -3.862663   -1.190669
    134          6           0        7.424337   -2.446339   -1.289963
    135          8           0        8.111934   -2.011889   -0.364888
    136          6           0        7.578311   -4.907067   -2.047532
    137          1           0        5.144132   -4.684209   -2.116162
    138          1           0        6.921939   -4.116316   -0.127821
    139          1           0        8.401547   -5.354560   -1.488487
    140          1           0        6.945655   -5.777732   -2.246248
    141          1           0        7.835657   -4.490044   -3.019265
    142          7           0        7.030509   -1.690879   -2.318544
    143          6           0        7.319081   -0.288207   -2.525999
    144          6           0        6.744186    0.654343   -1.481970
    145          8           0        7.373669    1.663367   -1.167294
    146          6           0        6.746814    0.135766   -3.871086
    147          1           0        6.484664   -2.142389   -3.037426
    148          1           0        8.406532   -0.195477   -2.572389
    149          1           0        5.684773   -0.119857   -3.882316
    150          1           0        6.858242    1.219748   -3.927355
    151          1           0        7.252272   -0.422762   -4.658587
    152          7           0        5.660737    0.325629   -0.770152
    153          6           0        5.182101    1.057233    0.379876
    154          6           0        5.999533    0.648160    1.601786
    155          8           0        6.405354    1.523602    2.360344
    156          6           0        3.687046    0.822641    0.609386
    157          6           0        2.814599    1.461038   -0.469403
    158          6           0        1.373168    1.007583   -0.623199
    159          8           0        1.081826   -0.200952   -0.806132
    160          8           0        0.448674    1.836966   -0.485964
    161          1           0        5.346536   -0.621214   -0.901169
    162          1           0        5.376042    2.116337    0.192561
    163          1           0        3.457964    1.223857    1.600772
    164          1           0        3.482906   -0.252689    0.581218
    165          1           0        3.184844    1.193882   -1.459932
    166          1           0        2.863415    2.548864   -0.381920
    167          7           0        6.290244   -0.641503    1.781666
    168          6           0        7.069520   -1.010840    2.955982
    169          1           0        7.874342   -1.684251    2.659986
    170          1           0        7.494224   -0.114009    3.407974
    171          1           0        6.424568   -1.511032    3.677778
    172          1           0        5.827180   -1.331782    1.206786
    173         20           0       -1.580466   -0.127597   -0.975131
    174          8           0       -1.185753   -2.163070   -2.656931
    175          1           0       -0.897325   -2.217029   -3.567753
    176          1           0       -1.193046   -3.075576   -2.353980
 ---------------------------------------------------------------------
 Rotational constants (GHZ):           0.0243394           0.0159508           0.0130030
 Standard basis: SVP (5D, 7F)
 There are  1809 symmetry adapted cartesian basis functions of A   symmetry.
 There are  1717 symmetry adapted basis functions of A   symmetry.
  1717 basis functions,  2922 primitive gaussians,  1809 cartesian basis functions
   358 alpha electrons      358 beta electrons
       nuclear repulsion energy     22066.2733030698 Hartrees.
 NAtoms=  176 NActive=  176 NUniq=  176 SFac= 1.00D+00 NAtFMM=   60 NAOKFM=T Big=T
 Integral buffers will be    131072 words long.
 Raffenetti 2 integral format.
 Two-electron integral symmetry is turned on.
 One-electron integrals computed using PRISM.
 NBasis=  1717 RedAO= T EigKep=  2.63D-04  NBF=  1717
 NBsUse=  1717 1.00D-06 EigRej= -1.00D+00 NBFU=  1717
 ExpMin= 1.98D-02 ExpMax= 3.51D+04 ExpMxC= 5.28D+03 IAcc=3 IRadAn=         5 AccDes= 0.00D+00
 Harris functional with IExCor=  402 and IRadAn=       5 diagonalized for initial guess.
 HarFok:  IExCor=  402 AccDes= 0.00D+00 IRadAn=         5 IDoV= 1 UseB2=F ITyADJ=14
 ICtDFT=  3500011 ScaDFX=  1.000000  1.000000  1.000000  1.000000
 FoFCou: FMM=F IPFlag=           0 FMFlag=      100000 FMFlg1=        2001
         NFxFlg=           0 DoJE=T BraDBF=F KetDBF=T FulRan=T
         wScrn=  0.000000 ICntrl=       500 IOpCl=  0 I1Cent=   200000004 NGrid=           0
         NMat0=    1 NMatS0=      1 NMatT0=    0 NMatD0=    1 NMtDS0=    0 NMtDT0=    0
 Petite list used in FoFCou.
 Requested convergence on RMS density matrix=1.00D-08 within 128 cycles.
 Requested convergence on MAX density matrix=1.00D-06.
 Requested convergence on             energy=1.00D-06.
 No special actions if energy rises.
 EnCoef did     1 forward-backward iterations
 SCF Done:  E(RB3LYP) =  -5333.64364759     A.U. after   15 cycles
            NFock= 15  Conv=0.43D-08     -V/T= 2.0081
 SCF density gives NOpUse=  1 NOpAll=  1.
 Hyperfine terms turned off by default for NAtoms > 100.

 **********************************************************************

            Population analysis using the SCF density.

 **********************************************************************

 Orbital symmetries:
 BldTbl:  Degeneracy threshold= 1.00D-02
       Occupied  (A) (A) (A) (A) (A) (A) (A) (A) (A) (A) (A) (A)
                 (A) (A) (A) (A) (A) (A) (A) (A) (A) (A) (A) (A)
                 (A) (A) (A) (A) (A) (A) (A) (A) (A) (A) (A) (A)
                 (A) (A) (A) (A) (A) (A) (A) (A) (A) (A) (A) (A)
                 (A) (A) (A) (A) (A) (A) (A) (A) (A) (A) (A) (A)
                 (A) (A) (A) (A) (A) (A) (A) (A) (A) (A) (A) (A)
                 (A) (A) (A) (A) (A) (A) (A) (A) (A) (A) (A) (A)
                 (A) (A) (A) (A) (A) (A) (A) (A) (A) (A) (A) (A)
                 (A) (A) (A) (A) (A) (A) (A) (A) (A) (A) (A) (A)
                 (A) (A) (A) (A) (A) (A) (A) (A) (A) (A) (A) (A)
                 (A) (A) (A) (A) (A) (A) (A) (A) (A) (A) (A) (A)
                 (A) (A) (A) (A) (A) (A) (A) (A) (A) (A) (A) (A)
                 (A) (A) (A) (A) (A) (A) (A) (A) (A) (A) (A) (A)
                 (A) (A) (A) (A) (A) (A) (A) (A) (A) (A) (A) (A)
                 (A) (A) (A) (A) (A) (A) (A) (A) (A) (A) (A) (A)
                 (A) (A) (A) (A) (A) (A) (A) (A) (A) (A) (A) (A)
                 (A) (A) (A) (A) (A) (A) (A) (A) (A) (A) (A) (A)
                 (A) (A) (A) (A) (A) (A) (A) (A) (A) (A) (A) (A)
                 (A) (A) (A) (A) (A) (A) (A) (A) (A) (A) (A) (A)
                 (A) (A) (A) (A) (A) (A) (A) (A) (A) (A) (A) (A)
                 (A) (A) (A) (A) (A) (A) (A) (A) (A) (A) (A) (A)
                 (A) (A) (A) (A) (A) (A) (A) (A) (A) (A) (A) (A)
                 (A) (A) (A) (A) (A) (A) (A) (A) (A) (A) (A) (A)
                 (A) (A) (A) (A) (A) (A) (A) (A) (A) (A) (A) (A)
                 (A) (A) (A) (A) (A) (A) (A) (A) (A) (A) (A) (A)
                 (A) (A) (A) (A) (A) (A) (A) (A) (A) (A) (A) (A)
                 (A) (A) (A) (A) (A) (A) (A) (A) (A) (A) (A) (A)
                 (A) (A) (A) (A) (A) (A) (A) (A) (A) (A) (A) (A)
                 (A) (A) (A) (A) (A) (A) (A) (A) (A) (A) (A) (A)
                 (A) (A) (A) (A) (A) (A) (A) (A) (A) (A)
       Virtual   (A) (A) (A) (A) (A) (A) (A) (A) (A) (A) (A) (A)
                 (A) (A) (A) (A) (A) (A) (A) (A) (A) (A) (A) (A)
                 (A) (A) (A) (A) (A) (A) (A) (A) (A) (A) (A) (A)
                 (A) (A) (A) (A) (A) (A) (A) (A) (A) (A) (A) (A)
                 (A) (A) (A) (A) (A) (A) (A) (A) (A) (A) (A) (A)
                 (A) (A) (A) (A) (A) (A) (A) (A) (A) (A) (A) (A)
                 (A) (A) (A) (A) (A) (A) (A) (A) (A) (A) (A) (A)
                 (A) (A) (A) (A) (A) (A) (A) (A) (A) (A) (A) (A)
                 (A) (A) (A) (A) (A) (A) (A) (A) (A) (A) (A) (A)
                 (A) (A) (A) (A) (A) (A) (A) (A) (A) (A) (A) (A)
                 (A) (A) (A) (A) (A) (A) (A) (A) (A) (A) (A) (A)
                 (A) (A) (A) (A) (A) (A) (A) (A) (A) (A) (A) (A)
                 (A) (A) (A) (A) (A) (A) (A) (A) (A) (A) (A) (A)
                 (A) (A) (A) (A) (A) (A) (A) (A) (A) (A) (A) (A)
                 (A) (A) (A) (A) (A) (A) (A) (A) (A) (A) (A) (A)
                 (A) (A) (A) (A) (A) (A) (A) (A) (A) (A) (A) (A)
                 (A) (A) (A) (A) (A) (A) (A) (A) (A) (A) (A) (A)
                 (A) (A) (A) (A) (A) (A) (A) (A) (A) (A) (A) (A)
                 (A) (A) (A) (A) (A) (A) (A) (A) (A) (A) (A) (A)
                 (A) (A) (A) (A) (A) (A) (A) (A) (A) (A) (A) (A)
                 (A) (A) (A) (A) (A) (A) (A) (A) (A) (A) (A) (A)
                 (A) (A) (A) (A) (A) (A) (A) (A) (A) (A) (A) (A)
                 (A) (A) (A) (A) (A) (A) (A) (A) (A) (A) (A) (A)
                 (A) (A) (A) (A) (A) (A) (A) (A) (A) (A) (A) (A)
                 (A) (A) (A) (A) (A) (A) (A) (A) (A) (A) (A) (A)
                 (A) (A) (A) (A) (A) (A) (A) (A) (A) (A) (A) (A)
                 (A) (A) (A) (A) (A) (A) (A) (A) (A) (A) (A) (A)
                 (A) (A) (A) (A) (A) (A) (A) (A) (A) (A) (A) (A)
                 (A) (A) (A) (A) (A) (A) (A) (A) (A) (A) (A) (A)
                 (A) (A) (A) (A) (A) (A) (A) (A) (A) (A) (A) (A)
                 (A) (A) (A) (A) (A) (A) (A) (A) (A) (A) (A) (A)
                 (A) (A) (A) (A) (A) (A) (A) (A) (A) (A) (A) (A)
                 (A) (A) (A) (A) (A) (A) (A) (A) (A) (A) (A) (A)
                 (A) (A) (A) (A) (A) (A) (A) (A) (A) (A) (A) (A)
                 (A) (A) (A) (A) (A) (A) (A) (A) (A) (A) (A) (A)
                 (A) (A) (A) (A) (A) (A) (A) (A) (A) (A) (A) (A)
                 (A) (A) (A) (A) (A) (A) (A) (A) (A) (A) (A) (A)
                 (A) (A) (A) (A) (A) (A) (A) (A) (A) (A) (A) (A)
                 (A) (A) (A) (A) (A) (A) (A) (A) (A) (A) (A) (A)
                 (A) (A) (A) (A) (A) (A) (A) (A) (A) (A) (A) (A)
                 (A) (A) (A) (A) (A) (A) (A) (A) (A) (A) (A) (A)
                 (A) (A) (A) (A) (A) (A) (A) (A) (A) (A) (A) (A)
                 (A) (A) (A) (A) (A) (A) (A) (A) (A) (A) (A) (A)
                 (A) (A) (A) (A) (A) (A) (A) (A) (A) (A) (A) (A)
                 (A) (A) (A) (A) (A) (A) (A) (A) (A) (A) (A) (A)
                 (A) (A) (A) (A) (A) (A) (A) (A) (A) (A) (A) (A)
                 (A) (A) (A) (A) (A) (A) (A) (A) (A) (A) (A) (A)
                 (A) (A) (A) (A) (A) (A) (A) (A) (A) (A) (A) (A)
                 (A) (A) (A) (A) (A) (A) (A) (A) (A) (A) (A) (A)
                 (A) (A) (A) (A) (A) (A) (A) (A) (A) (A) (A) (A)
                 (A) (A) (A) (A) (A) (A) (A) (A) (A) (A) (A) (A)
                 (A) (A) (A) (A) (A) (A) (A) (A) (A) (A) (A) (A)
                 (A) (A) (A) (A) (A) (A) (A) (A) (A) (A) (A) (A)
                 (A) (A) (A) (A) (A) (A) (A) (A) (A) (A) (A) (A)
                 (A) (A) (A) (A) (A) (A) (A) (A) (A) (A) (A) (A)
                 (A) (A) (A) (A) (A) (A) (A) (A) (A) (A) (A) (A)
                 (A) (A) (A) (A) (A) (A) (A) (A) (A) (A) (A) (A)
                 (A) (A) (A) (A) (A) (A) (A) (A) (A) (A) (A) (A)
                 (A) (A) (A) (A) (A) (A) (A) (A) (A) (A) (A) (A)
                 (A) (A) (A) (A) (A) (A) (A) (A) (A) (A) (A) (A)
                 (A) (A) (A) (A) (A) (A) (A) (A) (A) (A) (A) (A)
                 (A) (A) (A) (A) (A) (A) (A) (A) (A) (A) (A) (A)
                 (A) (A) (A) (A) (A) (A) (A) (A) (A) (A) (A) (A)
                 (A) (A) (A) (A) (A) (A) (A) (A) (A) (A) (A) (A)
                 (A) (A) (A) (A) (A) (A) (A) (A) (A) (A) (A) (A)
                 (A) (A) (A) (A) (A) (A) (A) (A) (A) (A) (A) (A)
                 (A) (A) (A) (A) (A) (A) (A) (A) (A) (A) (A) (A)
                 (A) (A) (A) (A) (A) (A) (A) (A) (A) (A) (A) (A)
                 (A) (A) (A) (A) (A) (A) (A) (A) (A) (A) (A) (A)
                 (A) (A) (A) (A) (A) (A) (A) (A) (A) (A) (A) (A)
                 (A) (A) (A) (A) (A) (A) (A) (A) (A) (A) (A) (A)
                 (A) (A) (A) (A) (A) (A) (A) (A) (A) (A) (A) (A)
                 (A) (A) (A) (A) (A) (A) (A) (A) (A) (A) (A) (A)
                 (A) (A) (A) (A) (A) (A) (A) (A) (A) (A) (A) (A)
                 (A) (A) (A) (A) (A) (A) (A) (A) (A) (A) (A) (A)
                 (A) (A) (A) (A) (A) (A) (A) (A) (A) (A) (A) (A)
                 (A) (A) (A) (A) (A) (A) (A) (A) (A) (A) (A) (A)
                 (A) (A) (A) (A) (A) (A) (A) (A) (A) (A) (A) (A)
                 (A) (A) (A) (A) (A) (A) (A) (A) (A) (A) (A) (A)
                 (A) (A) (A) (A) (A) (A) (A) (A) (A) (A) (A) (A)
                 (A) (A) (A) (A) (A) (A) (A) (A) (A) (A) (A) (A)
                 (A) (A) (A) (A) (A) (A) (A) (A) (A) (A) (A) (A)
                 (A) (A) (A) (A) (A) (A) (A) (A) (A) (A) (A) (A)
                 (A) (A) (A) (A) (A) (A) (A) (A) (A) (A) (A) (A)
                 (A) (A) (A) (A) (A) (A) (A) (A) (A) (A) (A) (A)
                 (A) (A) (A) (A) (A) (A) (A) (A) (A) (A) (A) (A)
                 (A) (A) (A) (A) (A) (A) (A) (A) (A) (A) (A) (A)
                 (A) (A) (A) (A) (A) (A) (A) (A) (A) (A) (A) (A)
                 (A) (A) (A) (A) (A) (A) (A) (A) (A) (A) (A) (A)
                 (A) (A) (A) (A) (A) (A) (A) (A) (A) (A) (A) (A)
                 (A) (A) (A) (A) (A) (A) (A) (A) (A) (A) (A) (A)
                 (A) (A) (A) (A) (A) (A) (A) (A) (A) (A) (A) (A)
                 (A) (A) (A) (A) (A) (A) (A) (A) (A) (A) (A) (A)
                 (A) (A) (A) (A) (A) (A) (A) (A) (A) (A) (A) (A)
                 (A) (A) (A) (A) (A) (A) (A) (A) (A) (A) (A) (A)
                 (A) (A) (A) (A) (A) (A) (A) (A) (A) (A) (A) (A)
                 (A) (A) (A) (A) (A) (A) (A) (A) (A) (A) (A) (A)
                 (A) (A) (A) (A) (A) (A) (A) (A) (A) (A) (A) (A)
                 (A) (A) (A) (A) (A) (A) (A) (A) (A) (A) (A) (A)
                 (A) (A) (A) (A) (A) (A) (A) (A) (A) (A) (A) (A)
                 (A) (A) (A) (A) (A) (A) (A) (A) (A) (A) (A) (A)
                 (A) (A) (A) (A) (A) (A) (A) (A) (A) (A) (A) (A)
                 (A) (A) (A) (A) (A) (A) (A) (A) (A) (A) (A) (A)
                 (A) (A) (A) (A) (A) (A) (A) (A) (A) (A) (A) (A)
                 (A) (A) (A) (A) (A) (A) (A) (A) (A) (A) (A) (A)
                 (A) (A) (A) (A) (A) (A) (A) (A) (A) (A) (A) (A)
                 (A) (A) (A) (A) (A) (A) (A) (A) (A) (A) (A) (A)
                 (A) (A) (A) (A) (A) (A) (A) (A) (A) (A) (A) (A)
                 (A) (A) (A) (A) (A) (A) (A) (A) (A) (A) (A) (A)
                 (A) (A) (A) (A) (A) (A) (A) (A) (A) (A) (A) (A)
                 (A) (A) (A) (A) (A) (A) (A) (A) (A) (A) (A) (A)
                 (A) (A) (A) (A) (A) (A) (A) (A) (A) (A) (A) (A)
                 (A) (A) (A) (A) (A) (A) (A) (A) (A) (A) (A) (A)
                 (A) (A) (A)
 The electronic state is 1-A.
 Alpha  occ. eigenvalues -- -145.35471 -19.21341 -19.17567 -19.14823 -19.13678
 Alpha  occ. eigenvalues --  -19.11923 -19.11885 -19.11271 -19.10320 -19.10244
 Alpha  occ. eigenvalues --  -19.09531 -19.08795 -19.07706 -19.07470 -19.07401
 Alpha  occ. eigenvalues --  -19.07337 -19.06035 -19.05819 -19.05797 -19.05777
 Alpha  occ. eigenvalues --  -19.05439 -19.05172 -19.05114 -19.04523 -15.41180
 Alpha  occ. eigenvalues --  -14.57966 -14.40811 -14.38718 -14.36620 -14.36602
 Alpha  occ. eigenvalues --  -14.36047 -14.34850 -14.33639 -14.33577 -14.33475
 Alpha  occ. eigenvalues --  -14.33187 -14.31872 -14.31841 -14.31059 -14.29778
 Alpha  occ. eigenvalues --  -12.54788 -12.54777 -12.54744 -10.33172 -10.32995
 Alpha  occ. eigenvalues --  -10.30987 -10.30771 -10.29763 -10.28748 -10.28478
 Alpha  occ. eigenvalues --  -10.28470 -10.27150 -10.27089 -10.26509 -10.26508
 Alpha  occ. eigenvalues --  -10.26400 -10.26248 -10.25990 -10.25900 -10.25812
 Alpha  occ. eigenvalues --  -10.25728 -10.24939 -10.24808 -10.24798 -10.24722
 Alpha  occ. eigenvalues --  -10.24599 -10.23400 -10.23338 -10.23220 -10.22993
 Alpha  occ. eigenvalues --  -10.22664 -10.22262 -10.22118 -10.21967 -10.21487
 Alpha  occ. eigenvalues --  -10.21360 -10.21101 -10.20990 -10.20170 -10.20115
 Alpha  occ. eigenvalues --  -10.20040 -10.19908 -10.19725 -10.19198 -10.19164
 Alpha  occ. eigenvalues --  -10.19123 -10.19110 -10.18989 -10.18950 -10.18921
 Alpha  occ. eigenvalues --  -10.18562 -10.17977 -10.17687 -10.17587 -10.17557
 Alpha  occ. eigenvalues --  -10.17428 -10.16921  -1.78131  -1.12894  -1.07925
 Alpha  occ. eigenvalues --   -1.07525  -1.06266  -1.06223  -1.05645  -1.05545
 Alpha  occ. eigenvalues --   -1.04894  -1.04842  -1.04359  -1.04011  -1.03457
 Alpha  occ. eigenvalues --   -1.02866  -1.02678  -1.01095  -1.00944  -1.00558
 Alpha  occ. eigenvalues --   -1.00343  -1.00185  -1.00138  -0.99153  -0.98886
 Alpha  occ. eigenvalues --   -0.98653  -0.97706  -0.97589  -0.95337  -0.93837
 Alpha  occ. eigenvalues --   -0.93683  -0.93349  -0.91805  -0.91271  -0.90936
 Alpha  occ. eigenvalues --   -0.90874  -0.90515  -0.90118  -0.89822  -0.89411
 Alpha  occ. eigenvalues --   -0.89181  -0.88944  -0.87933  -0.87849  -0.86274
 Alpha  occ. eigenvalues --   -0.85284  -0.82968  -0.82148  -0.80479  -0.80234
 Alpha  occ. eigenvalues --   -0.78765  -0.78735  -0.78126  -0.77809  -0.77088
 Alpha  occ. eigenvalues --   -0.76081  -0.74830  -0.74774  -0.74145  -0.73390
 Alpha  occ. eigenvalues --   -0.72875  -0.72498  -0.71787  -0.71444  -0.70919
 Alpha  occ. eigenvalues --   -0.70660  -0.70296  -0.69750  -0.68423  -0.67367
 Alpha  occ. eigenvalues --   -0.67271  -0.66729  -0.66582  -0.65449  -0.65022
 Alpha  occ. eigenvalues --   -0.64454  -0.63365  -0.63247  -0.63062  -0.62778
 Alpha  occ. eigenvalues --   -0.61978  -0.61535  -0.61176  -0.60965  -0.60751
 Alpha  occ. eigenvalues --   -0.60122  -0.59859  -0.59524  -0.59033  -0.58402
 Alpha  occ. eigenvalues --   -0.58070  -0.57632  -0.57465  -0.57273  -0.56781
 Alpha  occ. eigenvalues --   -0.56316  -0.56247  -0.56181  -0.55748  -0.55592
 Alpha  occ. eigenvalues --   -0.55095  -0.54665  -0.54485  -0.54280  -0.53922
 Alpha  occ. eigenvalues --   -0.53660  -0.53337  -0.52867  -0.52479  -0.52079
 Alpha  occ. eigenvalues --   -0.51100  -0.50955  -0.50854  -0.50426  -0.50091
 Alpha  occ. eigenvalues --   -0.50051  -0.49997  -0.49798  -0.49680  -0.49335
 Alpha  occ. eigenvalues --   -0.49022  -0.48687  -0.48489  -0.48274  -0.48093
 Alpha  occ. eigenvalues --   -0.47653  -0.47480  -0.47321  -0.47223  -0.47134
 Alpha  occ. eigenvalues --   -0.46987  -0.46768  -0.46661  -0.46377  -0.46304
 Alpha  occ. eigenvalues --   -0.46107  -0.45840  -0.45552  -0.45370  -0.45305
 Alpha  occ. eigenvalues --   -0.44811  -0.44754  -0.44629  -0.44381  -0.44204
 Alpha  occ. eigenvalues --   -0.43937  -0.43894  -0.43779  -0.43442  -0.43401
 Alpha  occ. eigenvalues --   -0.43207  -0.43044  -0.42938  -0.42901  -0.42794
 Alpha  occ. eigenvalues --   -0.42544  -0.42488  -0.42406  -0.42225  -0.42093
 Alpha  occ. eigenvalues --   -0.41941  -0.41882  -0.41751  -0.41551  -0.41433
 Alpha  occ. eigenvalues --   -0.41307  -0.41244  -0.41134  -0.41025  -0.40911
 Alpha  occ. eigenvalues --   -0.40666  -0.40639  -0.40367  -0.40226  -0.39961
 Alpha  occ. eigenvalues --   -0.39921  -0.39649  -0.39534  -0.39425  -0.39266
 Alpha  occ. eigenvalues --   -0.39065  -0.38951  -0.38820  -0.38687  -0.38527
 Alpha  occ. eigenvalues --   -0.38461  -0.38390  -0.38285  -0.38171  -0.38080
 Alpha  occ. eigenvalues --   -0.38031  -0.37766  -0.37586  -0.37250  -0.36921
 Alpha  occ. eigenvalues --   -0.36854  -0.36753  -0.36680  -0.36533  -0.36419
 Alpha  occ. eigenvalues --   -0.36338  -0.35972  -0.35795  -0.35686  -0.35488
 Alpha  occ. eigenvalues --   -0.35414  -0.35210  -0.34880  -0.34618  -0.34383
 Alpha  occ. eigenvalues --   -0.34265  -0.34037  -0.33972  -0.33864  -0.33662
 Alpha  occ. eigenvalues --   -0.33539  -0.33460  -0.33295  -0.33126  -0.32883
 Alpha  occ. eigenvalues --   -0.32628  -0.32575  -0.31864  -0.31825  -0.30357
 Alpha  occ. eigenvalues --   -0.29648  -0.29526  -0.29348  -0.28502  -0.28418
 Alpha  occ. eigenvalues --   -0.28123  -0.27622  -0.27362  -0.27054  -0.27011
 Alpha  occ. eigenvalues --   -0.26943  -0.26394  -0.25795  -0.25679  -0.25363
 Alpha  occ. eigenvalues --   -0.25289  -0.25154  -0.25131  -0.25000  -0.24603
 Alpha  occ. eigenvalues --   -0.24467  -0.24376  -0.24001  -0.23685  -0.23221
 Alpha  occ. eigenvalues --   -0.22995  -0.22784  -0.22766  -0.22505  -0.22486
 Alpha  occ. eigenvalues --   -0.21951  -0.21802  -0.21131  -0.21112  -0.20997
 Alpha  occ. eigenvalues --   -0.20628  -0.20128  -0.19374
 Alpha virt. eigenvalues --   -0.09660  -0.04124  -0.04014  -0.03575  -0.02793
 Alpha virt. eigenvalues --   -0.02152  -0.01535  -0.00777  -0.00644   0.00007
 Alpha virt. eigenvalues --    0.00179   0.00386   0.00646   0.01158   0.02494
 Alpha virt. eigenvalues --    0.02610   0.03040   0.03240   0.03625   0.03678
 Alpha virt. eigenvalues --    0.03743   0.04041   0.04068   0.04352   0.04544
 Alpha virt. eigenvalues --    0.04705   0.04858   0.05161   0.05232   0.05377
 Alpha virt. eigenvalues --    0.05674   0.05787   0.05959   0.06310   0.06479
 Alpha virt. eigenvalues --    0.06917   0.07008   0.07060   0.07404   0.07468
 Alpha virt. eigenvalues --    0.07698   0.08068   0.08518   0.08810   0.08934
 Alpha virt. eigenvalues --    0.09116   0.09443   0.09499   0.09770   0.09921
 Alpha virt. eigenvalues --    0.10164   0.10401   0.10484   0.10565   0.10732
 Alpha virt. eigenvalues --    0.11028   0.11212   0.11320   0.11500   0.11803
 Alpha virt. eigenvalues --    0.11857   0.11901   0.11987   0.12221   0.12458
 Alpha virt. eigenvalues --    0.12496   0.12659   0.12814   0.13031   0.13277
 Alpha virt. eigenvalues --    0.13379   0.13754   0.13845   0.14073   0.14096
 Alpha virt. eigenvalues --    0.14278   0.14293   0.14608   0.14717   0.14897
 Alpha virt. eigenvalues --    0.15204   0.15351   0.15473   0.15542   0.15673
 Alpha virt. eigenvalues --    0.15731   0.15900   0.16052   0.16136   0.16453
 Alpha virt. eigenvalues --    0.16714   0.16858   0.16921   0.17011   0.17032
 Alpha virt. eigenvalues --    0.17176   0.17371   0.17497   0.17663   0.18112
 Alpha virt. eigenvalues --    0.18405   0.18523   0.18877   0.18956   0.19111
 Alpha virt. eigenvalues --    0.19198   0.19423   0.19671   0.19789   0.20051
 Alpha virt. eigenvalues --    0.20215   0.20359   0.20563   0.20653   0.20721
 Alpha virt. eigenvalues --    0.21037   0.21216   0.21321   0.21658   0.21962
 Alpha virt. eigenvalues --    0.22202   0.22474   0.22715   0.22887   0.23066
 Alpha virt. eigenvalues --    0.23270   0.23451   0.23705   0.23755   0.24136
 Alpha virt. eigenvalues --    0.24465   0.24550   0.24864   0.25097   0.25254
 Alpha virt. eigenvalues --    0.25551   0.25623   0.25891   0.25984   0.26412
 Alpha virt. eigenvalues --    0.26480   0.26791   0.26857   0.27112   0.27176
 Alpha virt. eigenvalues --    0.27591   0.27931   0.27999   0.28560   0.28572
 Alpha virt. eigenvalues --    0.28759   0.29066   0.29166   0.29415   0.29639
 Alpha virt. eigenvalues --    0.29798   0.30189   0.30421   0.30517   0.30680
 Alpha virt. eigenvalues --    0.31004   0.31181   0.31232   0.31415   0.31956
 Alpha virt. eigenvalues --    0.32201   0.32314   0.32552   0.33118   0.33249
 Alpha virt. eigenvalues --    0.33559   0.33854   0.34169   0.34300   0.34705
 Alpha virt. eigenvalues --    0.35122   0.35367   0.35627   0.35726   0.36364
 Alpha virt. eigenvalues --    0.36631   0.36801   0.37063   0.37247   0.37526
 Alpha virt. eigenvalues --    0.38185   0.38527   0.38619   0.38926   0.39201
 Alpha virt. eigenvalues --    0.39375   0.39458   0.39913   0.39938   0.40014
 Alpha virt. eigenvalues --    0.40535   0.40627   0.40916   0.41092   0.41264
 Alpha virt. eigenvalues --    0.41317   0.41555   0.41844   0.42340   0.42405
 Alpha virt. eigenvalues --    0.42669   0.42840   0.42952   0.43127   0.43171
 Alpha virt. eigenvalues --    0.43408   0.43573   0.43830   0.44216   0.44461
 Alpha virt. eigenvalues --    0.44579   0.44798   0.44925   0.45208   0.45276
 Alpha virt. eigenvalues --    0.45609   0.45683   0.46019   0.46140   0.46423
 Alpha virt. eigenvalues --    0.46519   0.46690   0.46862   0.47049   0.47317
 Alpha virt. eigenvalues --    0.47496   0.47669   0.47973   0.48191   0.48437
 Alpha virt. eigenvalues --    0.48477   0.48707   0.48709   0.48957   0.49115
 Alpha virt. eigenvalues --    0.49371   0.49684   0.49900   0.50174   0.50320
 Alpha virt. eigenvalues --    0.50528   0.50755   0.50823   0.51372   0.51469
 Alpha virt. eigenvalues --    0.51662   0.51818   0.52099   0.52345   0.52488
 Alpha virt. eigenvalues --    0.52659   0.52859   0.52913   0.53086   0.53344
 Alpha virt. eigenvalues --    0.53514   0.53841   0.53966   0.54097   0.54148
 Alpha virt. eigenvalues --    0.54551   0.54804   0.55051   0.55178   0.55248
 Alpha virt. eigenvalues --    0.55506   0.55764   0.55969   0.56246   0.56616
 Alpha virt. eigenvalues --    0.56757   0.56948   0.57012   0.57161   0.57312
 Alpha virt. eigenvalues --    0.57454   0.57515   0.57861   0.57905   0.58058
 Alpha virt. eigenvalues --    0.58238   0.58669   0.58833   0.59080   0.59191
 Alpha virt. eigenvalues --    0.59374   0.59563   0.59710   0.59863   0.60026
 Alpha virt. eigenvalues --    0.60181   0.60321   0.60418   0.60428   0.60537
 Alpha virt. eigenvalues --    0.60768   0.60910   0.61035   0.61090   0.61222
 Alpha virt. eigenvalues --    0.61309   0.61431   0.61448   0.61744   0.61810
 Alpha virt. eigenvalues --    0.62057   0.62162   0.62455   0.62532   0.62633
 Alpha virt. eigenvalues --    0.62734   0.63025   0.63178   0.63210   0.63300
 Alpha virt. eigenvalues --    0.63471   0.63531   0.63769   0.63864   0.64017
 Alpha virt. eigenvalues --    0.64195   0.64271   0.64352   0.64539   0.64587
 Alpha virt. eigenvalues --    0.64643   0.64742   0.64851   0.64933   0.65080
 Alpha virt. eigenvalues --    0.65108   0.65246   0.65363   0.65608   0.65805
 Alpha virt. eigenvalues --    0.66018   0.66056   0.66160   0.66292   0.66350
 Alpha virt. eigenvalues --    0.66505   0.66734   0.66802   0.66873   0.66933
 Alpha virt. eigenvalues --    0.67025   0.67106   0.67279   0.67358   0.67552
 Alpha virt. eigenvalues --    0.67678   0.67724   0.67814   0.67987   0.68063
 Alpha virt. eigenvalues --    0.68204   0.68276   0.68373   0.68445   0.68559
 Alpha virt. eigenvalues --    0.68710   0.68777   0.69014   0.69037   0.69227
 Alpha virt. eigenvalues --    0.69295   0.69418   0.69544   0.69731   0.69906
 Alpha virt. eigenvalues --    0.70054   0.70150   0.70314   0.70503   0.70557
 Alpha virt. eigenvalues --    0.70641   0.70715   0.70905   0.71023   0.71144
 Alpha virt. eigenvalues --    0.71236   0.71435   0.71541   0.71787   0.71947
 Alpha virt. eigenvalues --    0.72006   0.72143   0.72240   0.72431   0.72557
 Alpha virt. eigenvalues --    0.72675   0.72833   0.73026   0.73219   0.73425
 Alpha virt. eigenvalues --    0.73551   0.73691   0.74027   0.74066   0.74354
 Alpha virt. eigenvalues --    0.74542   0.74709   0.74895   0.75010   0.75412
 Alpha virt. eigenvalues --    0.75492   0.75604   0.75841   0.76275   0.76427
 Alpha virt. eigenvalues --    0.76658   0.76880   0.77030   0.77065   0.77498
 Alpha virt. eigenvalues --    0.77629   0.78103   0.78384   0.78528   0.78868
 Alpha virt. eigenvalues --    0.79048   0.79127   0.79314   0.79518   0.79806
 Alpha virt. eigenvalues --    0.79993   0.80353   0.80710   0.80970   0.81075
 Alpha virt. eigenvalues --    0.81519   0.81797   0.82106   0.82508   0.82728
 Alpha virt. eigenvalues --    0.82961   0.83032   0.83518   0.83744   0.83797
 Alpha virt. eigenvalues --    0.84298   0.84459   0.84950   0.85070   0.85213
 Alpha virt. eigenvalues --    0.85532   0.85792   0.86313   0.86585   0.86644
 Alpha virt. eigenvalues --    0.86941   0.87205   0.87607   0.87850   0.88139
 Alpha virt. eigenvalues --    0.88402   0.88613   0.88994   0.89282   0.89557
 Alpha virt. eigenvalues --    0.89846   0.90188   0.90447   0.90488   0.90956
 Alpha virt. eigenvalues --    0.91283   0.91471   0.91998   0.92388   0.92631
 Alpha virt. eigenvalues --    0.93409   0.93582   0.93883   0.94124   0.94189
 Alpha virt. eigenvalues --    0.94504   0.94728   0.94946   0.95241   0.95360
 Alpha virt. eigenvalues --    0.95397   0.95708   0.96130   0.96282   0.96556
 Alpha virt. eigenvalues --    0.96783   0.96864   0.97082   0.97358   0.97815
 Alpha virt. eigenvalues --    0.98202   0.98422   0.98477   0.98691   0.99176
 Alpha virt. eigenvalues --    0.99520   0.99662   0.99933   1.00222   1.00462
 Alpha virt. eigenvalues --    1.01043   1.01283   1.02092   1.02233   1.02398
 Alpha virt. eigenvalues --    1.03070   1.03123   1.03425   1.03601   1.04052
 Alpha virt. eigenvalues --    1.04233   1.04750   1.05224   1.05327   1.05727
 Alpha virt. eigenvalues --    1.05900   1.06125   1.06338   1.06459   1.06589
 Alpha virt. eigenvalues --    1.06943   1.07336   1.07654   1.08069   1.08316
 Alpha virt. eigenvalues --    1.08464   1.08927   1.09372   1.09714   1.10045
 Alpha virt. eigenvalues --    1.10340   1.10523   1.10880   1.11259   1.11370
 Alpha virt. eigenvalues --    1.11671   1.11870   1.12034   1.12813   1.12878
 Alpha virt. eigenvalues --    1.13366   1.13440   1.13663   1.14136   1.14220
 Alpha virt. eigenvalues --    1.14536   1.14593   1.15247   1.15503   1.15653
 Alpha virt. eigenvalues --    1.16022   1.16265   1.16520   1.16776   1.16831
 Alpha virt. eigenvalues --    1.17227   1.17412   1.17526   1.18132   1.18263
 Alpha virt. eigenvalues --    1.18459   1.18990   1.19018   1.19192   1.19540
 Alpha virt. eigenvalues --    1.19708   1.19903   1.20372   1.20471   1.20742
 Alpha virt. eigenvalues --    1.21128   1.21223   1.21494   1.21790   1.22373
 Alpha virt. eigenvalues --    1.22599   1.22844   1.23060   1.23076   1.23375
 Alpha virt. eigenvalues --    1.23600   1.23873   1.23991   1.24446   1.24764
 Alpha virt. eigenvalues --    1.25277   1.25344   1.25694   1.25803   1.25908
 Alpha virt. eigenvalues --    1.26202   1.26288   1.26563   1.26772   1.27029
 Alpha virt. eigenvalues --    1.27483   1.27672   1.27715   1.28082   1.28730
 Alpha virt. eigenvalues --    1.28748   1.29359   1.29393   1.29789   1.30123
 Alpha virt. eigenvalues --    1.30254   1.30552   1.30734   1.31075   1.31316
 Alpha virt. eigenvalues --    1.31726   1.31972   1.32156   1.32382   1.32565
 Alpha virt. eigenvalues --    1.32869   1.33051   1.33587   1.33893   1.34174
 Alpha virt. eigenvalues --    1.34561   1.34870   1.35313   1.35429   1.35685
 Alpha virt. eigenvalues --    1.36032   1.36385   1.36454   1.36756   1.37146
 Alpha virt. eigenvalues --    1.37226   1.37573   1.37874   1.37972   1.38161
 Alpha virt. eigenvalues --    1.38435   1.38618   1.38710   1.38984   1.39362
 Alpha virt. eigenvalues --    1.39998   1.40171   1.40596   1.40739   1.41104
 Alpha virt. eigenvalues --    1.41375   1.41415   1.41987   1.42221   1.42527
 Alpha virt. eigenvalues --    1.42760   1.42821   1.43036   1.43508   1.44017
 Alpha virt. eigenvalues --    1.44433   1.44624   1.44690   1.45045   1.45246
 Alpha virt. eigenvalues --    1.45580   1.45838   1.46145   1.46158   1.46235
 Alpha virt. eigenvalues --    1.46694   1.46864   1.47494   1.47729   1.47972
 Alpha virt. eigenvalues --    1.48245   1.48409   1.48727   1.48955   1.49321
 Alpha virt. eigenvalues --    1.49785   1.49879   1.50151   1.50191   1.50837
 Alpha virt. eigenvalues --    1.51194   1.51371   1.51696   1.51971   1.52206
 Alpha virt. eigenvalues --    1.52454   1.52711   1.52902   1.53264   1.53502
 Alpha virt. eigenvalues --    1.53604   1.54375   1.54512   1.54677   1.55190
 Alpha virt. eigenvalues --    1.55399   1.55680   1.55935   1.56416   1.56855
 Alpha virt. eigenvalues --    1.57134   1.57340   1.57702   1.57966   1.58377
 Alpha virt. eigenvalues --    1.58692   1.59365   1.59589   1.60113   1.60345
 Alpha virt. eigenvalues --    1.60848   1.61017   1.61293   1.61345   1.61765
 Alpha virt. eigenvalues --    1.62218   1.62398   1.63281   1.63457   1.63887
 Alpha virt. eigenvalues --    1.64174   1.64448   1.64643   1.64845   1.65078
 Alpha virt. eigenvalues --    1.65367   1.65498   1.65790   1.66303   1.66605
 Alpha virt. eigenvalues --    1.67078   1.67438   1.67965   1.68136   1.68210
 Alpha virt. eigenvalues --    1.68388   1.68728   1.69162   1.69223   1.69338
 Alpha virt. eigenvalues --    1.69596   1.69873   1.70104   1.70765   1.70801
 Alpha virt. eigenvalues --    1.71060   1.71349   1.71435   1.71900   1.72038
 Alpha virt. eigenvalues --    1.72314   1.72360   1.72753   1.73025   1.73209
 Alpha virt. eigenvalues --    1.73739   1.74016   1.74091   1.74237   1.74323
 Alpha virt. eigenvalues --    1.74492   1.74702   1.74941   1.75040   1.75166
 Alpha virt. eigenvalues --    1.75242   1.75495   1.75562   1.75824   1.75925
 Alpha virt. eigenvalues --    1.76003   1.76247   1.76445   1.76799   1.77001
 Alpha virt. eigenvalues --    1.77136   1.77275   1.77414   1.77624   1.77840
 Alpha virt. eigenvalues --    1.78033   1.78111   1.78322   1.78422   1.78638
 Alpha virt. eigenvalues --    1.78741   1.78889   1.79100   1.79211   1.79385
 Alpha virt. eigenvalues --    1.79492   1.79595   1.79732   1.79876   1.80234
 Alpha virt. eigenvalues --    1.80405   1.80432   1.80701   1.80804   1.80934
 Alpha virt. eigenvalues --    1.81035   1.81199   1.81507   1.81807   1.81962
 Alpha virt. eigenvalues --    1.82144   1.82182   1.82313   1.82579   1.82782
 Alpha virt. eigenvalues --    1.83040   1.83131   1.83275   1.83606   1.83781
 Alpha virt. eigenvalues --    1.83832   1.84080   1.84178   1.84326   1.84584
 Alpha virt. eigenvalues --    1.84830   1.84949   1.85102   1.85311   1.85359
 Alpha virt. eigenvalues --    1.85674   1.86120   1.86336   1.86562   1.86673
 Alpha virt. eigenvalues --    1.86904   1.86955   1.87302   1.87473   1.87556
 Alpha virt. eigenvalues --    1.87849   1.88143   1.88268   1.88322   1.88624
 Alpha virt. eigenvalues --    1.88877   1.89131   1.89205   1.89349   1.89634
 Alpha virt. eigenvalues --    1.89830   1.89931   1.90211   1.90312   1.90450
 Alpha virt. eigenvalues --    1.90517   1.90992   1.91155   1.91238   1.91477
 Alpha virt. eigenvalues --    1.91653   1.91796   1.91918   1.92338   1.92534
 Alpha virt. eigenvalues --    1.92604   1.92831   1.93025   1.93136   1.93307
 Alpha virt. eigenvalues --    1.93350   1.93712   1.93762   1.94201   1.94731
 Alpha virt. eigenvalues --    1.94851   1.94908   1.95154   1.95426   1.95554
 Alpha virt. eigenvalues --    1.95645   1.96107   1.96267   1.96449   1.96722
 Alpha virt. eigenvalues --    1.97006   1.97285   1.97496   1.97691   1.97950
 Alpha virt. eigenvalues --    1.98298   1.98377   1.98590   1.98767   1.98970
 Alpha virt. eigenvalues --    1.99238   1.99341   1.99497   1.99862   1.99901
 Alpha virt. eigenvalues --    2.00029   2.00423   2.00564   2.00653   2.00777
 Alpha virt. eigenvalues --    2.01279   2.01477   2.01628   2.02177   2.02420
 Alpha virt. eigenvalues --    2.02745   2.03120   2.03199   2.03381   2.03647
 Alpha virt. eigenvalues --    2.04012   2.04245   2.04757   2.05021   2.05309
 Alpha virt. eigenvalues --    2.05974   2.06056   2.06479   2.06681   2.06702
 Alpha virt. eigenvalues --    2.06805   2.07308   2.07558   2.07793   2.08066
 Alpha virt. eigenvalues --    2.08284   2.08527   2.08909   2.09134   2.09490
 Alpha virt. eigenvalues --    2.09769   2.09861   2.09998   2.10250   2.11066
 Alpha virt. eigenvalues --    2.11383   2.11453   2.11769   2.12105   2.12239
 Alpha virt. eigenvalues --    2.12398   2.12626   2.12818   2.13133   2.13233
 Alpha virt. eigenvalues --    2.13423   2.13767   2.13914   2.14020   2.14200
 Alpha virt. eigenvalues --    2.14540   2.14725   2.15035   2.15251   2.15553
 Alpha virt. eigenvalues --    2.15656   2.16044   2.16176   2.16493   2.16743
 Alpha virt. eigenvalues --    2.17102   2.17246   2.17532   2.17758   2.17962
 Alpha virt. eigenvalues --    2.18056   2.18742   2.18961   2.19134   2.19599
 Alpha virt. eigenvalues --    2.19748   2.19861   2.20536   2.21028   2.21468
 Alpha virt. eigenvalues --    2.21692   2.22386   2.22509   2.22995   2.23039
 Alpha virt. eigenvalues --    2.23450   2.23502   2.23709   2.24185   2.24681
 Alpha virt. eigenvalues --    2.25226   2.25367   2.25415   2.25769   2.25992
 Alpha virt. eigenvalues --    2.26522   2.27070   2.27732   2.28752   2.29156
 Alpha virt. eigenvalues --    2.29234   2.29846   2.29961   2.30328   2.30813
 Alpha virt. eigenvalues --    2.31138   2.31639   2.32259   2.32374   2.32693
 Alpha virt. eigenvalues --    2.32776   2.33245   2.33702   2.33781   2.34006
 Alpha virt. eigenvalues --    2.34603   2.34803   2.35061   2.35416   2.35952
 Alpha virt. eigenvalues --    2.36197   2.36415   2.36457   2.36818   2.37057
 Alpha virt. eigenvalues --    2.37220   2.37493   2.38128   2.38404   2.38548
 Alpha virt. eigenvalues --    2.38757   2.39036   2.39327   2.39596   2.39835
 Alpha virt. eigenvalues --    2.40082   2.40119   2.40520   2.40812   2.41204
 Alpha virt. eigenvalues --    2.41354   2.41983   2.42427   2.42684   2.42965
 Alpha virt. eigenvalues --    2.43163   2.43519   2.43928   2.44387   2.44847
 Alpha virt. eigenvalues --    2.45244   2.45376   2.45673   2.45714   2.46429
 Alpha virt. eigenvalues --    2.46909   2.47100   2.47265   2.47987   2.48075
 Alpha virt. eigenvalues --    2.48543   2.49129   2.49318   2.49484   2.49731
 Alpha virt. eigenvalues --    2.50041   2.50332   2.50369   2.50488   2.50939
 Alpha virt. eigenvalues --    2.51119   2.51954   2.52099   2.52192   2.52338
 Alpha virt. eigenvalues --    2.52922   2.53449   2.53564   2.54237   2.54867
 Alpha virt. eigenvalues --    2.55025   2.55391   2.55729   2.56341   2.56936
 Alpha virt. eigenvalues --    2.57173   2.57544   2.58027   2.58234   2.58589
 Alpha virt. eigenvalues --    2.58735   2.58946   2.59397   2.59645   2.59781
 Alpha virt. eigenvalues --    2.60231   2.60350   2.60716   2.60794   2.61037
 Alpha virt. eigenvalues --    2.61742   2.62318   2.62530   2.62742   2.62831
 Alpha virt. eigenvalues --    2.62947   2.63398   2.63744   2.63870   2.64081
 Alpha virt. eigenvalues --    2.64664   2.64983   2.65081   2.65295   2.65568
 Alpha virt. eigenvalues --    2.65707   2.65895   2.66250   2.66500   2.66743
 Alpha virt. eigenvalues --    2.67092   2.67397   2.67522   2.68199   2.68602
 Alpha virt. eigenvalues --    2.69100   2.69628   2.69659   2.69807   2.69885
 Alpha virt. eigenvalues --    2.69998   2.70435   2.70710   2.70772   2.71311
 Alpha virt. eigenvalues --    2.71529   2.71660   2.71923   2.72042   2.73064
 Alpha virt. eigenvalues --    2.73246   2.73310   2.73649   2.73896   2.74124
 Alpha virt. eigenvalues --    2.74536   2.74604   2.74713   2.74911   2.75319
 Alpha virt. eigenvalues --    2.75487   2.75915   2.76193   2.76292   2.76476
 Alpha virt. eigenvalues --    2.77450   2.77650   2.77723   2.77886   2.78216
 Alpha virt. eigenvalues --    2.78310   2.78733   2.78902   2.79888   2.79973
 Alpha virt. eigenvalues --    2.80076   2.80278   2.80387   2.80575   2.80798
 Alpha virt. eigenvalues --    2.81084   2.81224   2.81345   2.81630   2.81898
 Alpha virt. eigenvalues --    2.82067   2.82407   2.82851   2.83054   2.83233
 Alpha virt. eigenvalues --    2.83544   2.84143   2.84389   2.84555   2.84908
 Alpha virt. eigenvalues --    2.85182   2.85564   2.86609   2.87004   2.87341
 Alpha virt. eigenvalues --    2.87440   2.87617   2.87848   2.88047   2.88151
 Alpha virt. eigenvalues --    2.88405   2.88475   2.89655   2.90039   2.90143
 Alpha virt. eigenvalues --    2.90623   2.90765   2.91142   2.91420   2.91481
 Alpha virt. eigenvalues --    2.91624   2.91979   2.92226   2.92544   2.92952
 Alpha virt. eigenvalues --    2.93207   2.93363   2.93460   2.94008   2.94287
 Alpha virt. eigenvalues --    2.94899   2.95064   2.95193   2.95618   2.95971
 Alpha virt. eigenvalues --    2.96233   2.96492   2.96605   2.97129   2.97248
 Alpha virt. eigenvalues --    2.97486   2.98203   2.98269   2.98620   2.99078
 Alpha virt. eigenvalues --    2.99442   2.99842   3.00230   3.00443   3.00583
 Alpha virt. eigenvalues --    3.00802   3.01160   3.01459   3.01689   3.01876
 Alpha virt. eigenvalues --    3.02222   3.02579   3.02745   3.03106   3.03646
 Alpha virt. eigenvalues --    3.04699   3.04994   3.05273   3.05685   3.06469
 Alpha virt. eigenvalues --    3.06666   3.06762   3.07309   3.07751   3.08005
 Alpha virt. eigenvalues --    3.09042   3.09627   3.10089   3.10435   3.10485
 Alpha virt. eigenvalues --    3.11134   3.11522   3.11738   3.12023   3.12081
 Alpha virt. eigenvalues --    3.12421   3.13792   3.14668   3.14974   3.15139
 Alpha virt. eigenvalues --    3.16372   3.16725   3.16771   3.17385   3.17414
 Alpha virt. eigenvalues --    3.18025   3.18096   3.18199   3.18949   3.19542
 Alpha virt. eigenvalues --    3.19852   3.20075   3.20325   3.20373   3.20729
 Alpha virt. eigenvalues --    3.20825   3.21179   3.21360   3.21640   3.21958
 Alpha virt. eigenvalues --    3.22329   3.23147   3.23427   3.23756   3.24312
 Alpha virt. eigenvalues --    3.24991   3.25236   3.25468   3.25947   3.26817
 Alpha virt. eigenvalues --    3.26876   3.27821   3.28050   3.29092   3.29659
 Alpha virt. eigenvalues --    3.30491   3.31676   3.32493   3.32881   3.33476
 Alpha virt. eigenvalues --    3.34175   3.34998   3.36327   3.37420   3.38222
 Alpha virt. eigenvalues --    3.39590   3.41314   3.46606   3.47932   3.50910
 Alpha virt. eigenvalues --    3.51133   3.51925   3.53687   3.55220   3.56834
 Alpha virt. eigenvalues --    3.57735   3.57992   3.58308   3.58561   3.58704
 Alpha virt. eigenvalues --    3.59721   3.60136   3.61455   3.62233   3.63566
 Alpha virt. eigenvalues --    3.64087   3.65830   3.66489   3.68440   3.68853
 Alpha virt. eigenvalues --    3.68988   3.69422   3.69481   3.69674   3.70294
 Alpha virt. eigenvalues --    3.70359   3.70870   3.70973   3.71182   3.71432
 Alpha virt. eigenvalues --    3.71530   3.71948   3.72104   3.73357   3.74401
 Alpha virt. eigenvalues --    3.75603   3.78806   3.80277   3.86212
          Condensed to atoms (all electrons):
 Mulliken charges:
               1
     1  C    0.048600
     2  C    0.026406
     3  O   -0.283094
     4  H    0.036259
     5  H    0.047887
     6  H   -0.005626
     7  N   -0.113970
     8  C    0.024761
     9  C    0.080080
    10  O   -0.280987
    11  C    0.192995
    12  C    0.094699
    13  O   -0.378385
    14  O   -0.456922
    15  H    0.112494
    16  H    0.011360
    17  H    0.004418
    18  H   -0.012515
    19  N   -0.158522
    20  C    0.140283
    21  C    0.082063
    22  O   -0.277484
    23  C   -0.095896
    24  C    0.069774
    25  C   -0.032876
    26  C   -0.023909
    27  N    0.087856
    28  H    0.150100
    29  H   -0.000584
    30  H    0.029915
    31  H    0.036224
    32  H    0.028690
    33  H    0.027550
    34  H    0.023365
    35  H    0.016885
    36  H    0.083369
    37  H    0.091411
    38  H    0.193771
    39  H    0.191414
    40  H    0.210401
    41  N   -0.150689
    42  C    0.119910
    43  C    0.038150
    44  O   -0.304086
    45  C    0.152710
    46  C    0.042264
    47  O   -0.423830
    48  O   -0.402335
    49  H    0.171940
    50  H    0.016600
    51  H   -0.023802
    52  H    0.012813
    53  N   -0.153956
    54  C    0.233029
    55  C    0.034179
    56  O   -0.279154
    57  H    0.133271
    58  H    0.021385
    59  H    0.020214
    60  N   -0.177286
    61  C    0.182556
    62  C    0.044412
    63  O   -0.290860
    64  C    0.064306
    65  C    0.077740
    66  N   -0.059799
    67  O   -0.347155
    68  H    0.152547
    69  H    0.027451
    70  H    0.018685
    71  H    0.038901
    72  H    0.120547
    73  H    0.094026
    74  N   -0.142078
    75  C    0.231996
    76  C    0.040810
    77  O   -0.303465
    78  H    0.126864
    79  H    0.038602
    80  H    0.034132
    81  N   -0.154777
    82  C    0.099960
    83  C    0.112488
    84  O   -0.351238
    85  C    0.176194
    86  C   -0.051046
    87  C    0.002322
    88  C    0.010431
    89  C   -0.017650
    90  C   -0.079002
    91  C    0.147191
    92  O   -0.196257
    93  H    0.176592
    94  H    0.002492
    95  H    0.025175
    96  H   -0.025079
    97  H    0.005490
    98  H   -0.020447
    99  H   -0.005989
   100  H   -0.068566
   101  H    0.167036
   102  N   -0.071641
   103  C    0.163137
   104  C    0.035471
   105  O   -0.288792
   106  C   -0.161675
   107  C    0.036231
   108  C    0.086031
   109  C    0.031002
   110  H    0.117944
   111  H    0.020638
   112  H   -0.012412
   113  H    0.008532
   114  H    0.012961
   115  H   -0.000618
   116  H    0.014447
   117  H    0.012354
   118  H    0.007074
   119  H    0.002476
   120  H    0.002923
   121  N   -0.141290
   122  C    0.031909
   123  C    0.148978
   124  O   -0.297584
   125  C    0.307979
   126  O   -0.338169
   127  H    0.151825
   128  H   -0.001118
   129  H   -0.033532
   130  H   -0.025802
   131  H    0.164425
   132  N   -0.132422
   133  C    0.065182
   134  C    0.061172
   135  O   -0.238578
   136  C    0.058463
   137  H    0.124063
   138  H    0.028974
   139  H    0.049500
   140  H    0.009268
   141  H    0.019684
   142  N   -0.131358
   143  C    0.115662
   144  C    0.031775
   145  O   -0.292886
   146  C    0.020802
   147  H    0.104243
   148  H    0.026658
   149  H    0.023039
   150  H    0.007488
   151  H    0.023663
   152  N   -0.136510
   153  C    0.127795
   154  C    0.062036
   155  O   -0.273537
   156  C    0.032143
   157  C    0.062386
   158  C    0.203481
   159  O   -0.459612
   160  O   -0.386887
   161  H    0.121557
   162  H   -0.026083
   163  H    0.055506
   164  H   -0.008902
   165  H   -0.015527
   166  H   -0.035105
   167  N   -0.164326
   168  C    0.129205
   169  H    0.015866
   170  H    0.044669
   171  H    0.004361
   172  H    0.118951
   173  Ca   1.230214
   174  O   -0.258444
   175  H    0.190227
   176  H    0.199315
 Sum of Mulliken charges =  -0.00000
 Mulliken charges with hydrogens summed into heavy atoms:
               1
     1  C    0.127120
     2  C    0.026406
     3  O   -0.283094
     7  N   -0.001476
     8  C    0.036121
     9  C    0.080080
    10  O   -0.280987
    11  C    0.184898
    12  C    0.094699
    13  O   -0.378385
    14  O   -0.456922
    19  N   -0.008421
    20  C    0.139699
    21  C    0.082063
    22  O   -0.277484
    23  C   -0.029757
    24  C    0.126014
    25  C    0.007375
    26  C    0.150872
    27  N    0.683443
    41  N    0.021251
    42  C    0.136510
    43  C    0.038150
    44  O   -0.304086
    45  C    0.141721
    46  C    0.042264
    47  O   -0.423830
    48  O   -0.402335
    53  N   -0.020684
    54  C    0.274629
    55  C    0.034179
    56  O   -0.279154
    60  N   -0.024738
    61  C    0.210007
    62  C    0.044412
    63  O   -0.290860
    64  C    0.121892
    65  C    0.077740
    66  N    0.154774
    67  O   -0.347155
    74  N   -0.015214
    75  C    0.304730
    76  C    0.040810
    77  O   -0.303465
    81  N    0.021816
    82  C    0.102452
    83  C    0.112488
    84  O   -0.351238
    85  C    0.176289
    86  C   -0.051046
    87  C    0.007812
    88  C   -0.010016
    89  C   -0.023639
    90  C   -0.147568
    91  C    0.147191
    92  O   -0.029222
   102  N    0.046303
   103  C    0.183775
   104  C    0.035471
   105  O   -0.288792
   106  C   -0.174086
   107  C    0.057723
   108  C    0.112214
   109  C    0.043475
   121  N    0.010535
   122  C    0.030791
   123  C    0.148978
   124  O   -0.297584
   125  C    0.248644
   126  O   -0.173744
   132  N   -0.008359
   133  C    0.094156
   134  C    0.061172
   135  O   -0.238578
   136  C    0.136916
   142  N   -0.027115
   143  C    0.142320
   144  C    0.031775
   145  O   -0.292886
   146  C    0.074992
   152  N   -0.014953
   153  C    0.101712
   154  C    0.062036
   155  O   -0.273537
   156  C    0.078747
   157  C    0.011754
   158  C    0.203481
   159  O   -0.459612
   160  O   -0.386887
   167  N   -0.045375
   168  C    0.194101
   173  Ca   1.230214
   174  O    0.131098
 DipInt: DoE/N= T F RetVal/Mat= T F Init=T NMatP=  1 IDeriv=0 Min/MaxMlt=  0  4
 Entering OneElI...
 OneElI was handed  1333951383 working-precision words.
 Multipole integrals L=0 to 4 MinM= 0 MaxM= 0.
 Requested accuracy = 0.1000D-12
 ShPair: Thresh= 1.00D-13 NBox=     0 BxSize= 0.00D+00 RnKept= 2.55D+01
         NSMCal=               327645 NSMKep=              166595
 PrmmSu-InSpLW:  IPartL=    0 NPrtUS=    1 NPrtUL=    1 DoSpLW=F IThBeg=    0 IThEnd=    0 NThAct=    1.
 PrsmSu:  NPrtUS=   1 ThrOK=F IAlg=1 NPAlg=1 LenDen=           0 ISkipM=0 DoSpLW=F IThBeg=    0 IThEnd=    0.
 Prism:   IPart=     0 DynPar=F LinDyn=F Incr=         512.
 PRISM was handed  1323661359 working-precision words and166595 shell-pairs
 IPart=  0 NShTot=      166595 NBatch=         382 AvBLen=       436.1
 PrsmSu-ThDecC:  IPartSL=    0    0 NPrtUSL=    1    1 IThBeg=    0 IThEnd=    0 CPU=   -1 GPU=   -1 NThAct=    1.
 PrSmSu:  NxtVal=            513.
 Electronic moments (au):
       -716.00000000          9.62758512         -1.99357909         -8.79312041
     -47754.05765613     -27230.04984185     -13822.91933059         48.33629893
        -63.85853808        -26.85592655     -66727.49829979     -41051.25737850
     -28577.71111418      15060.84923170      56591.59516262      41287.99235734
     -12675.90764809        994.66737485      19887.27304089      -3322.64787905
   -6431373.18040943   -2146249.63957094    -745588.74895235     354710.70534427
     329421.05636995    -114237.78183698      86013.35651212    -113183.99884812
     -59775.22698637   -1397420.19100790    -736034.38619633    -471867.85064448
     -89385.23738097      23857.05394956    -134608.40003272
 Electronic spatial extent (au):  <R**2>=          88807.0268
 DipInt: DoE/N= F T RetVal/Mat= T F Init=T NMatP=  1 IDeriv=0 Min/MaxMlt=  0  4
 Nuclear    moments (au):
        716.00000000          0.00000000          0.00000000          0.00000000
      47263.10996614      26837.63200060      13471.89715204          0.00000000
          0.00000000          0.00000000      67730.04964981      41175.33372388
      28187.96559058     -13634.58244537     -56755.64915252     -42151.01328905
      13042.87416413       -871.49634652     -20699.69878588       2794.02024987
    6238067.86951072    2050777.85547148     702800.40278889    -354743.01354618
    -336676.02448828     122777.79638072     -90818.54213034     112002.99113632
      59403.06662958    1356895.79132340     704268.17853715     451342.13742721
      87972.88985822     -30261.84347104     136303.03716790
 Total      moments (au):
         -0.00000000          9.62758512         -1.99357909         -8.79312041
       -490.94768999       -392.41784125       -351.02217855         48.33629893
        -63.85853808        -26.85592655       1002.55135002        124.07634538
       -389.74552359       1426.26678632       -164.05398990       -863.02093171
        366.96651604        123.17102833       -812.42574499       -528.62762918
    -193305.31089871     -95471.78409945     -42788.34616346        -32.30820191
      -7254.96811833       8540.01454374      -4805.18561822      -1181.00771180
       -372.16035679     -40524.39968450     -31766.20765918     -20525.71321727
      -1412.34752275      -6404.78952148       1694.63713518
 Traceless Quadrup. (au):
        -79.48512006         19.04472868         60.44039138         48.33629893
        -63.85853808        -26.85592655
 Charge=             -0.0000 electrons
 Dipole moment (field-independent basis, Debye):
    X=             24.4709    Y=             -5.0672    Z=            -22.3499  Tot=             33.5264
 Quadrupole moment (field-independent basis, Debye-Ang):
   XX=           -660.3415   YY=           -527.8154   ZZ=           -472.1369
   XY=             65.0140   XZ=            -85.8919   YZ=            -36.1221
 Traceless Quadrupole moment (field-independent basis, Debye-Ang):
   XX=           -106.9102   YY=             25.6158   ZZ=             81.2944
   XY=             65.0140   XZ=            -85.8919   YZ=            -36.1221
 Octapole moment (field-independent basis, Debye-Ang**2):
  XXX=            713.5774  YYY=             88.3128  ZZZ=           -277.4058  XYY=           1015.1617
  XXY=           -116.7673  XXZ=           -614.2651  XZZ=            261.1926  YZZ=             87.6684
  YYZ=           -578.2533  XYZ=           -376.2568
 Hexadecapole moment (field-independent basis, Debye-Ang**3):
 XXXX=         -72808.0494 YYYY=         -35959.2519 ZZZZ=         -16116.1429 XXXY=            -12.1688
 XXXZ=          -2732.5689 YYYX=           3216.5790 YYYZ=          -1809.8633 ZZZX=           -444.8241
 ZZZY=           -140.1734 XXYY=         -15263.4321 XXZZ=         -11964.6770 YYZZ=          -7730.9678
 XXYZ=           -531.9578 YYXZ=          -2412.3509 ZZXY=            638.2816
 N-N= 2.206627330307D+04 E-N=-5.661081071783D+04  KE= 5.290555498790D+03
 Leave Link  601 at Sun Sep 15 01:04:02 2019, MaxMem=  1342177280 cpu:              44.1 elap:               1.1
 FitSet:  NAtFit=   176 NAtPot=   176 NAtFrz=     0 MDM=   180 TotChg=   0.00000
 Merz-Kollman atomic radii used.
 Read replacement radii for each type of atom:
 Rad(20) =   1.700000000000D+00
 Atom Element Radius
    1     6    1.50
    2     6    1.50
    3     8    1.40
    4     1    1.20
    5     1    1.20
    6     1    1.20
    7     7    1.50
    8     6    1.50
    9     6    1.50
   10     8    1.40
   11     6    1.50
   12     6    1.50
   13     8    1.40
   14     8    1.40
   15     1    1.20
   16     1    1.20
   17     1    1.20
   18     1    1.20
   19     7    1.50
   20     6    1.50
   21     6    1.50
   22     8    1.40
   23     6    1.50
   24     6    1.50
   25     6    1.50
   26     6    1.50
   27     7    1.50
   28     1    1.20
   29     1    1.20
   30     1    1.20
   31     1    1.20
   32     1    1.20
   33     1    1.20
   34     1    1.20
   35     1    1.20
   36     1    1.20
   37     1    1.20
   38     1    1.20
   39     1    1.20
   40     1    1.20
   41     7    1.50
   42     6    1.50
   43     6    1.50
   44     8    1.40
   45     6    1.50
   46     6    1.50
   47     8    1.40
   48     8    1.40
   49     1    1.20
   50     1    1.20
   51     1    1.20
   52     1    1.20
   53     7    1.50
   54     6    1.50
   55     6    1.50
   56     8    1.40
   57     1    1.20
   58     1    1.20
   59     1    1.20
   60     7    1.50
   61     6    1.50
   62     6    1.50
   63     8    1.40
   64     6    1.50
   65     6    1.50
   66     7    1.50
   67     8    1.40
   68     1    1.20
   69     1    1.20
   70     1    1.20
   71     1    1.20
   72     1    1.20
   73     1    1.20
   74     7    1.50
   75     6    1.50
   76     6    1.50
   77     8    1.40
   78     1    1.20
   79     1    1.20
   80     1    1.20
   81     7    1.50
   82     6    1.50
   83     6    1.50
   84     8    1.40
   85     6    1.50
   86     6    1.50
   87     6    1.50
   88     6    1.50
   89     6    1.50
   90     6    1.50
   91     6    1.50
   92     8    1.40
   93     1    1.20
   94     1    1.20
   95     1    1.20
   96     1    1.20
   97     1    1.20
   98     1    1.20
   99     1    1.20
  100     1    1.20
  101     1    1.20
  102     7    1.50
  103     6    1.50
  104     6    1.50
  105     8    1.40
  106     6    1.50
  107     6    1.50
  108     6    1.50
  109     6    1.50
  110     1    1.20
  111     1    1.20
  112     1    1.20
  113     1    1.20
  114     1    1.20
  115     1    1.20
  116     1    1.20
  117     1    1.20
  118     1    1.20
  119     1    1.20
  120     1    1.20
  121     7    1.50
  122     6    1.50
  123     6    1.50
  124     8    1.40
  125     6    1.50
  126     8    1.40
  127     1    1.20
  128     1    1.20
  129     1    1.20
  130     1    1.20
  131     1    1.20
  132     7    1.50
  133     6    1.50
  134     6    1.50
  135     8    1.40
  136     6    1.50
  137     1    1.20
  138     1    1.20
  139     1    1.20
  140     1    1.20
  141     1    1.20
  142     7    1.50
  143     6    1.50
  144     6    1.50
  145     8    1.40
  146     6    1.50
  147     1    1.20
  148     1    1.20
  149     1    1.20
  150     1    1.20
  151     1    1.20
  152     7    1.50
  153     6    1.50
  154     6    1.50
  155     8    1.40
  156     6    1.50
  157     6    1.50
  158     6    1.50
  159     8    1.40
  160     8    1.40
  161     1    1.20
  162     1    1.20
  163     1    1.20
  164     1    1.20
  165     1    1.20
  166     1    1.20
  167     7    1.50
  168     6    1.50
  169     1    1.20
  170     1    1.20
  171     1    1.20
  172     1    1.20
  173    20    1.70
  174     8    1.40
[...]
 **** Fit      -0.044803
 **** Fit      -0.046789
 **** Fit      -0.048960
 **** Fit      -0.051227
 **** Fit      -0.052722
 **** Fit      -0.036978
 **** Fit      -0.039229
 **** Fit      -0.041708
 **** Fit      -0.043583
 **** Fit      -0.045218
 **** Fit      -0.046931
 **** Fit      -0.049015
 **** Fit      -0.051727
 **** Fit      -0.055178
 **** Fit      -0.039038
 **** Fit      -0.038610
 **** Fit      -0.041027
 **** Fit      -0.042756
 **** Fit      -0.044135
 **** Fit      -0.045438
 **** Fit      -0.046923
 **** Fit      -0.048864
 **** Fit      -0.051583
 **** Fit      -0.055469
 **** Fit      -0.038305
 **** Fit      -0.038394
 **** Fit      -0.040654
 **** Fit      -0.042205
 **** Fit      -0.043354
 **** Fit      -0.044338
 **** Fit      -0.045371
 **** Fit      -0.046678
 **** Fit      -0.048522
 **** Fit      -0.051255
 **** Fit      -0.055376
 **** Fit      -0.038501
 **** Fit      -0.040470
 **** Fit      -0.041788
 **** Fit      -0.042696
 **** Fit      -0.043382
 **** Fit      -0.044011
 **** Fit      -0.044754
 **** Fit      -0.045803
 **** Fit      -0.047398
 **** Fit      -0.049870
 **** Fit      -0.053706
 **** Fit      -0.038962
 **** Fit      -0.040574
 **** Fit      -0.041616
 **** Fit      -0.042264
 **** Fit      -0.042661
 **** Fit      -0.042938
 **** Fit      -0.043229
 **** Fit      -0.043685
 **** Fit      -0.044489
 **** Fit      -0.045878
 **** Fit      -0.048179
 **** Fit      -0.051872
 **** Fit      -0.039744
 **** Fit      -0.040985
 **** Fit      -0.041714
 **** Fit      -0.042054
 **** Fit      -0.042117
 **** Fit      -0.042014
 **** Fit      -0.041867
 **** Fit      -0.041814
 **** Fit      -0.042025
 **** Fit      -0.042718
 **** Fit      -0.044180
 **** Fit      -0.046806
 **** Fit      -0.051174
 **** Fit      -0.039360
 **** Fit      -0.040754
 **** Fit      -0.041617
 **** Fit      -0.042015
 **** Fit      -0.042019
 **** Fit      -0.041706
 **** Fit      -0.041166
 **** Fit      -0.040504
 **** Fit      -0.039847
 **** Fit      -0.039348
 **** Fit      -0.039202
 **** Fit      -0.039650
 **** Fit      -0.041006
 **** Fit      -0.043672
 **** Fit      -0.048175
 **** Fit      -0.041161
 **** Fit      -0.042134
 **** Fit      -0.042641
 **** Fit      -0.042682
 **** Fit      -0.042284
 **** Fit      -0.041500
 **** Fit      -0.040405
 **** Fit      -0.039100
 **** Fit      -0.037712
 **** Fit      -0.036397
 **** Fit      -0.035348
 **** Fit      -0.034801
 **** Fit      -0.035032
 **** Fit      -0.036359
 **** Fit      -0.039114
 **** Fit      -0.039756
 **** Fit      -0.043454
 **** Fit      -0.044103
 **** Fit      -0.044280
 **** Fit      -0.043916
 **** Fit      -0.043001
 **** Fit      -0.041573
 **** Fit      -0.039711
 **** Fit      -0.037524
 **** Fit      -0.035159
 **** Fit      -0.032797
 **** Fit      -0.030659
 **** Fit      -0.028998
 **** Fit      -0.028094
 **** Fit      -0.028211
 **** Fit      -0.042468
 **** Fit      -0.046601
 **** Fit      -0.047073
 **** Fit      -0.046974
 **** Fit      -0.046168
 **** Fit      -0.044617
 **** Fit      -0.042363
 **** Fit      -0.039499
 **** Fit      -0.036161
 **** Fit      -0.032526
 **** Fit      -0.028809
 **** Fit      -0.025263
 **** Fit      -0.045820
 **** Fit      -0.038862
 **** Fit      -0.033581
 **** Fit      -0.027921
 **** Fit       0.019965
 **** Fit       0.009509
 **** Fit       0.009266
 **** Fit       0.001094
 **** Fit      -0.000077
 **** Fit      -0.007433
 **** Fit      -0.027567
 **** Fit      -0.028641
 **** Fit      -0.018594
 **** Fit      -0.013941
 **** Fit      -0.011718
 **** Fit      -0.011841
 **** Fit      -0.015333
 **** Fit      -0.007197
 **** Fit      -0.001098
 **** Fit       0.002766
 **** Fit       0.004306
 **** Fit      -0.018097
 **** Fit      -0.006808
 **** Fit       0.002868
 **** Fit       0.010662
 **** Fit       0.016322
 **** Fit       0.002160
 **** Fit       0.013875
 **** Fit       0.023553
 **** Fit       0.015412
 **** Fit       0.029746
 **** Fit       0.059975
 **** Fit       0.065579
 **** Fit       0.041367
 **** Fit       0.027087
 **** Fit       0.015205
 **** Fit       0.047717
 **** Fit       0.052475
 **** Fit       0.048851
 **** Fit       0.037878
 **** Fit       0.025050
 **** Fit       0.015033
 **** Fit       0.034213
 **** Fit       0.040213
 **** Fit       0.033627
 **** Fit       0.022133
 **** Fit       0.028567
 **** Fit      -0.044261
 **** Fit      -0.010488
 **** Fit      -0.010446
 **** Fit      -0.012374
 **** Fit      -0.012601
 **** Fit      -0.008813
 **** Fit      -0.010342
 **** Fit      -0.012278
 **** Fit      -0.014279
 **** Fit      -0.015616
 **** Fit      -0.015282
 **** Fit      -0.007487
 **** Fit      -0.008717
 **** Fit      -0.010244
 **** Fit      -0.011987
 **** Fit      -0.019369
 **** Fit      -0.018744
 **** Fit      -0.016465
 **** Fit      -0.006443
 **** Fit      -0.007485
 **** Fit      -0.008748
 **** Fit      -0.010223
 **** Fit      -0.011862
 **** Fit      -0.022579
 **** Fit      -0.019406
 **** Fit      -0.005475
 **** Fit      -0.006417
 **** Fit      -0.007511
 **** Fit      -0.008779
 **** Fit      -0.010334
 **** Fit      -0.011818
 **** Fit      -0.028601
 **** Fit      -0.024920
 **** Fit      -0.004831
 **** Fit      -0.005681
 **** Fit      -0.006646
 **** Fit      -0.007747
 **** Fit      -0.008980
 **** Fit      -0.010617
 **** Fit      -0.012092
 **** Fit      -0.033713
 **** Fit      -0.028201
 **** Fit      -0.003287
 **** Fit      -0.004027
 **** Fit      -0.004827
 **** Fit      -0.005735
 **** Fit      -0.006775
 **** Fit      -0.007950
 **** Fit      -0.009238
 **** Fit      -0.011094
 **** Fit      -0.012582
 **** Fit      -0.031732
 **** Fit      -0.024525
 **** Fit      -0.002599
 **** Fit      -0.003296
 **** Fit      -0.004054
 **** Fit      -0.004915
 **** Fit      -0.005910
 **** Fit      -0.007050
 **** Fit      -0.008315
 **** Fit      -0.009673
 **** Fit      -0.011783
 **** Fit      -0.013347
 **** Fit      -0.031264
 **** Fit      -0.001784
 **** Fit      -0.002450
 **** Fit      -0.003184
 **** Fit      -0.008789
 **** Fit      -0.010266
 **** Fit      -0.012708
 **** Fit      -0.014354
 **** Fit      -0.000373
 **** Fit      -0.000927
 **** Fit      -0.001582
 **** Fit      -0.013925
 **** Fit      -0.015677
 **** Fit      -0.017536
 **** Fit       0.000654
 **** Fit       0.000183
 **** Fit      -0.000483
 **** Fit      -0.017430
 **** Fit      -0.019448
 **** Fit       0.001854
 **** Fit       0.001716
 **** Fit       0.001165
 **** Fit      -0.019661
 **** Fit      -0.021748
 **** Fit      -0.024237
 **** Fit       0.002575
 **** Fit       0.003164
 **** Fit       0.003064
 **** Fit       0.002304
 **** Fit      -0.024573
 **** Fit      -0.027043
 **** Fit      -0.030332
 **** Fit       0.003761
 **** Fit       0.004758
 **** Fit       0.004689
 **** Fit      -0.028322
 **** Fit      -0.030750
 **** Fit      -0.034179
 **** Fit      -0.039103
 **** Fit      -0.033122
 **** Fit      -0.035337
 **** Fit      -0.038831
 **** Fit      -0.040664
 **** Fit      -0.005180
 **** Fit      -0.006291
 **** Fit      -0.003396
 **** Fit      -0.004253
 **** Fit      -0.005324
 **** Fit      -0.006584
 **** Fit      -0.008009
 **** Fit      -0.010248
 **** Fit      -0.001887
 **** Fit      -0.002559
 **** Fit      -0.003449
 **** Fit      -0.004525
 **** Fit      -0.005758
 **** Fit      -0.007129
 **** Fit      -0.008627
 **** Fit      -0.011195
 **** Fit      -0.013057
 **** Fit      -0.000732
 **** Fit      -0.001459
 **** Fit      -0.002432
 **** Fit      -0.003595
 **** Fit      -0.004901
 **** Fit      -0.006320
 **** Fit      -0.007840
 **** Fit      -0.009461
 **** Fit      -0.012556
 **** Fit      -0.014481
 **** Fit      -0.016571
 **** Fit       0.000521
 **** Fit      -0.000331
 **** Fit      -0.001472
 **** Fit      -0.002813
 **** Fit      -0.004279
 **** Fit      -0.005820
 **** Fit      -0.007412
 **** Fit      -0.009052
 **** Fit      -0.010758
 **** Fit      -0.014530
 **** Fit      -0.016503
 **** Fit      -0.018657
 **** Fit       0.002141
 **** Fit       0.001168
 **** Fit      -0.000230
 **** Fit      -0.001892
 **** Fit      -0.003683
 **** Fit      -0.005511
 **** Fit      -0.007327
 **** Fit      -0.009115
 **** Fit      -0.010887
 **** Fit      -0.012677
 **** Fit      -0.017419
 **** Fit      -0.019465
 **** Fit      -0.021714
 **** Fit       0.003658
 **** Fit       0.002156
 **** Fit       0.000022
 **** Fit      -0.002403
 **** Fit      -0.004879
 **** Fit      -0.007268
 **** Fit      -0.009510
 **** Fit      -0.011598
 **** Fit      -0.013568
 **** Fit      -0.015482
 **** Fit      -0.021693
 **** Fit      -0.023744
 **** Fit      -0.026021
 **** Fit      -0.003282
 **** Fit      -0.006897
 **** Fit      -0.010182
 **** Fit      -0.013058
 **** Fit      -0.015546
 **** Fit      -0.017730
 **** Fit      -0.019734
 **** Fit      -0.015503
 **** Fit      -0.014701
 **** Fit      -0.017323
 **** Fit      -0.018530
 **** Fit      -0.014124
 **** Fit      -0.016546
 **** Fit      -0.019368
 **** Fit      -0.021778
 **** Fit      -0.022523
 **** Fit      -0.020913
 **** Fit      -0.013796
 **** Fit      -0.015947
 **** Fit      -0.018621
 **** Fit      -0.021711
 **** Fit      -0.024811
 **** Fit      -0.027165
 **** Fit      -0.027869
 **** Fit      -0.026413
 **** Fit      -0.012118
 **** Fit      -0.013740
 **** Fit      -0.015764
 **** Fit      -0.018300
 **** Fit      -0.021416
 **** Fit      -0.025050
 **** Fit      -0.028919
 **** Fit      -0.032429
 **** Fit      -0.034711
 **** Fit      -0.034903
 **** Fit      -0.032653
 **** Fit      -0.012107
 **** Fit      -0.013982
 **** Fit      -0.015950
 **** Fit      -0.018421
 **** Fit      -0.021533
 **** Fit      -0.025366
 **** Fit      -0.029890
 **** Fit      -0.034856
 **** Fit      -0.012367
 **** Fit      -0.014551
 **** Fit      -0.016442
 **** Fit      -0.018808
 **** Fit      -0.021810
 **** Fit      -0.025600
 **** Fit      -0.030295
 **** Fit      -0.035915
 **** Fit      -0.012975
 **** Fit      -0.015485
 **** Fit      -0.017414
 **** Fit      -0.019847
 **** Fit      -0.022983
 **** Fit      -0.027035
 **** Fit      -0.032224
 **** Fit      -0.016834
 **** Fit      -0.018772
 **** Fit      -0.021230
 **** Fit      -0.024432
 **** Fit      -0.028633
 **** Fit      -0.034134
 **** Fit      -0.020644
 **** Fit      -0.023182
 **** Fit      -0.026541
 **** Fit      -0.031024
 **** Fit      -0.037018
 **** Fit      -0.023174
 **** Fit      -0.025951
 **** Fit      -0.029750
 **** Fit      -0.034973
 **** Fit      -0.029503
 **** Fit      -0.033937
 **** Fit      -0.038708
 **** Fit      -0.007341
 **** Fit      -0.007796
 **** Fit      -0.009420
 **** Fit      -0.008999
 **** Fit      -0.006792
 **** Fit      -0.005473
 **** Fit      -0.006038
 **** Fit      -0.008146
 **** Fit      -0.012287
 **** Fit      -0.011121
 **** Fit      -0.008705
 **** Fit      -0.006173
 **** Fit      -0.004431
 **** Fit      -0.003800
 **** Fit      -0.004086
 **** Fit      -0.005015
 **** Fit      -0.006410
 **** Fit      -0.015528
 **** Fit      -0.013883
 **** Fit      -0.011177
 **** Fit      -0.008197
 **** Fit      -0.005525
 **** Fit      -0.003567
 **** Fit      -0.002539
 **** Fit      -0.002316
 **** Fit      -0.002619
 **** Fit      -0.003276
 **** Fit      -0.004215
 **** Fit      -0.005392
 **** Fit      -0.016550
 **** Fit      -0.013100
 **** Fit      -0.009569
 **** Fit      -0.006342
 **** Fit      -0.003669
 **** Fit      -0.001847
 **** Fit      -0.001030
 **** Fit      -0.000965
 **** Fit      -0.001284
 **** Fit      -0.001815
 **** Fit      -0.002531
 **** Fit      -0.003426
 **** Fit      -0.004482
 **** Fit      -0.018428
 **** Fit      -0.014010
 **** Fit      -0.009848
 **** Fit      -0.006137
 **** Fit      -0.000039
 **** Fit      -0.000528
 **** Fit      -0.001091
 **** Fit      -0.001783
 **** Fit      -0.002628
 **** Fit      -0.003610
 **** Fit      -0.020416
 **** Fit      -0.015128
 **** Fit      -0.010381
 **** Fit       0.000413
 **** Fit      -0.000041
 **** Fit      -0.000535
 **** Fit      -0.001164
 **** Fit      -0.001952
 **** Fit      -0.002876
 **** Fit      -0.023558
 **** Fit      -0.017064
 **** Fit       0.000434
 **** Fit       0.000137
 **** Fit      -0.000334
 **** Fit      -0.001021
 **** Fit      -0.018383
 **** Fit       0.000584
 **** Fit       0.000372
 **** Fit      -0.000146
 **** Fit       0.000709
 **** Fit       0.000969
 **** Fit       0.000795
 **** Fit       0.001420
 **** Fit       0.005419
 **** Fit       0.015382
 **** Fit       0.011438
 **** Fit       0.060608
 **** Fit       0.059237
 **** Fit       0.029085
 **** Fit       0.025486
 **** Fit       0.022077
 **** Fit       0.017946
 **** Fit       0.013157
 **** Fit       0.060612
 **** Fit       0.059111
 **** Fit       0.057678
 **** Fit       0.055986
 **** Fit       0.043137
 **** Fit       0.038435
 **** Fit       0.034265
 **** Fit       0.030611
 **** Fit       0.027015
 **** Fit       0.023436
 **** Fit       0.020785
 **** Fit       0.020680
 **** Fit       0.024316
 **** Fit       0.031497
 **** Fit       0.061661
 **** Fit       0.059749
 **** Fit       0.058117
 **** Fit       0.056437
 **** Fit       0.054347
 **** Fit       0.051505
 **** Fit       0.047713
 **** Fit       0.045555
 **** Fit       0.041641
 **** Fit       0.037978
 **** Fit       0.034659
 **** Fit       0.031778
 **** Fit       0.029959
 **** Fit       0.030300
 **** Fit       0.033564
 **** Fit       0.039414
 **** Fit       0.046461
 **** Fit       0.061387
 **** Fit       0.064432
 **** Fit       0.065683
 **** Fit       0.064710
 **** Fit       0.062651
 **** Fit       0.060534
 **** Fit       0.058663
 **** Fit       0.056902
 **** Fit       0.054948
 **** Fit       0.052480
 **** Fit       0.049311
 **** Fit       0.047320
 **** Fit       0.043843
 **** Fit       0.040651
 **** Fit       0.038153
 **** Fit       0.037031
 **** Fit       0.038170
 **** Fit       0.041833
 **** Fit       0.047090
 **** Fit       0.052378
 **** Fit       0.056729
 **** Fit       0.059900
 **** Fit       0.061349
 **** Fit       0.060900
 **** Fit       0.059402
 **** Fit       0.057623
 **** Fit       0.055711
 **** Fit       0.053459
 **** Fit       0.050647
 **** Fit       0.048679
 **** Fit       0.045441
 **** Fit       0.043143
 **** Fit       0.042947
 **** Fit       0.045560
 **** Fit       0.050024
 **** Fit       0.054358
 **** Fit       0.057125
 **** Fit       0.057671
 **** Fit       0.056537
 **** Fit       0.054551
 **** Fit       0.051903
 **** Fit       0.049860
 **** Fit       0.047378
 **** Fit       0.048605
 **** Fit       0.052512
 **** Fit       0.054438
 **** Fit       0.053030
 **** Fit       0.051072
 **** Fit       0.044186
 **** Fit       0.048500
 **** Fit       0.053970
 **** Fit       0.058922
 -----------------------------------------------------------------
 Leave Link  602 at Sun Sep 15 01:04:05 2019, MaxMem=  1342177280 cpu:             110.6 elap:               2.3

 Test job not archived.
 1\1\GINC-C506-114\SP\RB3LYP\SVP\C54H83Ca1N15O23\PENGZHI\15-Sep-2019\0\
 \#b3lyp/svp scf=(tight,noincore) Test #IOP(5/87=12) Density=Current Po
 p=(MK,readradii) iop(6/33=2) iop(6/42=6)\\CaMKII_loop3_86.0\\0,1\C,0,8
 1.419,65.05,33.6\C,0,80.869,64.65,34.97\O,0,81.159,63.57,35.48\H,0,82.
 441,64.684,33.498\H,0,80.798,64.615,32.817\H,0,81.412,66.136,33.508\N,
 0,80.039,65.53,35.54\C,0,79.559,65.51,36.9\C,0,78.249,64.73,36.84\O,0,
 77.409,64.77,35.94\C,0,79.439,66.91,37.48\C,0,79.449,66.91,39.\O,0,78.
 419,66.8,39.7\O,0,80.559,66.95,39.58\H,0,79.899,66.41,35.06\H,0,80.279
 ,64.87,37.41\H,0,78.569,67.47,37.13\H,0,80.339,67.39,37.08\N,0,78.029,
 63.99,37.93\C,0,77.049,62.96,38.19\C,0,76.009,63.39,39.22\O,0,74.839,6
 3.11,38.97\C,0,77.819,61.71,38.6\C,0,76.849,60.53,38.65\C,0,77.619,59.
 22,38.8\C,0,78.289,59.12,40.16\N,0,78.989,57.83,40.23\H,0,78.699,64.05
 ,38.68\H,0,76.629,62.74,37.21\H,0,78.359,61.97,39.52\H,0,78.519,61.57,
 37.78\H,0,76.349,60.48,37.68\H,0,76.119,60.64,39.44\H,0,78.439,59.22,3
 8.08\H,0,76.949,58.37,38.66\H,0,77.529,59.38,40.9\H,0,78.999,59.95,40.
 21\H,0,79.389,57.6,41.14\H,0,78.329,57.1,40.\H,0,79.759,57.92,39.58\N,
 0,76.449,64.01,40.31\C,0,75.519,64.35,41.37\C,0,75.039,65.79,41.32\O,0
 ,73.979,66.09,41.88\C,0,76.199,64.15,42.72\C,0,77.559,64.84,42.8\O,0,7
 7.699,66.06,42.56\O,0,78.599,64.18,43.01\H,0,77.449,64.17,40.4\H,0,74.
 609,63.75,41.34\H,0,76.329,63.12,43.04\H,0,75.549,64.65,43.44\N,0,75.7
 19,66.75,40.68\C,0,75.149,68.06,40.45\C,0,75.459,69.12,41.5\O,0,74.759
 ,70.12,41.63\H,0,76.639,66.43,40.43\H,0,74.089,67.95,40.23\H,0,75.529,
 68.37,39.47\N,0,76.599,68.95,42.17\C,0,77.169,69.94,43.07\C,0,78.099,7
 0.99,42.47\O,0,78.439,71.93,43.19\C,0,77.849,69.24,44.24\C,0,79.089,68
 .42,43.88\N,0,79.499,67.47,44.72\O,0,79.749,68.56,42.85\H,0,76.929,68.
 ,42.16\H,0,76.339,70.49,43.51\H,0,77.189,68.7,44.92\H,0,78.299,69.98,4
 4.89\H,0,78.989,67.17,45.54\H,0,80.429,67.09,44.65\N,0,78.489,70.87,41
 .2\C,0,79.309,71.77,40.41\C,0,80.799,71.57,40.59\O,0,81.549,72.44,40.1
 4\H,0,78.149,70.03,40.77\H,0,79.059,72.79,40.7\H,0,79.029,71.66,39.36\
 N,0,81.219,70.54,41.33\C,0,82.639,70.24,41.26\C,0,82.879,68.74,41.16\O
 ,0,82.179,67.95,41.79\C,0,83.349,70.87,42.45\C,0,82.779,70.43,43.77\C,
 0,81.819,71.22,44.41\C,0,83.269,69.29,44.42\C,0,81.309,70.84,45.66\C,0
 ,82.779,68.9,45.67\C,0,81.729,69.63,46.26\O,0,81.159,69.13,47.39\H,0,8
 0.619,69.94,41.87\H,0,83.009,70.72,40.35\H,0,83.439,71.96,42.35\H,0,84
 .379,70.51,42.37\H,0,81.389,72.05,43.87\H,0,84.069,68.74,43.93\H,0,80.
 479,71.32,46.16\H,0,83.209,68.08,46.22\H,0,81.559,68.31,47.69\N,0,83.9
 19,68.31,40.45\C,0,84.209,67.02,39.87\C,0,85.099,66.18,40.78\O,0,86.11
 9,66.73,41.18\C,0,84.849,67.17,38.49\C,0,83.809,67.56,37.44\C,0,85.569
 ,65.92,38.\C,0,84.469,68.21,36.22\H,0,84.429,69.06,40.01\H,0,83.239,66
 .53,39.75\H,0,85.599,67.95,38.59\H,0,83.089,68.23,37.9\H,0,83.329,66.6
 3,37.13\H,0,85.949,66.1,37.\H,0,86.379,65.6,38.65\H,0,84.899,65.06,37.
 92\H,0,85.239,67.59,35.76\H,0,83.759,68.42,35.43\H,0,84.889,69.18,36.5
 \N,0,84.769,64.9,40.99\C,0,85.549,63.99,41.8\C,0,86.299,62.97,40.96\O,
 0,85.799,62.68,39.87\C,0,84.699,63.51,42.98\O,0,83.639,62.77,42.42\H,0
 ,83.879,64.61,40.62\H,0,86.339,64.56,42.29\H,0,84.249,64.37,43.48\H,0,
 85.369,62.92,43.6\H,0,83.149,63.37,41.86\N,0,87.269,62.26,41.54\C,0,88
 .019,61.25,40.82\C,0,87.159,60.13,40.25\O,0,87.309,59.81,39.07\C,0,89.
 159,60.81,41.73\H,0,87.599,62.55,42.45\H,0,88.389,61.8,39.95\H,0,90.05
 9,60.63,41.14\H,0,89.489,61.61,42.4\H,0,88.839,59.99,42.37\N,0,86.189,
 59.63,41.02\C,0,85.179,58.67,40.63\C,0,84.219,59.14,39.55\O,0,83.789,5
 8.33,38.73\C,0,84.339,58.32,41.85\H,0,86.159,59.94,41.98\H,0,85.709,57
 .77,40.31\H,0,83.949,59.25,42.27\H,0,83.509,57.71,41.49\H,0,84.979,57.
 84,42.59\N,0,83.969,60.44,39.36\C,0,83.249,60.98,38.23\C,0,84.199,61.0
 8,37.04\O,0,83.809,60.7,35.94\C,0,82.629,62.34,38.56\C,0,81.479,62.24,
 39.56\C,0,81.019,63.49,40.29\O,0,81.819,64.19,40.96\O,0,79.839,63.88,4
 0.16\H,0,84.549,61.06,39.9\H,0,82.469,60.26,37.97\H,0,82.299,62.77,37.
 61\H,0,83.389,62.98,39.02\H,0,81.779,61.64,40.42\H,0,80.629,61.74,39.0
 9\N,0,85.439,61.53,37.24\C,0,86.329,61.62,36.09\H,0,87.294,61.18,36.34
 3\H,0,85.893,61.08,35.249\H,0,86.467,62.666,35.818\H,0,85.669,61.95,38
 .13\Ca,0,80.24,66.13,41.89\O,0,81.91,66.02,43.97\H,0,82.,65.42,44.71\H
 ,0,82.69,66.58,44.02\\Version=ES64L-G16RevA.03\State=1-A\HF=-5333.6436
 476\RMSD=4.329e-09\Dipole=5.920983,-10.3795547,5.5848477\Quadrupole=-5
 9.444369,57.4956568,1.9487122,64.5112941,30.6518347,-61.4779015\PG=C01
  [X(C54H83Ca1N15O23)]\\@


     "IF I COULD JUST GET IT ON PAPER"
 LIFE AND INK, THEY RUN OUT AT THE SAME TIME,
 OR SO SAID MY OLD FRIEND THE SQUID.
     -- JIMMY BUFFETT, 1981
 Job cpu time:       0 days  7 hours 43 minutes 25.2 seconds.
 Elapsed time:       0 days  0 hours  9 minutes 45.8 seconds.
 File lengths (MBytes):  RWF=   1517 Int=      0 D2E=      0 Chk=    171 Scr=      1
 Normal termination of Gaussian 16 at Sun Sep 15 01:04:06 2019.
