 Entering Gaussian System, Link 0=g16
 Initial command:
 /home1/apps/gaussian/16rA.03/g16/l1.exe "/scratch/04905/jaebeomh/4356883/Gau-94275.inp" -scrdir="/scratch/04905/jaebeomh/4356883/"
 Entering Link 1 = /home1/apps/gaussian/16rA.03/g16/l1.exe PID=     94276.
  
 Copyright (c) 1988,1990,1992,1993,1995,1998,2003,2009,2016,
            Gaussian, Inc.  All Rights Reserved.
  
 This is part of the Gaussian(R) 16 program.  It is based on
 the Gaussian(R) 09 system (copyright 2009, Gaussian, Inc.),
 the Gaussian(R) 03 system (copyright 2003, Gaussian, Inc.),
 the Gaussian(R) 98 system (copyright 1998, Gaussian, Inc.),
 the Gaussian(R) 94 system (copyright 1995, Gaussian, Inc.),
 the Gaussian 92(TM) system (copyright 1992, Gaussian, Inc.),
 the Gaussian 90(TM) system (copyright 1990, Gaussian, Inc.),
 the Gaussian 88(TM) system (copyright 1988, Gaussian, Inc.),
 the Gaussian 86(TM) system (copyright 1986, Carnegie Mellon
 University), and the Gaussian 82(TM) system (copyright 1983,
 Carnegie Mellon University). Gaussian is a federally registered
 trademark of Gaussian, Inc.
  
 This software contains proprietary and confidential information,
 including trade secrets, belonging to Gaussian, Inc.
  
 This software is provided under written license and may be
 used, copied, transmitted, or stored only in accord with that
 written license.
  
 The following legend is applicable only to US Government
 contracts under FAR:
  
                    RESTRICTED RIGHTS LEGEND
  
 Use, reproduction and disclosure by the US Government is
 subject to restrictions as set forth in subparagraphs (a)
 and (c) of the Commercial Computer Software - Restricted
 Rights clause in FAR 52.227-19.
  
 Gaussian, Inc.
 340 Quinnipiac St., Bldg. 40, Wallingford CT 06492
  
  
 ---------------------------------------------------------------
 Warning -- This program may not be used in any manner that
 competes with the business of Gaussian, Inc. or will provide
 assistance to any competitor of Gaussian, Inc.  The licensee
 of this program is prohibited from giving any competitor of
 Gaussian, Inc. access to this program.  By using this program,
 the user acknowledges that Gaussian, Inc. is engaged in the
 business of creating and licensing software in the field of
 computational chemistry and represents and warrants to the
 licensee that it is not a competitor of Gaussian, Inc. and that
 it will not use this program in any manner prohibited above.
 ---------------------------------------------------------------
  

 Cite this work as:
 Gaussian 16, Revision A.03,
 M. J. Frisch, G. W. Trucks, H. B. Schlegel, G. E. Scuseria, 
 M. A. Robb, J. R. Cheeseman, G. Scalmani, V. Barone, 
 G. A. Petersson, H. Nakatsuji, X. Li, M. Caricato, A. V. Marenich, 
 J. Bloino, B. G. Janesko, R. Gomperts, B. Mennucci, H. P. Hratchian, 
 J. V. Ortiz, A. F. Izmaylov, J. L. Sonnenberg, D. Williams-Young, 
 F. Ding, F. Lipparini, F. Egidi, J. Goings, B. Peng, A. Petrone, 
 T. Henderson, D. Ranasinghe, V. G. Zakrzewski, J. Gao, N. Rega, 
 G. Zheng, W. Liang, M. Hada, M. Ehara, K. Toyota, R. Fukuda, 
 J. Hasegawa, M. Ishida, T. Nakajima, Y. Honda, O. Kitao, H. Nakai, 
 T. Vreven, K. Throssell, J. A. Montgomery, Jr., J. E. Peralta, 
 F. Ogliaro, M. J. Bearpark, J. J. Heyd, E. N. Brothers, K. N. Kudin, 
 V. N. Staroverov, T. A. Keith, R. Kobayashi, J. Normand, 
 K. Raghavachari, A. P. Rendell, J. C. Burant, S. S. Iyengar, 
 J. Tomasi, M. Cossi, J. M. Millam, M. Klene, C. Adamo, R. Cammi, 
 J. W. Ochterski, R. L. Martin, K. Morokuma, O. Farkas, 
 J. B. Foresman, and D. J. Fox, Gaussian, Inc., Wallingford CT, 2016.
 
 ******************************************
 Gaussian 16:  ES64L-G16RevA.03 25-Dec-2016
                18-Sep-2019 
 ******************************************
 %chk=CaMKII_loop3_34.0.chk
 %nprocshared=48
 Will use up to   48 processors via shared memory.
 %mem=10GB
 %nosave
 ----------------------------------------------------------------------
 #b3lyp/svp scf=(tight,noincore) Test #IOP(5/87=12) Density=Current Pop
 =(MK,readradii) iop(6/33=2) iop(6/42=6)
 ----------------------------------------------------------------------
 1/30=1,38=1,172=1/1;
 2/12=2,17=6,18=5,40=1/2;
 3/5=18,7=101,11=2,25=1,30=1,74=-5/1,2,3;
 4//1;
 5/5=4,32=2,38=5,87=12/2;
 6/7=2,8=2,9=2,10=2,15=8,20=101,22=-1,28=1,33=2,42=6/1,2;
 99/5=1,9=1/99;
 -----------------
 CaMKII_loop3_34.0
 -----------------
 Symbolic Z-matrix:
 Charge =  0 Multiplicity = 1
 C                     82.5      55.49     16.74 
 C                     82.63     54.27     15.83 
 O                     83.68     54.21     15.2 
 H                     81.46     55.606    17.045 
 H                     83.124    55.353    17.623 
 H                     82.822    56.381    16.202 
 N                     81.62     53.4      15.81 
 C                     81.76     52.2      15. 
 C                     81.63     52.51     13.52 
 O                     80.54     52.68     12.98 
 C                     80.73     51.18     15.47 
 C                     80.78     49.82     14.79 
 O                     79.83     49.05     15.07 
 O                     81.69     49.37     14.05 
 H                     80.79     53.37     16.38 
 H                     82.72     51.7      15.08 
 H                     79.73     51.61     15.44 
 H                     80.98     50.94     16.51 
 N                     82.77     52.53     12.82 
 C                     82.98     52.87     11.43 
 C                     82.31     51.87     10.51 
 O                     81.84     52.28     9.44 
 C                     84.44     53.15     11.09 
 C                     84.63     53.89     9.77 
 C                     86.02     54.5      9.63 
 C                     86.07     55.02     8.19 
 N                     87.24     55.89     8.02 
 H                     83.6      52.34     13.36 
 H                     82.39     53.78     11.28 
 H                     84.97     52.2      10.96 
 H                     84.72     53.77     11.94 
 H                     84.       54.78     9.81 
 H                     84.28     53.41     8.86 
 H                     86.79     53.75     9.74 
 H                     86.14     55.35     10.3 
 H                     85.13     55.57     8.08 
 H                     85.96     54.29     7.39 
 H                     88.08     55.45     8.39 
 H                     87.33     56.2      7.07 
 H                     87.24     56.75     8.56 
 N                     82.23     50.57     10.84 
 C                     81.69     49.57     9.95 
 C                     80.39     49.       10.5 
 O                     79.82     48.13     9.86 
 C                     82.71     48.51     9.54 
 C                     83.42     47.83     10.7 
 O                     84.5      47.27     10.43 
 O                     82.85     47.82     11.82 
 H                     82.79     50.31     11.64 
 H                     81.38     49.99     8.99 
 H                     83.51     48.99     8.98 
 H                     82.3      47.8      8.83 
 N                     79.92     49.39     11.69 
 C                     78.68     48.97     12.31 
 C                     78.57     47.53     12.81 
 O                     77.46     47.       12.78 
 H                     80.56     49.86     12.31 
 H                     77.89     49.22     11.6 
 H                     78.49     49.48     13.25 
 N                     79.72     46.98     13.21 
 C                     79.82     45.57     13.5 
 C                     79.56     45.25     14.97 
 O                     79.58     44.07     15.32 
 C                     81.08     44.91     12.95 
 C                     82.27     44.94     13.89 
 N                     82.94     43.84     14.23 
 O                     82.73     45.97     14.38 
 H                     80.53     47.58     13.14 
 H                     78.95     45.12     13.01 
 H                     81.36     45.32     11.98 
 H                     80.81     43.86     12.87 
 H                     82.68     43.03     13.68 
 H                     83.8      43.95     14.73 
 N                     79.44     46.27     15.82 
 C                     79.28     46.11     17.25 
 C                     80.58     46.28     18.01 
 O                     80.61     46.       19.21 
 H                     79.27     47.18     15.4 
 H                     78.83     45.16     17.56 
 H                     78.59     46.88     17.59 
 N                     81.64     46.77     17.38 
 C                     82.92     47.03     18.01 
 C                     83.63     48.32     17.62 
 O                     83.41     48.83     16.52 
 C                     83.84     45.85     17.7 
 C                     83.45     44.51     18.27 
 C                     84.11     43.94     19.37 
 C                     82.45     43.72     17.69 
 C                     83.74     42.72     19.94 
 C                     81.98     42.52     18.25 
 C                     82.65     42.03     19.39 
 O                     82.18     40.89     19.98 
 H                     81.45     47.05     16.43 
 H                     82.79     47.1      19.09 
 H                     84.8      46.05     18.18 
 H                     83.89     45.96     16.62 
 H                     84.91     44.52     19.8 
 H                     81.94     44.03     16.79 
 H                     84.25     42.26     20.78 
 H                     81.22     41.94     17.76 
 H                     81.29     40.69     19.68 
 N                     84.45     48.94     18.47 
 C                     85.35     50.01     18.07 
 C                     86.82     49.64     17.94 
 O                     87.44     49.18     18.9 
 C                     85.22     51.05     19.17 
 C                     83.81     51.58     19.43 
 C                     86.11     52.24     18.81 
 C                     83.62     52.17     20.82 
 H                     84.4      48.65     19.43 
 H                     84.99     50.48     17.16 
 H                     85.65     50.59     20.06 
 H                     83.06     50.8      19.31 
 H                     83.63     52.28     18.61 
 H                     87.16     52.04     19.02 
 H                     85.94     52.4      17.74 
 H                     85.94     53.17     19.35 
 H                     82.56     52.36     20.97 
 H                     83.99     51.49     21.59 
 H                     84.29     53.01     20.95 
 N                     87.42     49.85     16.77 
 C                     88.85     49.81     16.55 
 C                     89.55     51.15     16.73 
 O                     88.99     52.25     16.75 
 C                     89.17     49.13     15.22 
 O                     88.59     47.84     15.22 
 H                     86.8      50.12     16.02 
 H                     89.3      49.15     17.29 
 H                     90.25     49.       15.21 
 H                     88.79     49.74     14.41 
 H                     89.08     47.25     14.66 
 N                     90.87     51.13     16.89 
 C                     91.6      52.37     17.05 
 C                     91.49     53.33     15.87 
 O                     91.4      54.54     16.02 
 C                     93.07     52.1      17.36 
 H                     91.42     50.28     16.88 
 H                     91.19     52.91     17.9 
 H                     93.23     51.56     18.29 
 H                     93.61     51.56     16.58 
 H                     93.7      52.99     17.46 
 N                     91.5      52.77     14.66 
 C                     91.3      53.46     13.4 
 C                     89.9      54.06     13.31 
 O                     89.62     55.01     12.58 
 C                     91.52     52.44     12.29 
 H                     91.69     51.78     14.64 
 H                     92.       54.29     13.27 
 H                     91.32     52.98     11.37 
 H                     92.56     52.11     12.34 
 H                     90.77     51.65     12.34 
 N                     88.92     53.59     14.09 
 C                     87.57     54.11     14.06 
 C                     87.39     55.23     15.07 
 O                     86.85     56.28     14.72 
 C                     86.57     52.98     14.27 
 C                     86.84     51.78     13.36 
 C                     85.77     50.73     13.62 
 O                     84.96     50.32     12.76 
 O                     85.59     50.28     14.78 
 H                     89.12     53.       14.88 
 H                     87.29     54.61     13.13 
 H                     85.55     53.34     14.16 
 H                     86.57     52.63     15.3 
 H                     87.83     51.41     13.62 
 H                     86.91     52.06     12.31 
 N                     88.06     55.09     16.22 
 C                     88.14     56.1      17.26 
 H                     88.61     56.998    16.858 
 H                     87.137    56.342    17.611 
 H                     88.734    55.72     18.091 
 H                     88.58     54.24     16.37 
 Ca                    83.96     48.24     14.04 
 O                     85.78     47.08     15.54 
 H                     85.97     46.18     15.77 
 H                     86.63     47.51     15.52 
 
 Stoichiometry    C54H83CaN15O23
 Framework group  C1[X(C54H83CaN15O23)]
 Deg. of freedom   522
 Full point group                 C1      NOp   1
 Largest Abelian subgroup         C1      NOp   1
 Largest concise Abelian subgroup C1      NOp   1
                         Standard orientation:                         
 ---------------------------------------------------------------------
 Center     Atomic      Atomic             Coordinates (Angstroms)
 Number     Number       Type             X           Y           Z
 ---------------------------------------------------------------------
      1          6           0        2.459387    1.126195    5.581078
      2          6           0        1.790553    1.416397    4.238751
      3          8           0        2.544762    1.384541    3.272752
      4          1           0        1.797109    1.433495    6.390421
      5          1           0        2.661489    0.058372    5.663184
      6          1           0        3.395496    1.679555    5.648174
      7          7           0        0.480471    1.663553    4.238492
      8          6           0       -0.180881    1.874128    2.960223
      9          6           0        0.158649    3.233030    2.375840
     10          8           0       -0.382287    4.265693    2.762614
     11          6           0       -1.680301    1.687962    3.158415
     12          6           0       -2.536132    1.788176    1.904616
     13          8           0       -3.774535    1.794013    2.104925
     14          8           0       -2.143535    1.793134    0.711283
     15          1           0       -0.181586    1.606291    4.995527
     16          1           0        0.096703    1.175197    2.177636
     17          1           0       -2.042448    2.344483    3.948118
     18          1           0       -1.827487    0.647144    3.469439
     19          7           0        1.041256    3.237994    1.370365
     20          6           0        1.620323    4.364185    0.671670
     21          6           0        0.570206    5.129528   -0.107307
     22          8           0        0.695444    6.357273   -0.211506
     23          6           0        2.858079    3.999844   -0.141237
     24          6           0        3.703147    5.204365   -0.542597
     25          6           0        5.104573    4.816203   -0.999912
     26          6           0        5.712299    6.118754   -1.529563
     27          7           0        7.156839    5.945646   -1.724594
     28          1           0        1.391682    2.328528    1.112152
     29          1           0        1.899293    5.063657    1.466411
     30          1           0        2.548056    3.544261   -1.088142
     31          1           0        3.379033    3.366551    0.574896
     32          1           0        3.914455    5.763794    0.370085
     33          1           0        3.244251    5.964799   -1.168818
     34          1           0        5.068650    4.109473   -1.816455
     35          1           0        5.708202    4.480064   -0.158222
     36          1           0        5.488527    6.847622   -0.744148
     37          1           0        5.220061    6.592584   -2.377023
     38          1           0        7.356677    5.090603   -2.239441
     39          1           0        7.572478    6.766252   -2.125280
     40          1           0        7.704313    5.777545   -0.886015
     41          7           0       -0.469118    4.496138   -0.676449
     42          6           0       -1.435333    5.172487   -1.508723
     43          6           0       -2.803263    5.196654   -0.841201
     44          8           0       -3.730180    5.726318   -1.434228
     45          6           0       -1.454595    4.665086   -2.948956
     46          6           0       -1.624883    3.160666   -3.089750
     47          8           0       -1.261305    2.666386   -4.174369
     48          8           0       -2.172036    2.535263   -2.146939
     49          1           0       -0.387861    3.488886   -0.682896
     50          1           0       -1.209648    6.234708   -1.630591
     51          1           0       -0.488915    4.869821   -3.406718
     52          1           0       -2.147884    5.221719   -3.570093
     53          7           0       -3.003161    4.589836    0.333921
     54          6           0       -4.231649    4.574377    1.101370
     55          6           0       -5.415864    3.774645    0.559372
     56          8           0       -6.546492    4.185930    0.817102
     57          1           0       -2.315262    3.916499    0.631095
     58          1           0       -4.488245    5.620206    1.277722
     59          1           0       -4.120835    4.067901    2.055835
     60          7           0       -5.089762    2.706616   -0.174094
     61          6           0       -6.081226    1.981593   -0.931419
     62          6           0       -6.690689    0.821827   -0.147584
     63          8           0       -7.578300    0.159970   -0.685536
     64          6           0       -5.629567    1.592962   -2.335225
     65          6           0       -4.931322    0.249416   -2.424331
     66          7           0       -5.319595   -0.702970   -3.270915
     67          8           0       -3.942602   -0.054133   -1.758831
     68          1           0       -4.097920    2.547468   -0.283280
     69          1           0       -6.928276    2.670522   -1.017341
     70          1           0       -5.010233    2.366402   -2.788675
     71          1           0       -6.560454    1.463979   -2.881680
     72          1           0       -6.005601   -0.381706   -3.943511
     73          1           0       -4.726482   -1.501261   -3.383377
     74          7           0       -6.151418    0.512685    1.031788
     75          6           0       -6.572003   -0.614509    1.837171
     76          6           0       -5.673322   -1.823452    1.671857
     77          8           0       -6.020386   -2.896675    2.168887
     78          1           0       -5.550940    1.221477    1.444632
     79          1           0       -7.606093   -0.938129    1.672770
     80          1           0       -6.529313   -0.305404    2.879875
     81          7           0       -4.514738   -1.688411    1.039364
     82          6           0       -3.546667   -2.754103    0.866049
     83          6           0       -2.079736   -2.388960    1.053359
     84          8           0       -1.708802   -1.230164    0.858169
     85          6           0       -3.734138   -3.330116   -0.536792
     86          6           0       -5.045279   -4.015822   -0.825438
     87          6           0       -5.161654   -5.412433   -0.905644
     88          6           0       -6.213774   -3.295611   -1.101870
     89          6           0       -6.372503   -6.070596   -1.131180
     90          6           0       -7.476502   -3.889646   -1.266610
     91          6           0       -7.533772   -5.298596   -1.280076
     92          8           0       -8.757249   -5.898151   -1.390696
     93          1           0       -4.310381   -0.737775    0.771915
     94          1           0       -3.732554   -3.541212    1.596875
     95          1           0       -3.005501   -4.133890   -0.659411
     96          1           0       -3.472296   -2.446927   -1.113347
     97          1           0       -4.259775   -5.977347   -0.735974
     98          1           0       -6.211283   -2.216729   -1.148858
     99          1           0       -6.475184   -7.147814   -1.210918
    100          1           0       -8.343048   -3.296109   -1.492247
    101          1           0       -9.463231   -5.274846   -1.203134
    102          7           0       -1.193135   -3.291106    1.476882
    103          6           0        0.244782   -3.081220    1.419951
    104          6           0        0.990546   -3.823555    0.321099
    105          8           0        0.945853   -5.052617    0.250339
    106          6           0        0.757373   -3.581380    2.759948
    107          6           0        0.150032   -2.924087    3.999182
    108          6           0        2.269771   -3.361375    2.805244
    109          6           0        0.256818   -3.769607    5.260131
    110          1           0       -1.568606   -4.133467    1.873933
    111          1           0        0.465884   -2.018929    1.384564
    112          1           0        0.593649   -4.659218    2.752136
    113          1           0       -0.905188   -2.697354    3.856345
    114          1           0        0.646914   -1.952347    4.059427
    115          1           0        2.807299   -4.116532    2.233054
    116          1           0        2.417417   -2.361118    2.384427
    117          1           0        2.752738   -3.422962    3.779076
    118          1           0       -0.344199   -3.303832    6.037325
    119          1           0       -0.090078   -4.789244    5.080678
    120          1           0        1.299869   -3.945850    5.489006
    121          7           0        1.709470   -3.110138   -0.543300
    122          6           0        2.679083   -3.656622   -1.468559
    123          6           0        4.097031   -3.731999   -0.919250
    124          8           0        4.510300   -3.125615    0.073477
    125          6           0        2.587013   -2.952490   -2.821120
    126          8           0        1.261720   -3.066851   -3.301768
    127          1           0        1.587941   -2.110338   -0.469602
    128          1           0        2.404938   -4.685569   -1.696183
    129          1           0        3.225702   -3.522731   -3.492165
    130          1           0        2.882033   -1.917390   -2.702246
    131          1           0        1.243973   -3.042153   -4.250912
    132          7           0        4.954381   -4.524882   -1.555400
    133          6           0        6.323102   -4.630266   -1.095400
    134          6           0        7.104829   -3.320890   -1.118616
    135          8           0        7.897994   -3.019301   -0.238484
    136          6           0        7.080671   -5.697304   -1.881159
    137          1           0        4.713696   -5.056251   -2.382937
    138          1           0        6.319007   -4.945025   -0.054675
    139          1           0        6.670792   -6.698075   -1.769103
    140          1           0        7.163169   -5.503898   -2.952321
    141          1           0        8.136907   -5.813737   -1.616943
    142          7           0        6.873103   -2.521995   -2.160667
    143          6           0        7.409700   -1.187467   -2.347217
    144          6           0        6.907848   -0.230131   -1.270299
    145          8           0        7.505374    0.796713   -0.950373
    146          6           0        6.973883   -0.717776   -3.729373
    147          1           0        6.288820   -2.909789   -2.885117
    148          1           0        8.501577   -1.171434   -2.289357
    149          1           0        7.355303    0.294820   -3.814039
    150          1           0        7.432656   -1.379142   -4.467697
    151          1           0        5.888064   -0.631696   -3.781213
    152          7           0        5.797272   -0.520101   -0.583103
    153          6           0        5.263195    0.338802    0.451714
    154          6           0        5.812135   -0.038655    1.816665
    155          8           0        6.253663    0.841472    2.556280
    156          6           0        3.740309    0.313661    0.417269
    157          6           0        3.180730    0.540411   -0.988596
    158          6           0        1.661405    0.534672   -0.907236
    159          8           0        0.934762    1.505555   -1.212485
    160          8           0        1.054748   -0.454763   -0.424033
    161          1           0        5.397577   -1.443153   -0.603547
    162          1           0        5.562903    1.386818    0.380034
    163          1           0        3.325014    1.022984    1.128951
    164          1           0        3.345697   -0.628973    0.790260
    165          1           0        3.547862   -0.278449   -1.604456
    166          1           0        3.574886    1.442498   -1.454084
    167          7           0        6.006511   -1.346319    2.024594
    168          6           0        6.647859   -1.911868    3.198019
    169          1           0        7.670547   -1.540029    3.266958
    170          1           0        6.095398   -1.620829    4.091247
    171          1           0        6.661127   -2.998627    3.116918
    172          1           0        5.723518   -1.992189    1.304757
    173         20           0       -1.421984    0.317919   -1.220815
    174          8           0       -1.234402   -2.164200   -2.064556
    175          1           0       -1.787990   -2.726117   -2.590665
    176          1           0       -0.345244   -2.436838   -2.271599
 ---------------------------------------------------------------------
 Rotational constants (GHZ):           0.0246980           0.0153643           0.0120435
 Standard basis: SVP (5D, 7F)
 There are  1809 symmetry adapted cartesian basis functions of A   symmetry.
 There are  1717 symmetry adapted basis functions of A   symmetry.
  1717 basis functions,  2922 primitive gaussians,  1809 cartesian basis functions
   358 alpha electrons      358 beta electrons
       nuclear repulsion energy     21932.1166646390 Hartrees.
 NAtoms=  176 NActive=  176 NUniq=  176 SFac= 1.00D+00 NAtFMM=   60 NAOKFM=T Big=T
 Integral buffers will be    131072 words long.
 Raffenetti 2 integral format.
 Two-electron integral symmetry is turned on.
 One-electron integrals computed using PRISM.
 NBasis=  1717 RedAO= T EigKep=  2.68D-04  NBF=  1717
 NBsUse=  1717 1.00D-06 EigRej= -1.00D+00 NBFU=  1717
 ExpMin= 1.98D-02 ExpMax= 3.51D+04 ExpMxC= 5.28D+03 IAcc=3 IRadAn=         5 AccDes= 0.00D+00
 Harris functional with IExCor=  402 and IRadAn=       5 diagonalized for initial guess.
 HarFok:  IExCor=  402 AccDes= 0.00D+00 IRadAn=         5 IDoV= 1 UseB2=F ITyADJ=14
 ICtDFT=  3500011 ScaDFX=  1.000000  1.000000  1.000000  1.000000
 FoFCou: FMM=F IPFlag=           0 FMFlag=      100000 FMFlg1=        2001
         NFxFlg=           0 DoJE=T BraDBF=F KetDBF=T FulRan=T
         wScrn=  0.000000 ICntrl=       500 IOpCl=  0 I1Cent=   200000004 NGrid=           0
         NMat0=    1 NMatS0=      1 NMatT0=    0 NMatD0=    1 NMtDS0=    0 NMtDT0=    0
 Petite list used in FoFCou.
 Requested convergence on RMS density matrix=1.00D-08 within 128 cycles.
 Requested convergence on MAX density matrix=1.00D-06.
 Requested convergence on             energy=1.00D-06.
 No special actions if energy rises.
 EnCoef did     4 forward-backward iterations
 EnCoef did     6 forward-backward iterations
 SCF Done:  E(RB3LYP) =  -5333.59721917     A.U. after   20 cycles
            NFock= 20  Conv=0.35D-08     -V/T= 2.0081
 SCF density gives NOpUse=  1 NOpAll=  1.
 Hyperfine terms turned off by default for NAtoms > 100.

 **********************************************************************

            Population analysis using the SCF density.

 **********************************************************************

 Orbital symmetries:
 BldTbl:  Degeneracy threshold= 1.00D-02
       Occupied  (A) (A) (A) (A) (A) (A) (A) (A) (A) (A) (A) (A)
                 (A) (A) (A) (A) (A) (A) (A) (A) (A) (A) (A) (A)
                 (A) (A) (A) (A) (A) (A) (A) (A) (A) (A) (A) (A)
                 (A) (A) (A) (A) (A) (A) (A) (A) (A) (A) (A) (A)
                 (A) (A) (A) (A) (A) (A) (A) (A) (A) (A) (A) (A)
                 (A) (A) (A) (A) (A) (A) (A) (A) (A) (A) (A) (A)
                 (A) (A) (A) (A) (A) (A) (A) (A) (A) (A) (A) (A)
                 (A) (A) (A) (A) (A) (A) (A) (A) (A) (A) (A) (A)
                 (A) (A) (A) (A) (A) (A) (A) (A) (A) (A) (A) (A)
                 (A) (A) (A) (A) (A) (A) (A) (A) (A) (A) (A) (A)
                 (A) (A) (A) (A) (A) (A) (A) (A) (A) (A) (A) (A)
                 (A) (A) (A) (A) (A) (A) (A) (A) (A) (A) (A) (A)
                 (A) (A) (A) (A) (A) (A) (A) (A) (A) (A) (A) (A)
                 (A) (A) (A) (A) (A) (A) (A) (A) (A) (A) (A) (A)
                 (A) (A) (A) (A) (A) (A) (A) (A) (A) (A) (A) (A)
                 (A) (A) (A) (A) (A) (A) (A) (A) (A) (A) (A) (A)
                 (A) (A) (A) (A) (A) (A) (A) (A) (A) (A) (A) (A)
                 (A) (A) (A) (A) (A) (A) (A) (A) (A) (A) (A) (A)
                 (A) (A) (A) (A) (A) (A) (A) (A) (A) (A) (A) (A)
                 (A) (A) (A) (A) (A) (A) (A) (A) (A) (A) (A) (A)
                 (A) (A) (A) (A) (A) (A) (A) (A) (A) (A) (A) (A)
                 (A) (A) (A) (A) (A) (A) (A) (A) (A) (A) (A) (A)
                 (A) (A) (A) (A) (A) (A) (A) (A) (A) (A) (A) (A)
                 (A) (A) (A) (A) (A) (A) (A) (A) (A) (A) (A) (A)
                 (A) (A) (A) (A) (A) (A) (A) (A) (A) (A) (A) (A)
                 (A) (A) (A) (A) (A) (A) (A) (A) (A) (A) (A) (A)
                 (A) (A) (A) (A) (A) (A) (A) (A) (A) (A) (A) (A)
                 (A) (A) (A) (A) (A) (A) (A) (A) (A) (A) (A) (A)
                 (A) (A) (A) (A) (A) (A) (A) (A) (A) (A) (A) (A)
                 (A) (A) (A) (A) (A) (A) (A) (A) (A) (A)
       Virtual   (A) (A) (A) (A) (A) (A) (A) (A) (A) (A) (A) (A)
                 (A) (A) (A) (A) (A) (A) (A) (A) (A) (A) (A) (A)
                 (A) (A) (A) (A) (A) (A) (A) (A) (A) (A) (A) (A)
                 (A) (A) (A) (A) (A) (A) (A) (A) (A) (A) (A) (A)
                 (A) (A) (A) (A) (A) (A) (A) (A) (A) (A) (A) (A)
                 (A) (A) (A) (A) (A) (A) (A) (A) (A) (A) (A) (A)
                 (A) (A) (A) (A) (A) (A) (A) (A) (A) (A) (A) (A)
                 (A) (A) (A) (A) (A) (A) (A) (A) (A) (A) (A) (A)
                 (A) (A) (A) (A) (A) (A) (A) (A) (A) (A) (A) (A)
                 (A) (A) (A) (A) (A) (A) (A) (A) (A) (A) (A) (A)
                 (A) (A) (A) (A) (A) (A) (A) (A) (A) (A) (A) (A)
                 (A) (A) (A) (A) (A) (A) (A) (A) (A) (A) (A) (A)
                 (A) (A) (A) (A) (A) (A) (A) (A) (A) (A) (A) (A)
                 (A) (A) (A) (A) (A) (A) (A) (A) (A) (A) (A) (A)
                 (A) (A) (A) (A) (A) (A) (A) (A) (A) (A) (A) (A)
                 (A) (A) (A) (A) (A) (A) (A) (A) (A) (A) (A) (A)
                 (A) (A) (A) (A) (A) (A) (A) (A) (A) (A) (A) (A)
                 (A) (A) (A) (A) (A) (A) (A) (A) (A) (A) (A) (A)
                 (A) (A) (A) (A) (A) (A) (A) (A) (A) (A) (A) (A)
                 (A) (A) (A) (A) (A) (A) (A) (A) (A) (A) (A) (A)
                 (A) (A) (A) (A) (A) (A) (A) (A) (A) (A) (A) (A)
                 (A) (A) (A) (A) (A) (A) (A) (A) (A) (A) (A) (A)
                 (A) (A) (A) (A) (A) (A) (A) (A) (A) (A) (A) (A)
                 (A) (A) (A) (A) (A) (A) (A) (A) (A) (A) (A) (A)
                 (A) (A) (A) (A) (A) (A) (A) (A) (A) (A) (A) (A)
                 (A) (A) (A) (A) (A) (A) (A) (A) (A) (A) (A) (A)
                 (A) (A) (A) (A) (A) (A) (A) (A) (A) (A) (A) (A)
                 (A) (A) (A) (A) (A) (A) (A) (A) (A) (A) (A) (A)
                 (A) (A) (A) (A) (A) (A) (A) (A) (A) (A) (A) (A)
                 (A) (A) (A) (A) (A) (A) (A) (A) (A) (A) (A) (A)
                 (A) (A) (A) (A) (A) (A) (A) (A) (A) (A) (A) (A)
                 (A) (A) (A) (A) (A) (A) (A) (A) (A) (A) (A) (A)
                 (A) (A) (A) (A) (A) (A) (A) (A) (A) (A) (A) (A)
                 (A) (A) (A) (A) (A) (A) (A) (A) (A) (A) (A) (A)
                 (A) (A) (A) (A) (A) (A) (A) (A) (A) (A) (A) (A)
                 (A) (A) (A) (A) (A) (A) (A) (A) (A) (A) (A) (A)
                 (A) (A) (A) (A) (A) (A) (A) (A) (A) (A) (A) (A)
                 (A) (A) (A) (A) (A) (A) (A) (A) (A) (A) (A) (A)
                 (A) (A) (A) (A) (A) (A) (A) (A) (A) (A) (A) (A)
                 (A) (A) (A) (A) (A) (A) (A) (A) (A) (A) (A) (A)
                 (A) (A) (A) (A) (A) (A) (A) (A) (A) (A) (A) (A)
                 (A) (A) (A) (A) (A) (A) (A) (A) (A) (A) (A) (A)
                 (A) (A) (A) (A) (A) (A) (A) (A) (A) (A) (A) (A)
                 (A) (A) (A) (A) (A) (A) (A) (A) (A) (A) (A) (A)
                 (A) (A) (A) (A) (A) (A) (A) (A) (A) (A) (A) (A)
                 (A) (A) (A) (A) (A) (A) (A) (A) (A) (A) (A) (A)
                 (A) (A) (A) (A) (A) (A) (A) (A) (A) (A) (A) (A)
                 (A) (A) (A) (A) (A) (A) (A) (A) (A) (A) (A) (A)
                 (A) (A) (A) (A) (A) (A) (A) (A) (A) (A) (A) (A)
                 (A) (A) (A) (A) (A) (A) (A) (A) (A) (A) (A) (A)
                 (A) (A) (A) (A) (A) (A) (A) (A) (A) (A) (A) (A)
                 (A) (A) (A) (A) (A) (A) (A) (A) (A) (A) (A) (A)
                 (A) (A) (A) (A) (A) (A) (A) (A) (A) (A) (A) (A)
                 (A) (A) (A) (A) (A) (A) (A) (A) (A) (A) (A) (A)
                 (A) (A) (A) (A) (A) (A) (A) (A) (A) (A) (A) (A)
                 (A) (A) (A) (A) (A) (A) (A) (A) (A) (A) (A) (A)
                 (A) (A) (A) (A) (A) (A) (A) (A) (A) (A) (A) (A)
                 (A) (A) (A) (A) (A) (A) (A) (A) (A) (A) (A) (A)
                 (A) (A) (A) (A) (A) (A) (A) (A) (A) (A) (A) (A)
                 (A) (A) (A) (A) (A) (A) (A) (A) (A) (A) (A) (A)
                 (A) (A) (A) (A) (A) (A) (A) (A) (A) (A) (A) (A)
                 (A) (A) (A) (A) (A) (A) (A) (A) (A) (A) (A) (A)
                 (A) (A) (A) (A) (A) (A) (A) (A) (A) (A) (A) (A)
                 (A) (A) (A) (A) (A) (A) (A) (A) (A) (A) (A) (A)
                 (A) (A) (A) (A) (A) (A) (A) (A) (A) (A) (A) (A)
                 (A) (A) (A) (A) (A) (A) (A) (A) (A) (A) (A) (A)
                 (A) (A) (A) (A) (A) (A) (A) (A) (A) (A) (A) (A)
                 (A) (A) (A) (A) (A) (A) (A) (A) (A) (A) (A) (A)
                 (A) (A) (A) (A) (A) (A) (A) (A) (A) (A) (A) (A)
                 (A) (A) (A) (A) (A) (A) (A) (A) (A) (A) (A) (A)
                 (A) (A) (A) (A) (A) (A) (A) (A) (A) (A) (A) (A)
                 (A) (A) (A) (A) (A) (A) (A) (A) (A) (A) (A) (A)
                 (A) (A) (A) (A) (A) (A) (A) (A) (A) (A) (A) (A)
                 (A) (A) (A) (A) (A) (A) (A) (A) (A) (A) (A) (A)
                 (A) (A) (A) (A) (A) (A) (A) (A) (A) (A) (A) (A)
                 (A) (A) (A) (A) (A) (A) (A) (A) (A) (A) (A) (A)
                 (A) (A) (A) (A) (A) (A) (A) (A) (A) (A) (A) (A)
                 (A) (A) (A) (A) (A) (A) (A) (A) (A) (A) (A) (A)
                 (A) (A) (A) (A) (A) (A) (A) (A) (A) (A) (A) (A)
                 (A) (A) (A) (A) (A) (A) (A) (A) (A) (A) (A) (A)
                 (A) (A) (A) (A) (A) (A) (A) (A) (A) (A) (A) (A)
                 (A) (A) (A) (A) (A) (A) (A) (A) (A) (A) (A) (A)
                 (A) (A) (A) (A) (A) (A) (A) (A) (A) (A) (A) (A)
                 (A) (A) (A) (A) (A) (A) (A) (A) (A) (A) (A) (A)
                 (A) (A) (A) (A) (A) (A) (A) (A) (A) (A) (A) (A)
                 (A) (A) (A) (A) (A) (A) (A) (A) (A) (A) (A) (A)
                 (A) (A) (A) (A) (A) (A) (A) (A) (A) (A) (A) (A)
                 (A) (A) (A) (A) (A) (A) (A) (A) (A) (A) (A) (A)
                 (A) (A) (A) (A) (A) (A) (A) (A) (A) (A) (A) (A)
                 (A) (A) (A) (A) (A) (A) (A) (A) (A) (A) (A) (A)
                 (A) (A) (A) (A) (A) (A) (A) (A) (A) (A) (A) (A)
                 (A) (A) (A) (A) (A) (A) (A) (A) (A) (A) (A) (A)
                 (A) (A) (A) (A) (A) (A) (A) (A) (A) (A) (A) (A)
                 (A) (A) (A) (A) (A) (A) (A) (A) (A) (A) (A) (A)
                 (A) (A) (A) (A) (A) (A) (A) (A) (A) (A) (A) (A)
                 (A) (A) (A) (A) (A) (A) (A) (A) (A) (A) (A) (A)
                 (A) (A) (A) (A) (A) (A) (A) (A) (A) (A) (A) (A)
                 (A) (A) (A) (A) (A) (A) (A) (A) (A) (A) (A) (A)
                 (A) (A) (A) (A) (A) (A) (A) (A) (A) (A) (A) (A)
                 (A) (A) (A) (A) (A) (A) (A) (A) (A) (A) (A) (A)
                 (A) (A) (A) (A) (A) (A) (A) (A) (A) (A) (A) (A)
                 (A) (A) (A) (A) (A) (A) (A) (A) (A) (A) (A) (A)
                 (A) (A) (A) (A) (A) (A) (A) (A) (A) (A) (A) (A)
                 (A) (A) (A) (A) (A) (A) (A) (A) (A) (A) (A) (A)
                 (A) (A) (A) (A) (A) (A) (A) (A) (A) (A) (A) (A)
                 (A) (A) (A) (A) (A) (A) (A) (A) (A) (A) (A) (A)
                 (A) (A) (A) (A) (A) (A) (A) (A) (A) (A) (A) (A)
                 (A) (A) (A) (A) (A) (A) (A) (A) (A) (A) (A) (A)
                 (A) (A) (A) (A) (A) (A) (A) (A) (A) (A) (A) (A)
                 (A) (A) (A) (A) (A) (A) (A) (A) (A) (A) (A) (A)
                 (A) (A) (A) (A) (A) (A) (A) (A) (A) (A) (A) (A)
                 (A) (A) (A) (A) (A) (A) (A) (A) (A) (A) (A) (A)
                 (A) (A) (A) (A) (A) (A) (A) (A) (A) (A) (A) (A)
                 (A) (A) (A)
 The electronic state is 1-A.
 Alpha  occ. eigenvalues -- -145.35476 -19.19594 -19.17394 -19.15736 -19.14171
 Alpha  occ. eigenvalues --  -19.12858 -19.11078 -19.10703 -19.10522 -19.10035
 Alpha  occ. eigenvalues --  -19.09012 -19.08611 -19.08243 -19.07368 -19.06335
 Alpha  occ. eigenvalues --  -19.05906 -19.05588 -19.05265 -19.04552 -19.03027
 Alpha  occ. eigenvalues --  -19.02459 -19.02134 -19.01955 -19.00225 -15.41227
 Alpha  occ. eigenvalues --  -14.58457 -14.41657 -14.39409 -14.36680 -14.36021
 Alpha  occ. eigenvalues --  -14.35524 -14.35505 -14.35125 -14.33241 -14.32672
 Alpha  occ. eigenvalues --  -14.32422 -14.31083 -14.30473 -14.28656 -14.27507
 Alpha  occ. eigenvalues --  -12.54845 -12.54815 -12.54775 -10.34153 -10.34056
 Alpha  occ. eigenvalues --  -10.31617 -10.29741 -10.29610 -10.29584 -10.29169
 Alpha  occ. eigenvalues --  -10.28751 -10.28005 -10.27740 -10.27514 -10.27368
 Alpha  occ. eigenvalues --  -10.26948 -10.26545 -10.25990 -10.24916 -10.24805
 Alpha  occ. eigenvalues --  -10.24193 -10.24043 -10.23554 -10.23525 -10.23318
 Alpha  occ. eigenvalues --  -10.23114 -10.22987 -10.22883 -10.22309 -10.22261
 Alpha  occ. eigenvalues --  -10.21409 -10.21396 -10.20853 -10.20802 -10.20459
 Alpha  occ. eigenvalues --  -10.20388 -10.20238 -10.19664 -10.19527 -10.19513
 Alpha  occ. eigenvalues --  -10.18741 -10.18636 -10.18368 -10.18261 -10.17808
 Alpha  occ. eigenvalues --  -10.17709 -10.17660 -10.17549 -10.17453 -10.17106
 Alpha  occ. eigenvalues --  -10.17104 -10.17075 -10.16671 -10.16626 -10.16304
 Alpha  occ. eigenvalues --  -10.15155 -10.12376  -1.78179  -1.13573  -1.09177
 Alpha  occ. eigenvalues --   -1.07714  -1.06228  -1.06117  -1.05920  -1.05695
 Alpha  occ. eigenvalues --   -1.04210  -1.04024  -1.03971  -1.03613  -1.03529
 Alpha  occ. eigenvalues --   -1.03012  -1.02830  -1.01639  -1.00015  -0.99513
 Alpha  occ. eigenvalues --   -0.99351  -0.98565  -0.98357  -0.98064  -0.97920
 Alpha  occ. eigenvalues --   -0.96175  -0.95943  -0.95583  -0.95103  -0.93443
 Alpha  occ. eigenvalues --   -0.93193  -0.92743  -0.92382  -0.91619  -0.90122
 Alpha  occ. eigenvalues --   -0.89845  -0.89791  -0.89326  -0.88571  -0.88238
 Alpha  occ. eigenvalues --   -0.87471  -0.87083  -0.86390  -0.86040  -0.83889
 Alpha  occ. eigenvalues --   -0.83835  -0.83016  -0.82056  -0.81237  -0.80724
 Alpha  occ. eigenvalues --   -0.79553  -0.79283  -0.77926  -0.76719  -0.75718
 Alpha  occ. eigenvalues --   -0.75359  -0.74682  -0.73403  -0.73266  -0.72344
 Alpha  occ. eigenvalues --   -0.72164  -0.71577  -0.71426  -0.70828  -0.70508
 Alpha  occ. eigenvalues --   -0.70444  -0.69940  -0.69270  -0.68508  -0.67552
 Alpha  occ. eigenvalues --   -0.67314  -0.66983  -0.65996  -0.64309  -0.64207
 Alpha  occ. eigenvalues --   -0.63608  -0.63573  -0.63170  -0.62843  -0.61558
 Alpha  occ. eigenvalues --   -0.61241  -0.61113  -0.60943  -0.60454  -0.60093
 Alpha  occ. eigenvalues --   -0.59792  -0.59524  -0.59503  -0.58207  -0.57840
 Alpha  occ. eigenvalues --   -0.57506  -0.57270  -0.56944  -0.56709  -0.56336
 Alpha  occ. eigenvalues --   -0.56119  -0.55677  -0.55348  -0.55145  -0.54936
 Alpha  occ. eigenvalues --   -0.54552  -0.54285  -0.54154  -0.53853  -0.53502
 Alpha  occ. eigenvalues --   -0.53318  -0.52871  -0.52429  -0.51832  -0.51747
 Alpha  occ. eigenvalues --   -0.51181  -0.50937  -0.50686  -0.50542  -0.50159
 Alpha  occ. eigenvalues --   -0.50103  -0.49591  -0.49161  -0.48709  -0.48579
 Alpha  occ. eigenvalues --   -0.48410  -0.48122  -0.47854  -0.47714  -0.47668
 Alpha  occ. eigenvalues --   -0.47427  -0.47329  -0.47077  -0.46853  -0.46701
 Alpha  occ. eigenvalues --   -0.46354  -0.46336  -0.46226  -0.46035  -0.45776
 Alpha  occ. eigenvalues --   -0.45351  -0.45279  -0.44913  -0.44779  -0.44427
 Alpha  occ. eigenvalues --   -0.44260  -0.44111  -0.44091  -0.43846  -0.43783
 Alpha  occ. eigenvalues --   -0.43552  -0.43444  -0.43322  -0.43216  -0.43028
 Alpha  occ. eigenvalues --   -0.42995  -0.42895  -0.42817  -0.42730  -0.42295
 Alpha  occ. eigenvalues --   -0.42206  -0.41798  -0.41692  -0.41483  -0.41248
 Alpha  occ. eigenvalues --   -0.41107  -0.41058  -0.40913  -0.40735  -0.40625
 Alpha  occ. eigenvalues --   -0.40384  -0.40234  -0.40051  -0.39913  -0.39709
 Alpha  occ. eigenvalues --   -0.39687  -0.39559  -0.39468  -0.39273  -0.39153
 Alpha  occ. eigenvalues --   -0.39043  -0.38929  -0.38898  -0.38782  -0.38622
 Alpha  occ. eigenvalues --   -0.38345  -0.38275  -0.38218  -0.37986  -0.37876
 Alpha  occ. eigenvalues --   -0.37699  -0.37533  -0.37472  -0.37361  -0.37230
 Alpha  occ. eigenvalues --   -0.37174  -0.36835  -0.36754  -0.36380  -0.36323
 Alpha  occ. eigenvalues --   -0.35971  -0.35912  -0.35703  -0.35530  -0.35250
 Alpha  occ. eigenvalues --   -0.35121  -0.34842  -0.34764  -0.34597  -0.34409
 Alpha  occ. eigenvalues --   -0.34101  -0.34017  -0.33807  -0.33666  -0.33570
 Alpha  occ. eigenvalues --   -0.33224  -0.33020  -0.32910  -0.32718  -0.32509
 Alpha  occ. eigenvalues --   -0.32485  -0.32285  -0.32226  -0.32147  -0.31506
 Alpha  occ. eigenvalues --   -0.31467  -0.31260  -0.31156  -0.30763  -0.29893
 Alpha  occ. eigenvalues --   -0.29224  -0.29005  -0.28736  -0.28446  -0.28163
 Alpha  occ. eigenvalues --   -0.28120  -0.27746  -0.27267  -0.26895  -0.26783
 Alpha  occ. eigenvalues --   -0.26338  -0.26318  -0.26269  -0.25341  -0.24519
 Alpha  occ. eigenvalues --   -0.24313  -0.23781  -0.23765  -0.23654  -0.23608
 Alpha  occ. eigenvalues --   -0.23345  -0.23295  -0.22596  -0.22567  -0.22005
 Alpha  occ. eigenvalues --   -0.21617  -0.21404  -0.20859  -0.20683  -0.20315
 Alpha  occ. eigenvalues --   -0.20227  -0.19691  -0.19379  -0.19006  -0.17719
 Alpha  occ. eigenvalues --   -0.17636  -0.16902  -0.16366
 Alpha virt. eigenvalues --   -0.10214  -0.04794  -0.04606  -0.03822  -0.02476
 Alpha virt. eigenvalues --   -0.01542  -0.01368  -0.00446  -0.00388  -0.00295
 Alpha virt. eigenvalues --    0.00408   0.00797   0.01129   0.01558   0.02049
 Alpha virt. eigenvalues --    0.02340   0.02805   0.02928   0.03352   0.03413
 Alpha virt. eigenvalues --    0.03543   0.03889   0.04385   0.04696   0.04842
 Alpha virt. eigenvalues --    0.05166   0.05325   0.05367   0.05545   0.05767
 Alpha virt. eigenvalues --    0.05878   0.06223   0.06505   0.06595   0.06858
 Alpha virt. eigenvalues --    0.06986   0.07129   0.07506   0.08045   0.08293
 Alpha virt. eigenvalues --    0.08592   0.08702   0.08844   0.08960   0.09229
 Alpha virt. eigenvalues --    0.09360   0.09552   0.09670   0.09744   0.09791
 Alpha virt. eigenvalues --    0.09959   0.10172   0.10455   0.10681   0.11008
 Alpha virt. eigenvalues --    0.11051   0.11225   0.11520   0.11579   0.11677
 Alpha virt. eigenvalues --    0.11866   0.11957   0.12150   0.12535   0.12709
 Alpha virt. eigenvalues --    0.12906   0.13028   0.13286   0.13502   0.13542
 Alpha virt. eigenvalues --    0.13849   0.13929   0.14169   0.14446   0.14692
 Alpha virt. eigenvalues --    0.14854   0.15137   0.15240   0.15324   0.15419
 Alpha virt. eigenvalues --    0.15539   0.15764   0.15944   0.16223   0.16392
 Alpha virt. eigenvalues --    0.16448   0.16550   0.16818   0.16950   0.17215
 Alpha virt. eigenvalues --    0.17390   0.17473   0.17554   0.17638   0.18143
 Alpha virt. eigenvalues --    0.18302   0.18491   0.18540   0.18847   0.19139
 Alpha virt. eigenvalues --    0.19229   0.19431   0.19657   0.19860   0.20115
 Alpha virt. eigenvalues --    0.20252   0.20257   0.20450   0.20556   0.20689
 Alpha virt. eigenvalues --    0.21034   0.21196   0.21345   0.21539   0.21904
 Alpha virt. eigenvalues --    0.22206   0.22225   0.22593   0.22841   0.23134
 Alpha virt. eigenvalues --    0.23263   0.23431   0.23642   0.23674   0.23996
 Alpha virt. eigenvalues --    0.24056   0.24349   0.24440   0.24557   0.24782
 Alpha virt. eigenvalues --    0.25189   0.25405   0.25539   0.25822   0.25985
 Alpha virt. eigenvalues --    0.26105   0.26323   0.26442   0.26684   0.26826
 Alpha virt. eigenvalues --    0.27324   0.27362   0.27414   0.27723   0.27979
 Alpha virt. eigenvalues --    0.28392   0.28664   0.28981   0.29343   0.29463
 Alpha virt. eigenvalues --    0.29731   0.30052   0.30243   0.30461   0.30836
 Alpha virt. eigenvalues --    0.30992   0.31249   0.31392   0.31637   0.32015
 Alpha virt. eigenvalues --    0.32384   0.32488   0.32661   0.32938   0.33175
 Alpha virt. eigenvalues --    0.33242   0.33535   0.33694   0.34144   0.34178
 Alpha virt. eigenvalues --    0.34492   0.34963   0.35121   0.35190   0.35586
 Alpha virt. eigenvalues --    0.35824   0.36225   0.36437   0.36561   0.36716
 Alpha virt. eigenvalues --    0.37061   0.37632   0.37835   0.37992   0.38367
 Alpha virt. eigenvalues --    0.38617   0.38928   0.39367   0.39617   0.39899
 Alpha virt. eigenvalues --    0.40243   0.40484   0.40627   0.41052   0.41218
 Alpha virt. eigenvalues --    0.41444   0.41623   0.41764   0.41855   0.42259
 Alpha virt. eigenvalues --    0.42523   0.42594   0.42817   0.42963   0.43427
 Alpha virt. eigenvalues --    0.43516   0.43732   0.43915   0.44031   0.44140
 Alpha virt. eigenvalues --    0.44348   0.44755   0.44871   0.45147   0.45226
 Alpha virt. eigenvalues --    0.45436   0.45575   0.45682   0.46001   0.46149
 Alpha virt. eigenvalues --    0.46419   0.46556   0.46811   0.46996   0.47352
 Alpha virt. eigenvalues --    0.47377   0.47598   0.47930   0.48014   0.48275
 Alpha virt. eigenvalues --    0.48565   0.48660   0.48947   0.49274   0.49449
 Alpha virt. eigenvalues --    0.49659   0.49679   0.49975   0.50162   0.50500
 Alpha virt. eigenvalues --    0.50675   0.51153   0.51283   0.51387   0.51567
 Alpha virt. eigenvalues --    0.51684   0.51894   0.52176   0.52314   0.52634
 Alpha virt. eigenvalues --    0.52679   0.52760   0.53180   0.53320   0.53560
 Alpha virt. eigenvalues --    0.53826   0.53903   0.54270   0.54470   0.54560
 Alpha virt. eigenvalues --    0.54653   0.54977   0.55180   0.55220   0.55378
 Alpha virt. eigenvalues --    0.55441   0.55702   0.56026   0.56175   0.56319
 Alpha virt. eigenvalues --    0.56432   0.56633   0.56804   0.56912   0.57132
 Alpha virt. eigenvalues --    0.57247   0.57405   0.57708   0.57795   0.57998
 Alpha virt. eigenvalues --    0.58162   0.58220   0.58499   0.58704   0.58831
 Alpha virt. eigenvalues --    0.59026   0.59249   0.59376   0.59494   0.59583
 Alpha virt. eigenvalues --    0.59694   0.59894   0.60035   0.60277   0.60308
 Alpha virt. eigenvalues --    0.60523   0.60631   0.60778   0.60980   0.61111
 Alpha virt. eigenvalues --    0.61240   0.61332   0.61637   0.61812   0.61853
 Alpha virt. eigenvalues --    0.62037   0.62093   0.62253   0.62395   0.62522
 Alpha virt. eigenvalues --    0.62793   0.62823   0.62959   0.63087   0.63182
 Alpha virt. eigenvalues --    0.63416   0.63476   0.63507   0.63629   0.63731
 Alpha virt. eigenvalues --    0.63869   0.63918   0.64057   0.64284   0.64322
 Alpha virt. eigenvalues --    0.64440   0.64574   0.64701   0.64784   0.64906
 Alpha virt. eigenvalues --    0.65223   0.65407   0.65475   0.65582   0.65681
 Alpha virt. eigenvalues --    0.65796   0.65970   0.66068   0.66220   0.66295
 Alpha virt. eigenvalues --    0.66458   0.66590   0.66649   0.66819   0.66865
 Alpha virt. eigenvalues --    0.67099   0.67149   0.67244   0.67464   0.67539
 Alpha virt. eigenvalues --    0.67587   0.67662   0.67803   0.67910   0.68133
 Alpha virt. eigenvalues --    0.68245   0.68291   0.68433   0.68618   0.68867
 Alpha virt. eigenvalues --    0.68911   0.68990   0.69076   0.69298   0.69402
 Alpha virt. eigenvalues --    0.69530   0.69600   0.69660   0.69973   0.69996
 Alpha virt. eigenvalues --    0.70153   0.70181   0.70354   0.70376   0.70512
 Alpha virt. eigenvalues --    0.70822   0.70938   0.70977   0.71062   0.71158
 Alpha virt. eigenvalues --    0.71317   0.71409   0.71525   0.71648   0.71756
 Alpha virt. eigenvalues --    0.71915   0.72193   0.72354   0.72450   0.72595
 Alpha virt. eigenvalues --    0.72780   0.72974   0.73056   0.73198   0.73397
 Alpha virt. eigenvalues --    0.73558   0.73842   0.74093   0.74307   0.74461
 Alpha virt. eigenvalues --    0.74510   0.74923   0.75181   0.75381   0.75541
 Alpha virt. eigenvalues --    0.75664   0.75673   0.75811   0.76216   0.76287
 Alpha virt. eigenvalues --    0.76638   0.76692   0.76950   0.77207   0.77260
 Alpha virt. eigenvalues --    0.77533   0.77598   0.78233   0.78485   0.78866
 Alpha virt. eigenvalues --    0.78931   0.79158   0.79268   0.79293   0.79518
 Alpha virt. eigenvalues --    0.80086   0.80217   0.80427   0.80596   0.81064
 Alpha virt. eigenvalues --    0.81235   0.81726   0.81917   0.82208   0.82341
 Alpha virt. eigenvalues --    0.82582   0.82658   0.83102   0.83351   0.83621
 Alpha virt. eigenvalues --    0.84019   0.84060   0.84149   0.84496   0.84955
 Alpha virt. eigenvalues --    0.85210   0.85621   0.85813   0.86023   0.86236
 Alpha virt. eigenvalues --    0.86528   0.86685   0.86717   0.87740   0.88052
 Alpha virt. eigenvalues --    0.88337   0.88615   0.88951   0.89057   0.89350
 Alpha virt. eigenvalues --    0.89818   0.89888   0.90300   0.90373   0.90916
 Alpha virt. eigenvalues --    0.91071   0.91482   0.91607   0.91879   0.92170
 Alpha virt. eigenvalues --    0.92406   0.92655   0.92742   0.92819   0.93401
 Alpha virt. eigenvalues --    0.93972   0.94314   0.94400   0.94604   0.95045
 Alpha virt. eigenvalues --    0.95209   0.95470   0.95701   0.96155   0.96328
 Alpha virt. eigenvalues --    0.96703   0.96991   0.97278   0.97405   0.97785
 Alpha virt. eigenvalues --    0.98221   0.98669   0.98699   0.98945   0.99333
 Alpha virt. eigenvalues --    0.99513   0.99983   1.00407   1.00538   1.00794
 Alpha virt. eigenvalues --    1.01013   1.01212   1.01599   1.01893   1.02543
 Alpha virt. eigenvalues --    1.02656   1.02856   1.02924   1.03135   1.03397
 Alpha virt. eigenvalues --    1.03847   1.04353   1.04538   1.04988   1.05290
 Alpha virt. eigenvalues --    1.05459   1.05646   1.06077   1.06180   1.06290
 Alpha virt. eigenvalues --    1.06718   1.07216   1.07456   1.07739   1.07810
 Alpha virt. eigenvalues --    1.08459   1.08632   1.08730   1.08812   1.08970
 Alpha virt. eigenvalues --    1.09286   1.09942   1.10059   1.10364   1.10595
 Alpha virt. eigenvalues --    1.10847   1.10875   1.11055   1.11403   1.11663
 Alpha virt. eigenvalues --    1.12118   1.12239   1.12597   1.12866   1.13185
 Alpha virt. eigenvalues --    1.13503   1.13881   1.14051   1.14960   1.15008
 Alpha virt. eigenvalues --    1.15193   1.15542   1.15655   1.15844   1.16362
 Alpha virt. eigenvalues --    1.16540   1.16969   1.17159   1.17435   1.18033
 Alpha virt. eigenvalues --    1.18387   1.18516   1.18690   1.18737   1.18954
 Alpha virt. eigenvalues --    1.19283   1.19591   1.19805   1.20176   1.20367
 Alpha virt. eigenvalues --    1.20802   1.20949   1.21130   1.21455   1.21566
 Alpha virt. eigenvalues --    1.21736   1.22086   1.22311   1.22796   1.22899
 Alpha virt. eigenvalues --    1.23249   1.23500   1.23564   1.23967   1.24256
 Alpha virt. eigenvalues --    1.24477   1.24554   1.24957   1.25094   1.25559
 Alpha virt. eigenvalues --    1.25746   1.26043   1.26164   1.26471   1.26715
 Alpha virt. eigenvalues --    1.27065   1.27448   1.27581   1.28012   1.28165
 Alpha virt. eigenvalues --    1.28502   1.28543   1.28695   1.28924   1.29212
 Alpha virt. eigenvalues --    1.29527   1.29647   1.30207   1.30456   1.30641
 Alpha virt. eigenvalues --    1.31089   1.31399   1.31545   1.31807   1.31906
 Alpha virt. eigenvalues --    1.32195   1.32310   1.32599   1.32946   1.33069
 Alpha virt. eigenvalues --    1.33604   1.33631   1.33813   1.34235   1.34366
 Alpha virt. eigenvalues --    1.34532   1.34756   1.35080   1.35259   1.35628
 Alpha virt. eigenvalues --    1.35970   1.36273   1.36443   1.37140   1.37567
 Alpha virt. eigenvalues --    1.38163   1.38340   1.38486   1.38640   1.38776
 Alpha virt. eigenvalues --    1.39066   1.39261   1.39751   1.39803   1.40363
 Alpha virt. eigenvalues --    1.40557   1.40975   1.41236   1.41579   1.41727
 Alpha virt. eigenvalues --    1.41910   1.41986   1.42212   1.42858   1.43354
 Alpha virt. eigenvalues --    1.43424   1.43729   1.43892   1.44253   1.44466
 Alpha virt. eigenvalues --    1.44890   1.45092   1.45352   1.45416   1.45934
 Alpha virt. eigenvalues --    1.46313   1.46449   1.46541   1.47266   1.47475
 Alpha virt. eigenvalues --    1.47557   1.47727   1.48237   1.48469   1.48786
 Alpha virt. eigenvalues --    1.49261   1.49712   1.50070   1.50509   1.50937
 Alpha virt. eigenvalues --    1.51094   1.51339   1.51454   1.51565   1.52132
 Alpha virt. eigenvalues --    1.52309   1.52361   1.52752   1.53081   1.53315
 Alpha virt. eigenvalues --    1.53340   1.53694   1.53836   1.54230   1.54468
 Alpha virt. eigenvalues --    1.54980   1.55357   1.55491   1.55693   1.56279
 Alpha virt. eigenvalues --    1.56422   1.56754   1.57006   1.57195   1.57553
 Alpha virt. eigenvalues --    1.57798   1.58056   1.58728   1.58944   1.59140
 Alpha virt. eigenvalues --    1.59500   1.59827   1.60108   1.60249   1.60665
 Alpha virt. eigenvalues --    1.60860   1.61314   1.61553   1.61619   1.61822
 Alpha virt. eigenvalues --    1.62400   1.62773   1.63002   1.63259   1.63555
 Alpha virt. eigenvalues --    1.63685   1.64121   1.64273   1.64401   1.64879
 Alpha virt. eigenvalues --    1.65091   1.65632   1.66303   1.66868   1.67007
 Alpha virt. eigenvalues --    1.67406   1.67647   1.68282   1.68475   1.68758
 Alpha virt. eigenvalues --    1.69285   1.69547   1.69702   1.69897   1.69925
 Alpha virt. eigenvalues --    1.70342   1.70448   1.70610   1.71052   1.71225
 Alpha virt. eigenvalues --    1.71788   1.71828   1.71927   1.72199   1.72368
 Alpha virt. eigenvalues --    1.72486   1.72801   1.73167   1.73320   1.73366
 Alpha virt. eigenvalues --    1.73671   1.73832   1.74085   1.74498   1.74726
 Alpha virt. eigenvalues --    1.74894   1.75103   1.75271   1.75545   1.75908
 Alpha virt. eigenvalues --    1.76099   1.76282   1.76311   1.76600   1.76700
 Alpha virt. eigenvalues --    1.76733   1.77064   1.77141   1.77791   1.77857
 Alpha virt. eigenvalues --    1.77897   1.78111   1.78268   1.78392   1.78530
 Alpha virt. eigenvalues --    1.78615   1.79020   1.79144   1.79311   1.79414
 Alpha virt. eigenvalues --    1.79667   1.79822   1.79906   1.80091   1.80193
 Alpha virt. eigenvalues --    1.80321   1.80595   1.80659   1.80797   1.80903
 Alpha virt. eigenvalues --    1.80934   1.81133   1.81184   1.81321   1.81481
 Alpha virt. eigenvalues --    1.81680   1.82097   1.82170   1.82331   1.82505
 Alpha virt. eigenvalues --    1.82705   1.82888   1.82952   1.83153   1.83448
 Alpha virt. eigenvalues --    1.83654   1.83759   1.83922   1.84215   1.84445
 Alpha virt. eigenvalues --    1.84585   1.84725   1.84936   1.84991   1.85109
 Alpha virt. eigenvalues --    1.85411   1.85489   1.85592   1.85790   1.86286
 Alpha virt. eigenvalues --    1.86461   1.86701   1.86843   1.87049   1.87175
 Alpha virt. eigenvalues --    1.87355   1.87647   1.88083   1.88178   1.88362
 Alpha virt. eigenvalues --    1.88536   1.88572   1.88694   1.88811   1.89232
 Alpha virt. eigenvalues --    1.89373   1.89742   1.89875   1.89990   1.90149
 Alpha virt. eigenvalues --    1.90546   1.90638   1.90955   1.91167   1.91342
 Alpha virt. eigenvalues --    1.91672   1.91733   1.91972   1.92258   1.92324
 Alpha virt. eigenvalues --    1.92459   1.92646   1.92913   1.92994   1.93338
 Alpha virt. eigenvalues --    1.93444   1.93881   1.94118   1.94169   1.94359
 Alpha virt. eigenvalues --    1.94466   1.94709   1.95132   1.95346   1.95438
 Alpha virt. eigenvalues --    1.95829   1.95967   1.96564   1.96700   1.96910
 Alpha virt. eigenvalues --    1.97162   1.97269   1.97533   1.97785   1.97871
 Alpha virt. eigenvalues --    1.98066   1.98174   1.98432   1.98807   1.98903
 Alpha virt. eigenvalues --    1.99146   1.99450   1.99499   1.99743   2.00205
 Alpha virt. eigenvalues --    2.00352   2.00438   2.00579   2.00888   2.01167
 Alpha virt. eigenvalues --    2.01347   2.01453   2.01717   2.02120   2.02176
 Alpha virt. eigenvalues --    2.02378   2.02557   2.02780   2.03049   2.03300
 Alpha virt. eigenvalues --    2.03512   2.04046   2.04212   2.04293   2.04493
 Alpha virt. eigenvalues --    2.04625   2.05046   2.05263   2.05413   2.06015
 Alpha virt. eigenvalues --    2.06065   2.06377   2.06715   2.07142   2.07552
 Alpha virt. eigenvalues --    2.07843   2.07921   2.08092   2.08483   2.08757
 Alpha virt. eigenvalues --    2.08895   2.09082   2.09292   2.09851   2.10131
 Alpha virt. eigenvalues --    2.10201   2.10594   2.10625   2.10994   2.11122
 Alpha virt. eigenvalues --    2.11238   2.11590   2.11610   2.12688   2.12785
 Alpha virt. eigenvalues --    2.13101   2.13499   2.13929   2.14186   2.14274
 Alpha virt. eigenvalues --    2.14492   2.14674   2.14794   2.15234   2.15500
 Alpha virt. eigenvalues --    2.16222   2.16544   2.16737   2.17216   2.17516
 Alpha virt. eigenvalues --    2.17833   2.17994   2.18459   2.18877   2.19047
 Alpha virt. eigenvalues --    2.19328   2.19673   2.20079   2.20148   2.20721
 Alpha virt. eigenvalues --    2.20992   2.21273   2.21424   2.21790   2.21866
 Alpha virt. eigenvalues --    2.22088   2.22278   2.22444   2.22695   2.22994
 Alpha virt. eigenvalues --    2.23353   2.23655   2.23860   2.24445   2.24848
 Alpha virt. eigenvalues --    2.25262   2.25413   2.25742   2.26023   2.26403
 Alpha virt. eigenvalues --    2.26720   2.27201   2.27979   2.28224   2.28394
 Alpha virt. eigenvalues --    2.28546   2.28696   2.28934   2.29300   2.29903
 Alpha virt. eigenvalues --    2.30248   2.30435   2.31094   2.31307   2.31675
 Alpha virt. eigenvalues --    2.31991   2.32365   2.32713   2.32800   2.32841
 Alpha virt. eigenvalues --    2.33561   2.33829   2.34157   2.34460   2.34852
 Alpha virt. eigenvalues --    2.34930   2.35193   2.35315   2.36107   2.36276
 Alpha virt. eigenvalues --    2.36554   2.36809   2.37158   2.37732   2.37789
 Alpha virt. eigenvalues --    2.37902   2.38140   2.38504   2.38875   2.39150
 Alpha virt. eigenvalues --    2.39663   2.39903   2.40144   2.40360   2.40665
 Alpha virt. eigenvalues --    2.41117   2.41224   2.41744   2.41903   2.42262
 Alpha virt. eigenvalues --    2.42306   2.42482   2.42562   2.42942   2.43694
 Alpha virt. eigenvalues --    2.43872   2.43973   2.44343   2.44593   2.44873
 Alpha virt. eigenvalues --    2.45625   2.45923   2.46510   2.46807   2.47198
 Alpha virt. eigenvalues --    2.47873   2.48086   2.48224   2.48406   2.48832
 Alpha virt. eigenvalues --    2.48970   2.49083   2.49485   2.49917   2.50060
 Alpha virt. eigenvalues --    2.50233   2.50723   2.50971   2.51484   2.51853
 Alpha virt. eigenvalues --    2.51999   2.52495   2.52904   2.53152   2.53577
 Alpha virt. eigenvalues --    2.53741   2.54207   2.54477   2.54623   2.54721
 Alpha virt. eigenvalues --    2.55392   2.55574   2.56006   2.56377   2.56829
 Alpha virt. eigenvalues --    2.57016   2.57174   2.57697   2.58039   2.58396
 Alpha virt. eigenvalues --    2.58535   2.58694   2.59041   2.59851   2.60354
 Alpha virt. eigenvalues --    2.60425   2.60619   2.60961   2.61306   2.61873
 Alpha virt. eigenvalues --    2.62212   2.62322   2.62720   2.62809   2.63201
 Alpha virt. eigenvalues --    2.63481   2.64292   2.64496   2.65299   2.65469
 Alpha virt. eigenvalues --    2.65750   2.66231   2.66543   2.66620   2.67065
 Alpha virt. eigenvalues --    2.67606   2.67943   2.68001   2.68438   2.68821
 Alpha virt. eigenvalues --    2.69020   2.69206   2.69551   2.69764   2.70194
 Alpha virt. eigenvalues --    2.70631   2.70877   2.70998   2.71219   2.71430
 Alpha virt. eigenvalues --    2.71666   2.72222   2.72317   2.72703   2.72746
 Alpha virt. eigenvalues --    2.73140   2.73294   2.73523   2.73635   2.73975
 Alpha virt. eigenvalues --    2.74252   2.74448   2.74868   2.75329   2.75380
 Alpha virt. eigenvalues --    2.75462   2.75918   2.76041   2.76253   2.76521
 Alpha virt. eigenvalues --    2.76720   2.76840   2.77409   2.77646   2.78074
 Alpha virt. eigenvalues --    2.78244   2.78500   2.78635   2.79212   2.79513
 Alpha virt. eigenvalues --    2.79631   2.79999   2.80049   2.80446   2.80768
 Alpha virt. eigenvalues --    2.81089   2.81246   2.81357   2.81764   2.82215
 Alpha virt. eigenvalues --    2.82431   2.82655   2.82786   2.82951   2.83254
 Alpha virt. eigenvalues --    2.83582   2.83827   2.84100   2.84309   2.84840
 Alpha virt. eigenvalues --    2.84959   2.85307   2.85345   2.85554   2.86529
 Alpha virt. eigenvalues --    2.86697   2.86814   2.87000   2.87129   2.87259
 Alpha virt. eigenvalues --    2.87406   2.88201   2.88382   2.88577   2.89093
 Alpha virt. eigenvalues --    2.89579   2.90112   2.90289   2.90691   2.90819
 Alpha virt. eigenvalues --    2.91080   2.91445   2.91620   2.91964   2.92388
 Alpha virt. eigenvalues --    2.92824   2.92887   2.93035   2.93200   2.93976
 Alpha virt. eigenvalues --    2.94319   2.94447   2.94984   2.95282   2.95559
 Alpha virt. eigenvalues --    2.95709   2.95902   2.96273   2.96415   2.96680
 Alpha virt. eigenvalues --    2.97194   2.97278   2.97465   2.97492   2.97644
 Alpha virt. eigenvalues --    2.98113   2.98621   2.99180   2.99402   2.99830
 Alpha virt. eigenvalues --    3.00094   3.00306   3.00775   3.01063   3.01237
 Alpha virt. eigenvalues --    3.01569   3.01736   3.01944   3.02376   3.02525
 Alpha virt. eigenvalues --    3.03068   3.03399   3.03546   3.03642   3.04269
 Alpha virt. eigenvalues --    3.04364   3.05553   3.06223   3.06644   3.06820
 Alpha virt. eigenvalues --    3.07371   3.07961   3.07982   3.08686   3.09327
 Alpha virt. eigenvalues --    3.09997   3.10116   3.10666   3.11554   3.11857
 Alpha virt. eigenvalues --    3.12067   3.12772   3.13051   3.13966   3.14410
 Alpha virt. eigenvalues --    3.14479   3.14543   3.14984   3.16005   3.16272
 Alpha virt. eigenvalues --    3.17024   3.17239   3.17455   3.17737   3.18000
 Alpha virt. eigenvalues --    3.18266   3.18382   3.18974   3.20110   3.20302
 Alpha virt. eigenvalues --    3.20441   3.20743   3.21247   3.21619   3.21925
 Alpha virt. eigenvalues --    3.22092   3.22340   3.22571   3.22698   3.22748
 Alpha virt. eigenvalues --    3.24056   3.24137   3.24924   3.25530   3.26020
 Alpha virt. eigenvalues --    3.26162   3.26844   3.27100   3.27643   3.28480
 Alpha virt. eigenvalues --    3.29468   3.30824   3.31142   3.31621   3.32328
 Alpha virt. eigenvalues --    3.32716   3.33042   3.33772   3.34011   3.34575
 Alpha virt. eigenvalues --    3.34628   3.34830   3.37038   3.39889   3.41029
 Alpha virt. eigenvalues --    3.41650   3.43292   3.48937   3.49548   3.52275
 Alpha virt. eigenvalues --    3.53105   3.53556   3.54964   3.55274   3.56135
 Alpha virt. eigenvalues --    3.56920   3.58280   3.59292   3.59922   3.60044
 Alpha virt. eigenvalues --    3.62000   3.62319   3.62699   3.63323   3.64022
 Alpha virt. eigenvalues --    3.65131   3.66081   3.66795   3.67341   3.68145
 Alpha virt. eigenvalues --    3.69226   3.69421   3.69986   3.70489   3.70848
 Alpha virt. eigenvalues --    3.71435   3.71612   3.72009   3.72525   3.72939
 Alpha virt. eigenvalues --    3.73513   3.74134   3.74176   3.74878   3.76033
 Alpha virt. eigenvalues --    3.77162   3.79568   3.81656   3.88708
          Condensed to atoms (all electrons):
 Mulliken charges:
               1
     1  C    0.065371
     2  C    0.047054
     3  O   -0.285867
     4  H   -0.011145
     5  H    0.033866
     6  H    0.041124
     7  N   -0.098161
     8  C    0.059640
     9  C    0.063266
    10  O   -0.275754
    11  C    0.070732
    12  C    0.148190
    13  O   -0.398632
    14  O   -0.469019
    15  H    0.128345
    16  H    0.001972
    17  H    0.020183
    18  H    0.014517
    19  N   -0.128500
    20  C    0.139808
    21  C    0.045469
    22  O   -0.315590
    23  C    0.054100
    24  C   -0.033755
    25  C   -0.011740
    26  C   -0.009036
    27  N    0.093863
    28  H    0.142171
    29  H    0.002914
    30  H    0.046118
    31  H    0.031268
    32  H   -0.002830
    33  H    0.033756
    34  H    0.032531
    35  H    0.043873
    36  H    0.068988
    37  H    0.082348
    38  H    0.199305
    39  H    0.185276
    40  H    0.189347
    41  N   -0.144481
    42  C    0.153932
    43  C    0.049254
    44  O   -0.294371
    45  C    0.076818
    46  C    0.110643
    47  O   -0.375077
    48  O   -0.477731
    49  H    0.154195
    50  H    0.010148
    51  H   -0.029647
    52  H    0.015490
    53  N   -0.156900
    54  C    0.212639
    55  C    0.035126
    56  O   -0.297427
    57  H    0.150628
    58  H    0.007347
    59  H    0.028829
    60  N   -0.167468
    61  C    0.139623
    62  C    0.027578
    63  O   -0.310524
    64  C    0.149416
    65  C    0.046522
    66  N   -0.013471
    67  O   -0.377301
    68  H    0.158788
    69  H    0.028387
    70  H    0.081949
    71  H   -0.007778
    72  H    0.128589
    73  H    0.125902
    74  N   -0.166760
    75  C    0.247241
    76  C   -0.002581
    77  O   -0.304969
    78  H    0.171365
    79  H    0.034385
    80  H    0.030709
    81  N   -0.123358
    82  C    0.131684
    83  C    0.130937
    84  O   -0.352951
    85  C    0.126379
    86  C    0.024533
    87  C   -0.019500
    88  C   -0.022793
    89  C   -0.000297
    90  C   -0.035335
    91  C    0.154126
    92  O   -0.211872
    93  H    0.143188
    94  H   -0.008882
    95  H   -0.032955
    96  H   -0.025002
    97  H   -0.047751
    98  H   -0.013886
    99  H   -0.031565
   100  H   -0.034319
   101  H    0.176393
   102  N   -0.114193
   103  C    0.190260
   104  C    0.055722
   105  O   -0.290320
   106  C   -0.191656
   107  C    0.035755
   108  C    0.063180
   109  C    0.060762
   110  H    0.129717
   111  H    0.033811
   112  H   -0.007468
   113  H   -0.011518
   114  H   -0.005910
   115  H    0.010506
   116  H    0.027878
   117  H   -0.000331
   118  H    0.019948
   119  H   -0.004327
   120  H   -0.004741
   121  N   -0.127202
   122  C    0.108708
   123  C    0.110253
   124  O   -0.290036
   125  C    0.255191
   126  O   -0.304531
   127  H    0.136895
   128  H    0.013809
   129  H   -0.024222
   130  H    0.008035
   131  H    0.181927
   132  N   -0.123367
   133  C    0.111008
   134  C    0.018668
   135  O   -0.238310
   136  C    0.023011
   137  H    0.122359
   138  H    0.028594
   139  H    0.036093
   140  H   -0.000133
   141  H    0.042146
   142  N   -0.142643
   143  C    0.112149
   144  C    0.062432
   145  O   -0.296923
   146  C    0.037020
   147  H    0.098558
   148  H    0.027157
   149  H    0.018298
   150  H    0.033972
   151  H    0.014923
   152  N   -0.168641
   153  C    0.136904
   154  C    0.080808
   155  O   -0.280909
   156  C   -0.045336
   157  C    0.148562
   158  C    0.124994
   159  O   -0.388344
   160  O   -0.435583
   161  H    0.146877
   162  H   -0.015717
   163  H    0.033089
   164  H    0.004429
   165  H   -0.056856
   166  H   -0.027747
   167  N   -0.175407
   168  C    0.150865
   169  H    0.023598
   170  H    0.021886
   171  H    0.009736
   172  H    0.123641
   173  Ca   1.271754
   174  O   -0.294705
   175  H    0.176623
   176  H    0.163407
 Sum of Mulliken charges =  -0.00000
 Mulliken charges with hydrogens summed into heavy atoms:
               1
     1  C    0.129216
     2  C    0.047054
     3  O   -0.285867
     7  N    0.030184
     8  C    0.061612
     9  C    0.063266
    10  O   -0.275754
    11  C    0.105432
    12  C    0.148190
    13  O   -0.398632
    14  O   -0.469019
    19  N    0.013671
    20  C    0.142722
    21  C    0.045469
    22  O   -0.315590
    23  C    0.131485
    24  C   -0.002828
    25  C    0.064665
    26  C    0.142300
    27  N    0.667791
    41  N    0.009714
    42  C    0.164080
    43  C    0.049254
    44  O   -0.294371
    45  C    0.062661
    46  C    0.110643
    47  O   -0.375077
    48  O   -0.477731
    53  N   -0.006272
    54  C    0.248815
    55  C    0.035126
    56  O   -0.297427
    60  N   -0.008680
    61  C    0.168010
    62  C    0.027578
    63  O   -0.310524
    64  C    0.223587
    65  C    0.046522
    66  N    0.241020
    67  O   -0.377301
    74  N    0.004605
    75  C    0.312335
    76  C   -0.002581
    77  O   -0.304969
    81  N    0.019830
    82  C    0.122802
    83  C    0.130937
    84  O   -0.352951
    85  C    0.068421
    86  C    0.024533
    87  C   -0.067251
    88  C   -0.036679
    89  C   -0.031862
    90  C   -0.069654
    91  C    0.154126
    92  O   -0.035479
   102  N    0.015524
   103  C    0.224072
   104  C    0.055722
   105  O   -0.290320
   106  C   -0.199125
   107  C    0.018327
   108  C    0.101233
   109  C    0.071641
   121  N    0.009693
   122  C    0.122518
   123  C    0.110253
   124  O   -0.290036
   125  C    0.239004
   126  O   -0.122604
   132  N   -0.001008
   133  C    0.139602
   134  C    0.018668
   135  O   -0.238310
   136  C    0.101117
   142  N   -0.044085
   143  C    0.139306
   144  C    0.062432
   145  O   -0.296923
   146  C    0.104213
   152  N   -0.021764
   153  C    0.121188
   154  C    0.080808
   155  O   -0.280909
   156  C   -0.007818
   157  C    0.063959
   158  C    0.124994
   159  O   -0.388344
   160  O   -0.435583
   167  N   -0.051766
   168  C    0.206085
   173  Ca   1.271754
   174  O    0.045325
 DipInt: DoE/N= T F RetVal/Mat= T F Init=T NMatP=  1 IDeriv=0 Min/MaxMlt=  0  4
 Entering OneElI...
 OneElI was handed  1333951383 working-precision words.
 Multipole integrals L=0 to 4 MinM= 0 MaxM= 0.
 Requested accuracy = 0.1000D-12
 ShPair: Thresh= 1.00D-13 NBox=     0 BxSize= 0.00D+00 RnKept= 2.55D+01
         NSMCal=               327645 NSMKep=              164293
 PrmmSu-InSpLW:  IPartL=    0 NPrtUS=    1 NPrtUL=    1 DoSpLW=F IThBeg=    0 IThEnd=    0 NThAct=    1.
 PrsmSu:  NPrtUS=   1 ThrOK=F IAlg=1 NPAlg=1 LenDen=           0 ISkipM=0 DoSpLW=F IThBeg=    0 IThEnd=    0.
 Prism:   IPart=     0 DynPar=F LinDyn=F Incr=         512.
 PRISM was handed  1323725033 working-precision words and164293 shell-pairs
 IPart=  0 NShTot=      164293 NBatch=         376 AvBLen=       436.9
 PrsmSu-ThDecC:  IPartSL=    0    0 NPrtUSL=    1    1 IThBeg=    0 IThEnd=    0 CPU=   -1 GPU=   -1 NThAct=    1.
 PrSmSu:  NxtVal=            513.
 Electronic moments (au):
       -716.00000000         15.15693052         -1.96413288         -5.89415752
     -52244.26281205     -28751.04338263     -11678.27643708        116.87488150
        -58.69282889          2.21850480     -17196.66240110     -21772.11104982
     -23544.68383920       6511.41594454      82079.74540399      48066.84283949
     -15003.89784249       3428.73715833      21357.16716533       2216.98222438
   -7621846.66162821   -2371450.53170356    -565507.12285880    -406544.13354253
     164136.95860675    -381386.09206689      40172.30849298     -79075.55143405
      46586.46772942   -2255528.70991435    -621448.00817452    -343712.83480875
    -189237.37037377      56898.73769431      41992.09720792
 Electronic spatial extent (au):  <R**2>=          92673.5826
 DipInt: DoE/N= F T RetVal/Mat= T F Init=T NMatP=  1 IDeriv=0 Min/MaxMlt=  0  4
 Nuclear    moments (au):
        716.00000000          0.00000000         -0.00000000         -0.00000000
      51880.85481096      28366.73523354      11295.95136360          0.00000000
         -0.00000000          0.00000000      19308.75957110      22186.07161964
      23521.79437221      -4159.10325353     -80988.60389624     -49259.15736666
      15263.02252255      -3620.78369563     -21861.80516565      -2535.36152043
    7451867.35416737    2275652.39168592     526986.20394129     429733.36486199
    -172959.71861712     397300.39302638     -43062.85623641      78012.30158218
     -44745.75008310    2225248.68153387     588545.23767788     321602.22761064
     185318.53977518     -63633.76083938     -41877.67893761
 Total      moments (au):
          0.00000000         15.15693052         -1.96413288         -5.89415752
       -363.40800109       -384.30814909       -382.32507348        116.87488150
        -58.69282889          2.21850480       2112.09717000        413.96056982
        -22.88946699       2352.31269102       1091.14150774      -1192.31452717
        259.12468006       -192.04653730       -504.63800032       -318.37929605
    -169979.30746084     -95798.14001765     -38520.91891751      23189.23131946
      -8822.76001038      15914.30095949      -2890.54774343      -1063.24985187
       1840.71764632     -30280.02838048     -32902.77049663     -22110.60719810
      -3918.83059859      -6735.02314506        114.41827031
 Traceless Quadrup. (au):
         13.27240680         -7.62774120         -5.64466559        116.87488150
        -58.69282889          2.21850480
 Charge=              0.0000 electrons
 Dipole moment (field-independent basis, Debye):
    X=             38.5251    Y=             -4.9923    Z=            -14.9815  Tot=             41.6359
 Quadrupole moment (field-independent basis, Debye-Ang):
   XX=           -488.7962   YY=           -516.9076   ZZ=           -514.2403
   XY=            157.2007   XZ=            -78.9439   YZ=              2.9840
 Traceless Quadrupole moment (field-independent basis, Debye-Ang):
   XX=             17.8518   YY=            -10.2596   ZZ=             -7.5923
   XY=            157.2007   XZ=            -78.9439   YZ=              2.9840
 Octapole moment (field-independent basis, Debye-Ang**2):
  XXX=           1503.3094  YYY=            294.6412  ZZZ=            -16.2918  XYY=           1674.2855
  XXY=            776.6325  XXZ=           -848.6435  XZZ=            184.4350  YZZ=           -136.6913
  YYZ=           -359.1819  XYZ=           -226.6101
 Hexadecapole moment (field-independent basis, Debye-Ang**3):
 XXXX=         -64022.3580 YYYY=         -36082.1732 ZZZZ=         -14508.8252 XXXY=           8734.1765
 XXXZ=          -3323.0745 YYYX=           5994.0889 YYYZ=          -1088.7189 ZZZX=           -400.4709
 ZZZY=            693.3025 XXYY=         -11404.9107 XXZZ=         -12392.7611 YYZZ=          -8327.9149
 XXYZ=          -1476.0195 YYXZ=          -2536.7327 ZZXY=             43.0954
 N-N= 2.193211666464D+04 E-N=-5.634745587812D+04  KE= 5.290552001973D+03
 Leave Link  601 at Wed Sep 18 16:11:32 2019, MaxMem=  1342177280 cpu:              52.1 elap:               1.3
 FitSet:  NAtFit=   176 NAtPot=   176 NAtFrz=     0 MDM=   180 TotChg=   0.00000
 Merz-Kollman atomic radii used.
 Read replacement radii for each type of atom:
 Rad(20) =   1.700000000000D+00
 Atom Element Radius
    1     6    1.50
    2     6    1.50
    3     8    1.40
    4     1    1.20
    5     1    1.20
    6     1    1.20
    7     7    1.50
    8     6    1.50
    9     6    1.50
   10     8    1.40
   11     6    1.50
   12     6    1.50
   13     8    1.40
   14     8    1.40
   15     1    1.20
   16     1    1.20
   17     1    1.20
   18     1    1.20
   19     7    1.50
   20     6    1.50
   21     6    1.50
   22     8    1.40
   23     6    1.50
   24     6    1.50
   25     6    1.50
   26     6    1.50
   27     7    1.50
   28     1    1.20
   29     1    1.20
   30     1    1.20
   31     1    1.20
   32     1    1.20
   33     1    1.20
   34     1    1.20
   35     1    1.20
   36     1    1.20
   37     1    1.20
   38     1    1.20
   39     1    1.20
   40     1    1.20
   41     7    1.50
   42     6    1.50
   43     6    1.50
   44     8    1.40
   45     6    1.50
   46     6    1.50
   47     8    1.40
   48     8    1.40
   49     1    1.20
   50     1    1.20
   51     1    1.20
   52     1    1.20
   53     7    1.50
   54     6    1.50
   55     6    1.50
   56     8    1.40
   57     1    1.20
   58     1    1.20
   59     1    1.20
   60     7    1.50
   61     6    1.50
   62     6    1.50
   63     8    1.40
   64     6    1.50
   65     6    1.50
   66     7    1.50
   67     8    1.40
   68     1    1.20
   69     1    1.20
   70     1    1.20
   71     1    1.20
   72     1    1.20
   73     1    1.20
   74     7    1.50
   75     6    1.50
   76     6    1.50
   77     8    1.40
   78     1    1.20
   79     1    1.20
   80     1    1.20
   81     7    1.50
   82     6    1.50
   83     6    1.50
   84     8    1.40
   85     6    1.50
   86     6    1.50
   87     6    1.50
   88     6    1.50
   89     6    1.50
   90     6    1.50
   91     6    1.50
   92     8    1.40
   93     1    1.20
   94     1    1.20
   95     1    1.20
   96     1    1.20
   97     1    1.20
   98     1    1.20
   99     1    1.20
  100     1    1.20
  101     1    1.20
  102     7    1.50
  103     6    1.50
  104     6    1.50
  105     8    1.40
  106     6    1.50
  107     6    1.50
  108     6    1.50
  109     6    1.50
  110     1    1.20
  111     1    1.20
  112     1    1.20
  113     1    1.20
  114     1    1.20
  115     1    1.20
  116     1    1.20
  117     1    1.20
  118     1    1.20
  119     1    1.20
  120     1    1.20
  121     7    1.50
  122     6    1.50
  123     6    1.50
  124     8    1.40
  125     6    1.50
  126     8    1.40
  127     1    1.20
  128     1    1.20
  129     1    1.20
  130     1    1.20
  131     1    1.20
  132     7    1.50
  133     6    1.50
  134     6    1.50
  135     8    1.40
  136     6    1.50
  137     1    1.20
  138     1    1.20
  139     1    1.20
  140     1    1.20
  141     1    1.20
  142     7    1.50
  143     6    1.50
  144     6    1.50
  145     8    1.40
  146     6    1.50
  147     1    1.20
  148     1    1.20
  149     1    1.20
  150     1    1.20
  151     1    1.20
  152     7    1.50
  153     6    1.50
  154     6    1.50
  155     8    1.40
  156     6    1.50
  157     6    1.50
  158     6    1.50
  159     8    1.40
  160     8    1.40
  161     1    1.20
  162     1    1.20
  163     1    1.20
  164     1    1.20
  165     1    1.20
  166     1    1.20
  167     7    1.50
  168     6    1.50
  169     1    1.20
  170     1    1.20
  171     1    1.20
  172     1    1.20
[...]
 **** Fit      -0.028532
 **** Fit      -0.029292
 **** Fit      -0.029655
 **** Fit      -0.029901
 **** Fit      -0.030205
 **** Fit      -0.030519
 **** Fit      -0.027156
 **** Fit      -0.027975
 **** Fit      -0.028619
 **** Fit      -0.028848
 **** Fit      -0.028903
 **** Fit      -0.029011
 **** Fit      -0.029331
 **** Fit      -0.029903
 **** Fit      -0.030603
 **** Fit      -0.026729
 **** Fit      -0.027223
 **** Fit      -0.027778
 **** Fit      -0.027861
 **** Fit      -0.027699
 **** Fit      -0.027519
 **** Fit      -0.027522
 **** Fit      -0.027858
 **** Fit      -0.028603
 **** Fit      -0.029742
 **** Fit      -0.031164
 **** Fit      -0.025987
 **** Fit      -0.026358
 **** Fit      -0.026821
 **** Fit      -0.026731
 **** Fit      -0.026323
 **** Fit      -0.025822
 **** Fit      -0.025443
 **** Fit      -0.025376
 **** Fit      -0.025773
 **** Fit      -0.026728
 **** Fit      -0.028279
 **** Fit      -0.030436
 **** Fit      -0.033227
 **** Fit      -0.025499
 **** Fit      -0.025827
 **** Fit      -0.025541
 **** Fit      -0.024872
 **** Fit      -0.024029
 **** Fit      -0.023218
 **** Fit      -0.022639
 **** Fit      -0.022479
 **** Fit      -0.022887
 **** Fit      -0.023966
 **** Fit      -0.025785
 **** Fit      -0.028416
 **** Fit      -0.032020
 **** Fit      -0.024779
 **** Fit      -0.024902
 **** Fit      -0.024361
 **** Fit      -0.023375
 **** Fit      -0.022138
 **** Fit      -0.020850
 **** Fit      -0.019722
 **** Fit      -0.018962
 **** Fit      -0.018762
 **** Fit      -0.019269
 **** Fit      -0.020584
 **** Fit      -0.022779
 **** Fit      -0.025955
 **** Fit      -0.030354
 **** Fit      -0.024333
 **** Fit      -0.024149
 **** Fit      -0.023235
 **** Fit      -0.021793
 **** Fit      -0.020017
 **** Fit      -0.018121
 **** Fit      -0.016348
 **** Fit      -0.014954
 **** Fit      -0.014187
 **** Fit      -0.014245
 **** Fit      -0.015261
 **** Fit      -0.017306
 **** Fit      -0.020445
 **** Fit      -0.024848
 **** Fit      -0.031001
 **** Fit      -0.024302
 **** Fit      -0.023736
 **** Fit      -0.022396
 **** Fit      -0.020442
 **** Fit      -0.018049
 **** Fit      -0.015438
 **** Fit      -0.012874
 **** Fit      -0.010664
 **** Fit      -0.009115
 **** Fit      -0.008487
 **** Fit      -0.008952
 **** Fit      -0.010585
 **** Fit      -0.013391
 **** Fit      -0.017393
 **** Fit      -0.022824
 **** Fit      -0.023893
 **** Fit      -0.024869
 **** Fit      -0.023869
 **** Fit      -0.022013
 **** Fit      -0.019414
 **** Fit      -0.016237
 **** Fit      -0.012720
 **** Fit      -0.009178
 **** Fit      -0.005989
 **** Fit      -0.003544
 **** Fit      -0.002176
 **** Fit      -0.002103
 **** Fit      -0.003409
 **** Fit      -0.006032
 **** Fit      -0.009811
 **** Fit      -0.024923
 **** Fit      -0.026338
 **** Fit      -0.024897
 **** Fit      -0.022428
 **** Fit      -0.019003
 **** Fit      -0.014801
 **** Fit      -0.010115
 **** Fit      -0.005349
 **** Fit      -0.000994
 **** Fit       0.002453
 **** Fit       0.004588
 **** Fit      -0.026772
 **** Fit      -0.029253
 **** Fit      -0.027489
 **** Fit      -0.024397
 **** Fit      -0.020046
 **** Fit      -0.014667
 **** Fit      -0.008641
 **** Fit      -0.002484
 **** Fit       0.003200
 **** Fit       0.007841
 **** Fit      -0.029807
 **** Fit      -0.007277
 **** Fit       0.000702
 **** Fit       0.000482
 **** Fit       0.029303
 **** Fit       0.023090
 **** Fit       0.015526
 **** Fit       0.008733
 **** Fit       0.006904
 **** Fit       0.012128
 **** Fit       0.029487
 **** Fit       0.022924
 **** Fit       0.016606
 **** Fit       0.018426
 **** Fit       0.026941
 **** Fit       0.031722
 **** Fit       0.024207
 **** Fit      -0.007309
 **** Fit       0.003343
 **** Fit       0.013546
 **** Fit       0.007275
 **** Fit      -0.004322
 **** Fit      -0.006021
 **** Fit       0.006676
 **** Fit       0.012149
 **** Fit       0.000467
 **** Fit      -0.034703
 **** Fit      -0.012878
 **** Fit      -0.020616
 **** Fit      -0.030368
 **** Fit      -0.009922
 **** Fit      -0.016715
 **** Fit      -0.025573
 **** Fit      -0.037203
 **** Fit      -0.019405
 **** Fit      -0.028816
 **** Fit      -0.015527
 **** Fit      -0.012065
 **** Fit      -0.013705
 **** Fit      -0.030513
 **** Fit      -0.026755
 **** Fit       0.032788
 **** Fit       0.041844
 **** Fit       0.040941
 **** Fit       0.023846
 **** Fit       0.037628
 **** Fit       0.037117
 **** Fit       0.034037
 **** Fit       0.027458
 **** Fit       0.018065
 **** Fit       0.007514
 **** Fit      -0.001811
 **** Fit       0.033493
 **** Fit       0.032288
 **** Fit       0.028483
 **** Fit       0.021072
 **** Fit       0.011931
 **** Fit       0.005378
 **** Fit       0.028226
 **** Fit       0.024424
 **** Fit       0.016797
 **** Fit       0.021842
 **** Fit      -0.026300
 **** Fit      -0.002316
 **** Fit       0.000150
 **** Fit      -0.000864
 **** Fit      -0.002457
 **** Fit      -0.004210
 **** Fit      -0.006151
 **** Fit       0.001424
 **** Fit       0.000926
 **** Fit       0.000110
 **** Fit      -0.001016
 **** Fit      -0.002473
 **** Fit      -0.004258
 **** Fit      -0.006435
 **** Fit      -0.008873
 **** Fit       0.002394
 **** Fit       0.002429
 **** Fit       0.002239
 **** Fit       0.001777
 **** Fit       0.001057
 **** Fit       0.000115
 **** Fit      -0.001044
 **** Fit      -0.002394
 **** Fit      -0.004035
 **** Fit      -0.006137
 **** Fit      -0.008734
 **** Fit      -0.011708
 **** Fit      -0.014748
 **** Fit       0.002879
 **** Fit       0.003135
 **** Fit       0.003298
 **** Fit       0.003275
 **** Fit       0.003006
 **** Fit       0.002493
 **** Fit       0.001786
 **** Fit       0.000941
 **** Fit      -0.000013
 **** Fit      -0.001097
 **** Fit      -0.016135
 **** Fit      -0.020320
 **** Fit      -0.024068
 **** Fit       0.003333
 **** Fit       0.003688
 **** Fit       0.004039
 **** Fit       0.004276
 **** Fit       0.003988
 **** Fit       0.003421
 **** Fit       0.002657
 **** Fit       0.001785
 **** Fit       0.000872
 **** Fit      -0.000065
 **** Fit      -0.001068
 **** Fit      -0.021932
 **** Fit       0.003790
 **** Fit       0.004144
 **** Fit       0.003511
 **** Fit       0.002525
 **** Fit       0.001544
 **** Fit       0.000623
 **** Fit      -0.000237
 **** Fit       0.004787
 **** Fit       0.002198
 **** Fit       0.001129
 **** Fit       0.000220
 **** Fit       0.001480
 **** Fit       0.000370
 **** Fit       0.000418
 **** Fit      -0.000749
 **** Fit      -0.000975
 **** Fit      -0.002310
 **** Fit      -0.003244
 **** Fit      -0.004747
 **** Fit      -0.006852
 **** Fit      -0.008486
 **** Fit      -0.006042
 **** Fit      -0.003540
 **** Fit      -0.005381
 **** Fit      -0.007813
 **** Fit      -0.010752
 **** Fit      -0.002165
 **** Fit      -0.003234
 **** Fit      -0.004861
 **** Fit      -0.007083
 **** Fit      -0.010028
 **** Fit      -0.013688
 **** Fit      -0.001064
 **** Fit      -0.002029
 **** Fit      -0.003052
 **** Fit      -0.004514
 **** Fit      -0.006558
 **** Fit      -0.009378
 **** Fit      -0.013153
 **** Fit      -0.017971
 **** Fit      -0.023637
 **** Fit      -0.000370
 **** Fit      -0.001147
 **** Fit      -0.001988
 **** Fit      -0.003073
 **** Fit      -0.004350
 **** Fit      -0.006161
 **** Fit      -0.008708
 **** Fit      -0.012231
 **** Fit      -0.017003
 **** Fit      -0.023277
 **** Fit      -0.000812
 **** Fit      -0.001453
 **** Fit      -0.002159
 **** Fit      -0.003380
 **** Fit      -0.004549
 **** Fit      -0.006266
 **** Fit      -0.008752
 **** Fit      -0.012298
 **** Fit      -0.017299
 **** Fit      -0.024276
 **** Fit      -0.000835
 **** Fit      -0.001456
 **** Fit      -0.001987
 **** Fit      -0.002578
 **** Fit      -0.004067
 **** Fit      -0.005100
 **** Fit      -0.006675
 **** Fit      -0.009013
 **** Fit      -0.012415
 **** Fit      -0.017321
 **** Fit      -0.002079
 **** Fit      -0.002559
 **** Fit      -0.002948
 **** Fit      -0.003401
 **** Fit      -0.005249
 **** Fit      -0.006150
 **** Fit      -0.007616
 **** Fit      -0.009869
 **** Fit      -0.013219
 **** Fit      -0.018134
 **** Fit      -0.003941
 **** Fit      -0.004245
 **** Fit      -0.004454
 **** Fit      -0.004736
 **** Fit      -0.007070
 **** Fit      -0.007852
 **** Fit      -0.009300
 **** Fit      -0.011665
 **** Fit      -0.015301
 **** Fit      -0.020766
 **** Fit      -0.006723
 **** Fit      -0.006784
 **** Fit      -0.006722
 **** Fit      -0.006754
 **** Fit      -0.009710
 **** Fit      -0.010318
 **** Fit      -0.011768
 **** Fit      -0.014345
 **** Fit      -0.018448
 **** Fit      -0.011058
 **** Fit      -0.010665
 **** Fit      -0.010115
 **** Fit      -0.009716
 **** Fit      -0.013393
 **** Fit      -0.013676
 **** Fit      -0.015035
 **** Fit      -0.017741
 **** Fit      -0.022154
 **** Fit      -0.015089
 **** Fit      -0.013945
 **** Fit      -0.018356
 **** Fit      -0.018098
 **** Fit      -0.019423
 **** Fit      -0.022557
 **** Fit      -0.023475
 **** Fit      -0.024469
 **** Fit      -0.002406
 **** Fit      -0.002747
 **** Fit      -0.004104
 **** Fit      -0.003725
 **** Fit      -0.002061
 **** Fit      -0.001043
 **** Fit      -0.001340
 **** Fit      -0.003083
 **** Fit      -0.004860
 **** Fit      -0.006236
 **** Fit      -0.006503
 **** Fit      -0.005420
 **** Fit      -0.003513
 **** Fit      -0.001696
 **** Fit      -0.000503
 **** Fit       0.000061
 **** Fit       0.000080
 **** Fit      -0.000434
 **** Fit      -0.001510
 **** Fit      -0.003402
 **** Fit      -0.005347
 **** Fit      -0.007334
 **** Fit      -0.008940
 **** Fit      -0.009667
 **** Fit      -0.009212
 **** Fit      -0.007660
 **** Fit      -0.005412
 **** Fit      -0.003090
 **** Fit      -0.001292
 **** Fit      -0.000119
 **** Fit       0.000597
 **** Fit       0.000971
 **** Fit       0.001065
 **** Fit       0.000889
 **** Fit       0.000397
 **** Fit      -0.000471
 **** Fit      -0.001744
 **** Fit      -0.008271
 **** Fit      -0.010701
 **** Fit      -0.012703
 **** Fit      -0.013783
 **** Fit      -0.013602
 **** Fit      -0.012182
 **** Fit      -0.009826
 **** Fit      -0.001645
 **** Fit      -0.000246
 **** Fit       0.000678
 **** Fit       0.001304
 **** Fit       0.001674
 **** Fit       0.001852
 **** Fit       0.001879
 **** Fit       0.001726
 **** Fit      -0.015581
 **** Fit      -0.018162
 **** Fit      -0.019551
 **** Fit      -0.019362
 **** Fit      -0.017665
 **** Fit      -0.000017
 **** Fit       0.000956
 **** Fit       0.001722
 **** Fit       0.002199
 **** Fit       0.002456
 **** Fit       0.002616
 **** Fit      -0.025902
 **** Fit      -0.025466
 **** Fit       0.002989
 **** Fit       0.003179
 **** Fit       0.004510
 **** Fit       0.004431
 **** Fit       0.004883
 **** Fit       0.005251
 **** Fit       0.005376
 **** Fit       0.005200
 **** Fit       0.004724
 **** Fit       0.004009
 **** Fit       0.005242
 **** Fit       0.005774
 **** Fit       0.006142
 **** Fit       0.006252
 **** Fit       0.006047
 **** Fit       0.005528
 **** Fit       0.004744
 **** Fit       0.003787
 **** Fit       0.005406
 **** Fit       0.006074
 **** Fit       0.006664
 **** Fit       0.007054
 **** Fit       0.007151
 **** Fit       0.006910
 **** Fit       0.006335
 **** Fit       0.005474
 **** Fit       0.004408
 **** Fit       0.003239
 **** Fit       0.006306
 **** Fit       0.007162
 **** Fit       0.007795
 **** Fit       0.008092
 **** Fit       0.007985
 **** Fit       0.007462
 **** Fit       0.006563
 **** Fit       0.005367
 **** Fit       0.003983
 **** Fit       0.002533
 **** Fit       0.006249
 **** Fit       0.007492
 **** Fit       0.008456
 **** Fit       0.009022
 **** Fit       0.009105
 **** Fit       0.008676
 **** Fit       0.007763
 **** Fit       0.006449
 **** Fit       0.004845
 **** Fit       0.003087
 **** Fit       0.001318
 **** Fit       0.007032
 **** Fit       0.008614
 **** Fit       0.009740
 **** Fit       0.010280
 **** Fit       0.010156
 **** Fit       0.009370
 **** Fit       0.007996
 **** Fit       0.006161
 **** Fit       0.004022
 **** Fit       0.001753
 **** Fit      -0.000470
 **** Fit       0.008820
 **** Fit       0.010645
 **** Fit       0.011621
 **** Fit       0.011613
 **** Fit       0.010616
 **** Fit       0.008750
 **** Fit       0.006219
 **** Fit       0.003266
 **** Fit       0.000148
 **** Fit      -0.002872
 **** Fit       0.007086
 **** Fit       0.010565
 **** Fit       0.012668
 **** Fit       0.010279
 **** Fit       0.006765
 **** Fit       0.002543
 **** Fit      -0.001964
 **** Fit      -0.006327
 **** Fit       0.009166
 **** Fit      -0.008170
 **** Fit       0.015382
 **** Fit       0.005467
 **** Fit       0.011102
 **** Fit       0.000619
 **** Fit      -0.010065
 **** Fit       0.001208
 **** Fit       0.008540
 **** Fit       0.006187
 **** Fit      -0.004457
 **** Fit      -0.012964
 **** Fit      -0.002522
 **** Fit       0.001597
 **** Fit      -0.000361
 **** Fit      -0.009623
 **** Fit       0.008199
 **** Fit       0.011353
 **** Fit       0.015446
 **** Fit       0.010569
 **** Fit       0.016464
 **** Fit       0.019786
 **** Fit       0.014365
 **** Fit       0.012894
 **** Fit       0.015489
 **** Fit       0.021302
 **** Fit       0.024939
 **** Fit       0.020351
 **** Fit       0.021395
 **** Fit       0.030038
 **** Fit       0.027855
 **** Fit       0.034617
 **** Fit       0.013344
 **** Fit       0.019553
 **** Fit       0.019141
 **** Fit       0.018162
 **** Fit       0.020210
 **** Fit       0.021973
 **** Fit       0.023022
 **** Fit       0.023442
 **** Fit       0.023269
 **** Fit       0.021172
 **** Fit       0.022683
 **** Fit       0.024412
 **** Fit       0.025903
 **** Fit       0.027024
 **** Fit       0.027747
 **** Fit       0.028145
 **** Fit       0.026067
 **** Fit       0.026026
 **** Fit       0.027026
 **** Fit       0.028406
 **** Fit       0.029834
 **** Fit       0.031197
 **** Fit       0.032436
 **** Fit       0.031042
 **** Fit       0.029817
 **** Fit       0.030108
 **** Fit       0.031238
 **** Fit       0.032800
 **** Fit       0.034662
 **** Fit       0.036890
 **** Fit       0.034749
 **** Fit       0.033004
 **** Fit       0.032749
 **** Fit       0.033614
 **** Fit       0.035251
 **** Fit       0.037559
 **** Fit       0.026477
 **** Fit       0.031175
 **** Fit       0.036079
 **** Fit       0.035288
 **** Fit       0.034628
 **** Fit       0.034997
 **** Fit       0.036440
 **** Fit       0.038867
 **** Fit       0.042387
 **** Fit       0.028462
 **** Fit       0.029420
 **** Fit       0.032484
 **** Fit       0.034581
 **** Fit       0.035289
 **** Fit       0.036236
 **** Fit       0.038289
 **** Fit       0.041399
 **** Fit       0.038978
 **** Fit       0.034369
 **** Fit       0.032674
 **** Fit       0.034578
 **** Fit       0.036594
 **** Fit       0.039065
 **** Fit       0.035999
 -----------------------------------------------------------------
 Leave Link  602 at Wed Sep 18 16:11:34 2019, MaxMem=  1342177280 cpu:             107.8 elap:               2.3

 Test job not archived.
 1\1\GINC-C481-032\SP\RB3LYP\SVP\C54H83Ca1N15O23\JAEBEOMH\18-Sep-2019\0
 \\#b3lyp/svp scf=(tight,noincore) Test #IOP(5/87=12) Density=Current P
 op=(MK,readradii) iop(6/33=2) iop(6/42=6)\\CaMKII_loop3_34.0\\0,1\C,0,
 82.5,55.49,16.74\C,0,82.63,54.27,15.83\O,0,83.68,54.21,15.2\H,0,81.46,
 55.606,17.045\H,0,83.124,55.353,17.623\H,0,82.822,56.381,16.202\N,0,81
 .62,53.4,15.81\C,0,81.76,52.2,15.\C,0,81.63,52.51,13.52\O,0,80.54,52.6
 8,12.98\C,0,80.73,51.18,15.47\C,0,80.78,49.82,14.79\O,0,79.83,49.05,15
 .07\O,0,81.69,49.37,14.05\H,0,80.79,53.37,16.38\H,0,82.72,51.7,15.08\H
 ,0,79.73,51.61,15.44\H,0,80.98,50.94,16.51\N,0,82.77,52.53,12.82\C,0,8
 2.98,52.87,11.43\C,0,82.31,51.87,10.51\O,0,81.84,52.28,9.44\C,0,84.44,
 53.15,11.09\C,0,84.63,53.89,9.77\C,0,86.02,54.5,9.63\C,0,86.07,55.02,8
 .19\N,0,87.24,55.89,8.02\H,0,83.6,52.34,13.36\H,0,82.39,53.78,11.28\H,
 0,84.97,52.2,10.96\H,0,84.72,53.77,11.94\H,0,84.,54.78,9.81\H,0,84.28,
 53.41,8.86\H,0,86.79,53.75,9.74\H,0,86.14,55.35,10.3\H,0,85.13,55.57,8
 .08\H,0,85.96,54.29,7.39\H,0,88.08,55.45,8.39\H,0,87.33,56.2,7.07\H,0,
 87.24,56.75,8.56\N,0,82.23,50.57,10.84\C,0,81.69,49.57,9.95\C,0,80.39,
 49.,10.5\O,0,79.82,48.13,9.86\C,0,82.71,48.51,9.54\C,0,83.42,47.83,10.
 7\O,0,84.5,47.27,10.43\O,0,82.85,47.82,11.82\H,0,82.79,50.31,11.64\H,0
 ,81.38,49.99,8.99\H,0,83.51,48.99,8.98\H,0,82.3,47.8,8.83\N,0,79.92,49
 .39,11.69\C,0,78.68,48.97,12.31\C,0,78.57,47.53,12.81\O,0,77.46,47.,12
 .78\H,0,80.56,49.86,12.31\H,0,77.89,49.22,11.6\H,0,78.49,49.48,13.25\N
 ,0,79.72,46.98,13.21\C,0,79.82,45.57,13.5\C,0,79.56,45.25,14.97\O,0,79
 .58,44.07,15.32\C,0,81.08,44.91,12.95\C,0,82.27,44.94,13.89\N,0,82.94,
 43.84,14.23\O,0,82.73,45.97,14.38\H,0,80.53,47.58,13.14\H,0,78.95,45.1
 2,13.01\H,0,81.36,45.32,11.98\H,0,80.81,43.86,12.87\H,0,82.68,43.03,13
 .68\H,0,83.8,43.95,14.73\N,0,79.44,46.27,15.82\C,0,79.28,46.11,17.25\C
 ,0,80.58,46.28,18.01\O,0,80.61,46.,19.21\H,0,79.27,47.18,15.4\H,0,78.8
 3,45.16,17.56\H,0,78.59,46.88,17.59\N,0,81.64,46.77,17.38\C,0,82.92,47
 .03,18.01\C,0,83.63,48.32,17.62\O,0,83.41,48.83,16.52\C,0,83.84,45.85,
 17.7\C,0,83.45,44.51,18.27\C,0,84.11,43.94,19.37\C,0,82.45,43.72,17.69
 \C,0,83.74,42.72,19.94\C,0,81.98,42.52,18.25\C,0,82.65,42.03,19.39\O,0
 ,82.18,40.89,19.98\H,0,81.45,47.05,16.43\H,0,82.79,47.1,19.09\H,0,84.8
 ,46.05,18.18\H,0,83.89,45.96,16.62\H,0,84.91,44.52,19.8\H,0,81.94,44.0
 3,16.79\H,0,84.25,42.26,20.78\H,0,81.22,41.94,17.76\H,0,81.29,40.69,19
 .68\N,0,84.45,48.94,18.47\C,0,85.35,50.01,18.07\C,0,86.82,49.64,17.94\
 O,0,87.44,49.18,18.9\C,0,85.22,51.05,19.17\C,0,83.81,51.58,19.43\C,0,8
 6.11,52.24,18.81\C,0,83.62,52.17,20.82\H,0,84.4,48.65,19.43\H,0,84.99,
 50.48,17.16\H,0,85.65,50.59,20.06\H,0,83.06,50.8,19.31\H,0,83.63,52.28
 ,18.61\H,0,87.16,52.04,19.02\H,0,85.94,52.4,17.74\H,0,85.94,53.17,19.3
 5\H,0,82.56,52.36,20.97\H,0,83.99,51.49,21.59\H,0,84.29,53.01,20.95\N,
 0,87.42,49.85,16.77\C,0,88.85,49.81,16.55\C,0,89.55,51.15,16.73\O,0,88
 .99,52.25,16.75\C,0,89.17,49.13,15.22\O,0,88.59,47.84,15.22\H,0,86.8,5
 0.12,16.02\H,0,89.3,49.15,17.29\H,0,90.25,49.,15.21\H,0,88.79,49.74,14
 .41\H,0,89.08,47.25,14.66\N,0,90.87,51.13,16.89\C,0,91.6,52.37,17.05\C
 ,0,91.49,53.33,15.87\O,0,91.4,54.54,16.02\C,0,93.07,52.1,17.36\H,0,91.
 42,50.28,16.88\H,0,91.19,52.91,17.9\H,0,93.23,51.56,18.29\H,0,93.61,51
 .56,16.58\H,0,93.7,52.99,17.46\N,0,91.5,52.77,14.66\C,0,91.3,53.46,13.
 4\C,0,89.9,54.06,13.31\O,0,89.62,55.01,12.58\C,0,91.52,52.44,12.29\H,0
 ,91.69,51.78,14.64\H,0,92.,54.29,13.27\H,0,91.32,52.98,11.37\H,0,92.56
 ,52.11,12.34\H,0,90.77,51.65,12.34\N,0,88.92,53.59,14.09\C,0,87.57,54.
 11,14.06\C,0,87.39,55.23,15.07\O,0,86.85,56.28,14.72\C,0,86.57,52.98,1
 4.27\C,0,86.84,51.78,13.36\C,0,85.77,50.73,13.62\O,0,84.96,50.32,12.76
 \O,0,85.59,50.28,14.78\H,0,89.12,53.,14.88\H,0,87.29,54.61,13.13\H,0,8
 5.55,53.34,14.16\H,0,86.57,52.63,15.3\H,0,87.83,51.41,13.62\H,0,86.91,
 52.06,12.31\N,0,88.06,55.09,16.22\C,0,88.14,56.1,17.26\H,0,88.61,56.99
 8,16.858\H,0,87.137,56.342,17.611\H,0,88.734,55.72,18.091\H,0,88.58,54
 .24,16.37\Ca,0,83.96,48.24,14.04\O,0,85.78,47.08,15.54\H,0,85.97,46.18
 ,15.77\H,0,86.63,47.51,15.52\\Version=ES64L-G16RevA.03\State=1-A\HF=-5
 333.5972192\RMSD=3.528e-09\Dipole=14.4348796,6.7112379,-3.8632877\Quad
 rupole=-31.9978538,5.4165146,26.5813392,-10.3212459,-85.3272412,-94.73
 88935\PG=C01 [X(C54H83Ca1N15O23)]\\@


 THERE ONCE WAS A GIRL NAMED IRENE,
 WHO LIVED ON DISTILLED KEROSENE,
      BUT SHE STARTED ABSORBIN'
      A NEW HYDROCARBON,
 AND SINCE THEN HAS NEVER BENZENE.
 Job cpu time:       0 days 10 hours 18 minutes 13.9 seconds.
 Elapsed time:       0 days  0 hours 13 minutes  1.2 seconds.
 File lengths (MBytes):  RWF=   1517 Int=      0 D2E=      0 Chk=    171 Scr=      1
 Normal termination of Gaussian 16 at Wed Sep 18 16:11:37 2019.
