 Entering Gaussian System, Link 0=g09
 Initial command:
 /home/pcieplak/g09/g09/l1.exe "/scratch1/pcieplak/fullloop_13.0/Gau-9252.inp" -scrdir="/scratch1/pcieplak/fullloop_13.0/"
 Entering Link 1 = /home/pcieplak/g09/g09/l1.exe PID=      9253.
  
 Copyright (c) 1988,1990,1992,1993,1995,1998,2003,2009,2013,
            Gaussian, Inc.  All Rights Reserved.
  
 This is part of the Gaussian(R) 09 program.  It is based on
 the Gaussian(R) 03 system (copyright 2003, Gaussian, Inc.),
 the Gaussian(R) 98 system (copyright 1998, Gaussian, Inc.),
 the Gaussian(R) 94 system (copyright 1995, Gaussian, Inc.),
 the Gaussian 92(TM) system (copyright 1992, Gaussian, Inc.),
 the Gaussian 90(TM) system (copyright 1990, Gaussian, Inc.),
 the Gaussian 88(TM) system (copyright 1988, Gaussian, Inc.),
 the Gaussian 86(TM) system (copyright 1986, Carnegie Mellon
 University), and the Gaussian 82(TM) system (copyright 1983,
 Carnegie Mellon University). Gaussian is a federally registered
 trademark of Gaussian, Inc.
  
 This software contains proprietary and confidential information,
 including trade secrets, belonging to Gaussian, Inc.
  
 This software is provided under written license and may be
 used, copied, transmitted, or stored only in accord with that
 written license.
  
 The following legend is applicable only to US Government
 contracts under FAR:
  
                    RESTRICTED RIGHTS LEGEND
  
 Use, reproduction and disclosure by the US Government is
 subject to restrictions as set forth in subparagraphs (a)
 and (c) of the Commercial Computer Software - Restricted
 Rights clause in FAR 52.227-19.
  
 Gaussian, Inc.
 340 Quinnipiac St., Bldg. 40, Wallingford CT 06492
  
  
 ---------------------------------------------------------------
 Warning -- This program may not be used in any manner that
 competes with the business of Gaussian, Inc. or will provide
 assistance to any competitor of Gaussian, Inc.  The licensee
 of this program is prohibited from giving any competitor of
 Gaussian, Inc. access to this program.  By using this program,
 the user acknowledges that Gaussian, Inc. is engaged in the
 business of creating and licensing software in the field of
 computational chemistry and represents and warrants to the
 licensee that it is not a competitor of Gaussian, Inc. and that
 it will not use this program in any manner prohibited above.
 ---------------------------------------------------------------
  

 Cite this work as:
 Gaussian 09, Revision D.01,
 M. J. Frisch, G. W. Trucks, H. B. Schlegel, G. E. Scuseria, 
 M. A. Robb, J. R. Cheeseman, G. Scalmani, V. Barone, B. Mennucci, 
 G. A. Petersson, H. Nakatsuji, M. Caricato, X. Li, H. P. Hratchian, 
 A. F. Izmaylov, J. Bloino, G. Zheng, J. L. Sonnenberg, M. Hada, 
 M. Ehara, K. Toyota, R. Fukuda, J. Hasegawa, M. Ishida, T. Nakajima, 
 Y. Honda, O. Kitao, H. Nakai, T. Vreven, J. A. Montgomery, Jr., 
 J. E. Peralta, F. Ogliaro, M. Bearpark, J. J. Heyd, E. Brothers, 
 K. N. Kudin, V. N. Staroverov, T. Keith, R. Kobayashi, J. Normand, 
 K. Raghavachari, A. Rendell, J. C. Burant, S. S. Iyengar, J. Tomasi, 
 M. Cossi, N. Rega, J. M. Millam, M. Klene, J. E. Knox, J. B. Cross, 
 V. Bakken, C. Adamo, J. Jaramillo, R. Gomperts, R. E. Stratmann, 
 O. Yazyev, A. J. Austin, R. Cammi, C. Pomelli, J. W. Ochterski, 
 R. L. Martin, K. Morokuma, V. G. Zakrzewski, G. A. Voth, 
 P. Salvador, J. J. Dannenberg, S. Dapprich, A. D. Daniels, 
 O. Farkas, J. B. Foresman, J. V. Ortiz, J. Cioslowski, 
 and D. J. Fox, Gaussian, Inc., Wallingford CT, 2013.
 
 ******************************************
 Gaussian 09:  ES64L-G09RevD.01 24-Apr-2013
                16-Sep-2019 
 ******************************************
 %Nproc=12
 Will use up to   12 processors via shared memory.
 %chk=chk1mol
 %mem=32GB
 ----------------------------------------------------------------------
 #maxdisk=50GB #B3LYP/SVP Density=Current scf=(tight) #IOP(5/87=12)Pop=
 (MK,readradii) iop(6/33=2) iop(6/42=6)
 ----------------------------------------------------------------------
 1/30=1,38=1/1;
 2/12=2,17=6,18=5,40=1/2;
 3/5=18,7=101,11=2,16=1,25=1,30=1,74=-5/1,2,3;
 4//1;
 5/5=2,32=2,38=5,87=12/2;
 6/7=2,8=2,9=2,10=2,15=8,20=101,22=-1,28=1,33=2,42=6/1,2;
 99/5=1,9=1/99;
 ------------
 SOL molecule
 ------------
 Symbolic Z-matrix:
 Charge =  0 Multiplicity = 1
 C                     82.11     56.35     15.73 
 C                     82.25     55.14     14.82 
 O                     82.98     55.17     13.83 
 H                     81.072    56.445    16.05 
 H                     82.749    56.224    16.604 
 H                     82.407    57.248    15.189 
 N                     81.55     54.07     15.2 
 C                     81.39     52.87     14.4 
 C                     80.76     53.34     13.09 
 O                     79.64     53.82     12.95 
 C                     80.61     51.8      15.16 
 C                     80.45     50.49     14.4 
 O                     79.4      49.83     14.54 
 O                     81.37     50.07     13.68 
 H                     80.97     54.15     16.03 
 H                     82.42     52.52     14.33 
 H                     79.66     52.17     15.55 
 H                     81.18     51.68     16.08 
 N                     81.51     53.07     12.02 
 C                     81.33     53.64     10.7 
 C                     80.63     52.71     9.72 
 O                     79.99     53.13     8.75 
 C                     82.7      54.12     10.22 
 C                     82.55     55.1      9.06 
 C                     83.84     55.74     8.55 
 C                     84.88     54.83     7.89 
 N                     86.06     55.51     7.34 
 H                     82.34     52.51     12.17 
 H                     80.8      54.57     10.89 
 H                     83.29     53.29     9.84 
 H                     83.29     54.62     10.98 
 H                     81.86     55.84     9.46 
 H                     81.99     54.63     8.25 
 H                     84.45     56.09     9.39 
 H                     83.57     56.53     7.85 
 H                     84.42     54.33     7.03 
 H                     85.23     54.05     8.55 
 H                     86.62     55.92     8.07 
 H                     86.69     54.89     6.84 
 H                     85.86     56.14     6.57 
 N                     80.76     51.4      9.91 
 C                     80.05     50.37     9.18 
 C                     78.92     49.77     10. 
 O                     78.11     49.01     9.46 
 C                     80.92     49.29     8.55 
 C                     81.74     48.47     9.53 
 O                     82.32     47.44     9.11 
 O                     81.95     48.9      10.69 
 H                     81.33     51.13     10.7 
 H                     79.5      50.89     8.4 
 H                     81.66     49.85     7.98 
 H                     80.43     48.58     7.89 
 N                     78.85     50.16     11.27 
 C                     77.73     49.85     12.13 
 C                     77.68     48.42     12.66 
 O                     76.59     47.92     12.9 
 H                     79.6      50.72     11.66 
 H                     76.81     49.89     11.55 
 H                     77.66     50.59     12.93 
 N                     78.81     47.7      12.69 
 C                     78.8      46.27     12.91 
 C                     78.87     45.92     14.39 
 O                     78.64     44.77     14.75 
 C                     79.92     45.74     12.02 
 C                     81.34     45.91     12.55 
 N                     82.13     44.87     12.81 
 O                     81.75     47.01     12.9 
 H                     79.65     48.23     12.57 
 H                     77.9      45.83     12.48 
 H                     79.95     46.27     11.07 
 H                     79.68     44.69     11.82 
 H                     81.7      43.95     12.77 
 H                     83.12     44.95     13.02 
 N                     79.02     46.94     15.24 
 C                     79.04     46.69     16.67 
 C                     80.36     46.89     17.4 
 O                     80.43     46.84     18.63 
 H                     79.15     47.85     14.85 
 H                     78.91     45.65     16.97 
 H                     78.25     47.21     17.23 
 N                     81.46     47.09     16.69 
 C                     82.8      47.28     17.21 
 C                     83.52     48.46     16.58 
 O                     83.63     48.53     15.35 
 C                     83.59     46.01     16.9 
 C                     83.14     44.73     17.56 
 C                     83.68     44.32     18.79 
 C                     82.2      43.92     16.92 
 C                     83.11     43.2      19.42 
 C                     81.75     42.75     17.55 
 C                     82.09     42.41     18.87 
 O                     81.57     41.31     19.49 
 H                     81.43     46.8      15.72 
 H                     82.81     47.5      18.28 
 H                     84.65     46.08     17.13 
 H                     83.42     45.78     15.85 
 H                     84.46     44.88     19.28 
 H                     81.79     44.08     15.93 
 H                     83.47     42.87     20.38 
 H                     80.96     42.21     17.04 
 H                     80.81     40.97     19.01 
 N                     84.04     49.41     17.36 
 C                     84.86     50.52     16.92 
 C                     86.3      50.05     16.74 
 O                     86.91     49.4      17.58 
 C                     84.79     51.76     17.81 
 C                     83.39     52.34     17.99 
 C                     85.7      52.92     17.43 
 C                     83.19     53.14     19.27 
 H                     83.9      49.25     18.34 
 H                     84.4      50.77     15.96 
 H                     85.18     51.45     18.77 
 H                     82.66     51.53     17.95 
 H                     83.12     53.03     17.19 
 H                     85.6      53.36     16.44 
 H                     85.49     53.76     18.1 
 H                     86.71     52.54     17.62 
 H                     83.78     54.06     19.3 
 H                     82.17     53.44     19.52 
 H                     83.49     52.48     20.08 
 N                     86.91     50.54     15.66 
 C                     88.33     50.41     15.38 
 C                     89.12     51.65     15.78 
 O                     88.62     52.76     15.94 
 C                     88.56     50.01     13.93 
 O                     88.19     50.92     12.92 
 H                     86.4      50.88     14.86 
 H                     88.76     49.67     16.06 
 H                     88.02     49.06     13.85 
 H                     89.61     49.71     13.9 
 H                     88.25     50.55     12.04 
 N                     90.45     51.61     15.67 
 C                     91.34     52.73     15.94 
 C                     91.33     53.75     14.81 
 O                     91.31     54.97     14.93 
 C                     92.71     52.17     16.31 
 H                     90.9      50.73     15.47 
 H                     90.93     53.25     16.8 
 H                     92.65     51.49     17.16 
 H                     93.11     51.61     15.46 
 H                     93.35     53.       16.59 
 N                     91.23     53.2      13.59 
 C                     90.9      54.02     12.44 
 C                     89.53     54.68     12.47 
 O                     89.36     55.84     12.1 
 C                     91.23     53.27     11.15 
 H                     91.08     52.2      13.54 
 H                     91.54     54.89     12.39 
 H                     90.92     53.82     10.26 
 H                     92.27     52.96     11.21 
 H                     90.64     52.36     11.08 
 N                     88.47     54.       12.92 
 C                     87.19     54.62     13.19 
 C                     87.28     55.81     14.13 
 O                     86.68     56.86     13.89 
 C                     86.15     53.55     13.53 
 C                     85.55     52.81     12.34 
 C                     84.68     51.61     12.72 
 O                     83.64     51.39     12.07 
 O                     85.12     50.79     13.56 
 H                     88.55     53.01     13.05 
 H                     86.84     55.07     12.25 
 H                     85.27     53.99     14. 
 H                     86.63     52.87     14.24 
 H                     86.32     52.42     11.68 
 H                     84.98     53.56     11.8 
 N                     87.95     55.64     15.28 
 C                     88.16     56.68     16.26 
 H                     88.946    57.351    15.914 
 H                     87.237    57.243    16.397 
 H                     88.457    56.232    17.208 
 H                     88.41     54.76     15.46 
 CA                    83.43     48.93     12.74 
 O                     85.46     47.32     13.28 
 H                     85.65     46.96     12.41 
 H                     85.93     46.75     13.89 
 
 Stoichiometry    C54H83CaN15O23
 Framework group  C1[X(C54H83CaN15O23)]
 Deg. of freedom   522
 Full point group                 C1      NOp   1
 Largest Abelian subgroup         C1      NOp   1
 Largest concise Abelian subgroup C1      NOp   1
                         Standard orientation:                         
 ---------------------------------------------------------------------
 Center     Atomic      Atomic             Coordinates (Angstroms)
 Number     Number       Type             X           Y           Z
 ---------------------------------------------------------------------
      1          6           0        2.664620    1.886703    5.359451
      2          6           0        2.024103    1.987766    3.984197
      3          8           0        2.673606    2.354491    3.005647
      4          1           0        1.958028    2.231559    6.114879
      5          1           0        2.933286    0.849658    5.560525
      6          1           0        3.560189    2.506645    5.389785
      7          7           0        0.740752    1.627139    3.936686
      8          6           0       -0.118072    1.807593    2.781066
      9          6           0       -0.092561    3.307145    2.490219
     10          8           0       -0.538403    4.197035    3.206962
     11          6           0       -1.500577    1.206170    3.021628
     12          6           0       -2.440344    1.311178    1.827849
     13          8           0       -3.660363    1.482623    2.027498
     14          8           0       -1.998930    1.190667    0.673799
     15          1           0        0.292068    1.346594    4.803680
     16          1           0        0.377668    1.175036    2.044578
     17          1           0       -1.961276    1.567104    3.943031
     18          1           0       -1.281855    0.173523    3.289028
     19          7           0        0.371461    3.598303    1.273580
     20          6           0        0.787119    4.911233    0.822866
     21          6           0       -0.247306    5.620450   -0.038689
     22          8           0       -0.301557    6.851546   -0.130114
     23          6           0        2.147075    4.750412    0.142899
     24          6           0        2.851283    6.098910    0.023960
     25          6           0        4.269035    6.068746   -0.544256
     26          6           0        4.448252    5.637251   -2.002678
     27          7           0        5.820176    5.711048   -2.521986
     28          1           0        0.554662    2.819574    0.653080
     29          1           0        1.036293    5.433656    1.743131
     30          1           0        2.031210    4.379452   -0.872169
     31          1           0        2.828931    4.083839    0.659090
     32          1           0        2.831339    6.469965    1.046516
     33          1           0        2.217160    6.799432   -0.521711
     34          1           0        4.851875    5.269887   -0.072747
     35          1           0        4.704660    7.058961   -0.415008
     36          1           0        3.869843    6.310152   -2.645986
     37          1           0        4.080838    4.639062   -2.190095
     38          1           0        6.421496    5.045116   -2.064221
     39          1           0        5.892104    5.495638   -3.511796
     40          1           0        6.202051    6.650230   -2.565672
     41          7           0       -1.087057    4.866931   -0.743053
     42          6           0       -2.225978    5.353875   -1.493816
     43          6           0       -3.536869    5.086278   -0.773220
     44          8           0       -4.580230    5.596382   -1.193330
     45          6           0       -2.289010    4.918455   -2.952115
     46          6           0       -2.386202    3.419538   -3.173480
     47          8           0       -2.643774    3.000498   -4.327500
     48          8           0       -2.067403    2.625281   -2.255808
     49          1           0       -0.958145    3.868688   -0.649293
     50          1           0       -2.167974    6.438048   -1.443776
     51          1           0       -1.310697    5.187648   -3.347765
     52          1           0       -3.057029    5.371059   -3.572676
     53          7           0       -3.456943    4.340171    0.325341
     54          6           0       -4.563548    4.158037    1.237675
     55          6           0       -5.652433    3.195991    0.771740
     56          8           0       -6.800747    3.380445    1.149965
     57          1           0       -2.578529    3.889992    0.557563
     58          1           0       -5.124291    5.087773    1.312227
     59          1           0       -4.187873    3.906935    2.231816
     60          7           0       -5.354109    2.283008   -0.162960
     61          6           0       -6.380043    1.530627   -0.852005
     62          6           0       -6.738663    0.247642   -0.115022
     63          8           0       -7.741711   -0.377403   -0.443980
     64          6           0       -5.854167    1.386179   -2.276781
     65          6           0       -4.786833    0.319088   -2.496588
     66          7           0       -4.978048   -0.719898   -3.307294
     67          8           0       -3.769885    0.300964   -1.813880
     68          1           0       -4.375812    2.152634   -0.326779
     69          1           0       -7.277061    2.138937   -0.969559
     70          1           0       -5.358461    2.297309   -2.606048
     71          1           0       -6.732366    1.224484   -2.911384
     72          1           0       -5.918588   -0.847145   -3.670738
     73          1           0       -4.242927   -1.361199   -3.588238
     74          7           0       -6.017671   -0.039535    0.972681
     75          6           0       -6.336685   -1.217611    1.758916
     76          6           0       -5.341782   -2.368665    1.735589
     77          8           0       -5.463940   -3.341069    2.483791
     78          1           0       -5.249157    0.560497    1.188202
     79          1           0       -7.185559   -1.804689    1.407843
     80          1           0       -6.598433   -1.004603    2.804964
     81          7           0       -4.342582   -2.333332    0.866998
     82          6           0       -3.317026   -3.342793    0.690009
     83          6           0       -1.915125   -2.760974    0.627882
     84          8           0       -1.651260   -1.874501   -0.193361
     85          6           0       -3.604635   -4.053292   -0.631192
     86          6           0       -4.887712   -4.840321   -0.735106
     87          6           0       -4.926487   -6.208322   -0.419397
     88          6           0       -6.046994   -4.208534   -1.189212
     89          6           0       -6.180168   -6.843751   -0.392723
     90          6           0       -7.250241   -4.927557   -1.248377
     91          6           0       -7.392374   -6.228723   -0.738117
     92          8           0       -8.595535   -6.874584   -0.729849
     93          1           0       -4.457412   -1.716503    0.071865
     94          1           0       -3.276214   -4.052615    1.519398
     95          1           0       -2.828996   -4.750273   -0.937789
     96          1           0       -3.768230   -3.278734   -1.377916
     97          1           0       -4.037918   -6.748597   -0.135410
     98          1           0       -6.116500   -3.190969   -1.554629
     99          1           0       -6.261023   -7.883433   -0.123235
    100          1           0       -8.129774   -4.358862   -1.529104
    101          1           0       -9.318046   -6.260841   -0.887632
    102          7           0       -0.972303   -3.218866    1.454152
    103          6           0        0.430749   -2.859817    1.429072
    104          6           0        1.146411   -3.675043    0.356629
    105          8           0        1.033927   -4.889259    0.241621
    106          6           0        1.144054   -2.970190    2.775777
    107          6           0        0.533278   -2.130217    3.893899
    108          6           0        2.639085   -2.682126    2.777174
    109          6           0        0.804873   -2.645405    5.300746
    110          1           0       -1.292183   -3.941041    2.072003
    111          1           0        0.384978   -1.801008    1.159758
    112          1           0        1.098406   -4.017272    3.042867
    113          1           0       -0.543777   -2.054710    3.736257
    114          1           0        0.910517   -1.107149    3.898602
    115          1           0        2.984370   -1.710560    2.429987
    116          1           0        2.999381   -2.721689    3.810238
    117          1           0        3.070786   -3.510084    2.203834
    118          1           0        1.860128   -2.594486    5.582249
    119          1           0        0.261404   -2.172752    6.121808
    120          1           0        0.468679   -3.679158    5.306100
    121          7           0        2.040594   -2.987478   -0.354913
    122          6           0        2.989611   -3.576622   -1.284415
    123          6           0        4.368131   -3.772740   -0.665610
    124          8           0        4.767107   -3.168943    0.326331
    125          6           0        3.036394   -2.784537   -2.582803
    126          8           0        3.519010   -1.461518   -2.540349
    127          1           0        2.004069   -1.984133   -0.442463
    128          1           0        2.704581   -4.614959   -1.472869
    129          1           0        2.001352   -2.836898   -2.938396
    130          1           0        3.576642   -3.436552   -3.273027
    131          1           0        3.402423   -0.991987   -3.365484
    132          7           0        5.296880   -4.403845   -1.387920
    133          6           0        6.677451   -4.605454   -0.972254
    134          6           0        7.505528   -3.335956   -1.113898
    135          8           0        8.326248   -2.908016   -0.309855
    136          6           0        7.219532   -5.830554   -1.702101
    137          1           0        5.026787   -4.856177   -2.247772
    138          1           0        6.652066   -4.814561    0.092513
    139          1           0        6.609373   -6.713893   -1.512577
    140          1           0        7.208889   -5.640265   -2.779030
    141          1           0        8.219844   -6.029169   -1.332198
    142          7           0        7.188077   -2.604498   -2.193293
    143          6           0        7.652118   -1.235658   -2.314715
    144          6           0        7.134986   -0.266579   -1.262641
    145          8           0        7.862101    0.579479   -0.746026
    146          6           0        7.508704   -0.760325   -3.760049
    147          1           0        6.391825   -2.904128   -2.742115
    148          1           0        8.717023   -1.172174   -2.138801
    149          1           0        7.770229    0.292486   -3.877925
    150          1           0        8.024868   -1.478209   -4.392123
    151          1           0        6.464861   -0.777334   -4.062044
    152          7           0        5.859409   -0.328812   -0.865741
    153          6           0        5.351615    0.397999    0.278633
    154          6           0        6.138182    0.145895    1.553606
    155          8           0        6.469021    1.074683    2.293876
    156          6           0        3.831322    0.245134    0.364888
    157          6           0        3.023415    1.137131   -0.570701
    158          6           0        1.528971    0.811510   -0.614397
    159          8           0        0.710046    1.748152   -0.681951
    160          8           0        1.177582   -0.384313   -0.749052
    161          1           0        5.213349   -0.878605   -1.398407
    162          1           0        5.520780    1.467411    0.087996
    163          1           0        3.460079    0.538983    1.347096
    164          1           0        3.620168   -0.816776    0.207846
    165          1           0        3.372501    1.062979   -1.596976
    166          1           0        3.200394    2.148773   -0.218197
    167          7           0        6.367502   -1.130969    1.896140
    168          6           0        7.130511   -1.537958    3.052979
    169          1           0        8.193699   -1.413375    2.848371
    170          1           0        6.851378   -0.922790    3.908152
    171          1           0        6.924215   -2.584741    3.275021
    172          1           0        6.062155   -1.871216    1.281976
    173         20           0       -1.224228    0.337911   -1.584396
    174          8           0       -0.962584   -1.795318   -3.128895
    175          1           0       -0.981033   -1.397134   -4.002799
    176          1           0       -1.093207   -2.731913   -3.282604
 ---------------------------------------------------------------------
 Rotational constants (GHZ):      0.0235690      0.0151227      0.0115615
 Standard basis: SVP (5D, 7F)
 There are  1809 symmetry adapted cartesian basis functions of A   symmetry.
 There are  1717 symmetry adapted basis functions of A   symmetry.
  1717 basis functions,  2922 primitive gaussians,  1809 cartesian basis functions
   358 alpha electrons      358 beta electrons
       nuclear repulsion energy     21699.2138804294 Hartrees.
 NAtoms=  176 NActive=  176 NUniq=  176 SFac= 1.00D+00 NAtFMM=   60 NAOKFM=T Big=T
 Integral buffers will be    131072 words long.
 Raffenetti 2 integral format.
 Two-electron integral symmetry is turned on.
 One-electron integrals computed using PRISM.
 NBasis=  1717 RedAO= T EigKep=  2.83D-04  NBF=  1717
 NBsUse=  1717 1.00D-06 EigRej= -1.00D+00 NBFU=  1717
 ExpMin= 1.98D-02 ExpMax= 3.51D+04 ExpMxC= 5.28D+03 IAcc=3 IRadAn=         5 AccDes= 0.00D+00
 Harris functional with IExCor=  402 and IRadAn=       5 diagonalized for initial guess.
 HarFok:  IExCor=  402 AccDes= 0.00D+00 IRadAn=         5 IDoV= 1 UseB2=F ITyADJ=14
 ICtDFT=  3500011 ScaDFX=  1.000000  1.000000  1.000000  1.000000
 FoFCou: FMM=F IPFlag=           0 FMFlag=      100000 FMFlg1=        2001
         NFxFlg=           0 DoJE=T BraDBF=F KetDBF=T FulRan=T
         wScrn=  0.000000 ICntrl=     500 IOpCl=  0 I1Cent=   200000004 NGrid=           0
         NMat0=    1 NMatS0=      1 NMatT0=    0 NMatD0=    1 NMtDS0=    0 NMtDT0=    0
 Petite list used in FoFCou.
 Requested convergence on RMS density matrix=1.00D-08 within 128 cycles.
 Requested convergence on MAX density matrix=1.00D-06.
 Requested convergence on             energy=1.00D-06.
 No special actions if energy rises.
 EnCoef did     4 forward-backward iterations
 EnCoef did     6 forward-backward iterations
 SCF Done:  E(RB3LYP) =  -5333.58216352     A.U. after   20 cycles
            NFock= 20  Conv=0.54D-08     -V/T= 2.0082

 **********************************************************************

            Population analysis using the SCF density.

 **********************************************************************

 Orbital symmetries:
 BldTbl:  Degeneracy threshold= 1.00D-02
       Occupied  (A) (A) (A) (A) (A) (A) (A) (A) (A) (A) (A) (A)
                 (A) (A) (A) (A) (A) (A) (A) (A) (A) (A) (A) (A)
                 (A) (A) (A) (A) (A) (A) (A) (A) (A) (A) (A) (A)
                 (A) (A) (A) (A) (A) (A) (A) (A) (A) (A) (A) (A)
                 (A) (A) (A) (A) (A) (A) (A) (A) (A) (A) (A) (A)
                 (A) (A) (A) (A) (A) (A) (A) (A) (A) (A) (A) (A)
                 (A) (A) (A) (A) (A) (A) (A) (A) (A) (A) (A) (A)
                 (A) (A) (A) (A) (A) (A) (A) (A) (A) (A) (A) (A)
                 (A) (A) (A) (A) (A) (A) (A) (A) (A) (A) (A) (A)
                 (A) (A) (A) (A) (A) (A) (A) (A) (A) (A) (A) (A)
                 (A) (A) (A) (A) (A) (A) (A) (A) (A) (A) (A) (A)
                 (A) (A) (A) (A) (A) (A) (A) (A) (A) (A) (A) (A)
                 (A) (A) (A) (A) (A) (A) (A) (A) (A) (A) (A) (A)
                 (A) (A) (A) (A) (A) (A) (A) (A) (A) (A) (A) (A)
                 (A) (A) (A) (A) (A) (A) (A) (A) (A) (A) (A) (A)
                 (A) (A) (A) (A) (A) (A) (A) (A) (A) (A) (A) (A)
                 (A) (A) (A) (A) (A) (A) (A) (A) (A) (A) (A) (A)
                 (A) (A) (A) (A) (A) (A) (A) (A) (A) (A) (A) (A)
                 (A) (A) (A) (A) (A) (A) (A) (A) (A) (A) (A) (A)
                 (A) (A) (A) (A) (A) (A) (A) (A) (A) (A) (A) (A)
                 (A) (A) (A) (A) (A) (A) (A) (A) (A) (A) (A) (A)
                 (A) (A) (A) (A) (A) (A) (A) (A) (A) (A) (A) (A)
                 (A) (A) (A) (A) (A) (A) (A) (A) (A) (A) (A) (A)
                 (A) (A) (A) (A) (A) (A) (A) (A) (A) (A) (A) (A)
                 (A) (A) (A) (A) (A) (A) (A) (A) (A) (A) (A) (A)
                 (A) (A) (A) (A) (A) (A) (A) (A) (A) (A) (A) (A)
                 (A) (A) (A) (A) (A) (A) (A) (A) (A) (A) (A) (A)
                 (A) (A) (A) (A) (A) (A) (A) (A) (A) (A) (A) (A)
                 (A) (A) (A) (A) (A) (A) (A) (A) (A) (A) (A) (A)
                 (A) (A) (A) (A) (A) (A) (A) (A) (A) (A)
       Virtual   (A) (A) (A) (A) (A) (A) (A) (A) (A) (A) (A) (A)
                 (A) (A) (A) (A) (A) (A) (A) (A) (A) (A) (A) (A)
                 (A) (A) (A) (A) (A) (A) (A) (A) (A) (A) (A) (A)
                 (A) (A) (A) (A) (A) (A) (A) (A) (A) (A) (A) (A)
                 (A) (A) (A) (A) (A) (A) (A) (A) (A) (A) (A) (A)
                 (A) (A) (A) (A) (A) (A) (A) (A) (A) (A) (A) (A)
                 (A) (A) (A) (A) (A) (A) (A) (A) (A) (A) (A) (A)
                 (A) (A) (A) (A) (A) (A) (A) (A) (A) (A) (A) (A)
                 (A) (A) (A) (A) (A) (A) (A) (A) (A) (A) (A) (A)
                 (A) (A) (A) (A) (A) (A) (A) (A) (A) (A) (A) (A)
                 (A) (A) (A) (A) (A) (A) (A) (A) (A) (A) (A) (A)
                 (A) (A) (A) (A) (A) (A) (A) (A) (A) (A) (A) (A)
                 (A) (A) (A) (A) (A) (A) (A) (A) (A) (A) (A) (A)
                 (A) (A) (A) (A) (A) (A) (A) (A) (A) (A) (A) (A)
                 (A) (A) (A) (A) (A) (A) (A) (A) (A) (A) (A) (A)
                 (A) (A) (A) (A) (A) (A) (A) (A) (A) (A) (A) (A)
                 (A) (A) (A) (A) (A) (A) (A) (A) (A) (A) (A) (A)
                 (A) (A) (A) (A) (A) (A) (A) (A) (A) (A) (A) (A)
                 (A) (A) (A) (A) (A) (A) (A) (A) (A) (A) (A) (A)
                 (A) (A) (A) (A) (A) (A) (A) (A) (A) (A) (A) (A)
                 (A) (A) (A) (A) (A) (A) (A) (A) (A) (A) (A) (A)
                 (A) (A) (A) (A) (A) (A) (A) (A) (A) (A) (A) (A)
                 (A) (A) (A) (A) (A) (A) (A) (A) (A) (A) (A) (A)
                 (A) (A) (A) (A) (A) (A) (A) (A) (A) (A) (A) (A)
                 (A) (A) (A) (A) (A) (A) (A) (A) (A) (A) (A) (A)
                 (A) (A) (A) (A) (A) (A) (A) (A) (A) (A) (A) (A)
                 (A) (A) (A) (A) (A) (A) (A) (A) (A) (A) (A) (A)
                 (A) (A) (A) (A) (A) (A) (A) (A) (A) (A) (A) (A)
                 (A) (A) (A) (A) (A) (A) (A) (A) (A) (A) (A) (A)
                 (A) (A) (A) (A) (A) (A) (A) (A) (A) (A) (A) (A)
                 (A) (A) (A) (A) (A) (A) (A) (A) (A) (A) (A) (A)
                 (A) (A) (A) (A) (A) (A) (A) (A) (A) (A) (A) (A)
                 (A) (A) (A) (A) (A) (A) (A) (A) (A) (A) (A) (A)
                 (A) (A) (A) (A) (A) (A) (A) (A) (A) (A) (A) (A)
                 (A) (A) (A) (A) (A) (A) (A) (A) (A) (A) (A) (A)
                 (A) (A) (A) (A) (A) (A) (A) (A) (A) (A) (A) (A)
                 (A) (A) (A) (A) (A) (A) (A) (A) (A) (A) (A) (A)
                 (A) (A) (A) (A) (A) (A) (A) (A) (A) (A) (A) (A)
                 (A) (A) (A) (A) (A) (A) (A) (A) (A) (A) (A) (A)
                 (A) (A) (A) (A) (A) (A) (A) (A) (A) (A) (A) (A)
                 (A) (A) (A) (A) (A) (A) (A) (A) (A) (A) (A) (A)
                 (A) (A) (A) (A) (A) (A) (A) (A) (A) (A) (A) (A)
                 (A) (A) (A) (A) (A) (A) (A) (A) (A) (A) (A) (A)
                 (A) (A) (A) (A) (A) (A) (A) (A) (A) (A) (A) (A)
                 (A) (A) (A) (A) (A) (A) (A) (A) (A) (A) (A) (A)
                 (A) (A) (A) (A) (A) (A) (A) (A) (A) (A) (A) (A)
                 (A) (A) (A) (A) (A) (A) (A) (A) (A) (A) (A) (A)
                 (A) (A) (A) (A) (A) (A) (A) (A) (A) (A) (A) (A)
                 (A) (A) (A) (A) (A) (A) (A) (A) (A) (A) (A) (A)
                 (A) (A) (A) (A) (A) (A) (A) (A) (A) (A) (A) (A)
                 (A) (A) (A) (A) (A) (A) (A) (A) (A) (A) (A) (A)
                 (A) (A) (A) (A) (A) (A) (A) (A) (A) (A) (A) (A)
                 (A) (A) (A) (A) (A) (A) (A) (A) (A) (A) (A) (A)
                 (A) (A) (A) (A) (A) (A) (A) (A) (A) (A) (A) (A)
                 (A) (A) (A) (A) (A) (A) (A) (A) (A) (A) (A) (A)
                 (A) (A) (A) (A) (A) (A) (A) (A) (A) (A) (A) (A)
                 (A) (A) (A) (A) (A) (A) (A) (A) (A) (A) (A) (A)
                 (A) (A) (A) (A) (A) (A) (A) (A) (A) (A) (A) (A)
                 (A) (A) (A) (A) (A) (A) (A) (A) (A) (A) (A) (A)
                 (A) (A) (A) (A) (A) (A) (A) (A) (A) (A) (A) (A)
                 (A) (A) (A) (A) (A) (A) (A) (A) (A) (A) (A) (A)
                 (A) (A) (A) (A) (A) (A) (A) (A) (A) (A) (A) (A)
                 (A) (A) (A) (A) (A) (A) (A) (A) (A) (A) (A) (A)
                 (A) (A) (A) (A) (A) (A) (A) (A) (A) (A) (A) (A)
                 (A) (A) (A) (A) (A) (A) (A) (A) (A) (A) (A) (A)
                 (A) (A) (A) (A) (A) (A) (A) (A) (A) (A) (A) (A)
                 (A) (A) (A) (A) (A) (A) (A) (A) (A) (A) (A) (A)
                 (A) (A) (A) (A) (A) (A) (A) (A) (A) (A) (A) (A)
                 (A) (A) (A) (A) (A) (A) (A) (A) (A) (A) (A) (A)
                 (A) (A) (A) (A) (A) (A) (A) (A) (A) (A) (A) (A)
                 (A) (A) (A) (A) (A) (A) (A) (A) (A) (A) (A) (A)
                 (A) (A) (A) (A) (A) (A) (A) (A) (A) (A) (A) (A)
                 (A) (A) (A) (A) (A) (A) (A) (A) (A) (A) (A) (A)
                 (A) (A) (A) (A) (A) (A) (A) (A) (A) (A) (A) (A)
                 (A) (A) (A) (A) (A) (A) (A) (A) (A) (A) (A) (A)
                 (A) (A) (A) (A) (A) (A) (A) (A) (A) (A) (A) (A)
                 (A) (A) (A) (A) (A) (A) (A) (A) (A) (A) (A) (A)
                 (A) (A) (A) (A) (A) (A) (A) (A) (A) (A) (A) (A)
                 (A) (A) (A) (A) (A) (A) (A) (A) (A) (A) (A) (A)
                 (A) (A) (A) (A) (A) (A) (A) (A) (A) (A) (A) (A)
                 (A) (A) (A) (A) (A) (A) (A) (A) (A) (A) (A) (A)
                 (A) (A) (A) (A) (A) (A) (A) (A) (A) (A) (A) (A)
                 (A) (A) (A) (A) (A) (A) (A) (A) (A) (A) (A) (A)
                 (A) (A) (A) (A) (A) (A) (A) (A) (A) (A) (A) (A)
                 (A) (A) (A) (A) (A) (A) (A) (A) (A) (A) (A) (A)
                 (A) (A) (A) (A) (A) (A) (A) (A) (A) (A) (A) (A)
                 (A) (A) (A) (A) (A) (A) (A) (A) (A) (A) (A) (A)
                 (A) (A) (A) (A) (A) (A) (A) (A) (A) (A) (A) (A)
                 (A) (A) (A) (A) (A) (A) (A) (A) (A) (A) (A) (A)
                 (A) (A) (A) (A) (A) (A) (A) (A) (A) (A) (A) (A)
                 (A) (A) (A) (A) (A) (A) (A) (A) (A) (A) (A) (A)
                 (A) (A) (A) (A) (A) (A) (A) (A) (A) (A) (A) (A)
                 (A) (A) (A) (A) (A) (A) (A) (A) (A) (A) (A) (A)
                 (A) (A) (A) (A) (A) (A) (A) (A) (A) (A) (A) (A)
                 (A) (A) (A) (A) (A) (A) (A) (A) (A) (A) (A) (A)
                 (A) (A) (A) (A) (A) (A) (A) (A) (A) (A) (A) (A)
                 (A) (A) (A) (A) (A) (A) (A) (A) (A) (A) (A) (A)
                 (A) (A) (A) (A) (A) (A) (A) (A) (A) (A) (A) (A)
                 (A) (A) (A) (A) (A) (A) (A) (A) (A) (A) (A) (A)
                 (A) (A) (A) (A) (A) (A) (A) (A) (A) (A) (A) (A)
                 (A) (A) (A) (A) (A) (A) (A) (A) (A) (A) (A) (A)
                 (A) (A) (A) (A) (A) (A) (A) (A) (A) (A) (A) (A)
                 (A) (A) (A) (A) (A) (A) (A) (A) (A) (A) (A) (A)
                 (A) (A) (A) (A) (A) (A) (A) (A) (A) (A) (A) (A)
                 (A) (A) (A) (A) (A) (A) (A) (A) (A) (A) (A) (A)
                 (A) (A) (A) (A) (A) (A) (A) (A) (A) (A) (A) (A)
                 (A) (A) (A) (A) (A) (A) (A) (A) (A) (A) (A) (A)
                 (A) (A) (A) (A) (A) (A) (A) (A) (A) (A) (A) (A)
                 (A) (A) (A) (A) (A) (A) (A) (A) (A) (A) (A) (A)
                 (A) (A) (A) (A) (A) (A) (A) (A) (A) (A) (A) (A)
                 (A) (A) (A) (A) (A) (A) (A) (A) (A) (A) (A) (A)
                 (A) (A) (A) (A) (A) (A) (A) (A) (A) (A) (A) (A)
                 (A) (A) (A) (A) (A) (A) (A) (A) (A) (A) (A) (A)
                 (A) (A) (A)
 The electronic state is 1-A.
 Alpha  occ. eigenvalues -- -145.36969 -19.21951 -19.20482 -19.15961 -19.13797
 Alpha  occ. eigenvalues --  -19.12253 -19.11700 -19.11109 -19.10826 -19.10516
 Alpha  occ. eigenvalues --  -19.09962 -19.09870 -19.08180 -19.06510 -19.06466
 Alpha  occ. eigenvalues --  -19.06415 -19.06260 -19.06221 -19.04009 -19.03681
 Alpha  occ. eigenvalues --  -19.03433 -19.03188 -19.02162 -19.00828 -15.42793
 Alpha  occ. eigenvalues --  -14.58698 -14.40047 -14.38261 -14.37216 -14.36896
 Alpha  occ. eigenvalues --  -14.35403 -14.35345 -14.33987 -14.33814 -14.32312
 Alpha  occ. eigenvalues --  -14.31751 -14.31662 -14.30483 -14.30094 -14.28953
 Alpha  occ. eigenvalues --  -12.56410 -12.56362 -12.56328 -10.34226 -10.32310
 Alpha  occ. eigenvalues --  -10.30765 -10.30010 -10.29988 -10.29747 -10.29192
 Alpha  occ. eigenvalues --  -10.29113 -10.28641 -10.27307 -10.26916 -10.26850
 Alpha  occ. eigenvalues --  -10.26674 -10.25872 -10.25574 -10.25366 -10.25342
 Alpha  occ. eigenvalues --  -10.24740 -10.24737 -10.24438 -10.23931 -10.23617
 Alpha  occ. eigenvalues --  -10.23028 -10.23004 -10.22772 -10.22608 -10.22316
 Alpha  occ. eigenvalues --  -10.21851 -10.21547 -10.21419 -10.21385 -10.20772
 Alpha  occ. eigenvalues --  -10.20424 -10.19899 -10.19738 -10.19725 -10.19712
 Alpha  occ. eigenvalues --  -10.19534 -10.19171 -10.18863 -10.18775 -10.18756
 Alpha  occ. eigenvalues --  -10.18503 -10.18456 -10.18414 -10.18132 -10.18051
 Alpha  occ. eigenvalues --  -10.18016 -10.17706 -10.17702 -10.17032 -10.16361
 Alpha  occ. eigenvalues --  -10.15972 -10.14222  -1.79784  -1.13816  -1.08328
 Alpha  occ. eigenvalues --   -1.08234  -1.07761  -1.07361  -1.07299  -1.06602
 Alpha  occ. eigenvalues --   -1.05322  -1.04936  -1.04563  -1.04298  -1.04273
 Alpha  occ. eigenvalues --   -1.03556  -1.03149  -1.01067  -1.00206  -0.99709
 Alpha  occ. eigenvalues --   -0.99255  -0.99150  -0.98881  -0.98110  -0.97060
 Alpha  occ. eigenvalues --   -0.96778  -0.96647  -0.96169  -0.95315  -0.94508
 Alpha  occ. eigenvalues --   -0.93725  -0.93271  -0.92016  -0.91088  -0.90863
 Alpha  occ. eigenvalues --   -0.90782  -0.89557  -0.88772  -0.88377  -0.88341
 Alpha  occ. eigenvalues --   -0.87779  -0.87648  -0.86786  -0.86210  -0.85781
 Alpha  occ. eigenvalues --   -0.84415  -0.83342  -0.82094  -0.80604  -0.80508
 Alpha  occ. eigenvalues --   -0.79298  -0.78755  -0.78647  -0.76660  -0.75866
 Alpha  occ. eigenvalues --   -0.75208  -0.74809  -0.74040  -0.73471  -0.73416
 Alpha  occ. eigenvalues --   -0.73189  -0.72801  -0.71095  -0.70853  -0.70814
 Alpha  occ. eigenvalues --   -0.70568  -0.70100  -0.69264  -0.68073  -0.67946
 Alpha  occ. eigenvalues --   -0.67368  -0.66862  -0.65799  -0.64993  -0.64580
 Alpha  occ. eigenvalues --   -0.63217  -0.63056  -0.62511  -0.62284  -0.62021
 Alpha  occ. eigenvalues --   -0.61450  -0.61328  -0.61247  -0.61156  -0.60261
 Alpha  occ. eigenvalues --   -0.60169  -0.59920  -0.59848  -0.59366  -0.58687
 Alpha  occ. eigenvalues --   -0.58234  -0.58093  -0.57217  -0.56938  -0.56047
 Alpha  occ. eigenvalues --   -0.55884  -0.55840  -0.55697  -0.55483  -0.54872
 Alpha  occ. eigenvalues --   -0.54842  -0.54781  -0.54352  -0.54232  -0.53217
 Alpha  occ. eigenvalues --   -0.53126  -0.52993  -0.52753  -0.52328  -0.52058
 Alpha  occ. eigenvalues --   -0.51472  -0.51094  -0.50694  -0.50571  -0.50145
 Alpha  occ. eigenvalues --   -0.49610  -0.49495  -0.49303  -0.48957  -0.48791
 Alpha  occ. eigenvalues --   -0.48534  -0.48295  -0.48142  -0.47957  -0.47797
 Alpha  occ. eigenvalues --   -0.47675  -0.47625  -0.47511  -0.47151  -0.47130
 Alpha  occ. eigenvalues --   -0.46855  -0.46570  -0.46467  -0.46400  -0.45985
 Alpha  occ. eigenvalues --   -0.45760  -0.45405  -0.45352  -0.44921  -0.44771
 Alpha  occ. eigenvalues --   -0.44680  -0.44564  -0.44292  -0.44220  -0.44122
 Alpha  occ. eigenvalues --   -0.43960  -0.43658  -0.43557  -0.43403  -0.43334
 Alpha  occ. eigenvalues --   -0.42991  -0.42701  -0.42655  -0.42479  -0.42169
 Alpha  occ. eigenvalues --   -0.42034  -0.41963  -0.41808  -0.41686  -0.41639
 Alpha  occ. eigenvalues --   -0.41490  -0.41359  -0.41194  -0.40934  -0.40878
 Alpha  occ. eigenvalues --   -0.40766  -0.40639  -0.40587  -0.40486  -0.40359
 Alpha  occ. eigenvalues --   -0.40084  -0.39952  -0.39861  -0.39676  -0.39397
 Alpha  occ. eigenvalues --   -0.39254  -0.39165  -0.38977  -0.38784  -0.38620
 Alpha  occ. eigenvalues --   -0.38554  -0.38512  -0.38284  -0.38216  -0.38184
 Alpha  occ. eigenvalues --   -0.38050  -0.37707  -0.37691  -0.37581  -0.37473
 Alpha  occ. eigenvalues --   -0.37342  -0.37173  -0.37124  -0.36778  -0.36551
 Alpha  occ. eigenvalues --   -0.36337  -0.36293  -0.36158  -0.36049  -0.35589
 Alpha  occ. eigenvalues --   -0.35458  -0.35367  -0.35232  -0.34925  -0.34857
 Alpha  occ. eigenvalues --   -0.34631  -0.34428  -0.34298  -0.34048  -0.33864
 Alpha  occ. eigenvalues --   -0.33822  -0.33385  -0.33209  -0.33065  -0.32995
 Alpha  occ. eigenvalues --   -0.32761  -0.32623  -0.32512  -0.32447  -0.32241
 Alpha  occ. eigenvalues --   -0.31801  -0.31416  -0.31245  -0.30724  -0.29802
 Alpha  occ. eigenvalues --   -0.29698  -0.29424  -0.29075  -0.28901  -0.28471
 Alpha  occ. eigenvalues --   -0.28135  -0.27618  -0.27380  -0.27178  -0.26716
 Alpha  occ. eigenvalues --   -0.26677  -0.26371  -0.25984  -0.25634  -0.25346
 Alpha  occ. eigenvalues --   -0.25034  -0.24507  -0.24462  -0.24077  -0.23976
 Alpha  occ. eigenvalues --   -0.23680  -0.23557  -0.22723  -0.22443  -0.22271
 Alpha  occ. eigenvalues --   -0.21996  -0.21947  -0.21510  -0.21311  -0.21009
 Alpha  occ. eigenvalues --   -0.20817  -0.20636  -0.19789  -0.19567  -0.19129
 Alpha  occ. eigenvalues --   -0.18334  -0.18003  -0.16923
 Alpha virt. eigenvalues --   -0.10795  -0.05670  -0.04940  -0.04010  -0.03230
 Alpha virt. eigenvalues --   -0.02632  -0.01510  -0.01015  -0.00843  -0.00441
 Alpha virt. eigenvalues --   -0.00182   0.00552   0.00739   0.00960   0.01245
 Alpha virt. eigenvalues --    0.02152   0.02837   0.03146   0.03177   0.03423
 Alpha virt. eigenvalues --    0.03525   0.03761   0.04115   0.04432   0.04600
 Alpha virt. eigenvalues --    0.04677   0.04842   0.04991   0.05252   0.05541
 Alpha virt. eigenvalues --    0.05610   0.05730   0.06239   0.06297   0.06815
 Alpha virt. eigenvalues --    0.07012   0.07275   0.07298   0.07502   0.07768
 Alpha virt. eigenvalues --    0.07897   0.08312   0.08375   0.08442   0.08691
 Alpha virt. eigenvalues --    0.08959   0.08984   0.09429   0.09596   0.09655
 Alpha virt. eigenvalues --    0.09797   0.09951   0.10260   0.10330   0.10470
 Alpha virt. eigenvalues --    0.10627   0.10896   0.11158   0.11216   0.11355
 Alpha virt. eigenvalues --    0.11616   0.11815   0.11990   0.12086   0.12406
 Alpha virt. eigenvalues --    0.12518   0.12712   0.12769   0.12951   0.13184
 Alpha virt. eigenvalues --    0.13360   0.13569   0.13931   0.14138   0.14207
 Alpha virt. eigenvalues --    0.14326   0.14434   0.14679   0.14741   0.15039
 Alpha virt. eigenvalues --    0.15168   0.15256   0.15342   0.15498   0.15696
 Alpha virt. eigenvalues --    0.15982   0.16137   0.16271   0.16414   0.16592
 Alpha virt. eigenvalues --    0.16715   0.16861   0.17119   0.17243   0.17352
 Alpha virt. eigenvalues --    0.17557   0.17715   0.18021   0.18204   0.18307
 Alpha virt. eigenvalues --    0.18517   0.18609   0.18790   0.18974   0.19118
 Alpha virt. eigenvalues --    0.19278   0.19674   0.19712   0.19893   0.20029
 Alpha virt. eigenvalues --    0.20395   0.20498   0.20623   0.21013   0.21092
 Alpha virt. eigenvalues --    0.21368   0.21565   0.21838   0.21956   0.22182
 Alpha virt. eigenvalues --    0.22420   0.22571   0.23011   0.23340   0.23516
 Alpha virt. eigenvalues --    0.23738   0.23811   0.24155   0.24233   0.24406
 Alpha virt. eigenvalues --    0.24726   0.24902   0.25317   0.25430   0.25776
 Alpha virt. eigenvalues --    0.25921   0.25964   0.26306   0.26374   0.26492
 Alpha virt. eigenvalues --    0.26742   0.26825   0.27430   0.27494   0.27704
 Alpha virt. eigenvalues --    0.27858   0.28456   0.28492   0.28879   0.29334
 Alpha virt. eigenvalues --    0.29455   0.29678   0.29885   0.30378   0.30411
 Alpha virt. eigenvalues --    0.30611   0.30863   0.31198   0.31371   0.31456
 Alpha virt. eigenvalues --    0.31676   0.31885   0.31977   0.32033   0.32163
 Alpha virt. eigenvalues --    0.32519   0.32985   0.33177   0.33346   0.33588
 Alpha virt. eigenvalues --    0.33739   0.33890   0.34247   0.34688   0.35070
 Alpha virt. eigenvalues --    0.35422   0.35826   0.35942   0.36042   0.36705
 Alpha virt. eigenvalues --    0.36831   0.37243   0.37475   0.37726   0.37974
 Alpha virt. eigenvalues --    0.38076   0.38532   0.39154   0.39336   0.39433
 Alpha virt. eigenvalues --    0.39640   0.39772   0.40128   0.40336   0.40602
 Alpha virt. eigenvalues --    0.40864   0.41170   0.41395   0.41559   0.41959
 Alpha virt. eigenvalues --    0.42194   0.42544   0.42841   0.42945   0.43143
 Alpha virt. eigenvalues --    0.43434   0.43465   0.43633   0.44015   0.44208
 Alpha virt. eigenvalues --    0.44302   0.44420   0.44636   0.44958   0.45336
 Alpha virt. eigenvalues --    0.45515   0.45886   0.45929   0.45994   0.46234
 Alpha virt. eigenvalues --    0.46380   0.46466   0.46644   0.46816   0.47179
 Alpha virt. eigenvalues --    0.47236   0.47402   0.47425   0.47647   0.47820
 Alpha virt. eigenvalues --    0.48101   0.48315   0.48667   0.48737   0.49061
 Alpha virt. eigenvalues --    0.49473   0.49585   0.49638   0.49913   0.50006
 Alpha virt. eigenvalues --    0.50165   0.50309   0.50631   0.50688   0.50987
 Alpha virt. eigenvalues --    0.51080   0.51240   0.51391   0.51525   0.51850
 Alpha virt. eigenvalues --    0.51954   0.52180   0.52273   0.52384   0.52500
 Alpha virt. eigenvalues --    0.52640   0.52740   0.52933   0.53229   0.53375
 Alpha virt. eigenvalues --    0.53611   0.53884   0.53974   0.54174   0.54441
 Alpha virt. eigenvalues --    0.54562   0.54831   0.55035   0.55170   0.55270
 Alpha virt. eigenvalues --    0.55607   0.55671   0.55857   0.56015   0.56136
 Alpha virt. eigenvalues --    0.56369   0.56587   0.56797   0.56888   0.57188
 Alpha virt. eigenvalues --    0.57321   0.57538   0.57836   0.58116   0.58344
 Alpha virt. eigenvalues --    0.58690   0.58856   0.58984   0.59123   0.59327
 Alpha virt. eigenvalues --    0.59352   0.59393   0.59570   0.59585   0.59779
 Alpha virt. eigenvalues --    0.59930   0.60188   0.60259   0.60410   0.60638
 Alpha virt. eigenvalues --    0.60741   0.61097   0.61186   0.61236   0.61399
 Alpha virt. eigenvalues --    0.61580   0.61671   0.61744   0.61836   0.62007
 Alpha virt. eigenvalues --    0.62145   0.62336   0.62387   0.62600   0.62719
 Alpha virt. eigenvalues --    0.62978   0.63104   0.63173   0.63397   0.63439
 Alpha virt. eigenvalues --    0.63666   0.63707   0.63879   0.64111   0.64215
 Alpha virt. eigenvalues --    0.64321   0.64345   0.64458   0.64590   0.64649
 Alpha virt. eigenvalues --    0.64737   0.64781   0.64945   0.65187   0.65253
 Alpha virt. eigenvalues --    0.65379   0.65487   0.65518   0.65578   0.65958
 Alpha virt. eigenvalues --    0.66068   0.66144   0.66298   0.66358   0.66440
 Alpha virt. eigenvalues --    0.66613   0.66756   0.66851   0.66898   0.67075
 Alpha virt. eigenvalues --    0.67234   0.67314   0.67626   0.67771   0.67957
 Alpha virt. eigenvalues --    0.68062   0.68161   0.68245   0.68374   0.68489
 Alpha virt. eigenvalues --    0.68540   0.68580   0.68751   0.68815   0.68928
 Alpha virt. eigenvalues --    0.68997   0.69125   0.69194   0.69323   0.69466
 Alpha virt. eigenvalues --    0.69663   0.69696   0.69866   0.70036   0.70141
 Alpha virt. eigenvalues --    0.70281   0.70368   0.70446   0.70542   0.70701
 Alpha virt. eigenvalues --    0.70818   0.70972   0.71171   0.71331   0.71527
 Alpha virt. eigenvalues --    0.71704   0.71848   0.71977   0.72250   0.72342
 Alpha virt. eigenvalues --    0.72549   0.72659   0.72782   0.73035   0.73283
 Alpha virt. eigenvalues --    0.73376   0.73396   0.73608   0.73685   0.74012
 Alpha virt. eigenvalues --    0.74142   0.74229   0.74470   0.74782   0.75006
 Alpha virt. eigenvalues --    0.75202   0.75404   0.75452   0.75759   0.76051
 Alpha virt. eigenvalues --    0.76296   0.76493   0.76857   0.76905   0.77367
 Alpha virt. eigenvalues --    0.77494   0.77621   0.77806   0.77948   0.78162
 Alpha virt. eigenvalues --    0.78350   0.78542   0.78804   0.78957   0.79386
 Alpha virt. eigenvalues --    0.79513   0.79722   0.79994   0.80102   0.80219
 Alpha virt. eigenvalues --    0.80334   0.80700   0.81393   0.81492   0.81695
 Alpha virt. eigenvalues --    0.81892   0.82405   0.82588   0.82820   0.83119
 Alpha virt. eigenvalues --    0.83187   0.83644   0.83857   0.83882   0.84200
 Alpha virt. eigenvalues --    0.84299   0.84708   0.84814   0.85046   0.85246
 Alpha virt. eigenvalues --    0.85464   0.85946   0.86032   0.86227   0.86513
 Alpha virt. eigenvalues --    0.86772   0.87260   0.87409   0.87678   0.87864
 Alpha virt. eigenvalues --    0.88224   0.88725   0.88978   0.89442   0.89683
 Alpha virt. eigenvalues --    0.89983   0.90140   0.90269   0.90811   0.90955
 Alpha virt. eigenvalues --    0.91187   0.91544   0.91895   0.92264   0.92413
 Alpha virt. eigenvalues --    0.92668   0.93116   0.93481   0.93624   0.93850
 Alpha virt. eigenvalues --    0.94073   0.94331   0.94632   0.94948   0.95207
 Alpha virt. eigenvalues --    0.95283   0.95980   0.96160   0.96480   0.96681
 Alpha virt. eigenvalues --    0.96898   0.97064   0.97499   0.98013   0.98137
 Alpha virt. eigenvalues --    0.98454   0.98701   0.98888   0.99218   0.99607
 Alpha virt. eigenvalues --    0.99758   0.99887   1.00103   1.00544   1.00724
 Alpha virt. eigenvalues --    1.01076   1.01301   1.01383   1.01940   1.02212
 Alpha virt. eigenvalues --    1.02696   1.02882   1.03268   1.03888   1.04060
 Alpha virt. eigenvalues --    1.04215   1.04657   1.05150   1.05278   1.05751
 Alpha virt. eigenvalues --    1.05935   1.06212   1.06477   1.06768   1.06948
 Alpha virt. eigenvalues --    1.07393   1.07636   1.07955   1.08088   1.08467
 Alpha virt. eigenvalues --    1.08540   1.09040   1.09105   1.09668   1.09719
 Alpha virt. eigenvalues --    1.10115   1.10413   1.10755   1.11241   1.11384
 Alpha virt. eigenvalues --    1.11542   1.12032   1.12277   1.12869   1.12942
 Alpha virt. eigenvalues --    1.13383   1.13564   1.13636   1.13909   1.14510
 Alpha virt. eigenvalues --    1.14688   1.15083   1.15304   1.15509   1.15716
 Alpha virt. eigenvalues --    1.16167   1.16642   1.16757   1.17262   1.17391
 Alpha virt. eigenvalues --    1.17823   1.17932   1.18013   1.18377   1.18504
 Alpha virt. eigenvalues --    1.18775   1.19024   1.19394   1.19761   1.19915
 Alpha virt. eigenvalues --    1.20204   1.20528   1.20773   1.21047   1.21303
 Alpha virt. eigenvalues --    1.21625   1.21933   1.22009   1.22069   1.22307
 Alpha virt. eigenvalues --    1.22753   1.22919   1.23146   1.23364   1.23569
 Alpha virt. eigenvalues --    1.23832   1.24157   1.24616   1.24857   1.24984
 Alpha virt. eigenvalues --    1.25163   1.25376   1.25717   1.25819   1.26041
 Alpha virt. eigenvalues --    1.26330   1.26635   1.26826   1.26925   1.27021
 Alpha virt. eigenvalues --    1.27408   1.27577   1.27678   1.27998   1.28091
 Alpha virt. eigenvalues --    1.28341   1.28489   1.29327   1.29596   1.29843
 Alpha virt. eigenvalues --    1.30121   1.30529   1.30717   1.30893   1.31021
 Alpha virt. eigenvalues --    1.31499   1.31805   1.32054   1.32347   1.32682
 Alpha virt. eigenvalues --    1.33014   1.33152   1.33296   1.33612   1.33978
 Alpha virt. eigenvalues --    1.34215   1.34524   1.34901   1.35101   1.35344
 Alpha virt. eigenvalues --    1.35606   1.35878   1.36053   1.36316   1.36604
 Alpha virt. eigenvalues --    1.37163   1.37360   1.37486   1.37709   1.37821
 Alpha virt. eigenvalues --    1.38041   1.38656   1.38859   1.39001   1.39379
 Alpha virt. eigenvalues --    1.39769   1.39876   1.40022   1.40115   1.40549
 Alpha virt. eigenvalues --    1.41013   1.41122   1.41559   1.41778   1.42087
 Alpha virt. eigenvalues --    1.42446   1.42671   1.43011   1.43548   1.43758
 Alpha virt. eigenvalues --    1.44031   1.44269   1.44554   1.44878   1.45334
 Alpha virt. eigenvalues --    1.45580   1.45859   1.46371   1.46517   1.46596
 Alpha virt. eigenvalues --    1.46759   1.47063   1.47327   1.47360   1.47868
 Alpha virt. eigenvalues --    1.48106   1.48317   1.48421   1.49029   1.49172
 Alpha virt. eigenvalues --    1.49228   1.49493   1.49864   1.49937   1.50189
 Alpha virt. eigenvalues --    1.50690   1.51428   1.51632   1.52412   1.52530
 Alpha virt. eigenvalues --    1.52622   1.53114   1.53220   1.53477   1.53797
 Alpha virt. eigenvalues --    1.54095   1.54289   1.54452   1.54787   1.54915
 Alpha virt. eigenvalues --    1.55164   1.55462   1.55831   1.56005   1.56816
 Alpha virt. eigenvalues --    1.56968   1.57520   1.57795   1.58462   1.58525
 Alpha virt. eigenvalues --    1.59052   1.59417   1.59869   1.60125   1.60322
 Alpha virt. eigenvalues --    1.60461   1.61145   1.61332   1.61731   1.61859
 Alpha virt. eigenvalues --    1.62341   1.62999   1.63271   1.63335   1.63911
 Alpha virt. eigenvalues --    1.63979   1.64453   1.64927   1.65186   1.65385
 Alpha virt. eigenvalues --    1.65834   1.66518   1.66591   1.66789   1.66996
 Alpha virt. eigenvalues --    1.67204   1.67747   1.68088   1.68358   1.68666
 Alpha virt. eigenvalues --    1.68863   1.69392   1.69581   1.69724   1.70074
 Alpha virt. eigenvalues --    1.70349   1.70427   1.70900   1.71266   1.71383
 Alpha virt. eigenvalues --    1.71552   1.71972   1.72059   1.72129   1.72289
 Alpha virt. eigenvalues --    1.72502   1.72578   1.72703   1.72955   1.73227
 Alpha virt. eigenvalues --    1.73502   1.73589   1.73870   1.74143   1.74176
 Alpha virt. eigenvalues --    1.74453   1.74874   1.74943   1.75105   1.75376
 Alpha virt. eigenvalues --    1.75455   1.75519   1.75763   1.75809   1.76037
 Alpha virt. eigenvalues --    1.76266   1.76349   1.76479   1.76734   1.76843
 Alpha virt. eigenvalues --    1.76970   1.77051   1.77288   1.77441   1.77654
 Alpha virt. eigenvalues --    1.77927   1.78047   1.78234   1.78522   1.78549
 Alpha virt. eigenvalues --    1.78675   1.78875   1.79111   1.79228   1.79420
 Alpha virt. eigenvalues --    1.79623   1.79691   1.79936   1.80016   1.80202
 Alpha virt. eigenvalues --    1.80353   1.80495   1.80724   1.80799   1.81217
 Alpha virt. eigenvalues --    1.81296   1.81482   1.81544   1.81739   1.82097
 Alpha virt. eigenvalues --    1.82292   1.82626   1.82657   1.82745   1.82948
 Alpha virt. eigenvalues --    1.83087   1.83294   1.83579   1.83895   1.84062
 Alpha virt. eigenvalues --    1.84420   1.84546   1.84628   1.84870   1.84947
 Alpha virt. eigenvalues --    1.85216   1.85274   1.85482   1.85637   1.85797
 Alpha virt. eigenvalues --    1.86051   1.86146   1.86380   1.86418   1.86723
 Alpha virt. eigenvalues --    1.86858   1.86971   1.87295   1.87389   1.87453
 Alpha virt. eigenvalues --    1.87674   1.87782   1.88022   1.88265   1.88606
 Alpha virt. eigenvalues --    1.88747   1.88989   1.89369   1.89431   1.89616
 Alpha virt. eigenvalues --    1.89762   1.90319   1.90402   1.90678   1.90819
 Alpha virt. eigenvalues --    1.91101   1.91320   1.91433   1.91834   1.91960
 Alpha virt. eigenvalues --    1.92141   1.92375   1.92677   1.92842   1.93061
 Alpha virt. eigenvalues --    1.93183   1.93532   1.93837   1.93948   1.93992
 Alpha virt. eigenvalues --    1.94233   1.94648   1.94782   1.95071   1.95145
 Alpha virt. eigenvalues --    1.95258   1.95743   1.96070   1.96216   1.96632
 Alpha virt. eigenvalues --    1.96816   1.96898   1.97031   1.97118   1.97280
 Alpha virt. eigenvalues --    1.97454   1.97703   1.97744   1.98168   1.98402
 Alpha virt. eigenvalues --    1.98620   1.98921   1.99156   1.99465   1.99585
 Alpha virt. eigenvalues --    1.99706   2.00066   2.00331   2.00471   2.00792
 Alpha virt. eigenvalues --    2.00929   2.01215   2.01304   2.01701   2.01962
 Alpha virt. eigenvalues --    2.02047   2.02309   2.02477   2.02678   2.03138
 Alpha virt. eigenvalues --    2.03389   2.03819   2.03997   2.04129   2.04590
 Alpha virt. eigenvalues --    2.04724   2.05007   2.05442   2.05754   2.05789
 Alpha virt. eigenvalues --    2.06005   2.06116   2.06757   2.06915   2.06996
 Alpha virt. eigenvalues --    2.07118   2.07305   2.07423   2.07908   2.07965
 Alpha virt. eigenvalues --    2.08429   2.08831   2.09016   2.09379   2.09605
 Alpha virt. eigenvalues --    2.09718   2.09885   2.10214   2.10345   2.10480
 Alpha virt. eigenvalues --    2.10686   2.11832   2.12238   2.12377   2.12501
 Alpha virt. eigenvalues --    2.12789   2.13062   2.13694   2.14045   2.14088
 Alpha virt. eigenvalues --    2.14202   2.14464   2.14649   2.14713   2.14876
 Alpha virt. eigenvalues --    2.15117   2.15184   2.15375   2.15672   2.15973
 Alpha virt. eigenvalues --    2.16219   2.16607   2.16744   2.17035   2.17515
 Alpha virt. eigenvalues --    2.17738   2.17836   2.18158   2.18593   2.18972
 Alpha virt. eigenvalues --    2.19050   2.19484   2.19678   2.20043   2.20723
 Alpha virt. eigenvalues --    2.20958   2.21057   2.21344   2.21663   2.22062
 Alpha virt. eigenvalues --    2.22281   2.22452   2.22895   2.23105   2.23465
 Alpha virt. eigenvalues --    2.23970   2.24562   2.24779   2.25351   2.25653
 Alpha virt. eigenvalues --    2.26013   2.26459   2.26816   2.26901   2.27199
 Alpha virt. eigenvalues --    2.27558   2.27847   2.28149   2.28237   2.28475
 Alpha virt. eigenvalues --    2.28687   2.28829   2.29120   2.29662   2.30169
 Alpha virt. eigenvalues --    2.30565   2.30848   2.31075   2.31929   2.32378
 Alpha virt. eigenvalues --    2.32661   2.33020   2.33496   2.33709   2.34382
 Alpha virt. eigenvalues --    2.34628   2.35074   2.35136   2.35303   2.35604
 Alpha virt. eigenvalues --    2.36088   2.36380   2.36579   2.36859   2.37164
 Alpha virt. eigenvalues --    2.37278   2.38127   2.38377   2.38786   2.39142
 Alpha virt. eigenvalues --    2.39218   2.39333   2.39933   2.40110   2.40395
 Alpha virt. eigenvalues --    2.40793   2.40815   2.41127   2.41309   2.41695
 Alpha virt. eigenvalues --    2.42102   2.42221   2.42344   2.42911   2.43146
 Alpha virt. eigenvalues --    2.43382   2.43600   2.44403   2.44477   2.44694
 Alpha virt. eigenvalues --    2.45279   2.45538   2.45697   2.46159   2.46491
 Alpha virt. eigenvalues --    2.46968   2.47489   2.47612   2.48005   2.48278
 Alpha virt. eigenvalues --    2.48573   2.48977   2.49477   2.50013   2.50287
 Alpha virt. eigenvalues --    2.50470   2.50957   2.51162   2.51500   2.51798
 Alpha virt. eigenvalues --    2.52510   2.52710   2.52914   2.53134   2.53997
 Alpha virt. eigenvalues --    2.54394   2.54999   2.55097   2.55229   2.55607
 Alpha virt. eigenvalues --    2.55825   2.55872   2.56863   2.57419   2.57540
 Alpha virt. eigenvalues --    2.57850   2.58399   2.58461   2.58586   2.58656
 Alpha virt. eigenvalues --    2.58788   2.59363   2.59822   2.60042   2.60270
 Alpha virt. eigenvalues --    2.60411   2.60585   2.60861   2.61018   2.61179
 Alpha virt. eigenvalues --    2.61378   2.61706   2.62067   2.62413   2.62791
 Alpha virt. eigenvalues --    2.63009   2.63227   2.63523   2.64007   2.64178
 Alpha virt. eigenvalues --    2.64662   2.64816   2.64962   2.65155   2.65696
 Alpha virt. eigenvalues --    2.65854   2.65873   2.66562   2.67489   2.67588
 Alpha virt. eigenvalues --    2.67960   2.68360   2.68454   2.68506   2.68877
 Alpha virt. eigenvalues --    2.69231   2.69471   2.69547   2.69965   2.70225
 Alpha virt. eigenvalues --    2.71161   2.71488   2.71839   2.72086   2.72449
 Alpha virt. eigenvalues --    2.72711   2.72820   2.72983   2.73405   2.73515
 Alpha virt. eigenvalues --    2.73860   2.74023   2.74282   2.74704   2.75214
 Alpha virt. eigenvalues --    2.75531   2.75699   2.75865   2.76036   2.76155
 Alpha virt. eigenvalues --    2.76337   2.76440   2.76598   2.76757   2.76892
 Alpha virt. eigenvalues --    2.77305   2.77398   2.78343   2.78426   2.78592
 Alpha virt. eigenvalues --    2.78824   2.79533   2.79647   2.79711   2.79883
 Alpha virt. eigenvalues --    2.80212   2.80269   2.80606   2.81071   2.81382
 Alpha virt. eigenvalues --    2.81714   2.81947   2.82128   2.82285   2.82333
 Alpha virt. eigenvalues --    2.82707   2.82863   2.82974   2.83360   2.83762
 Alpha virt. eigenvalues --    2.84338   2.84501   2.84895   2.85049   2.85767
 Alpha virt. eigenvalues --    2.85879   2.86135   2.86297   2.86507   2.86746
 Alpha virt. eigenvalues --    2.86803   2.87030   2.87214   2.87534   2.88273
 Alpha virt. eigenvalues --    2.88561   2.89158   2.89325   2.89952   2.90348
 Alpha virt. eigenvalues --    2.90367   2.90677   2.90780   2.90884   2.91233
 Alpha virt. eigenvalues --    2.91357   2.91765   2.92266   2.92303   2.92938
 Alpha virt. eigenvalues --    2.93242   2.93726   2.93745   2.93987   2.94152
 Alpha virt. eigenvalues --    2.94466   2.95515   2.95649   2.96017   2.96322
 Alpha virt. eigenvalues --    2.96585   2.97573   2.98010   2.98374   2.98636
 Alpha virt. eigenvalues --    2.99025   2.99460   2.99680   3.00207   3.00329
 Alpha virt. eigenvalues --    3.00557   3.00973   3.01029   3.01092   3.01903
 Alpha virt. eigenvalues --    3.02050   3.02208   3.02603   3.02798   3.03303
 Alpha virt. eigenvalues --    3.03502   3.03792   3.04493   3.04777   3.05277
 Alpha virt. eigenvalues --    3.05398   3.05860   3.06368   3.06614   3.06958
 Alpha virt. eigenvalues --    3.07273   3.07732   3.08024   3.08532   3.09226
 Alpha virt. eigenvalues --    3.09388   3.09967   3.10891   3.11721   3.11927
 Alpha virt. eigenvalues --    3.12112   3.12985   3.13090   3.13381   3.13684
 Alpha virt. eigenvalues --    3.13967   3.14164   3.14489   3.15226   3.16205
 Alpha virt. eigenvalues --    3.16288   3.16448   3.16768   3.17100   3.17252
 Alpha virt. eigenvalues --    3.17385   3.17941   3.18190   3.18674   3.19877
 Alpha virt. eigenvalues --    3.19967   3.20546   3.20630   3.21127   3.21343
 Alpha virt. eigenvalues --    3.21534   3.21751   3.22211   3.22377   3.22803
 Alpha virt. eigenvalues --    3.23280   3.23873   3.24226   3.24627   3.24809
 Alpha virt. eigenvalues --    3.25345   3.25827   3.25973   3.26295   3.27368
 Alpha virt. eigenvalues --    3.28123   3.28689   3.29176   3.29701   3.30171
 Alpha virt. eigenvalues --    3.30597   3.30667   3.31481   3.32205   3.33625
 Alpha virt. eigenvalues --    3.34485   3.35947   3.36980   3.37651   3.38606
 Alpha virt. eigenvalues --    3.39752   3.42459   3.43393   3.45513   3.51206
 Alpha virt. eigenvalues --    3.54673   3.54773   3.55909   3.56521   3.56626
 Alpha virt. eigenvalues --    3.57022   3.57587   3.59770   3.59805   3.60583
 Alpha virt. eigenvalues --    3.60918   3.61553   3.61846   3.62400   3.64705
 Alpha virt. eigenvalues --    3.64723   3.65142   3.66552   3.67046   3.67616
 Alpha virt. eigenvalues --    3.68305   3.69009   3.69524   3.69844   3.70439
 Alpha virt. eigenvalues --    3.70824   3.70940   3.71168   3.71854   3.71897
 Alpha virt. eigenvalues --    3.72468   3.72808   3.73442   3.73608   3.74087
 Alpha virt. eigenvalues --    3.75969   3.76464   3.78396   3.80104
          Condensed to atoms (all electrons):
 Mulliken charges:
               1
     1  C    0.051685
     2  C    0.046332
     3  O   -0.295060
     4  H    0.018601
     5  H    0.031091
     6  H    0.035337
     7  N   -0.151441
     8  C    0.089222
     9  C    0.080495
    10  O   -0.273844
    11  C    0.089421
    12  C    0.134596
    13  O   -0.372480
    14  O   -0.448377
    15  H    0.119217
    16  H    0.002398
    17  H   -0.003006
    18  H   -0.017831
    19  N   -0.172736
    20  C    0.157197
    21  C    0.075641
    22  O   -0.298776
    23  C   -0.041925
    24  C    0.032599
    25  C    0.030466
    26  C   -0.004884
    27  N    0.076713
    28  H    0.168125
    29  H    0.007007
    30  H   -0.015811
    31  H    0.063960
    32  H    0.018578
    33  H    0.024460
    34  H    0.024984
    35  H    0.019556
    36  H    0.059546
    37  H    0.077550
    38  H    0.199531
    39  H    0.181405
    40  H    0.187953
    41  N   -0.159017
    42  C    0.153588
    43  C    0.037109
    44  O   -0.290708
    45  C    0.107530
    46  C    0.083582
    47  O   -0.390042
    48  O   -0.470941
    49  H    0.136023
    50  H    0.016221
    51  H   -0.018169
    52  H    0.019607
    53  N   -0.158574
    54  C    0.233023
    55  C    0.043688
    56  O   -0.293138
    57  H    0.140751
    58  H    0.012634
    59  H    0.039313
    60  N   -0.182002
    61  C    0.147019
    62  C    0.047823
    63  O   -0.290978
    64  C    0.095438
    65  C    0.051150
    66  N   -0.043741
    67  O   -0.346228
    68  H    0.148023
    69  H    0.036525
    70  H    0.076500
    71  H   -0.002635
    72  H    0.136318
    73  H    0.116334
    74  N   -0.141878
    75  C    0.235492
    76  C   -0.005934
    77  O   -0.298064
    78  H    0.146058
    79  H    0.039721
    80  H    0.040617
    81  N   -0.117780
    82  C    0.167336
    83  C    0.143182
    84  O   -0.368575
    85  C    0.111033
    86  C   -0.023081
    87  C    0.033765
    88  C   -0.006280
    89  C   -0.042412
    90  C   -0.082065
    91  C    0.197782
    92  O   -0.195630
    93  H    0.132179
    94  H   -0.006967
    95  H   -0.011970
    96  H   -0.029724
    97  H   -0.036658
    98  H   -0.043655
    99  H   -0.029674
   100  H   -0.031962
   101  H    0.181827
   102  N   -0.111648
   103  C    0.160637
   104  C    0.065636
   105  O   -0.283506
   106  C   -0.089831
   107  C    0.004971
   108  C    0.063200
   109  C    0.019625
   110  H    0.122887
   111  H    0.024837
   112  H   -0.022944
   113  H    0.010317
   114  H   -0.003340
   115  H    0.014121
   116  H   -0.011342
   117  H    0.022234
   118  H    0.012911
   119  H    0.009200
   120  H   -0.002357
   121  N   -0.139563
   122  C    0.077981
   123  C    0.105461
   124  O   -0.262472
   125  C    0.242365
   126  O   -0.286769
   127  H    0.167190
   128  H    0.019353
   129  H   -0.004024
   130  H   -0.032602
   131  H    0.190439
   132  N   -0.159362
   133  C    0.079197
   134  C    0.078316
   135  O   -0.239546
   136  C    0.052776
   137  H    0.108792
   138  H    0.025156
   139  H    0.034873
   140  H    0.004012
   141  H    0.044412
   142  N   -0.145225
   143  C    0.122504
   144  C    0.031675
   145  O   -0.271557
   146  C    0.056765
   147  H    0.096365
   148  H    0.021722
   149  H    0.014121
   150  H    0.030904
   151  H   -0.034209
   152  N   -0.143241
   153  C    0.147749
   154  C    0.058591
   155  O   -0.277583
   156  C   -0.034255
   157  C    0.126111
   158  C    0.150656
   159  O   -0.421132
   160  O   -0.422034
   161  H    0.103483
   162  H   -0.044421
   163  H    0.049911
   164  H    0.011024
   165  H   -0.044421
   166  H   -0.033458
   167  N   -0.175971
   168  C    0.145308
   169  H    0.025569
   170  H    0.022283
   171  H    0.005029
   172  H    0.131516
   173  Ca   1.291539
   174  O   -0.279238
   175  H    0.179635
   176  H    0.196489
 Sum of Mulliken charges =   0.00000
 Mulliken charges with hydrogens summed into heavy atoms:
               1
     1  C    0.136713
     2  C    0.046332
     3  O   -0.295060
     7  N   -0.032224
     8  C    0.091621
     9  C    0.080495
    10  O   -0.273844
    11  C    0.068584
    12  C    0.134596
    13  O   -0.372480
    14  O   -0.448377
    19  N   -0.004611
    20  C    0.164204
    21  C    0.075641
    22  O   -0.298776
    23  C    0.006224
    24  C    0.075636
    25  C    0.075007
    26  C    0.132211
    27  N    0.645602
    41  N   -0.022995
    42  C    0.169810
    43  C    0.037109
    44  O   -0.290708
    45  C    0.108968
    46  C    0.083582
    47  O   -0.390042
    48  O   -0.470941
    53  N   -0.017824
    54  C    0.284971
    55  C    0.043688
    56  O   -0.293138
    60  N   -0.033979
    61  C    0.183543
    62  C    0.047823
    63  O   -0.290978
    64  C    0.169303
    65  C    0.051150
    66  N    0.208911
    67  O   -0.346228
    74  N    0.004180
    75  C    0.315830
    76  C   -0.005934
    77  O   -0.298064
    81  N    0.014400
    82  C    0.160369
    83  C    0.143182
    84  O   -0.368575
    85  C    0.069339
    86  C   -0.023081
    87  C   -0.002893
    88  C   -0.049935
    89  C   -0.072086
    90  C   -0.114027
    91  C    0.197782
    92  O   -0.013803
   102  N    0.011240
   103  C    0.185473
   104  C    0.065636
   105  O   -0.283506
   106  C   -0.112775
   107  C    0.011948
   108  C    0.088212
   109  C    0.039379
   121  N    0.027628
   122  C    0.097333
   123  C    0.105461
   124  O   -0.262472
   125  C    0.205739
   126  O   -0.096330
   132  N   -0.050570
   133  C    0.104353
   134  C    0.078316
   135  O   -0.239546
   136  C    0.136073
   142  N   -0.048859
   143  C    0.144226
   144  C    0.031675
   145  O   -0.271557
   146  C    0.067581
   152  N   -0.039758
   153  C    0.103328
   154  C    0.058591
   155  O   -0.277583
   156  C    0.026680
   157  C    0.048232
   158  C    0.150656
   159  O   -0.421132
   160  O   -0.422034
   167  N   -0.044455
   168  C    0.198188
   173  Ca   1.291539
   174  O    0.096886
 DipInt: DoE/N= T F RetVal/Mat= T F Init=T NMatP=  1 IDeriv=0 Min/MaxMlt=  0  4
 Entering OneElI...
 OneElI was handed  4286741430 working-precision words.
 Multipole integrals L=0 to 4 MinM= 0 MaxM= 0.
 Requested accuracy = 0.1000D-12
 ShPair: Thresh= 1.00D-13 NBox=     0 BxSize= 0.00D+00 RnKept= 2.55D+01
         NSMCal=               327645 NSMKep=              161701
 PrsmSu:  NPrtUS=   1 ThrOK=F IAlg=1 NPAlg=1 LenDen=           0.
 Prism:   IPart=     0 DynPar=F LinDyn=F Incr=         512.
 PRISM was handed  4276629494 working-precision words and161701 shell-pairs
 IPart=  0 NShTot=      161701 NBatch=         452 AvBLen=       357.7
 PrSmSu:  NxtVal=            513.
 Electronic moments (au):
       -716.00000000         12.31598578         -2.32094496         -8.86972187
     -53419.06966163     -30811.27886904     -11455.68391177        104.06488818
        -58.18414279        -14.33886071     -40769.36244660     -14076.79688650
     -19170.20506913      37887.89703058     114660.81910833      44266.66110671
     -16334.78193442      -6060.68045758      20511.01748982      -6538.87369018
   -7919630.00858181   -2921028.48044181    -542703.99864050    -195860.50335925
     267598.76130888    -623960.84265696      33647.25863061     -87377.63542724
      33144.63062638   -2437695.75397396    -642261.18197386    -322652.96379705
    -160397.08850811      43833.14266806      44165.50508966
 Electronic spatial extent (au):  <R**2>=          95686.0324
 DipInt: DoE/N= F T RetVal/Mat= T F Init=T NMatP=  1 IDeriv=0 Min/MaxMlt=  0  4
 Nuclear    moments (au):
        716.00000000          0.00000000          0.00000000          0.00000000
      52974.38013480      30420.28171640      11085.13581580          0.00000000
          0.00000000          0.00000000      41540.92202857      14404.49515028
      19018.27879773     -35980.72611481    -114328.28683935     -45489.59908489
      16819.65770022       5971.42279764     -21159.95531706       5979.50319089
    7721835.71097780    2814300.95530550     505170.55195479     209848.37363253
    -273303.35159651     635129.72272704     -38088.42635523      85491.76041689
     -32397.06627726    2398323.03908448     608770.09939982     299775.65345517
     156951.81634020     -50687.46212098     -41731.42270287
 Total      moments (au):
          0.00000000         12.31598578         -2.32094496         -8.86972187
       -444.68952683       -390.99715263       -370.54809597        104.06488818
        -58.18414279        -14.33886071        771.55958197        327.69826378
       -151.92627140       1907.17091577        332.53226898      -1222.93797818
        484.87576579        -89.25765994       -648.93782724       -559.37049929
    -197794.29760401    -106727.52513631     -37533.44668572      13987.87027327
      -5704.59028763      11168.88007007      -4441.16772461      -1885.87501035
        747.56434912     -39372.71488947     -33491.08257404     -22877.31034188
      -3445.27216791      -6854.31945292       2434.08238678
 Traceless Quadrup. (au):
        -42.61126835         11.08110584         31.53016251        104.06488818
        -58.18414279        -14.33886071
 Charge=              0.0000 electrons
 Dipole moment (field-independent basis, Debye):
    X=             31.3041    Y=             -5.8993    Z=            -22.5446  Tot=             39.0257
 Quadrupole moment (field-independent basis, Debye-Ang):
   XX=           -598.1226   YY=           -525.9045   ZZ=           -498.3999
   XY=            139.9708   XZ=            -78.2597   YZ=            -19.2863
 Traceless Quadrupole moment (field-independent basis, Debye-Ang):
   XX=            -57.3136   YY=             14.9045   ZZ=             42.4091
   XY=            139.9708   XZ=            -78.2597   YZ=            -19.2863
 Octapole moment (field-independent basis, Debye-Ang**2):
  XXX=            549.1664  YYY=            233.2430  ZZZ=           -108.1353  XYY=           1357.4507
  XXY=            236.6836  XXZ=           -870.4401  XZZ=            345.1159  YZZ=            -63.5302
  YYZ=           -461.8889  XYZ=           -398.1383
 Hexadecapole moment (field-independent basis, Debye-Ang**3):
 XXXX=         -74498.8121 YYYY=         -40198.7011 ZZZZ=         -14136.8949 XXXY=           5268.5023
 XXXZ=          -2148.6221 YYYX=           4206.7355 YYYZ=          -1672.7566 ZZZX=           -710.3109
 ZZZY=            281.5686 XXYY=         -14829.6514 XXZZ=         -12614.3468 YYZZ=          -8616.6915
 XXYZ=          -1297.6546 YYXZ=          -2581.6652 ZZXY=            916.7921
 N-N= 2.169921388043D+04 E-N=-5.587920087669D+04  KE= 5.290404866892D+03
 Leave Link  601 at Mon Sep 16 12:19:24 2019, MaxMem=  4294967296 cpu:        22.1
 FitSet:  NAtFit=   176 NAtPot=   176 NAtFrz=     0 MDM=   180 TotChg=   0.00000
 Merz-Kollman atomic radii used.
 Read replacement radii for each type of atom:
 Rad(20) =   1.700000000000D+00
 Atom Element Radius
    1     6    1.50
    2     6    1.50
    3     8    1.40
    4     1    1.20
    5     1    1.20
    6     1    1.20
    7     7    1.50
    8     6    1.50
    9     6    1.50
   10     8    1.40
   11     6    1.50
   12     6    1.50
   13     8    1.40
   14     8    1.40
   15     1    1.20
   16     1    1.20
   17     1    1.20
   18     1    1.20
   19     7    1.50
   20     6    1.50
   21     6    1.50
   22     8    1.40
   23     6    1.50
   24     6    1.50
   25     6    1.50
   26     6    1.50
   27     7    1.50
   28     1    1.20
   29     1    1.20
   30     1    1.20
   31     1    1.20
   32     1    1.20
   33     1    1.20
   34     1    1.20
   35     1    1.20
   36     1    1.20
   37     1    1.20
   38     1    1.20
   39     1    1.20
   40     1    1.20
   41     7    1.50
   42     6    1.50
   43     6    1.50
   44     8    1.40
   45     6    1.50
   46     6    1.50
   47     8    1.40
   48     8    1.40
   49     1    1.20
   50     1    1.20
   51     1    1.20
   52     1    1.20
   53     7    1.50
   54     6    1.50
   55     6    1.50
   56     8    1.40
   57     1    1.20
   58     1    1.20
   59     1    1.20
   60     7    1.50
   61     6    1.50
   62     6    1.50
   63     8    1.40
   64     6    1.50
   65     6    1.50
   66     7    1.50
   67     8    1.40
   68     1    1.20
   69     1    1.20
   70     1    1.20
   71     1    1.20
   72     1    1.20
   73     1    1.20
   74     7    1.50
   75     6    1.50
   76     6    1.50
   77     8    1.40
   78     1    1.20
   79     1    1.20
   80     1    1.20
   81     7    1.50
   82     6    1.50
   83     6    1.50
   84     8    1.40
   85     6    1.50
   86     6    1.50
   87     6    1.50
   88     6    1.50
   89     6    1.50
   90     6    1.50
   91     6    1.50
   92     8    1.40
   93     1    1.20
   94     1    1.20
   95     1    1.20
   96     1    1.20
   97     1    1.20
   98     1    1.20
   99     1    1.20
  100     1    1.20
  101     1    1.20
  102     7    1.50
  103     6    1.50
  104     6    1.50
  105     8    1.40
  106     6    1.50
  107     6    1.50
  108     6    1.50
  109     6    1.50
  110     1    1.20
  111     1    1.20
  112     1    1.20
  113     1    1.20
  114     1    1.20
  115     1    1.20
  116     1    1.20
  117     1    1.20
  118     1    1.20
  119     1    1.20
  120     1    1.20
  121     7    1.50
  122     6    1.50
  123     6    1.50
  124     8    1.40
  125     6    1.50
  126     8    1.40
  127     1    1.20
  128     1    1.20
  129     1    1.20
  130     1    1.20
  131     1    1.20
  132     7    1.50
  133     6    1.50
  134     6    1.50
  135     8    1.40
  136     6    1.50
  137     1    1.20
  138     1    1.20
  139     1    1.20
  140     1    1.20
  141     1    1.20
  142     7    1.50
  143     6    1.50
  144     6    1.50
  145     8    1.40
  146     6    1.50
  147     1    1.20
  148     1    1.20
  149     1    1.20
  150     1    1.20
  151     1    1.20
  152     7    1.50
  153     6    1.50
  154     6    1.50
  155     8    1.40
  156     6    1.50
  157     6    1.50
  158     6    1.50
  159     8    1.40
  160     8    1.40
  161     1    1.20
  162     1    1.20
  163     1    1.20
  164     1    1.20
  165     1    1.20
  166     1    1.20
  167     7    1.50
  168     6    1.50
  169     1    1.20
  170     1    1.20
  171     1    1.20
  172     1    1.20
  173    20    1.70
  174     8    1.40
  175     1    1.20
  176     1    1.20
 Generate VDW surfaces: Layer= 4 Dens= 6 Start= 1.400 Inc= 0.200

 **********************************************************************

            Electrostatic Properties Using The SCF Density

 **********************************************************************

       Atomic Center    1 is at   2.664620  1.886703  5.359451
       Atomic Center    2 is at   2.024103  1.987766  3.984197
       Atomic Center    3 is at   2.673606  2.354491  3.005647
[...]
 **** Fit       0.000832
 **** Fit      -0.010817
 **** Fit       0.036498
 **** Fit       0.029103
 **** Fit       0.033180
 **** Fit       0.043455
 **** Fit       0.037939
 **** Fit       0.047855
 **** Fit       0.053237
 **** Fit       0.024439
 **** Fit       0.016401
 **** Fit       0.006771
 **** Fit      -0.003713
 **** Fit       0.024009
 **** Fit       0.015352
 **** Fit       0.005371
 **** Fit       0.026106
 **** Fit       0.016644
 **** Fit       0.006942
 **** Fit       0.001974
 **** Fit       0.003957
 **** Fit       0.016523
 **** Fit       0.017160
 **** Fit       0.031904
 **** Fit       0.034110
 **** Fit       0.064496
 **** Fit       0.073797
 **** Fit       0.067846
 **** Fit       0.071451
 **** Fit       0.066975
 **** Fit       0.072912
 **** Fit       0.041173
 **** Fit       0.033622
 **** Fit       0.063021
 **** Fit       0.064806
 **** Fit       0.068167
 **** Fit       0.070999
 **** Fit       0.071142
 **** Fit       0.067357
 **** Fit       0.060118
 **** Fit       0.051510
 **** Fit       0.044122
 **** Fit       0.040143
 **** Fit       0.066554
 **** Fit       0.067386
 **** Fit       0.066770
 **** Fit       0.063155
 **** Fit       0.057122
 **** Fit       0.051076
 **** Fit       0.047768
 **** Fit       0.048847
 **** Fit       0.054055
 **** Fit       0.066655
 **** Fit       0.064471
 **** Fit       0.060401
 **** Fit       0.055980
 **** Fit       0.055025
 **** Fit       0.064973
 **** Fit       0.061618
 **** Fit      -0.003687
 **** Fit      -0.003664
 **** Fit      -0.004166
 **** Fit      -0.005125
 **** Fit      -0.006777
 **** Fit      -0.003258
 **** Fit      -0.002822
 **** Fit      -0.002667
 **** Fit      -0.002885
 **** Fit      -0.003477
 **** Fit      -0.004366
 **** Fit      -0.005483
 **** Fit      -0.007198
 **** Fit      -0.008731
 **** Fit      -0.003256
 **** Fit      -0.002613
 **** Fit      -0.002086
 **** Fit      -0.002022
 **** Fit      -0.002687
 **** Fit      -0.003580
 **** Fit      -0.004634
 **** Fit      -0.005834
 **** Fit      -0.007622
 **** Fit      -0.009153
 **** Fit      -0.010901
 **** Fit      -0.003026
 **** Fit      -0.002371
 **** Fit      -0.001789
 **** Fit      -0.002091
 **** Fit      -0.003028
 **** Fit      -0.004039
 **** Fit      -0.005116
 **** Fit      -0.006292
 **** Fit      -0.008046
 **** Fit      -0.009628
 **** Fit      -0.011515
 **** Fit      -0.013730
 **** Fit      -0.002761
 **** Fit      -0.002111
 **** Fit      -0.002312
 **** Fit      -0.003393
 **** Fit      -0.004462
 **** Fit      -0.005548
 **** Fit      -0.006714
 **** Fit      -0.011979
 **** Fit      -0.014355
 **** Fit      -0.017193
 **** Fit      -0.020515
 **** Fit      -0.002898
 **** Fit      -0.004024
 **** Fit      -0.005073
 **** Fit      -0.006098
 **** Fit      -0.007191
 **** Fit      -0.018114
 **** Fit      -0.021921
 **** Fit      -0.026510
 **** Fit      -0.003675
 **** Fit      -0.004806
 **** Fit      -0.005795
 **** Fit      -0.028001
 **** Fit      -0.003521
 **** Fit      -0.004831
 **** Fit      -0.005896
 **** Fit      -0.004993
 **** Fit      -0.006319
 **** Fit      -0.006745
 **** Fit      -0.008217
 **** Fit      -0.007171
 **** Fit      -0.009474
 **** Fit      -0.010959
 **** Fit      -0.013743
 **** Fit      -0.008956
 **** Fit      -0.010568
 **** Fit      -0.012623
 **** Fit      -0.007680
 **** Fit      -0.009226
 **** Fit      -0.010728
 **** Fit      -0.012698
 **** Fit      -0.015260
 **** Fit      -0.018519
 **** Fit      -0.006262
 **** Fit      -0.007124
 **** Fit      -0.008068
 **** Fit      -0.009673
 **** Fit      -0.011031
 **** Fit      -0.012839
 **** Fit      -0.015233
 **** Fit      -0.018374
 **** Fit      -0.022457
 **** Fit      -0.006398
 **** Fit      -0.007130
 **** Fit      -0.007839
 **** Fit      -0.008648
 **** Fit      -0.010410
 **** Fit      -0.011695
 **** Fit      -0.013458
 **** Fit      -0.015848
 **** Fit      -0.019057
 **** Fit      -0.023359
 **** Fit      -0.029157
 **** Fit      -0.007608
 **** Fit      -0.008203
 **** Fit      -0.008784
 **** Fit      -0.009479
 **** Fit      -0.011561
 **** Fit      -0.012739
 **** Fit      -0.014409
 **** Fit      -0.016716
 **** Fit      -0.019850
 **** Fit      -0.024096
 **** Fit      -0.029909
 **** Fit      -0.008833
 **** Fit      -0.009388
 **** Fit      -0.009797
 **** Fit      -0.010209
 **** Fit      -0.010756
 **** Fit      -0.013274
 **** Fit      -0.014348
 **** Fit      -0.015960
 **** Fit      -0.018248
 **** Fit      -0.021398
 **** Fit      -0.025688
 **** Fit      -0.031579
 **** Fit      -0.011633
 **** Fit      -0.011934
 **** Fit      -0.012088
 **** Fit      -0.012267
 **** Fit      -0.012620
 **** Fit      -0.015732
 **** Fit      -0.016724
 **** Fit      -0.018385
 **** Fit      -0.020864
 **** Fit      -0.024356
 **** Fit      -0.029157
 **** Fit      -0.035767
 **** Fit      -0.015797
 **** Fit      -0.015715
 **** Fit      -0.015445
 **** Fit      -0.015236
 **** Fit      -0.015281
 **** Fit      -0.019165
 **** Fit      -0.020035
 **** Fit      -0.021810
 **** Fit      -0.024645
 **** Fit      -0.028735
 **** Fit      -0.034357
 **** Fit      -0.020513
 **** Fit      -0.019572
 **** Fit      -0.019061
 **** Fit      -0.023861
 **** Fit      -0.024483
 **** Fit      -0.026357
 **** Fit      -0.029617
 **** Fit      -0.034397
 **** Fit      -0.024364
 **** Fit      -0.030390
 **** Fit      -0.032650
 **** Fit      -0.036998
 **** Fit      -0.007205
 **** Fit      -0.007571
 **** Fit      -0.008833
 **** Fit      -0.008510
 **** Fit      -0.006891
 **** Fit      -0.005897
 **** Fit      -0.006225
 **** Fit      -0.008011
 **** Fit      -0.009598
 **** Fit      -0.010856
 **** Fit      -0.011204
 **** Fit      -0.010289
 **** Fit      -0.008456
 **** Fit      -0.006601
 **** Fit      -0.005377
 **** Fit      -0.004844
 **** Fit      -0.004878
 **** Fit      -0.005451
 **** Fit      -0.006540
 **** Fit      -0.008545
 **** Fit      -0.010232
 **** Fit      -0.011931
 **** Fit      -0.013378
 **** Fit      -0.014197
 **** Fit      -0.014026
 **** Fit      -0.012742
 **** Fit      -0.010619
 **** Fit      -0.008269
 **** Fit      -0.006322
 **** Fit      -0.005037
 **** Fit      -0.004324
 **** Fit      -0.003992
 **** Fit      -0.003936
 **** Fit      -0.005740
 **** Fit      -0.007017
 **** Fit      -0.009185
 **** Fit      -0.011029
 **** Fit      -0.013011
 **** Fit      -0.015013
 **** Fit      -0.016801
 **** Fit      -0.018026
 **** Fit      -0.018307
 **** Fit      -0.017405
 **** Fit      -0.015366
 **** Fit      -0.012543
 **** Fit      -0.009547
 **** Fit      -0.007041
 **** Fit      -0.005316
 **** Fit      -0.004273
 **** Fit      -0.003696
 **** Fit      -0.003369
 **** Fit      -0.011995
 **** Fit      -0.014283
 **** Fit      -0.016757
 **** Fit      -0.019288
 **** Fit      -0.021607
 **** Fit      -0.023306
 **** Fit      -0.023926
 **** Fit      -0.023144
 **** Fit      -0.020947
 **** Fit      -0.017625
 **** Fit      -0.013694
 **** Fit      -0.009940
 **** Fit      -0.007073
 **** Fit      -0.005193
 **** Fit      -0.004054
 **** Fit      -0.003419
 **** Fit      -0.018507
 **** Fit      -0.021676
 **** Fit      -0.024976
 **** Fit      -0.028092
 **** Fit      -0.030524
 **** Fit      -0.031692
 **** Fit      -0.031159
 **** Fit      -0.028850
 **** Fit      -0.025063
 **** Fit      -0.007604
 **** Fit      -0.005534
 **** Fit      -0.004214
 **** Fit      -0.025025
 **** Fit      -0.029563
 **** Fit      -0.009140
 **** Fit      -0.006632
 **** Fit      -0.011713
 **** Fit      -0.001603
 **** Fit      -0.001000
 **** Fit      -0.000900
 **** Fit      -0.001352
 **** Fit      -0.001437
 **** Fit      -0.000690
 **** Fit      -0.000175
 **** Fit       0.000034
 **** Fit      -0.000140
 **** Fit      -0.000697
 **** Fit      -0.001543
 **** Fit      -0.000932
 **** Fit      -0.000239
 **** Fit       0.000351
 **** Fit       0.000750
 **** Fit       0.000849
 **** Fit       0.000590
 **** Fit      -0.000014
 **** Fit      -0.000883
 **** Fit      -0.001044
 **** Fit      -0.000364
 **** Fit       0.000363
 **** Fit       0.001029
 **** Fit       0.001479
 **** Fit       0.001600
 **** Fit       0.001342
 **** Fit       0.000721
 **** Fit      -0.000190
 **** Fit      -0.001282
 **** Fit      -0.000161
 **** Fit       0.000794
 **** Fit       0.001610
 **** Fit       0.002140
 **** Fit       0.002293
 **** Fit       0.002035
 **** Fit       0.001388
 **** Fit       0.000423
 **** Fit      -0.000755
 **** Fit      -0.002024
 **** Fit      -0.001182
 **** Fit       0.000256
 **** Fit       0.001518
 **** Fit       0.002437
 **** Fit       0.002906
 **** Fit       0.002870
 **** Fit       0.002334
 **** Fit       0.001364
 **** Fit       0.000071
 **** Fit      -0.001406
 **** Fit      -0.002916
 **** Fit      -0.000911
 **** Fit       0.000963
 **** Fit       0.002410
 **** Fit       0.003316
 **** Fit       0.003606
 **** Fit       0.003264
 **** Fit       0.002345
 **** Fit       0.000963
 **** Fit      -0.000727
 **** Fit      -0.002548
 **** Fit      -0.001116
 **** Fit       0.001293
 **** Fit       0.003071
 **** Fit       0.004085
 **** Fit       0.004262
 **** Fit       0.003619
 **** Fit       0.002264
 **** Fit       0.000374
 **** Fit      -0.001837
 **** Fit      -0.004133
 **** Fit      -0.004013
 **** Fit      -0.000264
 **** Fit       0.002663
 **** Fit       0.004497
 **** Fit       0.005080
 **** Fit       0.004415
 **** Fit       0.002669
 **** Fit       0.000122
 **** Fit      -0.002887
 **** Fit      -0.005999
 **** Fit       0.003821
 **** Fit       0.003721
 **** Fit       0.000316
 **** Fit      -0.003917
 **** Fit      -0.008376
 **** Fit      -0.005246
 **** Fit       0.037956
 **** Fit       0.028219
 **** Fit       0.017375
 **** Fit       0.005334
 **** Fit       0.061248
 **** Fit       0.054886
 **** Fit       0.046869
 **** Fit       0.037373
 **** Fit       0.026369
 **** Fit       0.013679
 **** Fit       0.061917
 **** Fit       0.054545
 **** Fit       0.045458
 **** Fit       0.034634
 **** Fit       0.021825
 **** Fit       0.061854
 **** Fit       0.052715
 **** Fit       0.041777
 **** Fit       0.028633
 **** Fit       0.012658
 **** Fit       0.049749
 **** Fit       0.036372
 **** Fit       0.020221
 **** Fit       0.044781
 **** Fit       0.027528
 **** Fit       0.067998
 **** Fit       0.065975
 **** Fit       0.062399
 **** Fit       0.066534
 **** Fit       0.067025
 **** Fit       0.069794
 **** Fit       0.067095
 **** Fit       0.064048
 **** Fit       0.070454
 **** Fit       0.069972
 **** Fit       0.067845
 **** Fit       0.064457
 **** Fit       0.060130
 **** Fit       0.054634
 **** Fit       0.047355
 **** Fit       0.068018
 **** Fit       0.067062
 **** Fit       0.064714
 **** Fit       0.061059
 **** Fit       0.056183
 **** Fit       0.049930
 **** Fit       0.042075
 **** Fit       0.032783
 **** Fit       0.023232
 **** Fit       0.016752
 **** Fit       0.023907
 **** Fit       0.061600
 **** Fit       0.067435
 **** Fit       0.067908
 **** Fit       0.065192
 **** Fit       0.063736
 **** Fit       0.060935
 **** Fit       0.056737
 **** Fit       0.051148
 **** Fit       0.044214
 **** Fit       0.036350
 **** Fit       0.028815
 **** Fit       0.023739
 **** Fit       0.022963
 **** Fit       0.026541
 **** Fit       0.032945
 **** Fit       0.040446
 **** Fit       0.047568
 **** Fit       0.053037
 **** Fit       0.056490
 **** Fit       0.058762
 **** Fit       0.060859
 **** Fit       0.063107
 **** Fit       0.066553
 **** Fit       0.066010
 **** Fit       0.065662
 **** Fit       0.065612
 **** Fit       0.065626
 **** Fit       0.062361
 **** Fit       0.060480
 **** Fit       0.057275
 **** Fit       0.052699
 **** Fit       0.046932
 **** Fit       0.040554
 **** Fit       0.034820
 **** Fit       0.031476
 **** Fit       0.031707
 **** Fit       0.035200
 **** Fit       0.040546
 **** Fit       0.046196
 **** Fit       0.050982
 **** Fit       0.054522
 **** Fit       0.057201
 **** Fit       0.059495
 **** Fit       0.061469
 **** Fit       0.062882
 **** Fit       0.063588
 **** Fit       0.063742
 **** Fit       0.063658
 **** Fit       0.063520
 **** Fit       0.063218
 **** Fit       0.059646
 **** Fit       0.057302
 **** Fit       0.053576
 **** Fit       0.048694
 **** Fit       0.043491
 **** Fit       0.039480
 **** Fit       0.038219
 **** Fit       0.040100
 **** Fit       0.044051
 **** Fit       0.048499
 **** Fit       0.052365
 **** Fit       0.055418
 **** Fit       0.057833
 **** Fit       0.059643
 **** Fit       0.060756
 **** Fit       0.061236
 **** Fit       0.061255
 **** Fit       0.060824
 **** Fit       0.057082
 **** Fit       0.054101
 **** Fit       0.049788
 **** Fit       0.045655
 **** Fit       0.043967
 **** Fit       0.045637
 **** Fit       0.049256
 **** Fit       0.052937
 **** Fit       0.055842
 **** Fit       0.057766
 **** Fit       0.058638
 **** Fit       0.058476
 **** Fit       0.054695
 **** Fit       0.051089
 **** Fit       0.048660
 **** Fit       0.050671
 **** Fit       0.054101
 **** Fit       0.055793
 **** Fit       0.052530
 **** Fit       0.034246
 **** Fit       0.033449
 **** Fit       0.033517
 **** Fit       0.035208
 **** Fit       0.038868
 **** Fit       0.038998
 **** Fit       0.039545
 **** Fit       0.041025
 **** Fit       0.040383
 **** Fit       0.041343
 **** Fit       0.042154
 **** Fit       0.042877
 **** Fit       0.043744
 **** Fit       0.045072
 **** Fit       0.047188
 **** Fit       0.046358
 **** Fit       0.043872
 **** Fit       0.043123
 **** Fit       0.043408
 **** Fit       0.044179
 **** Fit       0.045114
 **** Fit       0.046131
 **** Fit       0.047327
 **** Fit       0.048897
 **** Fit       0.051053
 **** Fit       0.053952
 **** Fit       0.049804
 **** Fit       0.047467
 **** Fit       0.046685
 **** Fit       0.046864
 **** Fit       0.047576
 **** Fit       0.048585
 **** Fit       0.049835
 **** Fit       0.051398
 **** Fit       0.053396
 **** Fit       0.055912
 **** Fit       0.056195
 **** Fit       0.052505
 **** Fit       0.050563
 **** Fit       0.049895
 **** Fit       0.050076
 **** Fit       0.050797
 **** Fit       0.051892
 **** Fit       0.053315
 **** Fit       0.055096
 **** Fit       0.057259
 **** Fit       0.059757
 **** Fit       0.061230
 **** Fit       0.057117
 **** Fit       0.054427
 **** Fit       0.053102
 **** Fit       0.052838
 **** Fit       0.053323
 **** Fit       0.054341
 **** Fit       0.055787
 **** Fit       0.057621
 **** Fit       0.059797
 **** Fit       0.062197
 **** Fit       0.064631
 **** Fit       0.061393
 **** Fit       0.058323
 **** Fit       0.056411
 **** Fit       0.055644
 **** Fit       0.055806
 **** Fit       0.056668
 **** Fit       0.058073
 **** Fit       0.059920
 **** Fit       0.062108
 **** Fit       0.064517
 **** Fit       0.060972
 **** Fit       0.059050
 **** Fit       0.058388
 **** Fit       0.058789
 **** Fit       0.060020
 **** Fit       0.061895
 **** Fit       0.064278
 **** Fit       0.062617
 **** Fit       0.061400
 **** Fit       0.061922
 **** Fit       0.063801
 **** Fit       0.066788
 -----------------------------------------------------------------
 Leave Link  602 at Mon Sep 16 12:19:37 2019, MaxMem=  4294967296 cpu:       158.9

 Test job not archived.
 1\1\GINC-N009\SP\RB3LYP\SVP\C54H83Ca1N15O23\PCIEPLAK\16-Sep-2019\0\\#m
 axdisk=50GB #B3LYP/SVP Density=Current scf=(tight) #IOP(5/87=12)Pop=(M
 K,readradii) iop(6/33=2) iop(6/42=6)\\SOL molecule\\0,1\C,0,82.11,56.3
 5,15.73\C,0,82.25,55.14,14.82\O,0,82.98,55.17,13.83\H,0,81.072,56.445,
 16.05\H,0,82.749,56.224,16.604\H,0,82.407,57.248,15.189\N,0,81.55,54.0
 7,15.2\C,0,81.39,52.87,14.4\C,0,80.76,53.34,13.09\O,0,79.64,53.82,12.9
 5\C,0,80.61,51.8,15.16\C,0,80.45,50.49,14.4\O,0,79.4,49.83,14.54\O,0,8
 1.37,50.07,13.68\H,0,80.97,54.15,16.03\H,0,82.42,52.52,14.33\H,0,79.66
 ,52.17,15.55\H,0,81.18,51.68,16.08\N,0,81.51,53.07,12.02\C,0,81.33,53.
 64,10.7\C,0,80.63,52.71,9.72\O,0,79.99,53.13,8.75\C,0,82.7,54.12,10.22
 \C,0,82.55,55.1,9.06\C,0,83.84,55.74,8.55\C,0,84.88,54.83,7.89\N,0,86.
 06,55.51,7.34\H,0,82.34,52.51,12.17\H,0,80.8,54.57,10.89\H,0,83.29,53.
 29,9.84\H,0,83.29,54.62,10.98\H,0,81.86,55.84,9.46\H,0,81.99,54.63,8.2
 5\H,0,84.45,56.09,9.39\H,0,83.57,56.53,7.85\H,0,84.42,54.33,7.03\H,0,8
 5.23,54.05,8.55\H,0,86.62,55.92,8.07\H,0,86.69,54.89,6.84\H,0,85.86,56
 .14,6.57\N,0,80.76,51.4,9.91\C,0,80.05,50.37,9.18\C,0,78.92,49.77,10.\
 O,0,78.11,49.01,9.46\C,0,80.92,49.29,8.55\C,0,81.74,48.47,9.53\O,0,82.
 32,47.44,9.11\O,0,81.95,48.9,10.69\H,0,81.33,51.13,10.7\H,0,79.5,50.89
 ,8.4\H,0,81.66,49.85,7.98\H,0,80.43,48.58,7.89\N,0,78.85,50.16,11.27\C
 ,0,77.73,49.85,12.13\C,0,77.68,48.42,12.66\O,0,76.59,47.92,12.9\H,0,79
 .6,50.72,11.66\H,0,76.81,49.89,11.55\H,0,77.66,50.59,12.93\N,0,78.81,4
 7.7,12.69\C,0,78.8,46.27,12.91\C,0,78.87,45.92,14.39\O,0,78.64,44.77,1
 4.75\C,0,79.92,45.74,12.02\C,0,81.34,45.91,12.55\N,0,82.13,44.87,12.81
 \O,0,81.75,47.01,12.9\H,0,79.65,48.23,12.57\H,0,77.9,45.83,12.48\H,0,7
 9.95,46.27,11.07\H,0,79.68,44.69,11.82\H,0,81.7,43.95,12.77\H,0,83.12,
 44.95,13.02\N,0,79.02,46.94,15.24\C,0,79.04,46.69,16.67\C,0,80.36,46.8
 9,17.4\O,0,80.43,46.84,18.63\H,0,79.15,47.85,14.85\H,0,78.91,45.65,16.
 97\H,0,78.25,47.21,17.23\N,0,81.46,47.09,16.69\C,0,82.8,47.28,17.21\C,
 0,83.52,48.46,16.58\O,0,83.63,48.53,15.35\C,0,83.59,46.01,16.9\C,0,83.
 14,44.73,17.56\C,0,83.68,44.32,18.79\C,0,82.2,43.92,16.92\C,0,83.11,43
 .2,19.42\C,0,81.75,42.75,17.55\C,0,82.09,42.41,18.87\O,0,81.57,41.31,1
 9.49\H,0,81.43,46.8,15.72\H,0,82.81,47.5,18.28\H,0,84.65,46.08,17.13\H
 ,0,83.42,45.78,15.85\H,0,84.46,44.88,19.28\H,0,81.79,44.08,15.93\H,0,8
 3.47,42.87,20.38\H,0,80.96,42.21,17.04\H,0,80.81,40.97,19.01\N,0,84.04
 ,49.41,17.36\C,0,84.86,50.52,16.92\C,0,86.3,50.05,16.74\O,0,86.91,49.4
 ,17.58\C,0,84.79,51.76,17.81\C,0,83.39,52.34,17.99\C,0,85.7,52.92,17.4
 3\C,0,83.19,53.14,19.27\H,0,83.9,49.25,18.34\H,0,84.4,50.77,15.96\H,0,
 85.18,51.45,18.77\H,0,82.66,51.53,17.95\H,0,83.12,53.03,17.19\H,0,85.6
 ,53.36,16.44\H,0,85.49,53.76,18.1\H,0,86.71,52.54,17.62\H,0,83.78,54.0
 6,19.3\H,0,82.17,53.44,19.52\H,0,83.49,52.48,20.08\N,0,86.91,50.54,15.
 66\C,0,88.33,50.41,15.38\C,0,89.12,51.65,15.78\O,0,88.62,52.76,15.94\C
 ,0,88.56,50.01,13.93\O,0,88.19,50.92,12.92\H,0,86.4,50.88,14.86\H,0,88
 .76,49.67,16.06\H,0,88.02,49.06,13.85\H,0,89.61,49.71,13.9\H,0,88.25,5
 0.55,12.04\N,0,90.45,51.61,15.67\C,0,91.34,52.73,15.94\C,0,91.33,53.75
 ,14.81\O,0,91.31,54.97,14.93\C,0,92.71,52.17,16.31\H,0,90.9,50.73,15.4
 7\H,0,90.93,53.25,16.8\H,0,92.65,51.49,17.16\H,0,93.11,51.61,15.46\H,0
 ,93.35,53.,16.59\N,0,91.23,53.2,13.59\C,0,90.9,54.02,12.44\C,0,89.53,5
 4.68,12.47\O,0,89.36,55.84,12.1\C,0,91.23,53.27,11.15\H,0,91.08,52.2,1
 3.54\H,0,91.54,54.89,12.39\H,0,90.92,53.82,10.26\H,0,92.27,52.96,11.21
 \H,0,90.64,52.36,11.08\N,0,88.47,54.,12.92\C,0,87.19,54.62,13.19\C,0,8
 7.28,55.81,14.13\O,0,86.68,56.86,13.89\C,0,86.15,53.55,13.53\C,0,85.55
 ,52.81,12.34\C,0,84.68,51.61,12.72\O,0,83.64,51.39,12.07\O,0,85.12,50.
 79,13.56\H,0,88.55,53.01,13.05\H,0,86.84,55.07,12.25\H,0,85.27,53.99,1
 4.\H,0,86.63,52.87,14.24\H,0,86.32,52.42,11.68\H,0,84.98,53.56,11.8\N,
 0,87.95,55.64,15.28\C,0,88.16,56.68,16.26\H,0,88.946,57.351,15.914\H,0
 ,87.237,57.243,16.397\H,0,88.457,56.232,17.208\H,0,88.41,54.76,15.46\C
 a,0,83.43,48.93,12.74\O,0,85.46,47.32,13.28\H,0,85.65,46.96,12.41\H,0,
 85.93,46.75,13.89\\Version=ES64L-G09RevD.01\State=1-A\HF=-5333.5821635
 \RMSD=5.392e-09\Dipole=14.1367048,2.3973333,-5.4907767\Quadrupole=-56.
 9758356,-2.1774532,59.1532888,-37.3179393,-81.340094,-67.1039539\PG=C0
 1 [X(C54H83Ca1N15O23)]\\@


 One man practicing sportsmanship is far better than 50 preaching it.
 -- Knute K. Rockne
 Job cpu time:       0 days 17 hours 39 minutes 44.1 seconds.
 File lengths (MBytes):  RWF=   1513 Int=      0 D2E=      0 Chk=    103 Scr=      1
 Normal termination of Gaussian 09 at Mon Sep 16 12:19:37 2019.
