 Entering Gaussian System, Link 0=g16
 Initial command:
 /home1/apps/gaussian/16rA.03/g16/l1.exe "/scratch/01990/pengzhi/4329079/Gau-205485.inp" -scrdir="/scratch/01990/pengzhi/4329079/"
 Entering Link 1 = /home1/apps/gaussian/16rA.03/g16/l1.exe PID=    205486.
  
 Copyright (c) 1988,1990,1992,1993,1995,1998,2003,2009,2016,
            Gaussian, Inc.  All Rights Reserved.
  
 This is part of the Gaussian(R) 16 program.  It is based on
 the Gaussian(R) 09 system (copyright 2009, Gaussian, Inc.),
 the Gaussian(R) 03 system (copyright 2003, Gaussian, Inc.),
 the Gaussian(R) 98 system (copyright 1998, Gaussian, Inc.),
 the Gaussian(R) 94 system (copyright 1995, Gaussian, Inc.),
 the Gaussian 92(TM) system (copyright 1992, Gaussian, Inc.),
 the Gaussian 90(TM) system (copyright 1990, Gaussian, Inc.),
 the Gaussian 88(TM) system (copyright 1988, Gaussian, Inc.),
 the Gaussian 86(TM) system (copyright 1986, Carnegie Mellon
 University), and the Gaussian 82(TM) system (copyright 1983,
 Carnegie Mellon University). Gaussian is a federally registered
 trademark of Gaussian, Inc.
  
 This software contains proprietary and confidential information,
 including trade secrets, belonging to Gaussian, Inc.
  
 This software is provided under written license and may be
 used, copied, transmitted, or stored only in accord with that
 written license.
  
 The following legend is applicable only to US Government
 contracts under FAR:
  
                    RESTRICTED RIGHTS LEGEND
  
 Use, reproduction and disclosure by the US Government is
 subject to restrictions as set forth in subparagraphs (a)
 and (c) of the Commercial Computer Software - Restricted
 Rights clause in FAR 52.227-19.
  
 Gaussian, Inc.
 340 Quinnipiac St., Bldg. 40, Wallingford CT 06492
  
  
 ---------------------------------------------------------------
 Warning -- This program may not be used in any manner that
 competes with the business of Gaussian, Inc. or will provide
 assistance to any competitor of Gaussian, Inc.  The licensee
 of this program is prohibited from giving any competitor of
 Gaussian, Inc. access to this program.  By using this program,
 the user acknowledges that Gaussian, Inc. is engaged in the
 business of creating and licensing software in the field of
 computational chemistry and represents and warrants to the
 licensee that it is not a competitor of Gaussian, Inc. and that
 it will not use this program in any manner prohibited above.
 ---------------------------------------------------------------
  

 Cite this work as:
 Gaussian 16, Revision A.03,
 M. J. Frisch, G. W. Trucks, H. B. Schlegel, G. E. Scuseria, 
 M. A. Robb, J. R. Cheeseman, G. Scalmani, V. Barone, 
 G. A. Petersson, H. Nakatsuji, X. Li, M. Caricato, A. V. Marenich, 
 J. Bloino, B. G. Janesko, R. Gomperts, B. Mennucci, H. P. Hratchian, 
 J. V. Ortiz, A. F. Izmaylov, J. L. Sonnenberg, D. Williams-Young, 
 F. Ding, F. Lipparini, F. Egidi, J. Goings, B. Peng, A. Petrone, 
 T. Henderson, D. Ranasinghe, V. G. Zakrzewski, J. Gao, N. Rega, 
 G. Zheng, W. Liang, M. Hada, M. Ehara, K. Toyota, R. Fukuda, 
 J. Hasegawa, M. Ishida, T. Nakajima, Y. Honda, O. Kitao, H. Nakai, 
 T. Vreven, K. Throssell, J. A. Montgomery, Jr., J. E. Peralta, 
 F. Ogliaro, M. J. Bearpark, J. J. Heyd, E. N. Brothers, K. N. Kudin, 
 V. N. Staroverov, T. A. Keith, R. Kobayashi, J. Normand, 
 K. Raghavachari, A. P. Rendell, J. C. Burant, S. S. Iyengar, 
 J. Tomasi, M. Cossi, J. M. Millam, M. Klene, C. Adamo, R. Cammi, 
 J. W. Ochterski, R. L. Martin, K. Morokuma, O. Farkas, 
 J. B. Foresman, and D. J. Fox, Gaussian, Inc., Wallingford CT, 2016.
 
 ******************************************
 Gaussian 16:  ES64L-G16RevA.03 25-Dec-2016
                15-Sep-2019 
 ******************************************
 %chk=CaMKII_loop3_93.0.chk
 %nprocshared=48
 Will use up to   48 processors via shared memory.
 %mem=10GB
 %nosave
 ----------------------------------------------------------------------
 #b3lyp/svp scf=(tight,noincore) Test #IOP(5/87=12) Density=Current Pop
 =(MK,readradii) iop(6/33=2) iop(6/42=6)
 ----------------------------------------------------------------------
 1/30=1,38=1,172=1/1;
 2/12=2,17=6,18=5,40=1/2;
 3/5=18,7=101,11=2,25=1,30=1,74=-5/1,2,3;
 4//1;
 5/5=4,32=2,38=5,87=12/2;
 6/7=2,8=2,9=2,10=2,15=8,20=101,22=-1,28=1,33=2,42=6/1,2;
 99/5=1,9=1/99;
 -----------------
 CaMKII_loop3_93.0
 -----------------
 Symbolic Z-matrix:
 Charge =  0 Multiplicity = 1
 C                     62.16     45.9      38.76 
 C                     61.32     45.54     39.98 
 O                     61.7      44.68     40.78 
 H                     63.144    45.44     38.848 
 H                     61.668    45.534    37.859 
 H                     62.27     46.983    38.701 
 N                     60.1      46.05     40.13 
 C                     59.07     45.61     41.05 
 C                     58.11     44.52     40.58 
 O                     57.       44.83     40.18 
 C                     58.42     46.76     41.8 
 C                     57.61     46.29     43. 
 O                     56.83     47.11     43.54 
 O                     57.74     45.09     43.32 
 H                     59.81     46.59     39.33 
 H                     59.66     45.06     41.78 
 H                     57.71     47.33     41.19 
 H                     59.21     47.44     42.12 
 N                     58.57     43.27     40.72 
 C                     58.02     41.99     40.33 
 C                     56.75     41.57     41.05 
 O                     56.08     40.65     40.57 
 C                     59.11     40.92     40.35 
 C                     60.33     41.28     39.5 
 C                     59.96     41.39     38.02 
 C                     61.3      41.34     37.3 
 N                     61.1      41.21     35.85 
 H                     59.46     43.18     41.2 
 H                     57.59     41.97     39.33 
 H                     58.77     39.99     39.88 
 H                     59.37     40.63     41.36 
 H                     61.06     40.49     39.68 
 H                     60.67     42.26     39.81 
 H                     59.55     42.38     37.82 
 H                     59.31     40.58     37.69 
 H                     61.88     40.54     37.75 
 H                     61.9      42.24     37.45 
 H                     61.95     41.24     35.3 
 H                     60.71     40.29     35.69 
 H                     60.38     41.87     35.58 
 N                     56.36     42.26     42.12 
 C                     55.22     41.82     42.91 
 C                     54.44     43.01     43.45 
 O                     53.46     42.75     44.15 
 C                     55.63     40.72     43.89 
 C                     56.82     41.1      44.75 
 O                     57.59     40.16     45.03 
 O                     57.07     42.29     45.05 
 H                     57.01     42.94     42.48 
 H                     54.55     41.32     42.21 
 H                     55.95     39.83     43.34 
 H                     54.81     40.52     44.57 
 N                     54.71     44.23     42.98 
 C                     53.85     45.34     43.34 
 C                     53.58     45.71     44.79 
 O                     52.6      46.4      45.03 
 H                     55.57     44.34     42.46 
 H                     52.89     45.24     42.84 
 H                     54.32     46.24     42.94 
 N                     54.46     45.17     45.64 
 C                     54.4      45.54     47.04 
 C                     54.88     46.98     47.18 
 O                     54.65     47.54     48.25 
 C                     55.18     44.53     47.88 
 C                     56.69     44.4      47.81 
 N                     57.27     43.37     48.42 
 O                     57.36     45.14     47.1 
 H                     55.22     44.58     45.32 
 H                     53.38     45.51     47.42 
 H                     54.81     43.58     47.5 
 H                     54.92     44.57     48.94 
 H                     56.76     42.76     49.04 
 H                     58.28     43.28     48.42 
 N                     55.52     47.59     46.17 
 C                     55.88     48.99     46.06 
 C                     57.39     49.21     46.14 
 O                     57.76     50.38     46.11 
 H                     55.62     47.04     45.33 
 H                     55.44     49.54     46.89 
 H                     55.58     49.5      45.15 
 N                     58.29     48.24     46.29 
 C                     59.71     48.48     46.22 
 C                     60.52     47.43     45.48 
 O                     60.12     46.27     45.42 
 C                     60.26     48.78     47.62 
 C                     59.77     47.85     48.7 
 C                     58.64     48.1      49.48 
 C                     60.52     46.68     48.84 
 C                     58.2      47.15     50.41 
 C                     60.11     45.7      49.75 
 C                     58.98     45.99     50.56 
 O                     58.67     45.02     51.46 
 H                     57.88     47.32     46.4 
 H                     59.75     49.43     45.68 
 H                     60.1      49.78     48.01 
 H                     61.34     48.61     47.5 
 H                     57.99     48.93     49.23 
 H                     61.44     46.46     48.32 
 H                     57.33     47.39     51. 
 H                     60.65     44.77     49.83 
 H                     59.34     44.34     51.41 
 N                     61.69     47.79     44.96 
 C                     62.68     46.91     44.36 
 C                     63.68     46.4      45.39 
 O                     64.19     47.08     46.27 
 C                     63.39     47.66     43.24 
 C                     62.44     48.29     42.23 
 C                     64.31     46.67     42.53 
 C                     63.08     49.44     41.46 
 H                     61.9      48.77     45.12 
 H                     62.17     46.06     43.91 
 H                     64.       48.47     43.66 
 H                     61.53     48.68     42.69 
 H                     61.92     47.73     41.45 
 H                     65.18     46.32     43.08 
 H                     63.78     45.8      42.16 
 H                     64.78     47.17     41.68 
 H                     63.23     50.26     42.15 
 H                     63.99     49.03     41.01 
 H                     62.4      49.77     40.67 
 N                     64.01     45.12     45.18 
 C                     64.94     44.35     45.98 
 C                     66.03     43.66     45.16 
 O                     65.97     43.55     43.94 
 C                     64.09     43.28     46.66 
 O                     63.56     42.35     45.74 
 H                     63.51     44.7      44.41 
 H                     65.39     45.01     46.71 
 H                     63.31     43.81     47.2 
 H                     64.73     42.87     47.45 
 H                     63.1      42.82     45.04 
 N                     67.05     43.11     45.82 
 C                     68.22     42.49     45.22 
 C                     67.86     41.19     44.51 
 O                     68.42     40.88     43.46 
 C                     69.29     42.16     46.26 
 H                     67.18     43.25     46.81 
 H                     68.78     43.07     44.49 
 H                     68.96     41.46     47.03 
 H                     70.17     41.8      45.72 
 H                     69.51     43.16     46.61 
 N                     66.83     40.46     44.95 
 C                     66.39     39.27     44.24 
 C                     65.66     39.58     42.93 
 O                     65.81     38.87     41.94 
 C                     65.51     38.49     45.2 
 H                     66.47     40.6      45.88 
 H                     67.25     38.63     44.06 
 H                     64.64     39.09     45.47 
 H                     65.15     37.59     44.71 
 H                     65.96     38.21     46.15 
 N                     64.93     40.69     42.89 
 C                     64.36     41.15     41.64 
 C                     65.41     41.66     40.67 
 O                     65.48     41.18     39.54 
 C                     63.23     42.15     41.91 
 C                     62.07     41.63     42.75 
 C                     61.21     42.74     43.36 
 O                     59.98     42.69     43.19 
 O                     61.72     43.39     44.31 
 H                     64.94     41.33     43.68 
 H                     63.98     40.25     41.15 
 H                     62.85     42.54     40.97 
 H                     63.61     42.99     42.49 
 H                     62.47     41.07     43.6 
 H                     61.51     40.93     42.13 
 N                     66.33     42.51     41.14 
 C                     67.36     43.19     40.38 
 H                     68.271    42.591    40.386 
 H                     67.023    43.327    39.352 
 H                     67.562    44.162    40.83 
 H                     66.21     42.92     42.06 
 Ca                    59.05     43.9      45.34 
 O                     59.       41.66     46.8 
 H                     58.57     41.31     47.58 
 H                     58.77     41.04     46.1 
 
 Stoichiometry    C54H83CaN15O23
 Framework group  C1[X(C54H83CaN15O23)]
 Deg. of freedom   522
 Full point group                 C1      NOp   1
 Largest Abelian subgroup         C1      NOp   1
 Largest concise Abelian subgroup C1      NOp   1
                         Standard orientation:                         
 ---------------------------------------------------------------------
 Center     Atomic      Atomic             Coordinates (Angstroms)
 Number     Number       Type             X           Y           Z
 ---------------------------------------------------------------------
      1          6           0        2.605716    2.717206    4.452069
      2          6           0        1.612991    2.271245    3.384728
      3          8           0        2.003887    1.807077    2.309671
      4          1           0        3.606978    2.385566    4.178043
      5          1           0        2.592396    3.804243    4.529483
      6          1           0        2.328851    2.279957    5.411563
      7          7           0        0.311313    2.500366    3.540095
      8          6           0       -0.723953    2.411428    2.529545
      9          6           0       -1.022088    3.657909    1.700085
     10          8           0       -1.980644    4.355185    1.988489
     11          6           0       -1.947718    1.647863    3.005852
     12          6           0       -2.867990    1.248339    1.861090
     13          8           0       -4.019728    0.843220    2.147059
     14          8           0       -2.421085    1.415952    0.707191
     15          1           0        0.115144    3.052074    4.360361
     16          1           0       -0.238978    1.783453    1.785269
     17          1           0       -2.583162    2.226695    3.685753
     18          1           0       -1.602681    0.762286    3.540270
     19          7           0       -0.210740    3.839258    0.650073
     20          6           0       -0.106018    4.912392   -0.314508
     21          6           0       -1.295546    5.083436   -1.243737
     22          8           0       -1.397808    6.138230   -1.878286
     23          6           0        1.230513    4.831475   -1.049720
     24          6           0        2.439122    4.810643   -0.111994
     25          6           0        2.543952    6.112364    0.684206
     26          6           0        3.964966    6.098085    1.229198
     27          7           0        4.296193    7.395113    1.835339
     28          1           0        0.449965    3.089801    0.470121
     29          1           0       -0.158847    5.911363    0.115106
     30          1           0        1.418005    5.732720   -1.644702
     31          1           0        1.243344    4.025939   -1.772733
     32          1           0        3.307997    4.653265   -0.752062
     33          1           0        2.284236    4.016707    0.607573
     34          1           0        1.889560    6.060384    1.554418
     35          1           0        2.371873    6.994572    0.068092
     36          1           0        4.620396    5.797793    0.417326
     37          1           0        4.117677    5.345730    2.005820
     38          1           0        5.204806    7.435558    2.281082
     39          1           0        4.337992    8.068249    1.080859
     40          1           0        3.511659    7.671736    2.414032
     41          7           0       -2.226284    4.131767   -1.277677
     42          6           0       -3.316788    4.196177   -2.238902
     43          6           0       -4.602449    3.642666   -1.641573
     44          8           0       -5.589315    3.633995   -2.379150
     45          6           0       -2.869765    3.671380   -3.603914
     46          6           0       -2.236598    2.294940   -3.536009
     47          8           0       -1.310053    2.099986   -4.347431
     48          8           0       -2.543226    1.465541   -2.649060
     49          1           0       -2.016658    3.277815   -0.786430
     50          1           0       -3.501352    5.257650   -2.406565
     51          1           0       -2.092792    4.321066   -4.017704
     52          1           0       -3.731742    3.582033   -4.254922
     53          7           0       -4.658387    3.405102   -0.329082
     54          6           0       -5.928183    3.063225    0.280867
     55          6           0       -6.758318    1.883009   -0.198994
     56          8           0       -7.943266    1.859499    0.100080
     57          1           0       -3.779471    3.385050    0.170122
     58          1           0       -6.575146    3.936538    0.299974
     59          1           0       -5.715144    2.807613    1.320182
     60          7           0       -6.060754    1.024035   -0.950039
     61          6           0       -6.690941   -0.211580   -1.370300
     62          6           0       -6.835717   -1.118146   -0.153428
     63          8           0       -7.579133   -2.090211   -0.271001
     64          6           0       -5.907757   -0.828762   -2.527801
     65          6           0       -4.514738   -1.405433   -2.357951
     66          7           0       -3.826763   -1.740845   -3.445880
     67          8           0       -3.970211   -1.440777   -1.261210
     68          1           0       -5.079518    1.170854   -1.159132
     69          1           0       -7.694715   -0.039636   -1.755751
     70          1           0       -5.767847    0.022463   -3.190856
     71          1           0       -6.486088   -1.570716   -3.082633
     72          1           0       -4.249555   -1.758530   -4.361049
     73          1           0       -2.908744   -2.162614   -3.358981
     74          7           0       -6.175365   -0.848948    0.983791
     75          6           0       -6.331639   -1.486068    2.276600
     76          6           0       -5.112840   -2.322513    2.663626
     77          8           0       -5.202450   -2.935604    3.723244
     78          1           0       -5.622425   -0.005044    0.970238
     79          1           0       -7.179481   -2.167879    2.240562
     80          1           0       -6.490858   -0.830234    3.126736
     81          7           0       -4.020270   -2.460886    1.914931
     82          6           0       -2.840076   -3.145149    2.381647
     83          6           0       -1.515408   -2.502183    2.010098
     84          8           0       -1.427197   -1.807861    1.000477
     85          6           0       -2.910153   -4.629222    2.000706
     86          6           0       -3.345362   -4.893803    0.582259
     87          6           0       -4.673679   -5.102696    0.208444
     88          6           0       -2.308734   -4.876004   -0.353735
     89          6           0       -5.010278   -5.262519   -1.141429
     90          6           0       -2.601836   -5.021475   -1.713709
     91          6           0       -3.954139   -5.270291   -2.069334
     92          8           0       -4.160024   -5.457146   -3.399633
     93          1           0       -4.081569   -1.993607    1.017995
     94          1           0       -2.977739   -3.114440    3.465993
     95          1           0       -3.535968   -5.268195    2.615336
     96          1           0       -1.863782   -4.955118    2.093439
     97          1           0       -5.464715   -4.941906    0.931153
     98          1           0       -1.257772   -4.790907   -0.122568
     99          1           0       -6.046828   -5.434025   -1.383812
    100          1           0       -1.817165   -4.956970   -2.450615
    101          1           0       -3.310677   -5.448357   -3.838189
    102          7           0       -0.455211   -2.763033    2.769598
    103          6           0        0.921361   -2.381289    2.497894
    104          6           0        1.656225   -3.449977    1.698594
    105          8           0        1.578326   -4.654391    1.899142
    106          6           0        1.627266   -2.112410    3.820922
    107          6           0        0.886463   -1.130436    4.718941
    108          6           0        3.017144   -1.567254    3.502106
    109          6           0        1.275303   -1.268853    6.186812
    110          1           0       -0.676529   -3.378633    3.545584
    111          1           0        0.924523   -1.450982    1.932545
    112          1           0        1.735756   -3.048127    4.384183
    113          1           0       -0.198250   -1.240485    4.663382
    114          1           0        0.880470   -0.049218    4.566196
    115          1           0        3.732240   -2.259091    3.064042
    116          1           0        2.984660   -0.683541    2.875451
    117          1           0        3.517571   -1.304236    4.436875
    118          1           0        0.891339   -2.214973    6.545182
    119          1           0        2.364086   -1.158743    6.220383
    120          1           0        0.810070   -0.464085    6.762404
    121          7           0        2.475379   -2.919057    0.782892
    122          6           0        3.315872   -3.668653   -0.127865
    123          6           0        4.781058   -3.233319   -0.110128
    124          8           0        5.154893   -2.190863    0.416779
    125          6           0        2.742495   -3.395479   -1.515819
    126          8           0        2.906024   -2.049893   -1.909337
    127          1           0        2.433077   -1.911014    0.746022
    128          1           0        3.240147   -4.718443    0.123544
    129          1           0        1.695724   -3.684291   -1.473887
    130          1           0        3.201616   -4.150030   -2.165173
    131          1           0        2.554466   -1.472647   -1.226920
    132          7           0        5.665187   -4.000505   -0.749065
    133          6           0        7.105452   -3.804636   -0.772992
    134          6           0        7.485391   -2.554888   -1.558789
    135          8           0        8.421283   -1.848608   -1.188014
    136          6           0        7.833363   -4.985208   -1.414705
    137          1           0        5.414748   -4.903643   -1.120848
    138          1           0        7.617796   -3.710024    0.181709
    139          1           0        7.553413   -5.167800   -2.453978
    140          1           0        8.906269   -4.809909   -1.297477
    141          1           0        7.553361   -5.764606   -0.718258
    142          7           0        6.707204   -2.145431   -2.565849
    143          6           0        6.977193   -0.903533   -3.271961
    144          6           0        6.640155    0.345852   -2.453095
    145          8           0        7.342378    1.350661   -2.515886
    146          6           0        6.183816   -0.955951   -4.565099
    147          1           0        6.046207   -2.778676   -2.985593
    148          1           0        8.019828   -0.893437   -3.579223
    149          1           0        5.118371   -1.017113   -4.339520
    150          1           0        6.349254   -0.041751   -5.127743
    151          1           0        6.378611   -1.803870   -5.218161
    152          7           0        5.611088    0.263449   -1.615939
    153          6           0        5.341011    1.332381   -0.676023
    154          6           0        6.384320    1.423979    0.422438
    155          8           0        6.977525    2.484253    0.612508
    156          6           0        3.902848    1.228661   -0.155706
    157          6           0        2.807922    1.294422   -1.213256
    158          6           0        1.458900    0.753541   -0.732228
    159          8           0        0.452559    1.466515   -0.884699
    160          8           0        1.369677   -0.494562   -0.593024
    161          1           0        5.137851   -0.626616   -1.483153
    162          1           0        5.488915    2.255648   -1.241887
    163          1           0        3.726437    1.992770    0.596037
    164          1           0        3.748140    0.257816    0.313256
    165          1           0        3.091920    0.661069   -2.058423
    166          1           0        2.766831    2.322560   -1.572763
    167          7           0        6.734256    0.291886    1.043494
    168          6           0        7.631950    0.157207    2.173498
    169          1           0        8.645511   -0.020319    1.813033
    170          1           0        7.612697    1.073340    2.764643
    171          1           0        7.314612   -0.682403    2.791915
    172          1           0        6.189103   -0.550484    0.894760
    173         20           0       -1.482056   -0.308605   -1.124946
    174          8           0       -1.177788   -0.549749   -3.770881
    175          1           0       -1.675259   -0.835339   -4.536884
    176          1           0       -0.933180    0.360385   -3.968674
 ---------------------------------------------------------------------
 Rotational constants (GHZ):           0.0253819           0.0155864           0.0130097
 Standard basis: SVP (5D, 7F)
 There are  1809 symmetry adapted cartesian basis functions of A   symmetry.
 There are  1717 symmetry adapted basis functions of A   symmetry.
  1717 basis functions,  2922 primitive gaussians,  1809 cartesian basis functions
   358 alpha electrons      358 beta electrons
       nuclear repulsion energy     22105.1270119441 Hartrees.
 NAtoms=  176 NActive=  176 NUniq=  176 SFac= 1.00D+00 NAtFMM=   60 NAOKFM=T Big=T
 Integral buffers will be    131072 words long.
 Raffenetti 2 integral format.
 Two-electron integral symmetry is turned on.
 One-electron integrals computed using PRISM.
 NBasis=  1717 RedAO= T EigKep=  2.88D-04  NBF=  1717
 NBsUse=  1717 1.00D-06 EigRej= -1.00D+00 NBFU=  1717
 ExpMin= 1.98D-02 ExpMax= 3.51D+04 ExpMxC= 5.28D+03 IAcc=3 IRadAn=         5 AccDes= 0.00D+00
 Harris functional with IExCor=  402 and IRadAn=       5 diagonalized for initial guess.
 HarFok:  IExCor=  402 AccDes= 0.00D+00 IRadAn=         5 IDoV= 1 UseB2=F ITyADJ=14
 ICtDFT=  3500011 ScaDFX=  1.000000  1.000000  1.000000  1.000000
 FoFCou: FMM=F IPFlag=           0 FMFlag=      100000 FMFlg1=        2001
         NFxFlg=           0 DoJE=T BraDBF=F KetDBF=T FulRan=T
         wScrn=  0.000000 ICntrl=       500 IOpCl=  0 I1Cent=   200000004 NGrid=           0
         NMat0=    1 NMatS0=      1 NMatT0=    0 NMatD0=    1 NMtDS0=    0 NMtDT0=    0
 Petite list used in FoFCou.
 Requested convergence on RMS density matrix=1.00D-08 within 128 cycles.
 Requested convergence on MAX density matrix=1.00D-06.
 Requested convergence on             energy=1.00D-06.
 No special actions if energy rises.
 EnCoef did     4 forward-backward iterations
 EnCoef did     2 forward-backward iterations
 SCF Done:  E(RB3LYP) =  -5333.61450604     A.U. after   18 cycles
            NFock= 18  Conv=0.65D-08     -V/T= 2.0082
 SCF density gives NOpUse=  1 NOpAll=  1.
 Hyperfine terms turned off by default for NAtoms > 100.

 **********************************************************************

            Population analysis using the SCF density.

 **********************************************************************

 Orbital symmetries:
 BldTbl:  Degeneracy threshold= 1.00D-02
       Occupied  (A) (A) (A) (A) (A) (A) (A) (A) (A) (A) (A) (A)
                 (A) (A) (A) (A) (A) (A) (A) (A) (A) (A) (A) (A)
                 (A) (A) (A) (A) (A) (A) (A) (A) (A) (A) (A) (A)
                 (A) (A) (A) (A) (A) (A) (A) (A) (A) (A) (A) (A)
                 (A) (A) (A) (A) (A) (A) (A) (A) (A) (A) (A) (A)
                 (A) (A) (A) (A) (A) (A) (A) (A) (A) (A) (A) (A)
                 (A) (A) (A) (A) (A) (A) (A) (A) (A) (A) (A) (A)
                 (A) (A) (A) (A) (A) (A) (A) (A) (A) (A) (A) (A)
                 (A) (A) (A) (A) (A) (A) (A) (A) (A) (A) (A) (A)
                 (A) (A) (A) (A) (A) (A) (A) (A) (A) (A) (A) (A)
                 (A) (A) (A) (A) (A) (A) (A) (A) (A) (A) (A) (A)
                 (A) (A) (A) (A) (A) (A) (A) (A) (A) (A) (A) (A)
                 (A) (A) (A) (A) (A) (A) (A) (A) (A) (A) (A) (A)
                 (A) (A) (A) (A) (A) (A) (A) (A) (A) (A) (A) (A)
                 (A) (A) (A) (A) (A) (A) (A) (A) (A) (A) (A) (A)
                 (A) (A) (A) (A) (A) (A) (A) (A) (A) (A) (A) (A)
                 (A) (A) (A) (A) (A) (A) (A) (A) (A) (A) (A) (A)
                 (A) (A) (A) (A) (A) (A) (A) (A) (A) (A) (A) (A)
                 (A) (A) (A) (A) (A) (A) (A) (A) (A) (A) (A) (A)
                 (A) (A) (A) (A) (A) (A) (A) (A) (A) (A) (A) (A)
                 (A) (A) (A) (A) (A) (A) (A) (A) (A) (A) (A) (A)
                 (A) (A) (A) (A) (A) (A) (A) (A) (A) (A) (A) (A)
                 (A) (A) (A) (A) (A) (A) (A) (A) (A) (A) (A) (A)
                 (A) (A) (A) (A) (A) (A) (A) (A) (A) (A) (A) (A)
                 (A) (A) (A) (A) (A) (A) (A) (A) (A) (A) (A) (A)
                 (A) (A) (A) (A) (A) (A) (A) (A) (A) (A) (A) (A)
                 (A) (A) (A) (A) (A) (A) (A) (A) (A) (A) (A) (A)
                 (A) (A) (A) (A) (A) (A) (A) (A) (A) (A) (A) (A)
                 (A) (A) (A) (A) (A) (A) (A) (A) (A) (A) (A) (A)
                 (A) (A) (A) (A) (A) (A) (A) (A) (A) (A)
       Virtual   (A) (A) (A) (A) (A) (A) (A) (A) (A) (A) (A) (A)
                 (A) (A) (A) (A) (A) (A) (A) (A) (A) (A) (A) (A)
                 (A) (A) (A) (A) (A) (A) (A) (A) (A) (A) (A) (A)
                 (A) (A) (A) (A) (A) (A) (A) (A) (A) (A) (A) (A)
                 (A) (A) (A) (A) (A) (A) (A) (A) (A) (A) (A) (A)
                 (A) (A) (A) (A) (A) (A) (A) (A) (A) (A) (A) (A)
                 (A) (A) (A) (A) (A) (A) (A) (A) (A) (A) (A) (A)
                 (A) (A) (A) (A) (A) (A) (A) (A) (A) (A) (A) (A)
                 (A) (A) (A) (A) (A) (A) (A) (A) (A) (A) (A) (A)
                 (A) (A) (A) (A) (A) (A) (A) (A) (A) (A) (A) (A)
                 (A) (A) (A) (A) (A) (A) (A) (A) (A) (A) (A) (A)
                 (A) (A) (A) (A) (A) (A) (A) (A) (A) (A) (A) (A)
                 (A) (A) (A) (A) (A) (A) (A) (A) (A) (A) (A) (A)
                 (A) (A) (A) (A) (A) (A) (A) (A) (A) (A) (A) (A)
                 (A) (A) (A) (A) (A) (A) (A) (A) (A) (A) (A) (A)
                 (A) (A) (A) (A) (A) (A) (A) (A) (A) (A) (A) (A)
                 (A) (A) (A) (A) (A) (A) (A) (A) (A) (A) (A) (A)
                 (A) (A) (A) (A) (A) (A) (A) (A) (A) (A) (A) (A)
                 (A) (A) (A) (A) (A) (A) (A) (A) (A) (A) (A) (A)
                 (A) (A) (A) (A) (A) (A) (A) (A) (A) (A) (A) (A)
                 (A) (A) (A) (A) (A) (A) (A) (A) (A) (A) (A) (A)
                 (A) (A) (A) (A) (A) (A) (A) (A) (A) (A) (A) (A)
                 (A) (A) (A) (A) (A) (A) (A) (A) (A) (A) (A) (A)
                 (A) (A) (A) (A) (A) (A) (A) (A) (A) (A) (A) (A)
                 (A) (A) (A) (A) (A) (A) (A) (A) (A) (A) (A) (A)
                 (A) (A) (A) (A) (A) (A) (A) (A) (A) (A) (A) (A)
                 (A) (A) (A) (A) (A) (A) (A) (A) (A) (A) (A) (A)
                 (A) (A) (A) (A) (A) (A) (A) (A) (A) (A) (A) (A)
                 (A) (A) (A) (A) (A) (A) (A) (A) (A) (A) (A) (A)
                 (A) (A) (A) (A) (A) (A) (A) (A) (A) (A) (A) (A)
                 (A) (A) (A) (A) (A) (A) (A) (A) (A) (A) (A) (A)
                 (A) (A) (A) (A) (A) (A) (A) (A) (A) (A) (A) (A)
                 (A) (A) (A) (A) (A) (A) (A) (A) (A) (A) (A) (A)
                 (A) (A) (A) (A) (A) (A) (A) (A) (A) (A) (A) (A)
                 (A) (A) (A) (A) (A) (A) (A) (A) (A) (A) (A) (A)
                 (A) (A) (A) (A) (A) (A) (A) (A) (A) (A) (A) (A)
                 (A) (A) (A) (A) (A) (A) (A) (A) (A) (A) (A) (A)
                 (A) (A) (A) (A) (A) (A) (A) (A) (A) (A) (A) (A)
                 (A) (A) (A) (A) (A) (A) (A) (A) (A) (A) (A) (A)
                 (A) (A) (A) (A) (A) (A) (A) (A) (A) (A) (A) (A)
                 (A) (A) (A) (A) (A) (A) (A) (A) (A) (A) (A) (A)
                 (A) (A) (A) (A) (A) (A) (A) (A) (A) (A) (A) (A)
                 (A) (A) (A) (A) (A) (A) (A) (A) (A) (A) (A) (A)
                 (A) (A) (A) (A) (A) (A) (A) (A) (A) (A) (A) (A)
                 (A) (A) (A) (A) (A) (A) (A) (A) (A) (A) (A) (A)
                 (A) (A) (A) (A) (A) (A) (A) (A) (A) (A) (A) (A)
                 (A) (A) (A) (A) (A) (A) (A) (A) (A) (A) (A) (A)
                 (A) (A) (A) (A) (A) (A) (A) (A) (A) (A) (A) (A)
                 (A) (A) (A) (A) (A) (A) (A) (A) (A) (A) (A) (A)
                 (A) (A) (A) (A) (A) (A) (A) (A) (A) (A) (A) (A)
                 (A) (A) (A) (A) (A) (A) (A) (A) (A) (A) (A) (A)
                 (A) (A) (A) (A) (A) (A) (A) (A) (A) (A) (A) (A)
                 (A) (A) (A) (A) (A) (A) (A) (A) (A) (A) (A) (A)
                 (A) (A) (A) (A) (A) (A) (A) (A) (A) (A) (A) (A)
                 (A) (A) (A) (A) (A) (A) (A) (A) (A) (A) (A) (A)
                 (A) (A) (A) (A) (A) (A) (A) (A) (A) (A) (A) (A)
                 (A) (A) (A) (A) (A) (A) (A) (A) (A) (A) (A) (A)
                 (A) (A) (A) (A) (A) (A) (A) (A) (A) (A) (A) (A)
                 (A) (A) (A) (A) (A) (A) (A) (A) (A) (A) (A) (A)
                 (A) (A) (A) (A) (A) (A) (A) (A) (A) (A) (A) (A)
                 (A) (A) (A) (A) (A) (A) (A) (A) (A) (A) (A) (A)
                 (A) (A) (A) (A) (A) (A) (A) (A) (A) (A) (A) (A)
                 (A) (A) (A) (A) (A) (A) (A) (A) (A) (A) (A) (A)
                 (A) (A) (A) (A) (A) (A) (A) (A) (A) (A) (A) (A)
                 (A) (A) (A) (A) (A) (A) (A) (A) (A) (A) (A) (A)
                 (A) (A) (A) (A) (A) (A) (A) (A) (A) (A) (A) (A)
                 (A) (A) (A) (A) (A) (A) (A) (A) (A) (A) (A) (A)
                 (A) (A) (A) (A) (A) (A) (A) (A) (A) (A) (A) (A)
                 (A) (A) (A) (A) (A) (A) (A) (A) (A) (A) (A) (A)
                 (A) (A) (A) (A) (A) (A) (A) (A) (A) (A) (A) (A)
                 (A) (A) (A) (A) (A) (A) (A) (A) (A) (A) (A) (A)
                 (A) (A) (A) (A) (A) (A) (A) (A) (A) (A) (A) (A)
                 (A) (A) (A) (A) (A) (A) (A) (A) (A) (A) (A) (A)
                 (A) (A) (A) (A) (A) (A) (A) (A) (A) (A) (A) (A)
                 (A) (A) (A) (A) (A) (A) (A) (A) (A) (A) (A) (A)
                 (A) (A) (A) (A) (A) (A) (A) (A) (A) (A) (A) (A)
                 (A) (A) (A) (A) (A) (A) (A) (A) (A) (A) (A) (A)
                 (A) (A) (A) (A) (A) (A) (A) (A) (A) (A) (A) (A)
                 (A) (A) (A) (A) (A) (A) (A) (A) (A) (A) (A) (A)
                 (A) (A) (A) (A) (A) (A) (A) (A) (A) (A) (A) (A)
                 (A) (A) (A) (A) (A) (A) (A) (A) (A) (A) (A) (A)
                 (A) (A) (A) (A) (A) (A) (A) (A) (A) (A) (A) (A)
                 (A) (A) (A) (A) (A) (A) (A) (A) (A) (A) (A) (A)
                 (A) (A) (A) (A) (A) (A) (A) (A) (A) (A) (A) (A)
                 (A) (A) (A) (A) (A) (A) (A) (A) (A) (A) (A) (A)
                 (A) (A) (A) (A) (A) (A) (A) (A) (A) (A) (A) (A)
                 (A) (A) (A) (A) (A) (A) (A) (A) (A) (A) (A) (A)
                 (A) (A) (A) (A) (A) (A) (A) (A) (A) (A) (A) (A)
                 (A) (A) (A) (A) (A) (A) (A) (A) (A) (A) (A) (A)
                 (A) (A) (A) (A) (A) (A) (A) (A) (A) (A) (A) (A)
                 (A) (A) (A) (A) (A) (A) (A) (A) (A) (A) (A) (A)
                 (A) (A) (A) (A) (A) (A) (A) (A) (A) (A) (A) (A)
                 (A) (A) (A) (A) (A) (A) (A) (A) (A) (A) (A) (A)
                 (A) (A) (A) (A) (A) (A) (A) (A) (A) (A) (A) (A)
                 (A) (A) (A) (A) (A) (A) (A) (A) (A) (A) (A) (A)
                 (A) (A) (A) (A) (A) (A) (A) (A) (A) (A) (A) (A)
                 (A) (A) (A) (A) (A) (A) (A) (A) (A) (A) (A) (A)
                 (A) (A) (A) (A) (A) (A) (A) (A) (A) (A) (A) (A)
                 (A) (A) (A) (A) (A) (A) (A) (A) (A) (A) (A) (A)
                 (A) (A) (A) (A) (A) (A) (A) (A) (A) (A) (A) (A)
                 (A) (A) (A) (A) (A) (A) (A) (A) (A) (A) (A) (A)
                 (A) (A) (A) (A) (A) (A) (A) (A) (A) (A) (A) (A)
                 (A) (A) (A) (A) (A) (A) (A) (A) (A) (A) (A) (A)
                 (A) (A) (A) (A) (A) (A) (A) (A) (A) (A) (A) (A)
                 (A) (A) (A) (A) (A) (A) (A) (A) (A) (A) (A) (A)
                 (A) (A) (A) (A) (A) (A) (A) (A) (A) (A) (A) (A)
                 (A) (A) (A) (A) (A) (A) (A) (A) (A) (A) (A) (A)
                 (A) (A) (A) (A) (A) (A) (A) (A) (A) (A) (A) (A)
                 (A) (A) (A) (A) (A) (A) (A) (A) (A) (A) (A) (A)
                 (A) (A) (A) (A) (A) (A) (A) (A) (A) (A) (A) (A)
                 (A) (A) (A) (A) (A) (A) (A) (A) (A) (A) (A) (A)
                 (A) (A) (A) (A) (A) (A) (A) (A) (A) (A) (A) (A)
                 (A) (A) (A) (A) (A) (A) (A) (A) (A) (A) (A) (A)
                 (A) (A) (A)
 The electronic state is 1-A.
 Alpha  occ. eigenvalues -- -145.39004 -19.15952 -19.13869 -19.13011 -19.12953
 Alpha  occ. eigenvalues --  -19.12589 -19.12520 -19.11690 -19.10987 -19.10136
 Alpha  occ. eigenvalues --  -19.10049 -19.09269 -19.09086 -19.08058 -19.07519
 Alpha  occ. eigenvalues --  -19.07001 -19.05885 -19.05681 -19.05651 -19.05291
 Alpha  occ. eigenvalues --  -19.04944 -19.04599 -19.03995 -19.03339 -15.44695
 Alpha  occ. eigenvalues --  -14.58668 -14.39594 -14.37801 -14.37484 -14.37472
 Alpha  occ. eigenvalues --  -14.36325 -14.36268 -14.34851 -14.34149 -14.33029
 Alpha  occ. eigenvalues --  -14.32394 -14.32244 -14.31862 -14.31453 -14.30878
 Alpha  occ. eigenvalues --  -12.58310 -12.58290 -12.58259 -10.34181 -10.32344
 Alpha  occ. eigenvalues --  -10.31097 -10.30966 -10.30889 -10.29305 -10.28768
 Alpha  occ. eigenvalues --  -10.28319 -10.27824 -10.27374 -10.26884 -10.26101
 Alpha  occ. eigenvalues --  -10.25855 -10.25748 -10.25593 -10.25505 -10.24931
 Alpha  occ. eigenvalues --  -10.24667 -10.24535 -10.24440 -10.24321 -10.24275
 Alpha  occ. eigenvalues --  -10.23826 -10.23257 -10.23215 -10.23130 -10.23001
 Alpha  occ. eigenvalues --  -10.22997 -10.22918 -10.22184 -10.21906 -10.21634
 Alpha  occ. eigenvalues --  -10.21389 -10.21213 -10.21016 -10.20574 -10.20072
 Alpha  occ. eigenvalues --  -10.19439 -10.19204 -10.19051 -10.19000 -10.18900
 Alpha  occ. eigenvalues --  -10.18859 -10.18747 -10.18428 -10.18380 -10.18330
 Alpha  occ. eigenvalues --  -10.18323 -10.18287 -10.18130 -10.17962 -10.17955
 Alpha  occ. eigenvalues --  -10.16528 -10.14004  -1.81398  -1.13886  -1.08939
 Alpha  occ. eigenvalues --   -1.08853  -1.08639  -1.07117  -1.05634  -1.05502
 Alpha  occ. eigenvalues --   -1.05284  -1.04843  -1.04443  -1.03913  -1.03418
 Alpha  occ. eigenvalues --   -1.02171  -1.01571  -1.01446  -1.00038  -1.00003
 Alpha  occ. eigenvalues --   -0.99715  -0.99491  -0.99230  -0.99075  -0.98152
 Alpha  occ. eigenvalues --   -0.97927  -0.97626  -0.96104  -0.94616  -0.94392
 Alpha  occ. eigenvalues --   -0.93668  -0.93461  -0.92898  -0.92404  -0.92356
 Alpha  occ. eigenvalues --   -0.91025  -0.89971  -0.89715  -0.89525  -0.89425
 Alpha  occ. eigenvalues --   -0.89189  -0.88915  -0.88599  -0.87376  -0.86918
 Alpha  occ. eigenvalues --   -0.84335  -0.83497  -0.81868  -0.81364  -0.79062
 Alpha  occ. eigenvalues --   -0.78859  -0.78608  -0.77890  -0.77321  -0.76998
 Alpha  occ. eigenvalues --   -0.76051  -0.75508  -0.74673  -0.74289  -0.74161
 Alpha  occ. eigenvalues --   -0.73060  -0.72961  -0.72283  -0.72069  -0.71181
 Alpha  occ. eigenvalues --   -0.70182  -0.69109  -0.68910  -0.68642  -0.68361
 Alpha  occ. eigenvalues --   -0.66935  -0.66199  -0.65622  -0.65580  -0.64876
 Alpha  occ. eigenvalues --   -0.64331  -0.63477  -0.63272  -0.62415  -0.61630
 Alpha  occ. eigenvalues --   -0.61238  -0.61021  -0.60801  -0.60568  -0.60290
 Alpha  occ. eigenvalues --   -0.59718  -0.59571  -0.59195  -0.58950  -0.58735
 Alpha  occ. eigenvalues --   -0.58517  -0.57746  -0.57072  -0.56604  -0.56560
 Alpha  occ. eigenvalues --   -0.56351  -0.56095  -0.55481  -0.55157  -0.54779
 Alpha  occ. eigenvalues --   -0.54540  -0.54525  -0.54485  -0.53907  -0.53738
 Alpha  occ. eigenvalues --   -0.53069  -0.52791  -0.52739  -0.52460  -0.51916
 Alpha  occ. eigenvalues --   -0.51651  -0.51292  -0.50942  -0.50165  -0.49920
 Alpha  occ. eigenvalues --   -0.49831  -0.49591  -0.49280  -0.49224  -0.48931
 Alpha  occ. eigenvalues --   -0.48872  -0.48544  -0.48494  -0.48438  -0.48308
 Alpha  occ. eigenvalues --   -0.48046  -0.47590  -0.47389  -0.47341  -0.47140
 Alpha  occ. eigenvalues --   -0.46738  -0.46601  -0.46490  -0.46105  -0.46031
 Alpha  occ. eigenvalues --   -0.45593  -0.45564  -0.45083  -0.44833  -0.44767
 Alpha  occ. eigenvalues --   -0.44669  -0.44437  -0.44275  -0.44271  -0.44190
 Alpha  occ. eigenvalues --   -0.44083  -0.43961  -0.43832  -0.43664  -0.43620
 Alpha  occ. eigenvalues --   -0.43104  -0.43002  -0.42899  -0.42843  -0.42665
 Alpha  occ. eigenvalues --   -0.42487  -0.42144  -0.42107  -0.41978  -0.41932
 Alpha  occ. eigenvalues --   -0.41754  -0.41652  -0.41554  -0.41464  -0.41359
 Alpha  occ. eigenvalues --   -0.41290  -0.41122  -0.40961  -0.40821  -0.40558
 Alpha  occ. eigenvalues --   -0.40400  -0.40311  -0.40167  -0.40126  -0.40023
 Alpha  occ. eigenvalues --   -0.39910  -0.39594  -0.39550  -0.39298  -0.39261
 Alpha  occ. eigenvalues --   -0.39167  -0.38965  -0.38928  -0.38851  -0.38609
 Alpha  occ. eigenvalues --   -0.38533  -0.38209  -0.38145  -0.37985  -0.37622
 Alpha  occ. eigenvalues --   -0.37441  -0.37314  -0.37277  -0.37231  -0.37036
 Alpha  occ. eigenvalues --   -0.36869  -0.36666  -0.36452  -0.36185  -0.35925
 Alpha  occ. eigenvalues --   -0.35521  -0.35438  -0.35405  -0.35315  -0.34970
 Alpha  occ. eigenvalues --   -0.34835  -0.34580  -0.34459  -0.34407  -0.34226
 Alpha  occ. eigenvalues --   -0.34152  -0.33969  -0.33708  -0.33520  -0.33239
 Alpha  occ. eigenvalues --   -0.33213  -0.33055  -0.32829  -0.32463  -0.31924
 Alpha  occ. eigenvalues --   -0.31684  -0.31387  -0.31030  -0.30599  -0.30223
 Alpha  occ. eigenvalues --   -0.29515  -0.29437  -0.29235  -0.28905  -0.28685
 Alpha  occ. eigenvalues --   -0.28293  -0.27830  -0.27794  -0.27588  -0.27277
 Alpha  occ. eigenvalues --   -0.26889  -0.26523  -0.26382  -0.26197  -0.25637
 Alpha  occ. eigenvalues --   -0.25525  -0.25377  -0.24858  -0.24289  -0.23886
 Alpha  occ. eigenvalues --   -0.23803  -0.23647  -0.23522  -0.23457  -0.23167
 Alpha  occ. eigenvalues --   -0.22898  -0.22502  -0.22454  -0.21972  -0.21845
 Alpha  occ. eigenvalues --   -0.21626  -0.21169  -0.20995  -0.20524  -0.20485
 Alpha  occ. eigenvalues --   -0.20168  -0.20017  -0.19585
 Alpha virt. eigenvalues --   -0.10684  -0.04870  -0.04302  -0.02383  -0.02136
 Alpha virt. eigenvalues --   -0.01720  -0.00984  -0.00874  -0.00544   0.00270
 Alpha virt. eigenvalues --    0.00436   0.00621   0.00971   0.01242   0.01508
 Alpha virt. eigenvalues --    0.01956   0.02070   0.02698   0.02778   0.03252
 Alpha virt. eigenvalues --    0.03568   0.03980   0.04183   0.04487   0.04752
 Alpha virt. eigenvalues --    0.05061   0.05216   0.05372   0.05567   0.05617
 Alpha virt. eigenvalues --    0.05893   0.06090   0.06202   0.06290   0.06553
 Alpha virt. eigenvalues --    0.06683   0.06880   0.07020   0.07434   0.07563
 Alpha virt. eigenvalues --    0.08028   0.08340   0.08592   0.08838   0.08907
 Alpha virt. eigenvalues --    0.09233   0.09236   0.09332   0.09883   0.10092
 Alpha virt. eigenvalues --    0.10272   0.10418   0.10655   0.10697   0.10778
 Alpha virt. eigenvalues --    0.11196   0.11234   0.11480   0.11617   0.11674
 Alpha virt. eigenvalues --    0.11753   0.11972   0.12292   0.12363   0.12527
 Alpha virt. eigenvalues --    0.12633   0.12824   0.12933   0.13182   0.13350
 Alpha virt. eigenvalues --    0.13362   0.13442   0.13628   0.14005   0.14119
 Alpha virt. eigenvalues --    0.14193   0.14278   0.14402   0.14524   0.14681
 Alpha virt. eigenvalues --    0.14844   0.15061   0.15194   0.15299   0.15440
 Alpha virt. eigenvalues --    0.15606   0.15809   0.16039   0.16157   0.16301
 Alpha virt. eigenvalues --    0.16685   0.16827   0.16879   0.17199   0.17373
 Alpha virt. eigenvalues --    0.17613   0.17790   0.17862   0.18023   0.18209
 Alpha virt. eigenvalues --    0.18355   0.18458   0.18689   0.18770   0.19164
 Alpha virt. eigenvalues --    0.19287   0.19386   0.19814   0.20046   0.20229
 Alpha virt. eigenvalues --    0.20264   0.20439   0.20644   0.21064   0.21301
 Alpha virt. eigenvalues --    0.21605   0.21732   0.21907   0.22078   0.22368
 Alpha virt. eigenvalues --    0.22570   0.22606   0.22844   0.23095   0.23199
 Alpha virt. eigenvalues --    0.23451   0.23640   0.23721   0.23826   0.23970
 Alpha virt. eigenvalues --    0.24268   0.24422   0.24733   0.24983   0.25271
 Alpha virt. eigenvalues --    0.25373   0.25524   0.25727   0.25867   0.26174
 Alpha virt. eigenvalues --    0.26440   0.26566   0.26902   0.27157   0.27619
 Alpha virt. eigenvalues --    0.27684   0.27942   0.28131   0.28784   0.28956
 Alpha virt. eigenvalues --    0.29078   0.29231   0.29618   0.29695   0.29915
 Alpha virt. eigenvalues --    0.30128   0.30483   0.30778   0.30902   0.31077
 Alpha virt. eigenvalues --    0.31287   0.31616   0.31803   0.32009   0.32085
 Alpha virt. eigenvalues --    0.32382   0.32501   0.32656   0.33207   0.33339
 Alpha virt. eigenvalues --    0.33601   0.33868   0.34114   0.34332   0.34610
 Alpha virt. eigenvalues --    0.34759   0.34984   0.35186   0.35478   0.36122
 Alpha virt. eigenvalues --    0.36551   0.36776   0.36939   0.37279   0.37448
 Alpha virt. eigenvalues --    0.37533   0.37759   0.38207   0.38636   0.38675
 Alpha virt. eigenvalues --    0.38982   0.39375   0.39553   0.40051   0.40552
 Alpha virt. eigenvalues --    0.40666   0.40989   0.41496   0.41563   0.41773
 Alpha virt. eigenvalues --    0.42207   0.42279   0.42574   0.42996   0.43114
 Alpha virt. eigenvalues --    0.43388   0.43596   0.43818   0.43963   0.44070
 Alpha virt. eigenvalues --    0.44165   0.44295   0.44471   0.44722   0.45005
 Alpha virt. eigenvalues --    0.45099   0.45353   0.45518   0.45658   0.45822
 Alpha virt. eigenvalues --    0.46101   0.46152   0.46504   0.46672   0.46853
 Alpha virt. eigenvalues --    0.47015   0.47141   0.47382   0.47689   0.47864
 Alpha virt. eigenvalues --    0.47952   0.48046   0.48313   0.48550   0.48611
 Alpha virt. eigenvalues --    0.48793   0.48991   0.49184   0.49339   0.49629
 Alpha virt. eigenvalues --    0.49813   0.49966   0.50121   0.50337   0.50591
 Alpha virt. eigenvalues --    0.50726   0.51012   0.51311   0.51409   0.51584
 Alpha virt. eigenvalues --    0.51672   0.52072   0.52204   0.52636   0.52765
 Alpha virt. eigenvalues --    0.52832   0.53105   0.53350   0.53618   0.53757
 Alpha virt. eigenvalues --    0.53947   0.54217   0.54410   0.54690   0.54736
 Alpha virt. eigenvalues --    0.54841   0.55050   0.55280   0.55318   0.55486
 Alpha virt. eigenvalues --    0.55868   0.55918   0.56194   0.56436   0.56686
 Alpha virt. eigenvalues --    0.57034   0.57051   0.57196   0.57339   0.57552
 Alpha virt. eigenvalues --    0.57802   0.57975   0.58172   0.58277   0.58555
 Alpha virt. eigenvalues --    0.58790   0.58955   0.59074   0.59220   0.59334
 Alpha virt. eigenvalues --    0.59623   0.59805   0.60045   0.60171   0.60338
 Alpha virt. eigenvalues --    0.60370   0.60542   0.60621   0.60878   0.61067
 Alpha virt. eigenvalues --    0.61118   0.61177   0.61342   0.61523   0.61646
 Alpha virt. eigenvalues --    0.61781   0.61891   0.62098   0.62205   0.62323
 Alpha virt. eigenvalues --    0.62503   0.62590   0.62718   0.62791   0.62911
 Alpha virt. eigenvalues --    0.63162   0.63177   0.63337   0.63400   0.63488
 Alpha virt. eigenvalues --    0.63566   0.63751   0.63927   0.63960   0.64181
 Alpha virt. eigenvalues --    0.64260   0.64366   0.64638   0.64655   0.64771
 Alpha virt. eigenvalues --    0.64864   0.65109   0.65209   0.65320   0.65528
 Alpha virt. eigenvalues --    0.65545   0.65648   0.65788   0.65834   0.66088
 Alpha virt. eigenvalues --    0.66140   0.66269   0.66280   0.66395   0.66517
 Alpha virt. eigenvalues --    0.66575   0.66812   0.66856   0.67061   0.67201
 Alpha virt. eigenvalues --    0.67244   0.67280   0.67374   0.67515   0.67667
 Alpha virt. eigenvalues --    0.67723   0.67889   0.67990   0.68099   0.68291
 Alpha virt. eigenvalues --    0.68387   0.68443   0.68466   0.68664   0.68736
 Alpha virt. eigenvalues --    0.68947   0.69057   0.69177   0.69299   0.69505
 Alpha virt. eigenvalues --    0.69622   0.69730   0.69768   0.69839   0.70015
 Alpha virt. eigenvalues --    0.70180   0.70270   0.70475   0.70593   0.70692
 Alpha virt. eigenvalues --    0.70770   0.70864   0.71086   0.71160   0.71263
 Alpha virt. eigenvalues --    0.71469   0.71682   0.71786   0.72042   0.72216
 Alpha virt. eigenvalues --    0.72344   0.72406   0.72463   0.72614   0.72888
 Alpha virt. eigenvalues --    0.73042   0.73157   0.73246   0.73505   0.73637
 Alpha virt. eigenvalues --    0.73832   0.74048   0.74183   0.74273   0.74370
 Alpha virt. eigenvalues --    0.74663   0.74784   0.74953   0.75110   0.75481
 Alpha virt. eigenvalues --    0.75649   0.76003   0.76064   0.76284   0.76531
 Alpha virt. eigenvalues --    0.76930   0.76979   0.77332   0.77454   0.77550
 Alpha virt. eigenvalues --    0.77841   0.78148   0.78504   0.78918   0.79069
 Alpha virt. eigenvalues --    0.79136   0.79267   0.79852   0.80018   0.80142
 Alpha virt. eigenvalues --    0.80495   0.80771   0.80988   0.81065   0.81214
 Alpha virt. eigenvalues --    0.81494   0.82106   0.82228   0.82350   0.82846
 Alpha virt. eigenvalues --    0.83022   0.83289   0.83369   0.83628   0.84102
 Alpha virt. eigenvalues --    0.84240   0.84291   0.84645   0.85075   0.85367
 Alpha virt. eigenvalues --    0.85701   0.85857   0.86170   0.86273   0.86656
 Alpha virt. eigenvalues --    0.86749   0.86970   0.87017   0.87686   0.88207
 Alpha virt. eigenvalues --    0.88526   0.88741   0.89052   0.89117   0.89226
 Alpha virt. eigenvalues --    0.89834   0.90119   0.90302   0.90521   0.90737
 Alpha virt. eigenvalues --    0.91228   0.91655   0.92065   0.92358   0.92561
 Alpha virt. eigenvalues --    0.92877   0.93168   0.93554   0.93892   0.93968
 Alpha virt. eigenvalues --    0.94305   0.94740   0.94789   0.95366   0.95627
 Alpha virt. eigenvalues --    0.95896   0.96182   0.96393   0.96531   0.96945
 Alpha virt. eigenvalues --    0.97060   0.97217   0.97311   0.97522   0.97727
 Alpha virt. eigenvalues --    0.97960   0.98308   0.99069   0.99155   0.99364
 Alpha virt. eigenvalues --    0.99737   0.99921   1.00264   1.00608   1.00843
 Alpha virt. eigenvalues --    1.00936   1.01531   1.01785   1.02096   1.02364
 Alpha virt. eigenvalues --    1.02717   1.02975   1.03185   1.03901   1.04200
 Alpha virt. eigenvalues --    1.04377   1.04718   1.04979   1.05150   1.05483
 Alpha virt. eigenvalues --    1.05919   1.06018   1.06265   1.06567   1.06767
 Alpha virt. eigenvalues --    1.07090   1.07238   1.07619   1.07741   1.08160
 Alpha virt. eigenvalues --    1.08491   1.08724   1.08910   1.09242   1.09618
 Alpha virt. eigenvalues --    1.09769   1.10102   1.10563   1.10887   1.10951
 Alpha virt. eigenvalues --    1.11370   1.11886   1.12249   1.12499   1.12856
 Alpha virt. eigenvalues --    1.13386   1.13396   1.13906   1.14105   1.14241
 Alpha virt. eigenvalues --    1.14545   1.14932   1.15071   1.15326   1.15443
 Alpha virt. eigenvalues --    1.15840   1.16287   1.16647   1.17072   1.17434
 Alpha virt. eigenvalues --    1.17893   1.18136   1.18149   1.18276   1.18440
 Alpha virt. eigenvalues --    1.18632   1.18873   1.19200   1.19407   1.19692
 Alpha virt. eigenvalues --    1.19929   1.20236   1.20696   1.20855   1.21064
 Alpha virt. eigenvalues --    1.21166   1.21741   1.22042   1.22116   1.22394
 Alpha virt. eigenvalues --    1.22759   1.22835   1.23046   1.23238   1.23805
 Alpha virt. eigenvalues --    1.24035   1.24093   1.24263   1.24514   1.24756
 Alpha virt. eigenvalues --    1.24850   1.25227   1.25269   1.25693   1.25760
 Alpha virt. eigenvalues --    1.26058   1.26166   1.26529   1.26867   1.27138
 Alpha virt. eigenvalues --    1.27318   1.27562   1.27802   1.28158   1.28797
 Alpha virt. eigenvalues --    1.29039   1.29272   1.29423   1.29609   1.29876
 Alpha virt. eigenvalues --    1.30181   1.30329   1.30445   1.31023   1.31189
 Alpha virt. eigenvalues --    1.31721   1.31854   1.31881   1.32187   1.32470
 Alpha virt. eigenvalues --    1.32812   1.33221   1.33258   1.33384   1.33689
 Alpha virt. eigenvalues --    1.34284   1.34713   1.34889   1.35408   1.35555
 Alpha virt. eigenvalues --    1.35904   1.36204   1.36339   1.36572   1.36864
 Alpha virt. eigenvalues --    1.37034   1.37250   1.37577   1.37683   1.37802
 Alpha virt. eigenvalues --    1.37851   1.38198   1.38765   1.38886   1.39404
 Alpha virt. eigenvalues --    1.39506   1.39889   1.40238   1.40534   1.40996
 Alpha virt. eigenvalues --    1.41313   1.41516   1.41970   1.42256   1.42477
 Alpha virt. eigenvalues --    1.42685   1.42937   1.43166   1.43453   1.43847
 Alpha virt. eigenvalues --    1.44020   1.44685   1.44889   1.44940   1.45306
 Alpha virt. eigenvalues --    1.45500   1.45850   1.46404   1.47057   1.47097
 Alpha virt. eigenvalues --    1.47549   1.47906   1.48003   1.48434   1.48793
 Alpha virt. eigenvalues --    1.49235   1.49387   1.49412   1.49779   1.50023
 Alpha virt. eigenvalues --    1.50159   1.50281   1.50474   1.50788   1.50914
 Alpha virt. eigenvalues --    1.51187   1.51387   1.51675   1.51813   1.52561
 Alpha virt. eigenvalues --    1.52686   1.52863   1.53009   1.53449   1.53813
 Alpha virt. eigenvalues --    1.53988   1.54126   1.54219   1.54491   1.54978
 Alpha virt. eigenvalues --    1.55075   1.55240   1.55997   1.56238   1.56656
 Alpha virt. eigenvalues --    1.57221   1.57503   1.57986   1.58238   1.58744
 Alpha virt. eigenvalues --    1.58853   1.59520   1.59817   1.60431   1.60634
 Alpha virt. eigenvalues --    1.60812   1.61110   1.61241   1.62040   1.62464
 Alpha virt. eigenvalues --    1.62737   1.63043   1.63268   1.63370   1.63670
 Alpha virt. eigenvalues --    1.63928   1.64129   1.64477   1.64628   1.64955
 Alpha virt. eigenvalues --    1.65024   1.65332   1.65919   1.66063   1.66144
 Alpha virt. eigenvalues --    1.66558   1.66915   1.67027   1.67436   1.67708
 Alpha virt. eigenvalues --    1.68403   1.68664   1.68774   1.68844   1.69150
 Alpha virt. eigenvalues --    1.69338   1.69530   1.70110   1.70187   1.70510
 Alpha virt. eigenvalues --    1.70607   1.71184   1.71300   1.71945   1.72182
 Alpha virt. eigenvalues --    1.72280   1.72667   1.72803   1.72956   1.73110
 Alpha virt. eigenvalues --    1.73248   1.73642   1.73963   1.74017   1.74157
 Alpha virt. eigenvalues --    1.74348   1.74434   1.74675   1.75007   1.75164
 Alpha virt. eigenvalues --    1.75525   1.75644   1.75773   1.75883   1.76086
 Alpha virt. eigenvalues --    1.76298   1.76407   1.76507   1.76685   1.76956
 Alpha virt. eigenvalues --    1.77084   1.77281   1.77457   1.77532   1.77737
 Alpha virt. eigenvalues --    1.77896   1.77989   1.78276   1.78354   1.78440
 Alpha virt. eigenvalues --    1.78548   1.78684   1.78916   1.79096   1.79215
 Alpha virt. eigenvalues --    1.79290   1.79571   1.79749   1.79899   1.80142
 Alpha virt. eigenvalues --    1.80402   1.80516   1.80574   1.80773   1.80982
 Alpha virt. eigenvalues --    1.81228   1.81378   1.81751   1.82063   1.82267
 Alpha virt. eigenvalues --    1.82366   1.82519   1.82594   1.82893   1.82921
 Alpha virt. eigenvalues --    1.83071   1.83244   1.83473   1.83590   1.83778
 Alpha virt. eigenvalues --    1.83839   1.84158   1.84304   1.84447   1.84712
 Alpha virt. eigenvalues --    1.84856   1.85043   1.85398   1.85620   1.85754
 Alpha virt. eigenvalues --    1.85789   1.86243   1.86363   1.86555   1.86624
 Alpha virt. eigenvalues --    1.86975   1.87335   1.87389   1.87541   1.87819
 Alpha virt. eigenvalues --    1.88125   1.88204   1.88399   1.88589   1.88763
 Alpha virt. eigenvalues --    1.89106   1.89307   1.89482   1.89778   1.90056
 Alpha virt. eigenvalues --    1.90384   1.90561   1.90592   1.90807   1.91011
 Alpha virt. eigenvalues --    1.91125   1.91175   1.91286   1.91588   1.91599
 Alpha virt. eigenvalues --    1.92048   1.92186   1.92597   1.92719   1.92818
 Alpha virt. eigenvalues --    1.92946   1.93115   1.93223   1.93233   1.93672
 Alpha virt. eigenvalues --    1.93878   1.94206   1.94368   1.94786   1.94961
 Alpha virt. eigenvalues --    1.95125   1.95425   1.95516   1.95801   1.95998
 Alpha virt. eigenvalues --    1.96212   1.96411   1.96647   1.96695   1.96957
 Alpha virt. eigenvalues --    1.97404   1.97763   1.97883   1.97915   1.98214
 Alpha virt. eigenvalues --    1.98271   1.98386   1.98788   1.98872   1.99131
 Alpha virt. eigenvalues --    1.99386   1.99868   1.99962   2.00196   2.00401
 Alpha virt. eigenvalues --    2.00860   2.00982   2.01180   2.01496   2.01546
 Alpha virt. eigenvalues --    2.01861   2.02102   2.02152   2.02514   2.02614
 Alpha virt. eigenvalues --    2.02731   2.03121   2.03450   2.03790   2.03869
 Alpha virt. eigenvalues --    2.04190   2.04430   2.04776   2.05038   2.05142
 Alpha virt. eigenvalues --    2.05446   2.05604   2.06002   2.06306   2.06569
 Alpha virt. eigenvalues --    2.06969   2.07071   2.07285   2.07580   2.07661
 Alpha virt. eigenvalues --    2.07721   2.08069   2.08272   2.08680   2.09029
 Alpha virt. eigenvalues --    2.09229   2.09599   2.10013   2.10388   2.10470
 Alpha virt. eigenvalues --    2.11089   2.11211   2.11272   2.11645   2.12237
 Alpha virt. eigenvalues --    2.12391   2.12831   2.13237   2.13477   2.13750
 Alpha virt. eigenvalues --    2.14013   2.14654   2.14748   2.14778   2.14830
 Alpha virt. eigenvalues --    2.15190   2.15504   2.15663   2.16783   2.16994
 Alpha virt. eigenvalues --    2.17047   2.17321   2.17440   2.17661   2.17808
 Alpha virt. eigenvalues --    2.18351   2.18545   2.19051   2.19401   2.19551
 Alpha virt. eigenvalues --    2.19746   2.19969   2.20064   2.20571   2.20767
 Alpha virt. eigenvalues --    2.21168   2.21388   2.21703   2.21897   2.22127
 Alpha virt. eigenvalues --    2.22265   2.22371   2.22630   2.23188   2.23464
 Alpha virt. eigenvalues --    2.24277   2.24494   2.24873   2.24952   2.25246
 Alpha virt. eigenvalues --    2.25538   2.25717   2.25803   2.26012   2.27169
 Alpha virt. eigenvalues --    2.27506   2.27654   2.28147   2.28412   2.28692
 Alpha virt. eigenvalues --    2.29159   2.29283   2.29958   2.30203   2.30468
 Alpha virt. eigenvalues --    2.30693   2.30936   2.31247   2.31420   2.31526
 Alpha virt. eigenvalues --    2.32256   2.32747   2.33015   2.33181   2.33446
 Alpha virt. eigenvalues --    2.33598   2.34583   2.34765   2.34971   2.35150
 Alpha virt. eigenvalues --    2.36081   2.36237   2.36510   2.36627   2.36833
 Alpha virt. eigenvalues --    2.36979   2.38017   2.38200   2.38464   2.38546
 Alpha virt. eigenvalues --    2.38740   2.39229   2.39457   2.39679   2.39823
 Alpha virt. eigenvalues --    2.40167   2.40682   2.40942   2.41289   2.41646
 Alpha virt. eigenvalues --    2.41738   2.42021   2.42481   2.42691   2.43106
 Alpha virt. eigenvalues --    2.43526   2.43606   2.43902   2.44421   2.44480
 Alpha virt. eigenvalues --    2.44641   2.45000   2.45156   2.45473   2.45754
 Alpha virt. eigenvalues --    2.45963   2.46114   2.46500   2.46884   2.47195
 Alpha virt. eigenvalues --    2.47739   2.48577   2.48652   2.48856   2.49394
 Alpha virt. eigenvalues --    2.49624   2.49709   2.49855   2.50390   2.50859
 Alpha virt. eigenvalues --    2.51406   2.51853   2.52532   2.52670   2.53102
 Alpha virt. eigenvalues --    2.53789   2.54020   2.54613   2.54743   2.55483
 Alpha virt. eigenvalues --    2.55690   2.55934   2.56450   2.56577   2.56912
 Alpha virt. eigenvalues --    2.57085   2.57231   2.57344   2.57479   2.57765
 Alpha virt. eigenvalues --    2.57909   2.58556   2.58873   2.59493   2.59674
 Alpha virt. eigenvalues --    2.59789   2.60154   2.60470   2.61178   2.61387
 Alpha virt. eigenvalues --    2.61559   2.62186   2.62685   2.63169   2.63332
 Alpha virt. eigenvalues --    2.63532   2.63826   2.63983   2.64104   2.64434
 Alpha virt. eigenvalues --    2.64585   2.64838   2.65215   2.65408   2.65505
 Alpha virt. eigenvalues --    2.65699   2.66505   2.66625   2.66757   2.67002
 Alpha virt. eigenvalues --    2.67188   2.67491   2.67600   2.67754   2.68224
 Alpha virt. eigenvalues --    2.68602   2.69311   2.70097   2.70555   2.70796
 Alpha virt. eigenvalues --    2.71012   2.71412   2.71833   2.72004   2.72104
 Alpha virt. eigenvalues --    2.72418   2.72634   2.73267   2.73392   2.73427
 Alpha virt. eigenvalues --    2.73710   2.73745   2.74240   2.74336   2.74457
 Alpha virt. eigenvalues --    2.74568   2.74690   2.74848   2.75055   2.75469
 Alpha virt. eigenvalues --    2.75926   2.76288   2.76354   2.76635   2.76845
 Alpha virt. eigenvalues --    2.76890   2.76999   2.77557   2.77945   2.78095
 Alpha virt. eigenvalues --    2.78463   2.78659   2.79358   2.79582   2.79834
 Alpha virt. eigenvalues --    2.80371   2.80579   2.80707   2.80832   2.81025
 Alpha virt. eigenvalues --    2.81194   2.81312   2.81766   2.81989   2.82327
 Alpha virt. eigenvalues --    2.82633   2.83038   2.83342   2.83665   2.83922
 Alpha virt. eigenvalues --    2.84016   2.84124   2.84424   2.85360   2.85613
 Alpha virt. eigenvalues --    2.85786   2.86333   2.86501   2.87219   2.87687
 Alpha virt. eigenvalues --    2.87776   2.88172   2.88410   2.89172   2.89322
 Alpha virt. eigenvalues --    2.89971   2.90144   2.90294   2.90691   2.91061
 Alpha virt. eigenvalues --    2.91215   2.91364   2.91673   2.92257   2.92465
 Alpha virt. eigenvalues --    2.92488   2.92646   2.93054   2.93168   2.93682
 Alpha virt. eigenvalues --    2.93903   2.94083   2.94269   2.95332   2.95637
 Alpha virt. eigenvalues --    2.95788   2.96105   2.96168   2.96976   2.97037
 Alpha virt. eigenvalues --    2.97319   2.97717   2.97846   2.98119   2.98270
 Alpha virt. eigenvalues --    2.98647   2.98829   2.98894   2.99092   2.99368
 Alpha virt. eigenvalues --    3.00545   3.00585   3.01114   3.01501   3.01592
 Alpha virt. eigenvalues --    3.01798   3.02122   3.02389   3.02583   3.03031
 Alpha virt. eigenvalues --    3.03211   3.03902   3.04190   3.04275   3.04700
 Alpha virt. eigenvalues --    3.05147   3.05922   3.05980   3.06187   3.06490
 Alpha virt. eigenvalues --    3.06598   3.07120   3.07308   3.07948   3.09026
 Alpha virt. eigenvalues --    3.09425   3.09750   3.10488   3.10555   3.10949
 Alpha virt. eigenvalues --    3.12442   3.12910   3.12981   3.13774   3.13806
 Alpha virt. eigenvalues --    3.14630   3.14701   3.15477   3.15612   3.16094
 Alpha virt. eigenvalues --    3.16550   3.16987   3.17216   3.17303   3.17619
 Alpha virt. eigenvalues --    3.17697   3.17972   3.18059   3.18122   3.18696
 Alpha virt. eigenvalues --    3.19493   3.20091   3.20190   3.21009   3.21036
 Alpha virt. eigenvalues --    3.21448   3.21526   3.21991   3.22218   3.22285
 Alpha virt. eigenvalues --    3.22829   3.23079   3.23286   3.24283   3.25571
 Alpha virt. eigenvalues --    3.25762   3.26351   3.26479   3.26653   3.28474
 Alpha virt. eigenvalues --    3.28976   3.29362   3.30298   3.30481   3.31106
 Alpha virt. eigenvalues --    3.31320   3.32542   3.32689   3.33022   3.33483
 Alpha virt. eigenvalues --    3.35309   3.36292   3.36748   3.37024   3.38984
 Alpha virt. eigenvalues --    3.40046   3.42603   3.43867   3.47767   3.48512
 Alpha virt. eigenvalues --    3.53474   3.54192   3.54367   3.54595   3.55683
 Alpha virt. eigenvalues --    3.56921   3.56937   3.58323   3.58738   3.59413
 Alpha virt. eigenvalues --    3.60232   3.60350   3.60697   3.61771   3.63716
 Alpha virt. eigenvalues --    3.64356   3.66902   3.67040   3.67420   3.68270
 Alpha virt. eigenvalues --    3.68441   3.68632   3.69006   3.69367   3.69653
 Alpha virt. eigenvalues --    3.70485   3.70872   3.71199   3.71518   3.71855
 Alpha virt. eigenvalues --    3.72008   3.72440   3.73033   3.73696   3.76438
 Alpha virt. eigenvalues --    3.79459   3.81829   3.86761   3.89471
          Condensed to atoms (all electrons):
 Mulliken charges:
               1
     1  C    0.056235
     2  C    0.019239
     3  O   -0.299381
     4  H    0.043325
     5  H    0.008099
     6  H    0.035207
     7  N   -0.117969
     8  C    0.093866
     9  C    0.038932
    10  O   -0.258494
    11  C    0.084670
    12  C    0.138083
    13  O   -0.361426
    14  O   -0.461495
    15  H    0.102621
    16  H    0.013175
    17  H    0.012437
    18  H   -0.002203
    19  N   -0.159418
    20  C    0.140827
    21  C    0.054924
    22  O   -0.309648
    23  C    0.035021
    24  C   -0.019880
    25  C   -0.051084
    26  C    0.000610
    27  N    0.087810
    28  H    0.177974
    29  H   -0.009849
    30  H    0.001627
    31  H    0.044791
    32  H    0.038428
    33  H    0.027018
    34  H    0.041238
    35  H    0.028180
    36  H    0.087033
    37  H    0.075799
    38  H    0.198984
    39  H    0.187235
    40  H    0.196413
    41  N   -0.165708
    42  C    0.136948
    43  C    0.041515
    44  O   -0.299663
    45  C    0.131196
    46  C    0.086886
    47  O   -0.389932
    48  O   -0.481539
    49  H    0.162647
    50  H    0.028234
    51  H    0.011072
    52  H    0.018156
    53  N   -0.153989
    54  C    0.220758
    55  C    0.037262
    56  O   -0.264778
    57  H    0.143834
    58  H    0.016530
    59  H    0.027098
    60  N   -0.181442
    61  C    0.176987
    62  C    0.051975
    63  O   -0.295697
    64  C    0.022962
    65  C    0.074537
    66  N   -0.036863
    67  O   -0.334919
    68  H    0.150948
    69  H    0.025662
    70  H    0.056800
    71  H    0.039873
    72  H    0.126875
    73  H    0.119208
    74  N   -0.174595
    75  C    0.278139
    76  C   -0.002676
    77  O   -0.322221
    78  H    0.132993
    79  H    0.030227
    80  H    0.037933
    81  N   -0.137466
    82  C    0.132220
    83  C    0.133276
    84  O   -0.376912
    85  C    0.159202
    86  C   -0.037019
    87  C   -0.001590
    88  C   -0.023568
    89  C   -0.023120
    90  C   -0.068189
    91  C    0.166660
    92  O   -0.190833
    93  H    0.152847
    94  H    0.009647
    95  H    0.011422
    96  H   -0.019690
    97  H    0.007563
    98  H   -0.025945
    99  H   -0.011378
   100  H   -0.054732
   101  H    0.158875
   102  N   -0.099104
   103  C    0.122489
   104  C    0.080795
   105  O   -0.275420
   106  C   -0.057897
   107  C   -0.005529
   108  C    0.037024
   109  C    0.028388
   110  H    0.138503
   111  H    0.025716
   112  H   -0.007132
   113  H   -0.007162
   114  H   -0.014115
   115  H    0.014715
   116  H    0.030431
   117  H   -0.016917
   118  H    0.013229
   119  H    0.005323
   120  H    0.002976
   121  N   -0.146473
   122  C    0.038304
   123  C    0.134896
   124  O   -0.281607
   125  C    0.285904
   126  O   -0.336313
   127  H    0.153652
   128  H    0.018755
   129  H   -0.004876
   130  H   -0.025650
   131  H    0.185705
   132  N   -0.105552
   133  C    0.065531
   134  C    0.055373
   135  O   -0.259863
   136  C    0.030777
   137  H    0.115669
   138  H    0.015334
   139  H    0.021878
   140  H    0.050033
   141  H    0.022030
   142  N   -0.139804
   143  C    0.115477
   144  C    0.079237
   145  O   -0.264804
   146  C    0.013822
   147  H    0.105832
   148  H    0.013960
   149  H    0.016966
   150  H    0.030300
   151  H    0.012151
   152  N   -0.161115
   153  C    0.144491
   154  C    0.054691
   155  O   -0.293932
   156  C    0.007490
   157  C    0.059913
   158  C    0.214219
   159  O   -0.410666
   160  O   -0.451031
   161  H    0.132099
   162  H   -0.018227
   163  H   -0.005385
   164  H   -0.007665
   165  H    0.024756
   166  H   -0.027242
   167  N   -0.162130
   168  C    0.134898
   169  H    0.035438
   170  H    0.006272
   171  H    0.008014
   172  H    0.127952
   173  Ca   1.294599
   174  O   -0.330279
   175  H    0.154893
   176  H    0.171533
 Sum of Mulliken charges =  -0.00000
 Mulliken charges with hydrogens summed into heavy atoms:
               1
     1  C    0.142865
     2  C    0.019239
     3  O   -0.299381
     7  N   -0.015348
     8  C    0.107041
     9  C    0.038932
    10  O   -0.258494
    11  C    0.094903
    12  C    0.138083
    13  O   -0.361426
    14  O   -0.461495
    19  N    0.018557
    20  C    0.130978
    21  C    0.054924
    22  O   -0.309648
    23  C    0.081439
    24  C    0.045565
    25  C    0.018334
    26  C    0.163441
    27  N    0.670442
    41  N   -0.003061
    42  C    0.165182
    43  C    0.041515
    44  O   -0.299663
    45  C    0.160424
    46  C    0.086886
    47  O   -0.389932
    48  O   -0.481539
    53  N   -0.010155
    54  C    0.264386
    55  C    0.037262
    56  O   -0.264778
    60  N   -0.030494
    61  C    0.202649
    62  C    0.051975
    63  O   -0.295697
    64  C    0.119635
    65  C    0.074537
    66  N    0.209220
    67  O   -0.334919
    74  N   -0.041602
    75  C    0.346300
    76  C   -0.002676
    77  O   -0.322221
    81  N    0.015381
    82  C    0.141867
    83  C    0.133276
    84  O   -0.376912
    85  C    0.150933
    86  C   -0.037019
    87  C    0.005974
    88  C   -0.049513
    89  C   -0.034498
    90  C   -0.122921
    91  C    0.166660
    92  O   -0.031959
   102  N    0.039399
   103  C    0.148205
   104  C    0.080795
   105  O   -0.275420
   106  C   -0.065029
   107  C   -0.026806
   108  C    0.065253
   109  C    0.049916
   121  N    0.007180
   122  C    0.057059
   123  C    0.134896
   124  O   -0.281607
   125  C    0.255377
   126  O   -0.150608
   132  N    0.010117
   133  C    0.080865
   134  C    0.055373
   135  O   -0.259863
   136  C    0.124718
   142  N   -0.033972
   143  C    0.129437
   144  C    0.079237
   145  O   -0.264804
   146  C    0.073238
   152  N   -0.029017
   153  C    0.126264
   154  C    0.054691
   155  O   -0.293932
   156  C   -0.005560
   157  C    0.057426
   158  C    0.214219
   159  O   -0.410666
   160  O   -0.451031
   167  N   -0.034178
   168  C    0.184622
   173  Ca   1.294599
   174  O   -0.003853
 DipInt: DoE/N= T F RetVal/Mat= T F Init=T NMatP=  1 IDeriv=0 Min/MaxMlt=  0  4
 Entering OneElI...
 OneElI was handed  1333951383 working-precision words.
 Multipole integrals L=0 to 4 MinM= 0 MaxM= 0.
 Requested accuracy = 0.1000D-12
 ShPair: Thresh= 1.00D-13 NBox=     0 BxSize= 0.00D+00 RnKept= 2.55D+01
         NSMCal=               327645 NSMKep=              167735
 PrmmSu-InSpLW:  IPartL=    0 NPrtUS=    1 NPrtUL=    1 DoSpLW=F IThBeg=    0 IThEnd=    0 NThAct=    1.
 PrsmSu:  NPrtUS=   1 ThrOK=F IAlg=1 NPAlg=1 LenDen=           0 ISkipM=0 DoSpLW=F IThBeg=    0 IThEnd=    0.
 Prism:   IPart=     0 DynPar=F LinDyn=F Incr=         512.
 PRISM was handed  1323605231 working-precision words and167735 shell-pairs
 IPart=  0 NShTot=      167735 NBatch=         382 AvBLen=       439.1
 PrsmSu-ThDecC:  IPartSL=    0    0 NPrtUSL=    1    1 IThBeg=    0 IThEnd=    0 CPU=   -1 GPU=   -1 NThAct=    1.
 PrSmSu:  NxtVal=            513.
 Electronic moments (au):
       -716.00000000         10.89561719          3.29745672          2.85933756
     -49261.90238595     -25693.05676165     -13721.03086038         65.16544241
         42.72212899         89.35632182     -78111.14099228     -30600.42476783
     -15045.22635921       -349.30563909      49635.08114993      46576.61871977
      -4565.93843505       5002.40802495       2898.35351929     -23102.70157919
   -6878445.84147957   -2142314.53775560    -713541.05119598     389043.91086878
     420497.09460979    -317356.98880022    -112073.06548160     -36557.43031906
      38533.06009876   -1419634.01267884    -707188.86997424    -358185.97933976
    -145980.50619572    -133902.55715787     -18763.81687609
 Electronic spatial extent (au):  <R**2>=          88675.9900
 DipInt: DoE/N= F T RetVal/Mat= T F Init=T NMatP=  1 IDeriv=0 Min/MaxMlt=  0  4
 Nuclear    moments (au):
        716.00000000          0.00000000         -0.00000000          0.00000000
      48738.02820139      25403.37265173      13328.82075537          0.00000000
         -0.00000000          0.00000000      78928.42396410      32527.72518714
      15039.67505881       2256.36056597     -49609.80169207     -46512.51071171
       4802.63392030      -5015.11440251      -2340.90763946      23403.55676372
    6671082.79692876    2080499.55599401     667496.53422980    -390359.91958119
    -415776.91225793     335126.92681310     123258.62322069      38626.90896861
     -34505.86048177    1385783.56881937     671974.85184902     337127.68928134
     151661.65754047     137095.53670392      19974.27002872
 Total      moments (au):
         -0.00000000         10.89561719          3.29745672          2.85933756
       -523.87418456       -289.68410992       -392.21010502         65.16544241
         42.72212899         89.35632182        817.28297182       1927.30041931
         -5.55130040       1907.05492688         25.27945786         64.10800806
        236.69548525        -12.70637756        557.44587982        300.85518453
    -207363.04455081     -61814.98176159     -46044.51696618      -1316.00871241
       4720.18235186      17769.93801288      11185.55773909       2069.47864955
       4027.19961699     -33850.44385947     -35214.01812522     -21058.29005841
       5681.15134475       3192.97954605       1210.45315263
 Traceless Quadrup. (au):
       -121.95138473        112.23868991          9.71269481         65.16544241
         42.72212899         89.35632182
 Charge=             -0.0000 electrons
 Dipole moment (field-independent basis, Debye):
    X=             27.6939    Y=              8.3813    Z=              7.2677  Tot=             29.8332
 Quadrupole moment (field-independent basis, Debye-Ang):
   XX=           -704.6287   YY=           -389.6351   ZZ=           -527.5360
   XY=             87.6498   XZ=             57.4627   YZ=            120.1873
 Traceless Quadrupole moment (field-independent basis, Debye-Ang):
   XX=           -164.0288   YY=            150.9649   ZZ=             13.0639
   XY=             87.6498   XZ=             57.4627   YZ=            120.1873
 Octapole moment (field-independent basis, Debye-Ang**2):
  XXX=            581.7105  YYY=           1371.7782  ZZZ=             -3.9512  XYY=           1357.3682
  XXY=             17.9929  XXZ=             45.6296  XZZ=            168.4707  YZZ=             -9.0439
  YYZ=            396.7685  XYZ=            214.1371
 Hexadecapole moment (field-independent basis, Debye-Ang**3):
 XXXX=         -78102.8660 YYYY=         -23282.4863 ZZZZ=         -17342.5730 XXXY=           -495.6720
 XXXZ=           1777.8470 YYYX=           6693.0108 YYYZ=           4213.0174 ZZZX=            779.4649
 ZZZY=           1516.8365 XXYY=         -12749.7003 XXZZ=         -13263.2878 YYZZ=          -7931.5618
 XXYZ=           2139.7940 YYXZ=           1202.6292 ZZXY=            455.9147
 N-N= 2.210512701194D+04 E-N=-5.668896539890D+04  KE= 5.290381122149D+03
 Leave Link  601 at Sun Sep 15 01:19:43 2019, MaxMem=  1342177280 cpu:              43.2 elap:               1.1
 FitSet:  NAtFit=   176 NAtPot=   176 NAtFrz=     0 MDM=   180 TotChg=   0.00000
 Merz-Kollman atomic radii used.
 Read replacement radii for each type of atom:
 Rad(20) =   1.700000000000D+00
 Atom Element Radius
    1     6    1.50
    2     6    1.50
    3     8    1.40
    4     1    1.20
    5     1    1.20
    6     1    1.20
    7     7    1.50
    8     6    1.50
    9     6    1.50
   10     8    1.40
   11     6    1.50
   12     6    1.50
   13     8    1.40
   14     8    1.40
   15     1    1.20
   16     1    1.20
   17     1    1.20
   18     1    1.20
   19     7    1.50
   20     6    1.50
   21     6    1.50
   22     8    1.40
   23     6    1.50
   24     6    1.50
   25     6    1.50
   26     6    1.50
   27     7    1.50
   28     1    1.20
   29     1    1.20
   30     1    1.20
   31     1    1.20
   32     1    1.20
   33     1    1.20
   34     1    1.20
   35     1    1.20
   36     1    1.20
   37     1    1.20
   38     1    1.20
   39     1    1.20
   40     1    1.20
   41     7    1.50
   42     6    1.50
   43     6    1.50
   44     8    1.40
   45     6    1.50
   46     6    1.50
   47     8    1.40
   48     8    1.40
   49     1    1.20
   50     1    1.20
   51     1    1.20
   52     1    1.20
   53     7    1.50
   54     6    1.50
   55     6    1.50
   56     8    1.40
   57     1    1.20
   58     1    1.20
   59     1    1.20
   60     7    1.50
   61     6    1.50
   62     6    1.50
   63     8    1.40
   64     6    1.50
   65     6    1.50
   66     7    1.50
   67     8    1.40
   68     1    1.20
   69     1    1.20
   70     1    1.20
   71     1    1.20
   72     1    1.20
   73     1    1.20
   74     7    1.50
   75     6    1.50
   76     6    1.50
   77     8    1.40
   78     1    1.20
   79     1    1.20
   80     1    1.20
   81     7    1.50
   82     6    1.50
   83     6    1.50
   84     8    1.40
   85     6    1.50
   86     6    1.50
   87     6    1.50
   88     6    1.50
   89     6    1.50
   90     6    1.50
   91     6    1.50
   92     8    1.40
   93     1    1.20
   94     1    1.20
   95     1    1.20
   96     1    1.20
   97     1    1.20
   98     1    1.20
   99     1    1.20
  100     1    1.20
  101     1    1.20
  102     7    1.50
  103     6    1.50
  104     6    1.50
  105     8    1.40
  106     6    1.50
  107     6    1.50
  108     6    1.50
  109     6    1.50
  110     1    1.20
  111     1    1.20
  112     1    1.20
  113     1    1.20
  114     1    1.20
  115     1    1.20
  116     1    1.20
  117     1    1.20
  118     1    1.20
  119     1    1.20
  120     1    1.20
  121     7    1.50
  122     6    1.50
  123     6    1.50
  124     8    1.40
  125     6    1.50
  126     8    1.40
  127     1    1.20
  128     1    1.20
  129     1    1.20
  130     1    1.20
  131     1    1.20
  132     7    1.50
  133     6    1.50
  134     6    1.50
  135     8    1.40
  136     6    1.50
  137     1    1.20
  138     1    1.20
  139     1    1.20
  140     1    1.20
  141     1    1.20
  142     7    1.50
  143     6    1.50
  144     6    1.50
  145     8    1.40
  146     6    1.50
  147     1    1.20
  148     1    1.20
  149     1    1.20
  150     1    1.20
  151     1    1.20
  152     7    1.50
  153     6    1.50
  154     6    1.50
  155     8    1.40
  156     6    1.50
  157     6    1.50
  158     6    1.50
  159     8    1.40
  160     8    1.40
  161     1    1.20
  162     1    1.20
  163     1    1.20
  164     1    1.20
  165     1    1.20
  166     1    1.20
  167     7    1.50
  168     6    1.50
  169     1    1.20
  170     1    1.20
  171     1    1.20
  172     1    1.20
[...]
 **** Fit      -0.023434
 **** Fit      -0.017843
 **** Fit      -0.011497
 **** Fit      -0.004371
 **** Fit       0.003487
 **** Fit       0.011931
 **** Fit      -0.049648
 **** Fit      -0.047369
 **** Fit      -0.045046
 **** Fit      -0.048245
 **** Fit      -0.044522
 **** Fit      -0.040515
 **** Fit      -0.036148
 **** Fit      -0.031342
 **** Fit      -0.026019
 **** Fit      -0.020114
 **** Fit      -0.013600
 **** Fit      -0.006518
 **** Fit       0.000989
 **** Fit       0.008630
 **** Fit      -0.045266
 **** Fit      -0.039917
 **** Fit      -0.034292
 **** Fit      -0.028301
 **** Fit      -0.021897
 **** Fit      -0.015115
 **** Fit      -0.008108
 **** Fit      -0.001184
 **** Fit       0.005172
 **** Fit      -0.037777
 **** Fit      -0.031084
 **** Fit      -0.024289
 **** Fit      -0.017494
 **** Fit      -0.010930
 **** Fit      -0.005722
 **** Fit      -0.007018
 **** Fit      -0.006085
 **** Fit      -0.030257
 **** Fit      -0.007923
 **** Fit      -0.008468
 **** Fit      -0.010343
 **** Fit      -0.014166
 **** Fit      -0.019745
 **** Fit      -0.025612
 **** Fit      -0.029024
 **** Fit      -0.028114
 **** Fit      -0.010723
 **** Fit      -0.013740
 **** Fit      -0.018357
 **** Fit      -0.022370
 **** Fit      -0.022819
 **** Fit       0.002265
 **** Fit       0.016436
 **** Fit      -0.010215
 **** Fit       0.002929
 **** Fit       0.014612
 **** Fit      -0.020813
 **** Fit      -0.007798
 **** Fit       0.003517
 **** Fit       0.012960
 **** Fit      -0.007286
 **** Fit       0.002219
 **** Fit       0.009587
 **** Fit      -0.014021
 **** Fit      -0.004280
 **** Fit       0.002853
 **** Fit       0.007458
 **** Fit       0.009608
 **** Fit      -0.010395
 **** Fit      -0.003249
 **** Fit       0.001061
 **** Fit       0.002808
 **** Fit      -0.007174
 **** Fit      -0.003674
 **** Fit      -0.002826
 **** Fit      -0.009178
 **** Fit      -0.007563
 **** Fit      -0.007515
 **** Fit      -0.023712
 **** Fit      -0.022850
 **** Fit      -0.022968
 **** Fit      -0.007555
 **** Fit      -0.008639
 **** Fit      -0.010417
 **** Fit      -0.022522
 **** Fit      -0.021882
 **** Fit      -0.020608
 **** Fit      -0.019583
 **** Fit      -0.018492
 **** Fit      -0.007635
 **** Fit      -0.009510
 **** Fit      -0.012155
 **** Fit      -0.015542
 **** Fit      -0.018075
 **** Fit      -0.018334
 **** Fit      -0.017026
 **** Fit      -0.014899
 **** Fit      -0.010337
 **** Fit      -0.013414
 **** Fit      -0.014684
 **** Fit      -0.012678
 **** Fit      -0.011299
 **** Fit       0.005026
 **** Fit       0.008674
 **** Fit       0.010786
 **** Fit      -0.003397
 **** Fit      -0.000415
 **** Fit       0.002440
 **** Fit       0.004156
 **** Fit       0.004021
 **** Fit      -0.004155
 **** Fit      -0.002190
 **** Fit      -0.001120
 **** Fit      -0.001924
 **** Fit      -0.005900
 **** Fit      -0.005594
 **** Fit      -0.007741
 **** Fit      -0.012758
 **** Fit      -0.019214
 **** Fit      -0.009566
 **** Fit      -0.013459
 **** Fit       0.013783
 **** Fit       0.012814
 **** Fit       0.013684
 **** Fit       0.014681
 **** Fit       0.014656
 **** Fit       0.013950
 **** Fit       0.013071
 **** Fit       0.011752
 **** Fit       0.012367
 **** Fit       0.015863
 **** Fit       0.015409
 **** Fit       0.011836
 **** Fit       0.010592
 **** Fit       0.011018
 **** Fit       0.016679
 **** Fit       0.015988
 **** Fit       0.011136
 **** Fit       0.010650
 **** Fit       0.009326
 **** Fit       0.009611
 **** Fit       0.017711
 **** Fit       0.016743
 **** Fit       0.010595
 **** Fit       0.009844
 **** Fit       0.009417
 **** Fit       0.007953
 **** Fit       0.008078
 **** Fit       0.008520
 **** Fit       0.017981
 **** Fit       0.016662
 **** Fit       0.015642
 **** Fit       0.009057
 **** Fit       0.008451
 **** Fit       0.008085
 **** Fit       0.006477
 **** Fit       0.006462
 **** Fit       0.006688
 **** Fit       0.019448
 **** Fit       0.017697
 **** Fit       0.015868
 **** Fit       0.008421
 **** Fit       0.007623
 **** Fit       0.007055
 **** Fit       0.006679
 **** Fit       0.004911
 **** Fit       0.004747
 **** Fit       0.004739
 **** Fit       0.004956
 **** Fit       0.007770
 **** Fit       0.006814
 **** Fit       0.006099
 **** Fit       0.005575
 **** Fit       0.005189
 **** Fit       0.003272
 **** Fit       0.002946
 **** Fit       0.002696
 **** Fit       0.002584
 **** Fit       0.002670
 **** Fit       0.007231
 **** Fit       0.006066
 **** Fit       0.005179
 **** Fit       0.004529
 **** Fit       0.000094
 **** Fit      -0.000282
 **** Fit       0.006650
 **** Fit       0.005245
 **** Fit       0.004157
 **** Fit      -0.003421
 **** Fit      -0.004308
 **** Fit       0.006312
 **** Fit       0.004506
 **** Fit       0.003055
 **** Fit      -0.008661
 **** Fit      -0.010653
 **** Fit       0.004490
 **** Fit       0.002237
 **** Fit      -0.013566
 **** Fit      -0.016782
 **** Fit       0.001755
 **** Fit      -0.001130
 **** Fit      -0.019016
 **** Fit      -0.026129
 **** Fit       0.002357
 **** Fit       0.002038
 **** Fit       0.003812
 **** Fit       0.003188
 **** Fit       0.002725
 **** Fit       0.000631
 **** Fit       0.000251
 **** Fit      -0.000184
 **** Fit      -0.000701
 **** Fit       0.002566
 **** Fit       0.001891
 **** Fit       0.001392
 **** Fit       0.000994
 **** Fit      -0.001324
 **** Fit      -0.001761
 **** Fit      -0.002329
 **** Fit      -0.003084
 **** Fit      -0.004091
 **** Fit       0.001196
 **** Fit       0.000373
 **** Fit      -0.000198
 **** Fit      -0.000613
 **** Fit      -0.000962
 **** Fit      -0.003629
 **** Fit      -0.004089
 **** Fit      -0.004752
 **** Fit      -0.005693
 **** Fit      -0.007016
 **** Fit      -0.000738
 **** Fit      -0.001742
 **** Fit      -0.002380
 **** Fit      -0.002775
 **** Fit      -0.003049
 **** Fit      -0.003306
 **** Fit      -0.006422
 **** Fit      -0.006876
 **** Fit      -0.007619
 **** Fit      -0.008744
 **** Fit      -0.010386
 **** Fit      -0.012765
 **** Fit      -0.003512
 **** Fit      -0.004844
 **** Fit      -0.005587
 **** Fit      -0.005921
 **** Fit      -0.006034
 **** Fit      -0.006083
 **** Fit      -0.006182
 **** Fit      -0.009861
 **** Fit      -0.010282
 **** Fit      -0.011134
 **** Fit      -0.012535
 **** Fit      -0.014678
 **** Fit      -0.017891
 **** Fit      -0.010718
 **** Fit      -0.010972
 **** Fit      -0.010744
 **** Fit      -0.010342
 **** Fit      -0.009977
 **** Fit      -0.009786
 **** Fit      -0.014134
 **** Fit      -0.014451
 **** Fit      -0.015417
 **** Fit      -0.017181
 **** Fit      -0.020006
 **** Fit      -0.024376
 **** Fit      -0.017793
 **** Fit      -0.016305
 **** Fit      -0.015125
 **** Fit      -0.014379
 **** Fit      -0.019455
 **** Fit      -0.019537
 **** Fit      -0.020557
 **** Fit      -0.022664
 **** Fit      -0.026167
 **** Fit      -0.031643
 **** Fit      -0.021966
 **** Fit      -0.020259
 **** Fit      -0.026053
 **** Fit      -0.025742
 **** Fit      -0.026928
 **** Fit      -0.029750
 **** Fit      -0.034577
 **** Fit      -0.027914
 **** Fit      -0.033137
 **** Fit      -0.034457
 **** Fit      -0.038045
 **** Fit      -0.043289
 **** Fit       0.015354
 **** Fit       0.014073
 **** Fit       0.015503
 **** Fit       0.016887
 **** Fit       0.016524
 **** Fit       0.015087
 **** Fit       0.014008
 **** Fit       0.012679
 **** Fit       0.013727
 **** Fit       0.015430
 **** Fit       0.017276
 **** Fit       0.018525
 **** Fit       0.018605
 **** Fit       0.017565
 **** Fit       0.011153
 **** Fit       0.011901
 **** Fit       0.013226
 **** Fit       0.015015
 **** Fit       0.017023
 **** Fit       0.018870
 **** Fit       0.020131
 **** Fit       0.020488
 **** Fit       0.019840
 **** Fit       0.018421
 **** Fit       0.009469
 **** Fit       0.009991
 **** Fit       0.011019
 **** Fit       0.012530
 **** Fit       0.014452
 **** Fit       0.016628
 **** Fit       0.018793
 **** Fit       0.020614
 **** Fit       0.021788
 **** Fit       0.022117
 **** Fit       0.021481
 **** Fit       0.019936
 **** Fit       0.007896
 **** Fit       0.008652
 **** Fit       0.009867
 **** Fit       0.011531
 **** Fit       0.013601
 **** Fit       0.015957
 **** Fit       0.018378
 **** Fit       0.020560
 **** Fit       0.022208
 **** Fit       0.023136
 **** Fit       0.023226
 **** Fit       0.020176
 **** Fit       0.005545
 **** Fit       0.005977
 **** Fit       0.006803
 **** Fit       0.008036
 **** Fit       0.009688
 **** Fit       0.011745
 **** Fit       0.014133
 **** Fit       0.016680
 **** Fit       0.019120
 **** Fit       0.021162
 **** Fit       0.022600
 **** Fit       0.023360
 **** Fit       0.003005
 **** Fit       0.003455
 **** Fit       0.004269
 **** Fit       0.005478
 **** Fit       0.007118
 **** Fit       0.009199
 **** Fit       0.011662
 **** Fit       0.014333
 **** Fit       0.016926
 **** Fit       0.019123
 **** Fit       0.020690
 **** Fit      -0.000504
 **** Fit      -0.000308
 **** Fit       0.000175
 **** Fit       0.000998
 **** Fit       0.002235
 **** Fit       0.003951
 **** Fit      -0.005185
 **** Fit      -0.005808
 **** Fit      -0.006330
 **** Fit      -0.006719
 **** Fit      -0.012907
 **** Fit       0.013906
 **** Fit       0.013108
 **** Fit       0.013695
 **** Fit       0.014494
 **** Fit       0.014586
 **** Fit       0.014016
 **** Fit       0.013334
 **** Fit       0.012211
 **** Fit       0.015324
 **** Fit       0.015101
 **** Fit       0.014604
 **** Fit       0.014011
 **** Fit       0.013394
 **** Fit       0.012784
 **** Fit       0.012319
 **** Fit       0.015723
 **** Fit       0.015352
 **** Fit       0.014872
 **** Fit       0.014359
 **** Fit       0.013873
 **** Fit       0.013388
 **** Fit       0.012849
 **** Fit       0.012254
 **** Fit       0.011693
 **** Fit       0.011306
 **** Fit       0.015852
 **** Fit       0.015390
 **** Fit       0.014046
 **** Fit       0.013693
 **** Fit       0.013364
 **** Fit       0.012978
 **** Fit       0.012474
 **** Fit       0.011850
 **** Fit       0.011183
 **** Fit       0.010597
 **** Fit       0.013267
 **** Fit       0.013131
 **** Fit       0.012975
 **** Fit       0.012710
 **** Fit       0.012258
 **** Fit       0.011608
 **** Fit       0.010831
 **** Fit       0.010052
 **** Fit       0.009405
 **** Fit       0.012428
 **** Fit       0.012516
 **** Fit       0.012569
 **** Fit       0.012458
 **** Fit       0.012084
 **** Fit       0.011426
 **** Fit       0.010555
 **** Fit       0.009604
 **** Fit       0.008721
 **** Fit       0.011526
 **** Fit       0.011937
 **** Fit       0.012207
 **** Fit       0.012133
 **** Fit       0.011623
 **** Fit       0.010718
 **** Fit       0.009563
 **** Fit       0.008359
 **** Fit       0.010584
 **** Fit       0.011490
 **** Fit       0.011967
 **** Fit       0.011827
 **** Fit       0.011049
 **** Fit       0.009773
 **** Fit       0.008253
 **** Fit       0.009185
 **** Fit       0.010881
 **** Fit       0.011736
 **** Fit       0.011587
 **** Fit       0.010485
 **** Fit       0.008713
 **** Fit       0.006692
 **** Fit       0.007949
 **** Fit       0.022257
 **** Fit       0.014035
 **** Fit       0.017965
 **** Fit       0.009734
 **** Fit       0.001120
 **** Fit      -0.025205
 **** Fit      -0.023971
 **** Fit      -0.024248
 **** Fit       0.024642
 **** Fit       0.016205
 **** Fit       0.008218
 **** Fit       0.000312
 **** Fit      -0.007736
 **** Fit      -0.023184
 **** Fit      -0.023622
 **** Fit       0.025022
 **** Fit       0.016634
 **** Fit       0.008865
 **** Fit       0.001517
 **** Fit      -0.005513
 **** Fit      -0.012030
 **** Fit      -0.017438
 **** Fit      -0.021044
 **** Fit      -0.022718
 **** Fit      -0.021131
 **** Fit      -0.022783
 **** Fit       0.025445
 **** Fit       0.017404
 **** Fit       0.009978
 **** Fit       0.003115
 **** Fit      -0.003208
 **** Fit      -0.008877
 **** Fit      -0.013621
 **** Fit      -0.017162
 **** Fit      -0.019514
 **** Fit      -0.019105
 **** Fit      -0.021725
 **** Fit       0.021490
 **** Fit       0.013914
 **** Fit       0.006943
 **** Fit       0.000619
 **** Fit      -0.004994
 **** Fit      -0.009778
 **** Fit      -0.013627
 **** Fit      -0.016616
 **** Fit      -0.016972
 **** Fit      -0.020443
 **** Fit       0.012217
 **** Fit       0.005468
 **** Fit      -0.000540
 **** Fit      -0.005736
 **** Fit      -0.010093
 **** Fit      -0.013723
 **** Fit      -0.014569
 **** Fit      -0.018732
 **** Fit       0.004190
 **** Fit      -0.001519
 **** Fit      -0.006427
 **** Fit      -0.010663
 **** Fit      -0.011752
 **** Fit      -0.016600
 **** Fit      -0.002079
 **** Fit      -0.007110
 **** Fit      -0.008414
 **** Fit      -0.014012
 **** Fit      -0.020097
 **** Fit      -0.002781
 **** Fit       0.036616
 **** Fit       0.028213
 **** Fit       0.036488
 **** Fit       0.029570
 **** Fit       0.022174
 **** Fit      -0.008768
 **** Fit       0.002834
 **** Fit       0.039894
 **** Fit       0.035256
 **** Fit       0.029807
 **** Fit       0.023724
 **** Fit       0.017274
 **** Fit       0.010704
 **** Fit      -0.009653
 **** Fit       0.001227
 **** Fit       0.012105
 **** Fit       0.035255
 **** Fit       0.031265
 **** Fit       0.026432
 **** Fit       0.020926
 **** Fit       0.015030
 **** Fit       0.009039
 **** Fit       0.003246
 **** Fit      -0.003098
 **** Fit      -0.009598
 **** Fit      -0.000055
 **** Fit       0.009457
 **** Fit       0.018564
 **** Fit       0.033327
 **** Fit       0.032791
 **** Fit       0.030692
 **** Fit       0.027425
 **** Fit       0.023164
 **** Fit       0.018161
 **** Fit       0.012746
 **** Fit       0.007254
 **** Fit       0.001949
 **** Fit       0.000364
 **** Fit      -0.004699
 **** Fit      -0.009580
 **** Fit      -0.013508
 **** Fit      -0.014712
 **** Fit      -0.011819
 **** Fit      -0.005461
 **** Fit       0.002604
 **** Fit       0.010961
 **** Fit       0.018470
 **** Fit       0.023903
 **** Fit       0.026484
 **** Fit       0.026420
 **** Fit       0.024342
 **** Fit       0.020759
 **** Fit       0.016119
 **** Fit       0.010910
 **** Fit       0.005572
 **** Fit       0.003496
 **** Fit      -0.001481
 **** Fit      -0.004718
 **** Fit      -0.004278
 **** Fit       0.000545
 **** Fit       0.007889
 **** Fit       0.015049
 **** Fit       0.019711
 **** Fit       0.020808
 **** Fit       0.018735
 **** Fit       0.014459
 **** Fit       0.009059
 **** Fit       0.006414
 **** Fit       0.002711
 **** Fit       0.005390
 **** Fit       0.012048
 **** Fit       0.015162
 **** Fit       0.012200
 **** Fit       0.009224
 **** Fit      -0.024537
 **** Fit      -0.026821
 **** Fit      -0.031942
 **** Fit      -0.025467
 **** Fit      -0.028506
 **** Fit      -0.025864
 **** Fit      -0.029922
 **** Fit      -0.025974
 **** Fit      -0.031009
 **** Fit      -0.025872
 **** Fit      -0.025529
 **** Fit      -0.024856
 **** Fit      -0.023741
 -----------------------------------------------------------------
 Leave Link  602 at Sun Sep 15 01:19:45 2019, MaxMem=  1342177280 cpu:             108.7 elap:               2.3

 Test job not archived.
 1\1\GINC-C506-104\SP\RB3LYP\SVP\C54H83Ca1N15O23\PENGZHI\15-Sep-2019\0\
 \#b3lyp/svp scf=(tight,noincore) Test #IOP(5/87=12) Density=Current Po
 p=(MK,readradii) iop(6/33=2) iop(6/42=6)\\CaMKII_loop3_93.0\\0,1\C,0,6
 2.16,45.9,38.76\C,0,61.32,45.54,39.98\O,0,61.7,44.68,40.78\H,0,63.144,
 45.44,38.848\H,0,61.668,45.534,37.859\H,0,62.27,46.983,38.701\N,0,60.1
 ,46.05,40.13\C,0,59.07,45.61,41.05\C,0,58.11,44.52,40.58\O,0,57.,44.83
 ,40.18\C,0,58.42,46.76,41.8\C,0,57.61,46.29,43.\O,0,56.83,47.11,43.54\
 O,0,57.74,45.09,43.32\H,0,59.81,46.59,39.33\H,0,59.66,45.06,41.78\H,0,
 57.71,47.33,41.19\H,0,59.21,47.44,42.12\N,0,58.57,43.27,40.72\C,0,58.0
 2,41.99,40.33\C,0,56.75,41.57,41.05\O,0,56.08,40.65,40.57\C,0,59.11,40
 .92,40.35\C,0,60.33,41.28,39.5\C,0,59.96,41.39,38.02\C,0,61.3,41.34,37
 .3\N,0,61.1,41.21,35.85\H,0,59.46,43.18,41.2\H,0,57.59,41.97,39.33\H,0
 ,58.77,39.99,39.88\H,0,59.37,40.63,41.36\H,0,61.06,40.49,39.68\H,0,60.
 67,42.26,39.81\H,0,59.55,42.38,37.82\H,0,59.31,40.58,37.69\H,0,61.88,4
 0.54,37.75\H,0,61.9,42.24,37.45\H,0,61.95,41.24,35.3\H,0,60.71,40.29,3
 5.69\H,0,60.38,41.87,35.58\N,0,56.36,42.26,42.12\C,0,55.22,41.82,42.91
 \C,0,54.44,43.01,43.45\O,0,53.46,42.75,44.15\C,0,55.63,40.72,43.89\C,0
 ,56.82,41.1,44.75\O,0,57.59,40.16,45.03\O,0,57.07,42.29,45.05\H,0,57.0
 1,42.94,42.48\H,0,54.55,41.32,42.21\H,0,55.95,39.83,43.34\H,0,54.81,40
 .52,44.57\N,0,54.71,44.23,42.98\C,0,53.85,45.34,43.34\C,0,53.58,45.71,
 44.79\O,0,52.6,46.4,45.03\H,0,55.57,44.34,42.46\H,0,52.89,45.24,42.84\
 H,0,54.32,46.24,42.94\N,0,54.46,45.17,45.64\C,0,54.4,45.54,47.04\C,0,5
 4.88,46.98,47.18\O,0,54.65,47.54,48.25\C,0,55.18,44.53,47.88\C,0,56.69
 ,44.4,47.81\N,0,57.27,43.37,48.42\O,0,57.36,45.14,47.1\H,0,55.22,44.58
 ,45.32\H,0,53.38,45.51,47.42\H,0,54.81,43.58,47.5\H,0,54.92,44.57,48.9
 4\H,0,56.76,42.76,49.04\H,0,58.28,43.28,48.42\N,0,55.52,47.59,46.17\C,
 0,55.88,48.99,46.06\C,0,57.39,49.21,46.14\O,0,57.76,50.38,46.11\H,0,55
 .62,47.04,45.33\H,0,55.44,49.54,46.89\H,0,55.58,49.5,45.15\N,0,58.29,4
 8.24,46.29\C,0,59.71,48.48,46.22\C,0,60.52,47.43,45.48\O,0,60.12,46.27
 ,45.42\C,0,60.26,48.78,47.62\C,0,59.77,47.85,48.7\C,0,58.64,48.1,49.48
 \C,0,60.52,46.68,48.84\C,0,58.2,47.15,50.41\C,0,60.11,45.7,49.75\C,0,5
 8.98,45.99,50.56\O,0,58.67,45.02,51.46\H,0,57.88,47.32,46.4\H,0,59.75,
 49.43,45.68\H,0,60.1,49.78,48.01\H,0,61.34,48.61,47.5\H,0,57.99,48.93,
 49.23\H,0,61.44,46.46,48.32\H,0,57.33,47.39,51.\H,0,60.65,44.77,49.83\
 H,0,59.34,44.34,51.41\N,0,61.69,47.79,44.96\C,0,62.68,46.91,44.36\C,0,
 63.68,46.4,45.39\O,0,64.19,47.08,46.27\C,0,63.39,47.66,43.24\C,0,62.44
 ,48.29,42.23\C,0,64.31,46.67,42.53\C,0,63.08,49.44,41.46\H,0,61.9,48.7
 7,45.12\H,0,62.17,46.06,43.91\H,0,64.,48.47,43.66\H,0,61.53,48.68,42.6
 9\H,0,61.92,47.73,41.45\H,0,65.18,46.32,43.08\H,0,63.78,45.8,42.16\H,0
 ,64.78,47.17,41.68\H,0,63.23,50.26,42.15\H,0,63.99,49.03,41.01\H,0,62.
 4,49.77,40.67\N,0,64.01,45.12,45.18\C,0,64.94,44.35,45.98\C,0,66.03,43
 .66,45.16\O,0,65.97,43.55,43.94\C,0,64.09,43.28,46.66\O,0,63.56,42.35,
 45.74\H,0,63.51,44.7,44.41\H,0,65.39,45.01,46.71\H,0,63.31,43.81,47.2\
 H,0,64.73,42.87,47.45\H,0,63.1,42.82,45.04\N,0,67.05,43.11,45.82\C,0,6
 8.22,42.49,45.22\C,0,67.86,41.19,44.51\O,0,68.42,40.88,43.46\C,0,69.29
 ,42.16,46.26\H,0,67.18,43.25,46.81\H,0,68.78,43.07,44.49\H,0,68.96,41.
 46,47.03\H,0,70.17,41.8,45.72\H,0,69.51,43.16,46.61\N,0,66.83,40.46,44
 .95\C,0,66.39,39.27,44.24\C,0,65.66,39.58,42.93\O,0,65.81,38.87,41.94\
 C,0,65.51,38.49,45.2\H,0,66.47,40.6,45.88\H,0,67.25,38.63,44.06\H,0,64
 .64,39.09,45.47\H,0,65.15,37.59,44.71\H,0,65.96,38.21,46.15\N,0,64.93,
 40.69,42.89\C,0,64.36,41.15,41.64\C,0,65.41,41.66,40.67\O,0,65.48,41.1
 8,39.54\C,0,63.23,42.15,41.91\C,0,62.07,41.63,42.75\C,0,61.21,42.74,43
 .36\O,0,59.98,42.69,43.19\O,0,61.72,43.39,44.31\H,0,64.94,41.33,43.68\
 H,0,63.98,40.25,41.15\H,0,62.85,42.54,40.97\H,0,63.61,42.99,42.49\H,0,
 62.47,41.07,43.6\H,0,61.51,40.93,42.13\N,0,66.33,42.51,41.14\C,0,67.36
 ,43.19,40.38\H,0,68.271,42.591,40.386\H,0,67.023,43.327,39.352\H,0,67.
 562,44.162,40.83\H,0,66.21,42.92,42.06\Ca,0,59.05,43.9,45.34\O,0,59.,4
 1.66,46.8\H,0,58.57,41.31,47.58\H,0,58.77,41.04,46.1\\Version=ES64L-G1
 6RevA.03\State=1-A\HF=-5333.614506\RMSD=6.524e-09\Dipole=8.5175172,-2.
 8600326,-7.5521931\Quadrupole=-123.1896734,-58.4662048,181.6558782,37.
 3692626,25.4041114,-0.107081\PG=C01 [X(C54H83Ca1N15O23)]\\@


 Fatherhood is pretending the present you love most is soap-on-a-rope.
 -- Bill Cosby
 Job cpu time:       0 days  9 hours 34 minutes 38.1 seconds.
 Elapsed time:       0 days  0 hours 12 minutes  6.0 seconds.
 File lengths (MBytes):  RWF=   1517 Int=      0 D2E=      0 Chk=    171 Scr=      1
 Normal termination of Gaussian 16 at Sun Sep 15 01:19:47 2019.
