 Entering Gaussian System, Link 0=g16
 Initial command:
 /home1/apps/gaussian/16rA.03/g16/l1.exe "/scratch/01990/pengzhi/4328842/Gau-456415.inp" -scrdir="/scratch/01990/pengzhi/4328842/"
 Entering Link 1 = /home1/apps/gaussian/16rA.03/g16/l1.exe PID=    456416.
  
 Copyright (c) 1988,1990,1992,1993,1995,1998,2003,2009,2016,
            Gaussian, Inc.  All Rights Reserved.
  
 This is part of the Gaussian(R) 16 program.  It is based on
 the Gaussian(R) 09 system (copyright 2009, Gaussian, Inc.),
 the Gaussian(R) 03 system (copyright 2003, Gaussian, Inc.),
 the Gaussian(R) 98 system (copyright 1998, Gaussian, Inc.),
 the Gaussian(R) 94 system (copyright 1995, Gaussian, Inc.),
 the Gaussian 92(TM) system (copyright 1992, Gaussian, Inc.),
 the Gaussian 90(TM) system (copyright 1990, Gaussian, Inc.),
 the Gaussian 88(TM) system (copyright 1988, Gaussian, Inc.),
 the Gaussian 86(TM) system (copyright 1986, Carnegie Mellon
 University), and the Gaussian 82(TM) system (copyright 1983,
 Carnegie Mellon University). Gaussian is a federally registered
 trademark of Gaussian, Inc.
  
 This software contains proprietary and confidential information,
 including trade secrets, belonging to Gaussian, Inc.
  
 This software is provided under written license and may be
 used, copied, transmitted, or stored only in accord with that
 written license.
  
 The following legend is applicable only to US Government
 contracts under FAR:
  
                    RESTRICTED RIGHTS LEGEND
  
 Use, reproduction and disclosure by the US Government is
 subject to restrictions as set forth in subparagraphs (a)
 and (c) of the Commercial Computer Software - Restricted
 Rights clause in FAR 52.227-19.
  
 Gaussian, Inc.
 340 Quinnipiac St., Bldg. 40, Wallingford CT 06492
  
  
 ---------------------------------------------------------------
 Warning -- This program may not be used in any manner that
 competes with the business of Gaussian, Inc. or will provide
 assistance to any competitor of Gaussian, Inc.  The licensee
 of this program is prohibited from giving any competitor of
 Gaussian, Inc. access to this program.  By using this program,
 the user acknowledges that Gaussian, Inc. is engaged in the
 business of creating and licensing software in the field of
 computational chemistry and represents and warrants to the
 licensee that it is not a competitor of Gaussian, Inc. and that
 it will not use this program in any manner prohibited above.
 ---------------------------------------------------------------
  

 Cite this work as:
 Gaussian 16, Revision A.03,
 M. J. Frisch, G. W. Trucks, H. B. Schlegel, G. E. Scuseria, 
 M. A. Robb, J. R. Cheeseman, G. Scalmani, V. Barone, 
 G. A. Petersson, H. Nakatsuji, X. Li, M. Caricato, A. V. Marenich, 
 J. Bloino, B. G. Janesko, R. Gomperts, B. Mennucci, H. P. Hratchian, 
 J. V. Ortiz, A. F. Izmaylov, J. L. Sonnenberg, D. Williams-Young, 
 F. Ding, F. Lipparini, F. Egidi, J. Goings, B. Peng, A. Petrone, 
 T. Henderson, D. Ranasinghe, V. G. Zakrzewski, J. Gao, N. Rega, 
 G. Zheng, W. Liang, M. Hada, M. Ehara, K. Toyota, R. Fukuda, 
 J. Hasegawa, M. Ishida, T. Nakajima, Y. Honda, O. Kitao, H. Nakai, 
 T. Vreven, K. Throssell, J. A. Montgomery, Jr., J. E. Peralta, 
 F. Ogliaro, M. J. Bearpark, J. J. Heyd, E. N. Brothers, K. N. Kudin, 
 V. N. Staroverov, T. A. Keith, R. Kobayashi, J. Normand, 
 K. Raghavachari, A. P. Rendell, J. C. Burant, S. S. Iyengar, 
 J. Tomasi, M. Cossi, J. M. Millam, M. Klene, C. Adamo, R. Cammi, 
 J. W. Ochterski, R. L. Martin, K. Morokuma, O. Farkas, 
 J. B. Foresman, and D. J. Fox, Gaussian, Inc., Wallingford CT, 2016.
 
 ******************************************
 Gaussian 16:  ES64L-G16RevA.03 25-Dec-2016
                14-Sep-2019 
 ******************************************
 %chk=CaMKII_loop3_103.0.chk
 %nprocshared=48
 Will use up to   48 processors via shared memory.
 %mem=10GB
 %nosave
 ----------------------------------------------------------------------
 #b3lyp/svp scf=(tight,noincore) Test #IOP(5/87=12) Density=Current Pop
 =(MK,readradii) iop(6/33=2) iop(6/42=6)
 ----------------------------------------------------------------------
 1/30=1,38=1,172=1/1;
 2/12=2,17=6,18=5,40=1/2;
 3/5=18,7=101,11=2,25=1,30=1,74=-5/1,2,3;
 4//1;
 5/5=4,32=2,38=5,87=12/2;
 6/7=2,8=2,9=2,10=2,15=8,20=101,22=-1,28=1,33=2,42=6/1,2;
 99/5=1,9=1/99;
 ------------------
 CaMKII_loop3_103.0
 ------------------
 Symbolic Z-matrix:
 Charge =  0 Multiplicity = 1
 C                     81.66     64.26     33.7 
 C                     81.31     64.18     35.18 
 O                     81.92     63.39     35.9 
 H                     82.698    63.961    33.556 
 H                     81.009    63.593    33.135 
 H                     81.525    65.283    33.349 
 N                     80.25     64.87     35.6 
 C                     79.6      64.69     36.89 
 C                     78.57     63.58     36.83 
 O                     77.85     63.55     35.83 
 C                     78.91     65.96     37.37 
 C                     78.48     65.8      38.82 
 O                     77.36     65.34     39.14 
 O                     79.33     66.01     39.72 
 H                     79.93     65.52     34.89 
 H                     80.39     64.44     37.6 
 H                     78.06     66.12     36.71 
 H                     79.55     66.84     37.32 
 N                     78.54     62.65     37.79 
 C                     77.69     61.49     37.84 
 C                     76.69     61.36     38.99 
 O                     75.53     61.01     38.78 
 C                     78.56     60.24     37.79 
 C                     77.94     58.84     37.89 
 C                     78.92     57.7      37.63 
 C                     80.04     57.71     38.66 
 N                     80.37     56.39     39.22 
 H                     79.36     62.67     38.4 
 H                     77.05     61.51     36.96 
 H                     79.21     60.37     38.66 
 H                     79.07     60.2      36.83 
 H                     77.12     58.73     37.18 
 H                     77.5      58.61     38.86 
 H                     79.32     57.94     36.64 
 H                     78.42     56.73     37.62 
 H                     79.7      58.37     39.46 
 H                     81.       58.01     38.23 
 H                     79.58     55.9      39.63 
 H                     80.83     55.76     38.58 
 H                     81.06     56.55     39.93 
 N                     77.08     61.76     40.21 
 C                     76.25     61.79     41.39 
 C                     75.2      62.89     41.36 
 O                     74.23     62.72     42.1 
 C                     77.01     61.94     42.71 
 C                     78.1      63.       42.64 
 O                     77.9      64.11     42.1 
 O                     79.25     62.68     43.02 
 H                     78.06     61.96     40.36 
 H                     75.65     60.88     41.39 
 H                     77.55     61.01     42.87 
 H                     76.36     62.17     43.55 
 N                     75.42     64.02     40.69 
 C                     74.52     65.16     40.6 
 C                     75.07     66.48     41.12 
 O                     74.38     67.5      41.06 
 H                     76.24     64.15     40.12 
 H                     73.6      65.02     41.17 
 H                     74.29     65.3      39.54 
 N                     76.2      66.43     41.83 
 C                     76.56     67.52     42.7 
 C                     77.24     68.65     41.94 
 O                     77.28     69.8      42.38 
 C                     77.25     67.01     43.97 
 C                     78.74     66.69     43.94 
 N                     79.28     65.81     44.79 
 O                     79.39     66.84     42.91 
 H                     76.71     65.55     41.84 
 H                     75.6      67.93     43.02 
 H                     76.68     66.13     44.27 
 H                     77.14     67.72     44.79 
 H                     78.69     65.54     45.57 
 H                     80.26     65.63     44.7 
 N                     77.72     68.34     40.74 
 C                     78.13     69.23     39.67 
 C                     79.61     69.55     39.76 
 O                     80.02     70.67     39.46 
 H                     77.76     67.34     40.62 
 H                     77.42     70.06     39.6 
 H                     77.97     68.7      38.73 
 N                     80.43     68.55     40.09 
 C                     81.86     68.72     40.24 
 C                     82.57     67.38     40.32 
 O                     82.1      66.4      40.9 
 C                     82.31     69.56     41.44 
 C                     81.62     69.39     42.77 
 C                     80.43     70.04     43.09 
 C                     82.2      68.49     43.68 
 C                     79.93     69.94     44.4 
 C                     81.72     68.43     45. 
 C                     80.52     69.08     45.35 
 O                     79.82     68.93     46.51 
 H                     80.01     67.63     40.17 
 H                     82.24     69.31     39.41 
 H                     82.28     70.6      41.14 
 H                     83.37     69.34     41.56 
 H                     80.04     70.66     42.3 
 H                     83.11     67.97     43.43 
 H                     79.       70.41     44.68 
 H                     82.26     67.77     45.66 
 H                     80.31     68.54     47.24 
 N                     83.77     67.31     39.74 
 C                     84.44     66.08     39.35 
 C                     85.3      65.62     40.51 
 O                     86.14     66.31     41.07 
 C                     85.19     66.42     38.06 
 C                     84.29     66.78     36.88 
 C                     85.88     65.12     37.65 
 C                     84.95     67.34     35.63 
 H                     84.32     68.15     39.69 
 H                     83.65     65.34     39.2 
 H                     85.93     67.21     38.19 
 H                     83.61     67.57     37.19 
 H                     83.64     65.94     36.62 
 H                     86.45     65.18     36.73 
 H                     86.51     64.76     38.47 
 H                     85.16     64.34     37.41 
 H                     85.58     66.57     35.17 
 H                     84.15     67.75     35.01 
 H                     85.56     68.22     35.85 
 N                     85.2      64.3      40.73 
 C                     86.04     63.45     41.55 
 C                     86.95     62.59     40.7 
 O                     86.71     62.39     39.51 
 C                     85.21     62.7      42.59 
 O                     84.35     61.84     41.88 
 H                     84.41     63.86     40.29 
 H                     86.73     64.11     42.09 
 H                     84.65     63.38     43.22 
 H                     85.86     62.07     43.2 
 H                     83.55     62.37     41.78 
 N                     88.06     62.07     41.24 
 C                     88.9      61.1      40.58 
 C                     88.17     59.88     40.03 
 O                     88.5      59.4      38.95 
 C                     90.12     60.77     41.44 
 H                     88.23     62.26     42.22 
 H                     89.36     61.61     39.74 
 H                     90.82     60.24     40.8 
 H                     90.62     61.67     41.78 
 H                     89.83     60.17     42.3 
 N                     87.27     59.32     40.84 
 C                     86.48     58.17     40.45 
 C                     85.43     58.54     39.41 
 O                     85.13     57.75     38.52 
 C                     85.69     57.63     41.64 
 H                     87.17     59.67     41.79 
 H                     87.16     57.38     40.15 
 H                     84.75     58.18     41.7 
 H                     85.47     56.56     41.56 
 H                     86.23     57.76     42.58 
 N                     84.92     59.77     39.34 
 C                     84.06     60.23     38.27 
 C                     84.82     60.41     36.96 
 O                     84.3      60.01     35.92 
 C                     83.36     61.53     38.66 
 C                     82.12     61.24     39.5 
 C                     81.62     62.52     40.15 
 O                     82.23     63.       41.12 
 O                     80.58     63.09     39.74 
 H                     84.99     60.41     40.12 
 H                     83.37     59.44     37.97 
 H                     83.12     62.13     37.79 
 H                     84.1      62.14     39.19 
 H                     82.3      60.59     40.35 
 H                     81.31     60.78     38.93 
 N                     86.       61.03     36.97 
 C                     86.75     61.34     35.77 
 H                     87.743    60.897    35.838 
 H                     86.231    60.935    34.902 
 H                     86.841    62.421    35.667 
 H                     86.31     61.4      37.85 
 Ca                    80.33     64.73     41.65 
 O                     81.85     64.84     43.77 
 H                     82.27     64.08     44.16 
 H                     82.51     65.53     43.8 
 
 Stoichiometry    C54H83CaN15O23
 Framework group  C1[X(C54H83CaN15O23)]
 Deg. of freedom   522
 Full point group                 C1      NOp   1
 Largest Abelian subgroup         C1      NOp   1
 Largest concise Abelian subgroup C1      NOp   1
                         Standard orientation:                         
 ---------------------------------------------------------------------
 Center     Atomic      Atomic             Coordinates (Angstroms)
 Number     Number       Type             X           Y           Z
 ---------------------------------------------------------------------
      1          6           0        1.782492    1.614875    5.996824
      2          6           0        1.188438    1.438771    4.605642
      3          8           0        1.942123    1.358343    3.636059
      4          1           0        2.783566    1.184931    6.020921
      5          1           0        1.838079    2.676396    6.237648
      6          1           0        1.152481    1.108761    6.728186
      7          7           0       -0.135867    1.528225    4.485999
      8          6           0       -0.847506    1.676724    3.224842
      9          6           0       -0.939581    3.134339    2.820514
     10          8           0       -1.209622    3.938200    3.715045
     11          6           0       -2.258015    1.105891    3.288200
     12          6           0       -2.856498    1.046611    1.891310
     13          8           0       -3.506117    1.997750    1.399648
     14          8           0       -2.571451    0.064803    1.162337
     15          1           0       -0.588604    1.511750    5.393609
     16          1           0       -0.281445    1.109872    2.483928
     17          1           0       -2.827805    1.758438    3.946396
     18          1           0       -2.293415    0.096426    3.695911
     19          7           0       -0.645894    3.495107    1.567121
     20          6           0       -0.599971    4.834887    1.044169
     21          6           0       -1.570301    5.222003   -0.072970
     22          8           0       -2.181146    6.288624   -0.035708
     23          6           0        0.824514    5.140137    0.597444
     24          6           0        1.176250    6.478703   -0.065069
     25          6           0        2.671014    6.701512   -0.273961
     26          6           0        3.247483    5.639849   -1.199139
     27          7           0        4.150680    6.157427   -2.238970
     28          1           0       -0.194677    2.753942    1.026771
     29          1           0       -0.870458    5.514556    1.849953
     30          1           0        1.014527    4.353821   -0.138696
     31          1           0        1.478992    5.132083    1.466290
     32          1           0        0.804928    7.312911    0.530596
     33          1           0        0.735113    6.623523   -1.050881
     34          1           0        3.081020    6.582259    0.733696
     35          1           0        2.881795    7.699793   -0.661269
     36          1           0        2.387843    5.159675   -1.669938
     37          1           0        3.901015    4.937918   -0.673127
     38          1           0        3.745348    6.884860   -2.821075
     39          1           0        5.041933    6.488498   -1.901096
     40          1           0        4.393654    5.374041   -2.816093
     41          7           0       -1.829057    4.311443   -1.023983
     42          6           0       -2.775312    4.467693   -2.102124
     43          6           0       -4.224688    4.408546   -1.644727
     44          8           0       -5.043469    4.931113   -2.402302
     45          6           0       -2.629285    3.455458   -3.240788
     46          6           0       -2.428503    2.033368   -2.736857
     47          8           0       -3.111843    1.568828   -1.798269
     48          8           0       -1.464051    1.381374   -3.199498
     49          1           0       -1.248211    3.484701   -1.068881
     50          1           0       -2.678822    5.487136   -2.475654
     51          1           0       -1.700848    3.691522   -3.754965
     52          1           0       -3.473546    3.461913   -3.925027
     53          7           0       -4.569777    3.695364   -0.573986
     54          6           0       -5.914723    3.529034   -0.043745
     55          6           0       -6.429395    2.098448    0.018197
     56          8           0       -7.550983    1.867676    0.475236
     57          1           0       -3.883528    3.245747    0.010057
     58          1           0       -6.670438    4.051088   -0.633029
     59          1           0       -5.902122    3.913376    0.980082
     60          7           0       -5.727392    1.171099   -0.638091
     61          6           0       -6.336049   -0.085608   -0.991399
     62          6           0       -6.310827   -1.072341    0.167316
     63          8           0       -7.087475   -2.026727    0.227870
     64          6           0       -5.831551   -0.582295   -2.350768
     65          6           0       -4.505643   -1.329585   -2.433978
     66          7           0       -3.783674   -1.342659   -3.559629
     67          8           0       -3.842310   -1.538359   -1.422888
     68          1           0       -4.813478    1.439110   -0.995206
     69          1           0       -7.390221    0.162058   -1.130978
     70          1           0       -5.807167    0.303477   -2.986467
     71          1           0       -6.552835   -1.253875   -2.816955
     72          1           0       -4.265373   -1.012853   -4.389445
     73          1           0       -2.912048   -1.833260   -3.537774
     74          7           0       -5.454645   -0.800271    1.146821
     75          6           0       -5.409161   -1.348399    2.489425
     76          6           0       -4.507931   -2.566815    2.553823
     77          8           0       -4.798048   -3.512822    3.284166
     78          1           0       -4.789924   -0.101122    0.854694
     79          1           0       -6.428561   -1.432223    2.878907
     80          1           0       -4.969776   -0.586315    3.134615
     81          7           0       -3.369242   -2.519054    1.859267
     82          6           0       -2.430513   -3.620160    1.807767
     83          6           0       -1.105698   -3.188555    1.203879
     84          8           0       -1.016955   -2.386677    0.272849
     85          6           0       -2.904556   -4.866562    1.052871
     86          6           0       -3.662655   -4.711168   -0.241362
     87          6           0       -5.035413   -4.477849   -0.287148
     88          6           0       -2.913735   -4.755377   -1.429497
     89          6           0       -5.687215   -4.488950   -1.532592
     90          6           0       -3.577146   -4.810223   -2.667754
     91          6           0       -4.965119   -4.579684   -2.741122
     92          8           0       -5.699415   -4.378590   -3.871817
     93          1           0       -3.151243   -1.635629    1.410672
     94          1           0       -2.287835   -4.016905    2.809584
     95          1           0       -3.478582   -5.469078    1.745669
     96          1           0       -2.002021   -5.447442    0.867375
     97          1           0       -5.502450   -4.402896    0.680767
     98          1           0       -1.848773   -4.916366   -1.398872
     99          1           0       -6.744749   -4.289785   -1.611045
    100          1           0       -2.939487   -4.915532   -3.530946
    101          1           0       -5.280434   -4.658672   -4.691029
    102          7           0       -0.009206   -3.746571    1.721204
    103          6           0        1.339055   -3.218156    1.591318
    104          6           0        1.969818   -3.826457    0.354828
    105          8           0        2.044322   -5.026150    0.130135
    106          6           0        2.029580   -3.542296    2.918084
    107          6           0        1.434112   -2.832745    4.132149
    108          6           0        3.440322   -2.972607    2.778577
    109          6           0        1.913615   -3.261698    5.509747
    110          1           0       -0.088405   -4.669513    2.111722
    111          1           0        1.227753   -2.144437    1.421199
    112          1           0        2.078047   -4.611413    3.126025
    113          1           0        0.364437   -3.026976    4.158061
    114          1           0        1.517003   -1.747770    4.024176
    115          1           0        4.069497   -3.101246    3.651784
    116          1           0        3.923900   -3.393118    1.890758
    117          1           0        3.429019   -1.889248    2.675593
    118          1           0        2.971781   -3.001768    5.628580
    119          1           0        1.220393   -2.826384    6.232550
    120          1           0        1.786586   -4.335523    5.669946
    121          7           0        2.635208   -2.921174   -0.379009
    122          6           0        3.573237   -3.142222   -1.461478
    123          6           0        4.996795   -2.882555   -1.018472
    124          8           0        5.240370   -2.217271   -0.012605
    125          6           0        3.133760   -2.405743   -2.725384
    126          8           0        3.185132   -1.029293   -2.432048
    127          1           0        2.416834   -1.963611   -0.162937
    128          1           0        3.557710   -4.216714   -1.681762
    129          1           0        2.139364   -2.702546   -3.035198
    130          1           0        3.849130   -2.588244   -3.529398
    131          1           0        2.286601   -0.838372   -2.136937
    132          7           0        6.010942   -3.420515   -1.708548
    133          6           0        7.399533   -3.098406   -1.484582
    134          6           0        7.725576   -1.609284   -1.481007
    135          8           0        8.540503   -1.159260   -0.681587
    136          6           0        8.300250   -3.938791   -2.389768
    137          1           0        5.774203   -3.967674   -2.527066
    138          1           0        7.653478   -3.489442   -0.504835
    139          1           0        9.312327   -3.833859   -2.008730
    140          1           0        8.047433   -4.991610   -2.332700
    141          1           0        8.223900   -3.603504   -3.421976
    142          7           0        7.177271   -0.886062   -2.458765
    143          6           0        7.374865    0.544438   -2.574204
    144          6           0        6.624336    1.301874   -1.486088
    145          8           0        7.102246    2.319063   -0.993007
    146          6           0        6.800458    1.063527   -3.890412
    147          1           0        6.647717   -1.356966   -3.188711
    148          1           0        8.441985    0.735557   -2.609270
    149          1           0        5.743269    1.282673   -3.735411
    150          1           0        7.300920    1.968836   -4.250486
    151          1           0        6.889533    0.327538   -4.691964
    152          7           0        5.514399    0.811726   -0.933192
    153          6           0        4.860643    1.392019    0.220915
    154          6           0        5.660447    1.177631    1.501717
    155          8           0        5.775062    2.117397    2.286385
    156          6           0        3.447461    0.835109    0.378608
    157          6           0        2.471735    1.586121   -0.522081
    158          6           0        1.155215    0.830944   -0.607998
    159          8           0        1.078128   -0.201080   -1.295301
    160          8           0        0.130516    1.248156   -0.015946
    161          1           0        4.981511    0.082755   -1.388749
    162          1           0        4.893359    2.481264    0.169193
    163          1           0        3.126195    0.850384    1.413526
    164          1           0        3.502434   -0.234648    0.147964
    165          1           0        2.783002    1.650806   -1.559544
    166          1           0        2.283549    2.611013   -0.195304
    167          7           0        6.174444   -0.025625    1.756432
    168          6           0        6.860093   -0.357134    2.988742
    169          1           0        7.859986   -0.724479    2.760283
    170          1           0        6.934541    0.531888    3.613969
    171          1           0        6.302340   -1.128491    3.519186
    172          1           0        5.960262   -0.757287    1.103595
    173         20           0       -1.536529   -0.310730   -1.107291
    174          8           0       -0.996895   -2.042644   -2.985101
    175          1           0       -0.320477   -1.916455   -3.642851
    176          1           0       -0.922898   -2.959392   -2.726842
 ---------------------------------------------------------------------
 Rotational constants (GHZ):           0.0254329           0.0159437           0.0133008
 Standard basis: SVP (5D, 7F)
 There are  1809 symmetry adapted cartesian basis functions of A   symmetry.
 There are  1717 symmetry adapted basis functions of A   symmetry.
  1717 basis functions,  2922 primitive gaussians,  1809 cartesian basis functions
   358 alpha electrons      358 beta electrons
       nuclear repulsion energy     22259.2207996127 Hartrees.
 NAtoms=  176 NActive=  176 NUniq=  176 SFac= 1.00D+00 NAtFMM=   60 NAOKFM=T Big=T
 Integral buffers will be    131072 words long.
 Raffenetti 2 integral format.
 Two-electron integral symmetry is turned on.
 One-electron integrals computed using PRISM.
 NBasis=  1717 RedAO= T EigKep=  3.44D-04  NBF=  1717
 NBsUse=  1717 1.00D-06 EigRej= -1.00D+00 NBFU=  1717
 ExpMin= 1.98D-02 ExpMax= 3.51D+04 ExpMxC= 5.28D+03 IAcc=3 IRadAn=         5 AccDes= 0.00D+00
 Harris functional with IExCor=  402 and IRadAn=       5 diagonalized for initial guess.
 HarFok:  IExCor=  402 AccDes= 0.00D+00 IRadAn=         5 IDoV= 1 UseB2=F ITyADJ=14
 ICtDFT=  3500011 ScaDFX=  1.000000  1.000000  1.000000  1.000000
 FoFCou: FMM=F IPFlag=           0 FMFlag=      100000 FMFlg1=        2001
         NFxFlg=           0 DoJE=T BraDBF=F KetDBF=T FulRan=T
         wScrn=  0.000000 ICntrl=       500 IOpCl=  0 I1Cent=   200000004 NGrid=           0
         NMat0=    1 NMatS0=      1 NMatT0=    0 NMatD0=    1 NMtDS0=    0 NMtDT0=    0
 Petite list used in FoFCou.
 Requested convergence on RMS density matrix=1.00D-08 within 128 cycles.
 Requested convergence on MAX density matrix=1.00D-06.
 Requested convergence on             energy=1.00D-06.
 No special actions if energy rises.
 EnCoef did     4 forward-backward iterations
 SCF Done:  E(RB3LYP) =  -5333.63733860     A.U. after   19 cycles
            NFock= 19  Conv=0.29D-08     -V/T= 2.0081
 SCF density gives NOpUse=  1 NOpAll=  1.
 Hyperfine terms turned off by default for NAtoms > 100.

 **********************************************************************

            Population analysis using the SCF density.

 **********************************************************************

 Orbital symmetries:
 BldTbl:  Degeneracy threshold= 1.00D-02
       Occupied  (A) (A) (A) (A) (A) (A) (A) (A) (A) (A) (A) (A)
                 (A) (A) (A) (A) (A) (A) (A) (A) (A) (A) (A) (A)
                 (A) (A) (A) (A) (A) (A) (A) (A) (A) (A) (A) (A)
                 (A) (A) (A) (A) (A) (A) (A) (A) (A) (A) (A) (A)
                 (A) (A) (A) (A) (A) (A) (A) (A) (A) (A) (A) (A)
                 (A) (A) (A) (A) (A) (A) (A) (A) (A) (A) (A) (A)
                 (A) (A) (A) (A) (A) (A) (A) (A) (A) (A) (A) (A)
                 (A) (A) (A) (A) (A) (A) (A) (A) (A) (A) (A) (A)
                 (A) (A) (A) (A) (A) (A) (A) (A) (A) (A) (A) (A)
                 (A) (A) (A) (A) (A) (A) (A) (A) (A) (A) (A) (A)
                 (A) (A) (A) (A) (A) (A) (A) (A) (A) (A) (A) (A)
                 (A) (A) (A) (A) (A) (A) (A) (A) (A) (A) (A) (A)
                 (A) (A) (A) (A) (A) (A) (A) (A) (A) (A) (A) (A)
                 (A) (A) (A) (A) (A) (A) (A) (A) (A) (A) (A) (A)
                 (A) (A) (A) (A) (A) (A) (A) (A) (A) (A) (A) (A)
                 (A) (A) (A) (A) (A) (A) (A) (A) (A) (A) (A) (A)
                 (A) (A) (A) (A) (A) (A) (A) (A) (A) (A) (A) (A)
                 (A) (A) (A) (A) (A) (A) (A) (A) (A) (A) (A) (A)
                 (A) (A) (A) (A) (A) (A) (A) (A) (A) (A) (A) (A)
                 (A) (A) (A) (A) (A) (A) (A) (A) (A) (A) (A) (A)
                 (A) (A) (A) (A) (A) (A) (A) (A) (A) (A) (A) (A)
                 (A) (A) (A) (A) (A) (A) (A) (A) (A) (A) (A) (A)
                 (A) (A) (A) (A) (A) (A) (A) (A) (A) (A) (A) (A)
                 (A) (A) (A) (A) (A) (A) (A) (A) (A) (A) (A) (A)
                 (A) (A) (A) (A) (A) (A) (A) (A) (A) (A) (A) (A)
                 (A) (A) (A) (A) (A) (A) (A) (A) (A) (A) (A) (A)
                 (A) (A) (A) (A) (A) (A) (A) (A) (A) (A) (A) (A)
                 (A) (A) (A) (A) (A) (A) (A) (A) (A) (A) (A) (A)
                 (A) (A) (A) (A) (A) (A) (A) (A) (A) (A) (A) (A)
                 (A) (A) (A) (A) (A) (A) (A) (A) (A) (A)
       Virtual   (A) (A) (A) (A) (A) (A) (A) (A) (A) (A) (A) (A)
                 (A) (A) (A) (A) (A) (A) (A) (A) (A) (A) (A) (A)
                 (A) (A) (A) (A) (A) (A) (A) (A) (A) (A) (A) (A)
                 (A) (A) (A) (A) (A) (A) (A) (A) (A) (A) (A) (A)
                 (A) (A) (A) (A) (A) (A) (A) (A) (A) (A) (A) (A)
                 (A) (A) (A) (A) (A) (A) (A) (A) (A) (A) (A) (A)
                 (A) (A) (A) (A) (A) (A) (A) (A) (A) (A) (A) (A)
                 (A) (A) (A) (A) (A) (A) (A) (A) (A) (A) (A) (A)
                 (A) (A) (A) (A) (A) (A) (A) (A) (A) (A) (A) (A)
                 (A) (A) (A) (A) (A) (A) (A) (A) (A) (A) (A) (A)
                 (A) (A) (A) (A) (A) (A) (A) (A) (A) (A) (A) (A)
                 (A) (A) (A) (A) (A) (A) (A) (A) (A) (A) (A) (A)
                 (A) (A) (A) (A) (A) (A) (A) (A) (A) (A) (A) (A)
                 (A) (A) (A) (A) (A) (A) (A) (A) (A) (A) (A) (A)
                 (A) (A) (A) (A) (A) (A) (A) (A) (A) (A) (A) (A)
                 (A) (A) (A) (A) (A) (A) (A) (A) (A) (A) (A) (A)
                 (A) (A) (A) (A) (A) (A) (A) (A) (A) (A) (A) (A)
                 (A) (A) (A) (A) (A) (A) (A) (A) (A) (A) (A) (A)
                 (A) (A) (A) (A) (A) (A) (A) (A) (A) (A) (A) (A)
                 (A) (A) (A) (A) (A) (A) (A) (A) (A) (A) (A) (A)
                 (A) (A) (A) (A) (A) (A) (A) (A) (A) (A) (A) (A)
                 (A) (A) (A) (A) (A) (A) (A) (A) (A) (A) (A) (A)
                 (A) (A) (A) (A) (A) (A) (A) (A) (A) (A) (A) (A)
                 (A) (A) (A) (A) (A) (A) (A) (A) (A) (A) (A) (A)
                 (A) (A) (A) (A) (A) (A) (A) (A) (A) (A) (A) (A)
                 (A) (A) (A) (A) (A) (A) (A) (A) (A) (A) (A) (A)
                 (A) (A) (A) (A) (A) (A) (A) (A) (A) (A) (A) (A)
                 (A) (A) (A) (A) (A) (A) (A) (A) (A) (A) (A) (A)
                 (A) (A) (A) (A) (A) (A) (A) (A) (A) (A) (A) (A)
                 (A) (A) (A) (A) (A) (A) (A) (A) (A) (A) (A) (A)
                 (A) (A) (A) (A) (A) (A) (A) (A) (A) (A) (A) (A)
                 (A) (A) (A) (A) (A) (A) (A) (A) (A) (A) (A) (A)
                 (A) (A) (A) (A) (A) (A) (A) (A) (A) (A) (A) (A)
                 (A) (A) (A) (A) (A) (A) (A) (A) (A) (A) (A) (A)
                 (A) (A) (A) (A) (A) (A) (A) (A) (A) (A) (A) (A)
                 (A) (A) (A) (A) (A) (A) (A) (A) (A) (A) (A) (A)
                 (A) (A) (A) (A) (A) (A) (A) (A) (A) (A) (A) (A)
                 (A) (A) (A) (A) (A) (A) (A) (A) (A) (A) (A) (A)
                 (A) (A) (A) (A) (A) (A) (A) (A) (A) (A) (A) (A)
                 (A) (A) (A) (A) (A) (A) (A) (A) (A) (A) (A) (A)
                 (A) (A) (A) (A) (A) (A) (A) (A) (A) (A) (A) (A)
                 (A) (A) (A) (A) (A) (A) (A) (A) (A) (A) (A) (A)
                 (A) (A) (A) (A) (A) (A) (A) (A) (A) (A) (A) (A)
                 (A) (A) (A) (A) (A) (A) (A) (A) (A) (A) (A) (A)
                 (A) (A) (A) (A) (A) (A) (A) (A) (A) (A) (A) (A)
                 (A) (A) (A) (A) (A) (A) (A) (A) (A) (A) (A) (A)
                 (A) (A) (A) (A) (A) (A) (A) (A) (A) (A) (A) (A)
                 (A) (A) (A) (A) (A) (A) (A) (A) (A) (A) (A) (A)
                 (A) (A) (A) (A) (A) (A) (A) (A) (A) (A) (A) (A)
                 (A) (A) (A) (A) (A) (A) (A) (A) (A) (A) (A) (A)
                 (A) (A) (A) (A) (A) (A) (A) (A) (A) (A) (A) (A)
                 (A) (A) (A) (A) (A) (A) (A) (A) (A) (A) (A) (A)
                 (A) (A) (A) (A) (A) (A) (A) (A) (A) (A) (A) (A)
                 (A) (A) (A) (A) (A) (A) (A) (A) (A) (A) (A) (A)
                 (A) (A) (A) (A) (A) (A) (A) (A) (A) (A) (A) (A)
                 (A) (A) (A) (A) (A) (A) (A) (A) (A) (A) (A) (A)
                 (A) (A) (A) (A) (A) (A) (A) (A) (A) (A) (A) (A)
                 (A) (A) (A) (A) (A) (A) (A) (A) (A) (A) (A) (A)
                 (A) (A) (A) (A) (A) (A) (A) (A) (A) (A) (A) (A)
                 (A) (A) (A) (A) (A) (A) (A) (A) (A) (A) (A) (A)
                 (A) (A) (A) (A) (A) (A) (A) (A) (A) (A) (A) (A)
                 (A) (A) (A) (A) (A) (A) (A) (A) (A) (A) (A) (A)
                 (A) (A) (A) (A) (A) (A) (A) (A) (A) (A) (A) (A)
                 (A) (A) (A) (A) (A) (A) (A) (A) (A) (A) (A) (A)
                 (A) (A) (A) (A) (A) (A) (A) (A) (A) (A) (A) (A)
                 (A) (A) (A) (A) (A) (A) (A) (A) (A) (A) (A) (A)
                 (A) (A) (A) (A) (A) (A) (A) (A) (A) (A) (A) (A)
                 (A) (A) (A) (A) (A) (A) (A) (A) (A) (A) (A) (A)
                 (A) (A) (A) (A) (A) (A) (A) (A) (A) (A) (A) (A)
                 (A) (A) (A) (A) (A) (A) (A) (A) (A) (A) (A) (A)
                 (A) (A) (A) (A) (A) (A) (A) (A) (A) (A) (A) (A)
                 (A) (A) (A) (A) (A) (A) (A) (A) (A) (A) (A) (A)
                 (A) (A) (A) (A) (A) (A) (A) (A) (A) (A) (A) (A)
                 (A) (A) (A) (A) (A) (A) (A) (A) (A) (A) (A) (A)
                 (A) (A) (A) (A) (A) (A) (A) (A) (A) (A) (A) (A)
                 (A) (A) (A) (A) (A) (A) (A) (A) (A) (A) (A) (A)
                 (A) (A) (A) (A) (A) (A) (A) (A) (A) (A) (A) (A)
                 (A) (A) (A) (A) (A) (A) (A) (A) (A) (A) (A) (A)
                 (A) (A) (A) (A) (A) (A) (A) (A) (A) (A) (A) (A)
                 (A) (A) (A) (A) (A) (A) (A) (A) (A) (A) (A) (A)
                 (A) (A) (A) (A) (A) (A) (A) (A) (A) (A) (A) (A)
                 (A) (A) (A) (A) (A) (A) (A) (A) (A) (A) (A) (A)
                 (A) (A) (A) (A) (A) (A) (A) (A) (A) (A) (A) (A)
                 (A) (A) (A) (A) (A) (A) (A) (A) (A) (A) (A) (A)
                 (A) (A) (A) (A) (A) (A) (A) (A) (A) (A) (A) (A)
                 (A) (A) (A) (A) (A) (A) (A) (A) (A) (A) (A) (A)
                 (A) (A) (A) (A) (A) (A) (A) (A) (A) (A) (A) (A)
                 (A) (A) (A) (A) (A) (A) (A) (A) (A) (A) (A) (A)
                 (A) (A) (A) (A) (A) (A) (A) (A) (A) (A) (A) (A)
                 (A) (A) (A) (A) (A) (A) (A) (A) (A) (A) (A) (A)
                 (A) (A) (A) (A) (A) (A) (A) (A) (A) (A) (A) (A)
                 (A) (A) (A) (A) (A) (A) (A) (A) (A) (A) (A) (A)
                 (A) (A) (A) (A) (A) (A) (A) (A) (A) (A) (A) (A)
                 (A) (A) (A) (A) (A) (A) (A) (A) (A) (A) (A) (A)
                 (A) (A) (A) (A) (A) (A) (A) (A) (A) (A) (A) (A)
                 (A) (A) (A) (A) (A) (A) (A) (A) (A) (A) (A) (A)
                 (A) (A) (A) (A) (A) (A) (A) (A) (A) (A) (A) (A)
                 (A) (A) (A) (A) (A) (A) (A) (A) (A) (A) (A) (A)
                 (A) (A) (A) (A) (A) (A) (A) (A) (A) (A) (A) (A)
                 (A) (A) (A) (A) (A) (A) (A) (A) (A) (A) (A) (A)
                 (A) (A) (A) (A) (A) (A) (A) (A) (A) (A) (A) (A)
                 (A) (A) (A) (A) (A) (A) (A) (A) (A) (A) (A) (A)
                 (A) (A) (A) (A) (A) (A) (A) (A) (A) (A) (A) (A)
                 (A) (A) (A) (A) (A) (A) (A) (A) (A) (A) (A) (A)
                 (A) (A) (A) (A) (A) (A) (A) (A) (A) (A) (A) (A)
                 (A) (A) (A) (A) (A) (A) (A) (A) (A) (A) (A) (A)
                 (A) (A) (A) (A) (A) (A) (A) (A) (A) (A) (A) (A)
                 (A) (A) (A) (A) (A) (A) (A) (A) (A) (A) (A) (A)
                 (A) (A) (A) (A) (A) (A) (A) (A) (A) (A) (A) (A)
                 (A) (A) (A) (A) (A) (A) (A) (A) (A) (A) (A) (A)
                 (A) (A) (A) (A) (A) (A) (A) (A) (A) (A) (A) (A)
                 (A) (A) (A) (A) (A) (A) (A) (A) (A) (A) (A) (A)
                 (A) (A) (A) (A) (A) (A) (A) (A) (A) (A) (A) (A)
                 (A) (A) (A)
 The electronic state is 1-A.
 Alpha  occ. eigenvalues -- -145.34510 -19.20763 -19.15836 -19.14447 -19.14040
 Alpha  occ. eigenvalues --  -19.13071 -19.11954 -19.11878 -19.11527 -19.10860
 Alpha  occ. eigenvalues --  -19.10335 -19.09454 -19.08265 -19.07776 -19.06909
 Alpha  occ. eigenvalues --  -19.06775 -19.06715 -19.06662 -19.05860 -19.05554
 Alpha  occ. eigenvalues --  -19.04180 -19.04158 -19.04137 -19.04078 -15.40330
 Alpha  occ. eigenvalues --  -14.58394 -14.40095 -14.38723 -14.37172 -14.36636
 Alpha  occ. eigenvalues --  -14.36028 -14.34466 -14.34232 -14.33991 -14.32942
 Alpha  occ. eigenvalues --  -14.32609 -14.31423 -14.29522 -14.29510 -14.29480
 Alpha  occ. eigenvalues --  -12.53919 -12.53902 -12.53894 -10.34391 -10.32508
 Alpha  occ. eigenvalues --  -10.30824 -10.30673 -10.30190 -10.29889 -10.29337
 Alpha  occ. eigenvalues --  -10.28486 -10.27577 -10.26952 -10.26919 -10.26767
 Alpha  occ. eigenvalues --  -10.26606 -10.26380 -10.26169 -10.25964 -10.25685
 Alpha  occ. eigenvalues --  -10.25579 -10.24698 -10.24570 -10.24560 -10.24062
 Alpha  occ. eigenvalues --  -10.23237 -10.23214 -10.23015 -10.23005 -10.23003
 Alpha  occ. eigenvalues --  -10.22805 -10.22752 -10.22639 -10.22627 -10.21898
 Alpha  occ. eigenvalues --  -10.21470 -10.20837 -10.20529 -10.20363 -10.20035
 Alpha  occ. eigenvalues --  -10.19929 -10.19686 -10.19261 -10.18909 -10.18326
 Alpha  occ. eigenvalues --  -10.18168 -10.18118 -10.18102 -10.18067 -10.17990
 Alpha  occ. eigenvalues --  -10.17554 -10.17478 -10.17360 -10.17276 -10.16799
 Alpha  occ. eigenvalues --  -10.16690 -10.16534  -1.77522  -1.13751  -1.07654
 Alpha  occ. eigenvalues --   -1.07445  -1.07263  -1.05998  -1.05144  -1.04994
 Alpha  occ. eigenvalues --   -1.04805  -1.04706  -1.04367  -1.04099  -1.03817
 Alpha  occ. eigenvalues --   -1.03682  -1.02977  -1.01743  -1.01245  -1.00865
 Alpha  occ. eigenvalues --   -0.99836  -0.99801  -0.99434  -0.98942  -0.97741
 Alpha  occ. eigenvalues --   -0.97152  -0.96752  -0.96469  -0.96063  -0.95252
 Alpha  occ. eigenvalues --   -0.94264  -0.94013  -0.92535  -0.91480  -0.91152
 Alpha  occ. eigenvalues --   -0.90375  -0.89973  -0.89491  -0.89163  -0.88897
 Alpha  occ. eigenvalues --   -0.88834  -0.88734  -0.87935  -0.86476  -0.85607
 Alpha  occ. eigenvalues --   -0.83350  -0.83084  -0.82364  -0.81335  -0.80927
 Alpha  occ. eigenvalues --   -0.79928  -0.78726  -0.77852  -0.77706  -0.76359
 Alpha  occ. eigenvalues --   -0.75578  -0.75283  -0.74909  -0.73616  -0.72882
 Alpha  occ. eigenvalues --   -0.72673  -0.72588  -0.72142  -0.71310  -0.70784
 Alpha  occ. eigenvalues --   -0.70259  -0.69716  -0.68861  -0.68584  -0.68197
 Alpha  occ. eigenvalues --   -0.68078  -0.67062  -0.65293  -0.65119  -0.64501
 Alpha  occ. eigenvalues --   -0.64064  -0.63716  -0.63399  -0.63126  -0.62646
 Alpha  occ. eigenvalues --   -0.62269  -0.61229  -0.61056  -0.60766  -0.60602
 Alpha  occ. eigenvalues --   -0.60438  -0.59994  -0.58682  -0.58467  -0.58208
 Alpha  occ. eigenvalues --   -0.57723  -0.57608  -0.57237  -0.56726  -0.56470
 Alpha  occ. eigenvalues --   -0.56148  -0.55871  -0.55429  -0.55134  -0.55091
 Alpha  occ. eigenvalues --   -0.54908  -0.54709  -0.54254  -0.53907  -0.53763
 Alpha  occ. eigenvalues --   -0.53621  -0.53490  -0.52932  -0.52247  -0.51583
 Alpha  occ. eigenvalues --   -0.51423  -0.51315  -0.50748  -0.50614  -0.50586
 Alpha  occ. eigenvalues --   -0.50144  -0.49985  -0.49855  -0.49399  -0.49243
 Alpha  occ. eigenvalues --   -0.49043  -0.48794  -0.48557  -0.48240  -0.47807
 Alpha  occ. eigenvalues --   -0.47780  -0.47670  -0.47488  -0.47423  -0.47080
 Alpha  occ. eigenvalues --   -0.46836  -0.46682  -0.46548  -0.46489  -0.46106
 Alpha  occ. eigenvalues --   -0.45877  -0.45750  -0.45580  -0.45437  -0.45362
 Alpha  occ. eigenvalues --   -0.45099  -0.45023  -0.44648  -0.44348  -0.44156
 Alpha  occ. eigenvalues --   -0.44042  -0.43800  -0.43712  -0.43626  -0.43533
 Alpha  occ. eigenvalues --   -0.43447  -0.43152  -0.43088  -0.42968  -0.42810
 Alpha  occ. eigenvalues --   -0.42795  -0.42689  -0.42447  -0.42372  -0.42182
 Alpha  occ. eigenvalues --   -0.42092  -0.41767  -0.41507  -0.41399  -0.41374
 Alpha  occ. eigenvalues --   -0.41158  -0.41024  -0.40818  -0.40741  -0.40604
 Alpha  occ. eigenvalues --   -0.40439  -0.40416  -0.40197  -0.40052  -0.39872
 Alpha  occ. eigenvalues --   -0.39760  -0.39600  -0.39393  -0.39223  -0.39122
 Alpha  occ. eigenvalues --   -0.39008  -0.38860  -0.38762  -0.38671  -0.38526
 Alpha  occ. eigenvalues --   -0.38450  -0.38259  -0.38143  -0.38048  -0.37904
 Alpha  occ. eigenvalues --   -0.37819  -0.37625  -0.37575  -0.37396  -0.37242
 Alpha  occ. eigenvalues --   -0.36964  -0.36735  -0.36575  -0.36457  -0.36443
 Alpha  occ. eigenvalues --   -0.36274  -0.36008  -0.35813  -0.35742  -0.35695
 Alpha  occ. eigenvalues --   -0.35102  -0.35014  -0.34821  -0.34721  -0.34241
 Alpha  occ. eigenvalues --   -0.34208  -0.34153  -0.33841  -0.33566  -0.33384
 Alpha  occ. eigenvalues --   -0.32958  -0.32693  -0.32449  -0.32348  -0.31971
 Alpha  occ. eigenvalues --   -0.31867  -0.31322  -0.31213  -0.30934  -0.30354
 Alpha  occ. eigenvalues --   -0.29951  -0.29785  -0.29598  -0.29321  -0.29025
 Alpha  occ. eigenvalues --   -0.28344  -0.27855  -0.27440  -0.27327  -0.27194
 Alpha  occ. eigenvalues --   -0.26979  -0.26509  -0.26047  -0.25819  -0.25776
 Alpha  occ. eigenvalues --   -0.25600  -0.25141  -0.24992  -0.24503  -0.24092
 Alpha  occ. eigenvalues --   -0.23916  -0.23548  -0.23396  -0.23292  -0.23205
 Alpha  occ. eigenvalues --   -0.22919  -0.22787  -0.22659  -0.22444  -0.22162
 Alpha  occ. eigenvalues --   -0.21916  -0.21473  -0.20957  -0.20036  -0.19824
 Alpha  occ. eigenvalues --   -0.19460  -0.18979  -0.18839
 Alpha virt. eigenvalues --   -0.10341  -0.04472  -0.04117  -0.03414  -0.02354
 Alpha virt. eigenvalues --   -0.01192  -0.00865  -0.00818  -0.00480  -0.00298
 Alpha virt. eigenvalues --   -0.00263   0.00293   0.00482   0.00719   0.01269
 Alpha virt. eigenvalues --    0.01637   0.01684   0.02807   0.02933   0.03177
 Alpha virt. eigenvalues --    0.03723   0.03962   0.04001   0.04156   0.04531
 Alpha virt. eigenvalues --    0.04700   0.04872   0.04947   0.05287   0.05346
 Alpha virt. eigenvalues --    0.05459   0.05612   0.05965   0.06194   0.06242
 Alpha virt. eigenvalues --    0.06562   0.06671   0.06911   0.07287   0.07633
 Alpha virt. eigenvalues --    0.07712   0.08151   0.08344   0.08575   0.08666
 Alpha virt. eigenvalues --    0.08990   0.09299   0.09468   0.09734   0.09923
 Alpha virt. eigenvalues --    0.10289   0.10359   0.10620   0.10647   0.10718
 Alpha virt. eigenvalues --    0.10976   0.11066   0.11099   0.11512   0.11570
 Alpha virt. eigenvalues --    0.11734   0.11777   0.12109   0.12267   0.12526
 Alpha virt. eigenvalues --    0.12568   0.12722   0.13009   0.13071   0.13289
 Alpha virt. eigenvalues --    0.13363   0.13706   0.13928   0.14053   0.14230
 Alpha virt. eigenvalues --    0.14652   0.14654   0.14829   0.14891   0.15115
 Alpha virt. eigenvalues --    0.15193   0.15313   0.15597   0.15739   0.15896
 Alpha virt. eigenvalues --    0.16051   0.16121   0.16333   0.16536   0.16682
 Alpha virt. eigenvalues --    0.16925   0.17253   0.17293   0.17501   0.17620
 Alpha virt. eigenvalues --    0.17946   0.18217   0.18397   0.18485   0.18682
 Alpha virt. eigenvalues --    0.18704   0.19091   0.19215   0.19315   0.19349
 Alpha virt. eigenvalues --    0.19459   0.19939   0.20116   0.20249   0.20413
 Alpha virt. eigenvalues --    0.20469   0.20599   0.20774   0.20971   0.21205
 Alpha virt. eigenvalues --    0.21468   0.21726   0.21790   0.21979   0.22139
 Alpha virt. eigenvalues --    0.22399   0.22771   0.22920   0.23100   0.23305
 Alpha virt. eigenvalues --    0.23380   0.23435   0.23882   0.24017   0.24218
 Alpha virt. eigenvalues --    0.24449   0.24620   0.24826   0.24983   0.25165
 Alpha virt. eigenvalues --    0.25443   0.25822   0.25924   0.25996   0.26504
 Alpha virt. eigenvalues --    0.26731   0.26952   0.27144   0.27397   0.27568
 Alpha virt. eigenvalues --    0.27777   0.28089   0.28191   0.28287   0.28811
 Alpha virt. eigenvalues --    0.29226   0.29299   0.29922   0.30021   0.30096
 Alpha virt. eigenvalues --    0.30296   0.30574   0.30730   0.31325   0.31545
 Alpha virt. eigenvalues --    0.31735   0.31859   0.32018   0.32116   0.32270
 Alpha virt. eigenvalues --    0.32689   0.33324   0.33610   0.33806   0.34029
 Alpha virt. eigenvalues --    0.34293   0.34482   0.34676   0.35118   0.35238
 Alpha virt. eigenvalues --    0.35577   0.35860   0.36054   0.36323   0.36884
 Alpha virt. eigenvalues --    0.37093   0.37130   0.37316   0.37855   0.38107
 Alpha virt. eigenvalues --    0.38241   0.38568   0.38845   0.38997   0.39271
 Alpha virt. eigenvalues --    0.39310   0.39596   0.39777   0.40146   0.40268
 Alpha virt. eigenvalues --    0.40510   0.40608   0.40946   0.41098   0.41282
 Alpha virt. eigenvalues --    0.41506   0.41769   0.42019   0.42043   0.42430
 Alpha virt. eigenvalues --    0.42885   0.42926   0.43073   0.43248   0.43443
 Alpha virt. eigenvalues --    0.43783   0.44329   0.44532   0.44674   0.44924
 Alpha virt. eigenvalues --    0.45051   0.45399   0.45560   0.45654   0.45871
 Alpha virt. eigenvalues --    0.45925   0.46255   0.46269   0.46366   0.46599
 Alpha virt. eigenvalues --    0.46872   0.47036   0.47141   0.47466   0.47746
 Alpha virt. eigenvalues --    0.47838   0.48057   0.48422   0.48673   0.48803
 Alpha virt. eigenvalues --    0.48868   0.49155   0.49343   0.49566   0.49825
 Alpha virt. eigenvalues --    0.49951   0.50100   0.50388   0.50681   0.50754
 Alpha virt. eigenvalues --    0.50836   0.51095   0.51324   0.51471   0.51699
 Alpha virt. eigenvalues --    0.51811   0.52073   0.52343   0.52490   0.52827
 Alpha virt. eigenvalues --    0.52987   0.53072   0.53152   0.53516   0.53559
 Alpha virt. eigenvalues --    0.53744   0.54064   0.54361   0.54539   0.54635
 Alpha virt. eigenvalues --    0.54932   0.55111   0.55282   0.55358   0.55560
 Alpha virt. eigenvalues --    0.55824   0.56080   0.56148   0.56305   0.56439
 Alpha virt. eigenvalues --    0.56694   0.56824   0.57056   0.57313   0.57521
 Alpha virt. eigenvalues --    0.57644   0.57878   0.58044   0.58122   0.58197
 Alpha virt. eigenvalues --    0.58409   0.58482   0.58560   0.58802   0.58879
 Alpha virt. eigenvalues --    0.59091   0.59216   0.59348   0.59611   0.59678
 Alpha virt. eigenvalues --    0.59967   0.60051   0.60251   0.60392   0.60430
 Alpha virt. eigenvalues --    0.60558   0.60810   0.60923   0.61105   0.61128
 Alpha virt. eigenvalues --    0.61356   0.61403   0.61609   0.61898   0.62000
 Alpha virt. eigenvalues --    0.62285   0.62384   0.62426   0.62541   0.62759
 Alpha virt. eigenvalues --    0.62928   0.63101   0.63135   0.63182   0.63402
 Alpha virt. eigenvalues --    0.63514   0.63604   0.63698   0.63782   0.64117
 Alpha virt. eigenvalues --    0.64224   0.64283   0.64470   0.64576   0.64615
 Alpha virt. eigenvalues --    0.64752   0.64789   0.64933   0.65001   0.65041
 Alpha virt. eigenvalues --    0.65146   0.65508   0.65687   0.65728   0.65803
 Alpha virt. eigenvalues --    0.65913   0.66116   0.66268   0.66362   0.66491
 Alpha virt. eigenvalues --    0.66582   0.66612   0.66649   0.66851   0.67046
 Alpha virt. eigenvalues --    0.67115   0.67190   0.67436   0.67554   0.67694
 Alpha virt. eigenvalues --    0.67767   0.67974   0.68049   0.68158   0.68169
 Alpha virt. eigenvalues --    0.68422   0.68578   0.68634   0.68754   0.68898
 Alpha virt. eigenvalues --    0.69115   0.69208   0.69279   0.69414   0.69510
 Alpha virt. eigenvalues --    0.69535   0.69590   0.69858   0.69948   0.70056
 Alpha virt. eigenvalues --    0.70182   0.70335   0.70517   0.70554   0.70760
 Alpha virt. eigenvalues --    0.70850   0.70877   0.70990   0.71106   0.71189
 Alpha virt. eigenvalues --    0.71410   0.71611   0.71786   0.71956   0.72251
 Alpha virt. eigenvalues --    0.72380   0.72480   0.72780   0.72932   0.73158
 Alpha virt. eigenvalues --    0.73476   0.73591   0.73808   0.74085   0.74217
 Alpha virt. eigenvalues --    0.74253   0.74374   0.74508   0.74761   0.75025
 Alpha virt. eigenvalues --    0.75318   0.75515   0.75780   0.75981   0.76011
 Alpha virt. eigenvalues --    0.76291   0.76680   0.76911   0.76984   0.77054
 Alpha virt. eigenvalues --    0.77309   0.77450   0.77656   0.77807   0.78095
 Alpha virt. eigenvalues --    0.78332   0.78482   0.78722   0.79006   0.79114
 Alpha virt. eigenvalues --    0.79300   0.79435   0.79725   0.80037   0.80441
 Alpha virt. eigenvalues --    0.80575   0.80918   0.81375   0.81518   0.81719
 Alpha virt. eigenvalues --    0.82170   0.82296   0.82576   0.82767   0.82844
 Alpha virt. eigenvalues --    0.83232   0.83509   0.83726   0.83793   0.84076
 Alpha virt. eigenvalues --    0.84341   0.84542   0.84737   0.85366   0.85957
 Alpha virt. eigenvalues --    0.85987   0.86482   0.86610   0.86806   0.86926
 Alpha virt. eigenvalues --    0.87431   0.87489   0.87557   0.88130   0.88664
 Alpha virt. eigenvalues --    0.88794   0.88935   0.89352   0.89658   0.89756
 Alpha virt. eigenvalues --    0.89960   0.90382   0.90465   0.90708   0.91145
 Alpha virt. eigenvalues --    0.91268   0.91635   0.92017   0.92363   0.92461
 Alpha virt. eigenvalues --    0.92698   0.93410   0.93622   0.94212   0.94337
 Alpha virt. eigenvalues --    0.94590   0.95139   0.95309   0.95435   0.95796
 Alpha virt. eigenvalues --    0.95829   0.95900   0.96291   0.96859   0.97053
 Alpha virt. eigenvalues --    0.97646   0.97706   0.97799   0.97976   0.98157
 Alpha virt. eigenvalues --    0.98555   0.98662   0.99154   0.99352   0.99659
 Alpha virt. eigenvalues --    1.00169   1.00276   1.00498   1.00702   1.01349
 Alpha virt. eigenvalues --    1.01625   1.01916   1.02057   1.02263   1.02416
 Alpha virt. eigenvalues --    1.02520   1.02887   1.03052   1.03462   1.03885
 Alpha virt. eigenvalues --    1.04341   1.04632   1.04853   1.05418   1.05622
 Alpha virt. eigenvalues --    1.06095   1.06663   1.07169   1.07207   1.07381
 Alpha virt. eigenvalues --    1.07702   1.08213   1.08668   1.09164   1.09340
 Alpha virt. eigenvalues --    1.09503   1.09710   1.10169   1.10265   1.10631
 Alpha virt. eigenvalues --    1.10819   1.10990   1.11506   1.11678   1.11698
 Alpha virt. eigenvalues --    1.12247   1.12530   1.12651   1.13103   1.13327
 Alpha virt. eigenvalues --    1.13581   1.14005   1.14012   1.14232   1.14629
 Alpha virt. eigenvalues --    1.14923   1.15051   1.15246   1.15536   1.15869
 Alpha virt. eigenvalues --    1.16175   1.16220   1.16599   1.16759   1.16958
 Alpha virt. eigenvalues --    1.17041   1.17590   1.17736   1.18079   1.18356
 Alpha virt. eigenvalues --    1.18902   1.19122   1.19197   1.19532   1.19721
 Alpha virt. eigenvalues --    1.19968   1.20288   1.20869   1.20894   1.20987
 Alpha virt. eigenvalues --    1.21443   1.21951   1.22211   1.22355   1.22606
 Alpha virt. eigenvalues --    1.22763   1.23013   1.23105   1.23371   1.23742
 Alpha virt. eigenvalues --    1.23868   1.24055   1.24233   1.24766   1.24850
 Alpha virt. eigenvalues --    1.24945   1.25135   1.25438   1.25787   1.26007
 Alpha virt. eigenvalues --    1.26264   1.26728   1.27195   1.27310   1.27486
 Alpha virt. eigenvalues --    1.27700   1.27820   1.28366   1.28667   1.28906
 Alpha virt. eigenvalues --    1.29040   1.29212   1.29468   1.29757   1.30000
 Alpha virt. eigenvalues --    1.30235   1.30552   1.30633   1.31033   1.31571
 Alpha virt. eigenvalues --    1.31988   1.32116   1.32576   1.32824   1.32921
 Alpha virt. eigenvalues --    1.33441   1.33467   1.33600   1.34029   1.34300
 Alpha virt. eigenvalues --    1.34677   1.34833   1.35094   1.35584   1.35673
 Alpha virt. eigenvalues --    1.36169   1.36518   1.36610   1.36926   1.37278
 Alpha virt. eigenvalues --    1.37425   1.37799   1.37933   1.38318   1.38502
 Alpha virt. eigenvalues --    1.38688   1.38838   1.39332   1.39621   1.39849
 Alpha virt. eigenvalues --    1.39931   1.40149   1.40809   1.40905   1.41462
 Alpha virt. eigenvalues --    1.41512   1.41762   1.42177   1.42419   1.42430
 Alpha virt. eigenvalues --    1.42759   1.43123   1.43255   1.43861   1.44105
 Alpha virt. eigenvalues --    1.44199   1.44585   1.44867   1.45171   1.45653
 Alpha virt. eigenvalues --    1.45917   1.46335   1.46349   1.46774   1.47300
 Alpha virt. eigenvalues --    1.47432   1.47684   1.48049   1.48354   1.48539
 Alpha virt. eigenvalues --    1.48920   1.49085   1.49199   1.49643   1.49859
 Alpha virt. eigenvalues --    1.50418   1.50682   1.51005   1.51133   1.51497
 Alpha virt. eigenvalues --    1.51683   1.51930   1.52011   1.52373   1.52493
 Alpha virt. eigenvalues --    1.52640   1.53043   1.53270   1.53520   1.53951
 Alpha virt. eigenvalues --    1.54028   1.54740   1.55134   1.55512   1.55679
 Alpha virt. eigenvalues --    1.56475   1.56631   1.56833   1.57241   1.57626
 Alpha virt. eigenvalues --    1.57673   1.58271   1.58820   1.58858   1.59406
 Alpha virt. eigenvalues --    1.59645   1.59793   1.60272   1.60707   1.60968
 Alpha virt. eigenvalues --    1.61537   1.61670   1.61855   1.62104   1.62572
 Alpha virt. eigenvalues --    1.62758   1.63058   1.63354   1.63933   1.64096
 Alpha virt. eigenvalues --    1.64306   1.64541   1.64807   1.64893   1.65062
 Alpha virt. eigenvalues --    1.65742   1.65945   1.66452   1.66573   1.66981
 Alpha virt. eigenvalues --    1.67280   1.67763   1.67882   1.68263   1.68460
 Alpha virt. eigenvalues --    1.68720   1.68931   1.69018   1.69558   1.69796
 Alpha virt. eigenvalues --    1.70114   1.70317   1.70674   1.70905   1.71033
 Alpha virt. eigenvalues --    1.71168   1.71552   1.71738   1.71895   1.72239
 Alpha virt. eigenvalues --    1.72445   1.72554   1.73068   1.73522   1.73720
 Alpha virt. eigenvalues --    1.73926   1.74060   1.74375   1.74467   1.74689
 Alpha virt. eigenvalues --    1.74839   1.74993   1.75102   1.75386   1.75524
 Alpha virt. eigenvalues --    1.75575   1.75712   1.75772   1.76015   1.76130
 Alpha virt. eigenvalues --    1.76357   1.76512   1.76659   1.76873   1.76960
 Alpha virt. eigenvalues --    1.77082   1.77546   1.77702   1.77749   1.78100
 Alpha virt. eigenvalues --    1.78189   1.78314   1.78540   1.78604   1.78813
 Alpha virt. eigenvalues --    1.78909   1.79083   1.79330   1.79612   1.79642
 Alpha virt. eigenvalues --    1.79702   1.79938   1.80026   1.80151   1.80275
 Alpha virt. eigenvalues --    1.80547   1.80592   1.80972   1.81105   1.81162
 Alpha virt. eigenvalues --    1.81296   1.81519   1.81817   1.81983   1.82144
 Alpha virt. eigenvalues --    1.82279   1.82527   1.82709   1.82884   1.83143
 Alpha virt. eigenvalues --    1.83480   1.83706   1.83711   1.83959   1.84159
 Alpha virt. eigenvalues --    1.84304   1.84472   1.84787   1.84841   1.85078
 Alpha virt. eigenvalues --    1.85086   1.85462   1.85564   1.85689   1.85922
 Alpha virt. eigenvalues --    1.86129   1.86275   1.86505   1.86655   1.86939
 Alpha virt. eigenvalues --    1.87095   1.87634   1.87755   1.88088   1.88101
 Alpha virt. eigenvalues --    1.88403   1.88693   1.88830   1.89178   1.89435
 Alpha virt. eigenvalues --    1.89527   1.89658   1.89792   1.90036   1.90048
 Alpha virt. eigenvalues --    1.90237   1.90482   1.90695   1.90845   1.90996
 Alpha virt. eigenvalues --    1.91049   1.91367   1.91769   1.91961   1.92171
 Alpha virt. eigenvalues --    1.92387   1.92484   1.92550   1.92771   1.92907
 Alpha virt. eigenvalues --    1.93212   1.93408   1.93586   1.94143   1.94490
 Alpha virt. eigenvalues --    1.94594   1.94858   1.95018   1.95251   1.95319
 Alpha virt. eigenvalues --    1.95383   1.95648   1.95922   1.96099   1.96330
 Alpha virt. eigenvalues --    1.96474   1.96729   1.96896   1.97053   1.97146
 Alpha virt. eigenvalues --    1.97430   1.97626   1.97972   1.98119   1.98451
 Alpha virt. eigenvalues --    1.98607   1.98826   1.99080   1.99458   1.99629
 Alpha virt. eigenvalues --    1.99770   1.99966   2.00184   2.00329   2.00615
 Alpha virt. eigenvalues --    2.00825   2.01287   2.01450   2.01684   2.01904
 Alpha virt. eigenvalues --    2.01937   2.02235   2.02332   2.02652   2.02814
 Alpha virt. eigenvalues --    2.03128   2.03312   2.03436   2.03809   2.03914
 Alpha virt. eigenvalues --    2.04219   2.04464   2.04668   2.05142   2.05756
 Alpha virt. eigenvalues --    2.05957   2.06236   2.06436   2.06774   2.06794
 Alpha virt. eigenvalues --    2.07207   2.07363   2.07560   2.07872   2.08005
 Alpha virt. eigenvalues --    2.08218   2.08392   2.08683   2.09045   2.09321
 Alpha virt. eigenvalues --    2.09599   2.09719   2.10223   2.10560   2.11006
 Alpha virt. eigenvalues --    2.11129   2.11775   2.11910   2.12119   2.12563
 Alpha virt. eigenvalues --    2.12694   2.12789   2.13111   2.13446   2.13676
 Alpha virt. eigenvalues --    2.14477   2.14490   2.14731   2.14779   2.14905
 Alpha virt. eigenvalues --    2.15251   2.16128   2.16262   2.16497   2.16536
 Alpha virt. eigenvalues --    2.16905   2.17714   2.17926   2.18003   2.18239
 Alpha virt. eigenvalues --    2.18417   2.18864   2.19057   2.19161   2.19258
 Alpha virt. eigenvalues --    2.19436   2.19513   2.19987   2.20239   2.20549
 Alpha virt. eigenvalues --    2.21010   2.21212   2.21305   2.21575   2.22487
 Alpha virt. eigenvalues --    2.22833   2.23094   2.23404   2.23646   2.24101
 Alpha virt. eigenvalues --    2.24397   2.24487   2.25140   2.25284   2.25634
 Alpha virt. eigenvalues --    2.25927   2.26020   2.26630   2.27089   2.27187
 Alpha virt. eigenvalues --    2.27413   2.28358   2.28783   2.28865   2.29153
 Alpha virt. eigenvalues --    2.29363   2.30008   2.30169   2.30670   2.30931
 Alpha virt. eigenvalues --    2.31398   2.31653   2.31898   2.32031   2.32522
 Alpha virt. eigenvalues --    2.32701   2.33469   2.33585   2.33934   2.34186
 Alpha virt. eigenvalues --    2.34236   2.34409   2.34685   2.35163   2.35296
 Alpha virt. eigenvalues --    2.35776   2.36016   2.36236   2.36620   2.36815
 Alpha virt. eigenvalues --    2.37074   2.37354   2.37838   2.38369   2.38520
 Alpha virt. eigenvalues --    2.38603   2.39598   2.39635   2.40008   2.40574
 Alpha virt. eigenvalues --    2.40691   2.40832   2.41279   2.41784   2.41939
 Alpha virt. eigenvalues --    2.42149   2.42332   2.42639   2.42874   2.43627
 Alpha virt. eigenvalues --    2.44203   2.44267   2.44458   2.44598   2.44939
 Alpha virt. eigenvalues --    2.45164   2.45412   2.45691   2.45729   2.45977
 Alpha virt. eigenvalues --    2.46243   2.47466   2.47606   2.47694   2.48152
 Alpha virt. eigenvalues --    2.48227   2.48371   2.49354   2.49599   2.50022
 Alpha virt. eigenvalues --    2.50514   2.50632   2.50919   2.51088   2.51651
 Alpha virt. eigenvalues --    2.52337   2.52613   2.52722   2.52877   2.53197
 Alpha virt. eigenvalues --    2.53540   2.53661   2.53668   2.54321   2.54561
 Alpha virt. eigenvalues --    2.55364   2.55559   2.55764   2.56543   2.56741
 Alpha virt. eigenvalues --    2.57198   2.57415   2.57473   2.58035   2.58263
 Alpha virt. eigenvalues --    2.58678   2.58710   2.58951   2.59222   2.59664
 Alpha virt. eigenvalues --    2.60239   2.60452   2.60995   2.61211   2.61726
 Alpha virt. eigenvalues --    2.61978   2.62391   2.62618   2.62856   2.63079
 Alpha virt. eigenvalues --    2.63360   2.63573   2.63762   2.64134   2.64270
 Alpha virt. eigenvalues --    2.64588   2.64689   2.65064   2.65431   2.66497
 Alpha virt. eigenvalues --    2.66626   2.66737   2.67058   2.67540   2.67679
 Alpha virt. eigenvalues --    2.67877   2.67966   2.68314   2.68657   2.68735
 Alpha virt. eigenvalues --    2.68984   2.69148   2.69357   2.69826   2.70339
 Alpha virt. eigenvalues --    2.70753   2.70892   2.71015   2.71404   2.71475
 Alpha virt. eigenvalues --    2.71568   2.71868   2.72080   2.72373   2.72651
 Alpha virt. eigenvalues --    2.72680   2.73183   2.73301   2.73519   2.73850
 Alpha virt. eigenvalues --    2.74189   2.74832   2.75180   2.75278   2.75675
 Alpha virt. eigenvalues --    2.75889   2.76560   2.76763   2.76951   2.77389
 Alpha virt. eigenvalues --    2.77539   2.77642   2.78061   2.78072   2.78387
 Alpha virt. eigenvalues --    2.78584   2.78619   2.78969   2.79214   2.79552
 Alpha virt. eigenvalues --    2.79691   2.79867   2.80200   2.80234   2.80800
 Alpha virt. eigenvalues --    2.81135   2.81676   2.81863   2.83097   2.83153
 Alpha virt. eigenvalues --    2.83222   2.83776   2.84068   2.84233   2.84323
 Alpha virt. eigenvalues --    2.84816   2.84976   2.85484   2.85880   2.86239
 Alpha virt. eigenvalues --    2.86621   2.86649   2.86738   2.86910   2.87228
 Alpha virt. eigenvalues --    2.87457   2.87986   2.88189   2.88352   2.88812
 Alpha virt. eigenvalues --    2.88864   2.89101   2.89394   2.89432   2.89713
 Alpha virt. eigenvalues --    2.89924   2.90059   2.90116   2.90743   2.90957
 Alpha virt. eigenvalues --    2.91428   2.91905   2.91991   2.92253   2.92599
 Alpha virt. eigenvalues --    2.93081   2.93210   2.93384   2.93911   2.94385
 Alpha virt. eigenvalues --    2.94503   2.94723   2.95153   2.95413   2.95810
 Alpha virt. eigenvalues --    2.96334   2.96642   2.96797   2.97069   2.97543
 Alpha virt. eigenvalues --    2.98109   2.98583   2.99117   2.99526   2.99728
 Alpha virt. eigenvalues --    3.00108   3.00246   3.00507   3.00889   3.01055
 Alpha virt. eigenvalues --    3.01504   3.01601   3.01918   3.02172   3.02457
 Alpha virt. eigenvalues --    3.02935   3.03188   3.03433   3.03739   3.03932
 Alpha virt. eigenvalues --    3.04523   3.04705   3.05145   3.05978   3.06632
 Alpha virt. eigenvalues --    3.07076   3.08109   3.08208   3.09109   3.09202
 Alpha virt. eigenvalues --    3.09575   3.09794   3.10279   3.10842   3.11128
 Alpha virt. eigenvalues --    3.11984   3.12733   3.12745   3.12936   3.13214
 Alpha virt. eigenvalues --    3.14617   3.14885   3.15989   3.16102   3.16426
 Alpha virt. eigenvalues --    3.16596   3.16801   3.16887   3.17171   3.17612
 Alpha virt. eigenvalues --    3.17676   3.18024   3.18426   3.18885   3.19093
 Alpha virt. eigenvalues --    3.19722   3.20137   3.20324   3.20487   3.20629
 Alpha virt. eigenvalues --    3.21436   3.21793   3.21907   3.22467   3.22727
 Alpha virt. eigenvalues --    3.22888   3.23265   3.23450   3.24258   3.24551
 Alpha virt. eigenvalues --    3.25091   3.25420   3.25639   3.25980   3.26785
 Alpha virt. eigenvalues --    3.27523   3.28062   3.28736   3.29295   3.30287
 Alpha virt. eigenvalues --    3.31137   3.31376   3.31942   3.32852   3.34413
 Alpha virt. eigenvalues --    3.35206   3.35444   3.36636   3.37882   3.38664
 Alpha virt. eigenvalues --    3.42001   3.42606   3.45111   3.48103   3.48694
 Alpha virt. eigenvalues --    3.52541   3.52754   3.53850   3.55059   3.56590
 Alpha virt. eigenvalues --    3.56844   3.58080   3.58798   3.59335   3.59735
 Alpha virt. eigenvalues --    3.60208   3.61264   3.62092   3.62651   3.63056
 Alpha virt. eigenvalues --    3.65485   3.65863   3.66255   3.66850   3.67056
 Alpha virt. eigenvalues --    3.67555   3.67908   3.69159   3.69486   3.69870
 Alpha virt. eigenvalues --    3.70623   3.70972   3.71123   3.71660   3.72003
 Alpha virt. eigenvalues --    3.72873   3.73327   3.73603   3.74064   3.74647
 Alpha virt. eigenvalues --    3.76492   3.79453   3.80007   3.90230
          Condensed to atoms (all electrons):
 Mulliken charges:
               1
     1  C    0.049489
     2  C    0.018448
     3  O   -0.299973
     4  H    0.029641
     5  H    0.051114
     6  H    0.003126
     7  N   -0.107146
     8  C    0.098331
     9  C    0.060744
    10  O   -0.293387
    11  C    0.148181
    12  C    0.128326
    13  O   -0.355214
    14  O   -0.500071
    15  H    0.116230
    16  H    0.008308
    17  H    0.005380
    18  H   -0.011813
    19  N   -0.116357
    20  C    0.188168
    21  C    0.051300
    22  O   -0.266695
    23  C   -0.052523
    24  C    0.014987
    25  C   -0.012041
    26  C    0.007866
    27  N    0.070279
    28  H    0.144480
    29  H    0.015798
    30  H    0.007496
    31  H    0.029109
    32  H    0.032799
    33  H    0.002708
    34  H    0.049517
    35  H    0.012402
    36  H    0.076953
    37  H    0.099503
    38  H    0.190491
    39  H    0.193846
    40  H    0.188882
    41  N   -0.132173
    42  C    0.105362
    43  C    0.048888
    44  O   -0.310213
    45  C    0.148322
    46  C    0.062901
    47  O   -0.417618
    48  O   -0.414912
    49  H    0.122287
    50  H   -0.000233
    51  H   -0.021312
    52  H    0.032749
    53  N   -0.151512
    54  C    0.236316
    55  C    0.021627
    56  O   -0.302780
    57  H    0.140195
    58  H    0.040369
    59  H    0.023520
    60  N   -0.189042
    61  C    0.144751
    62  C    0.072402
    63  O   -0.300565
    64  C    0.065199
    65  C    0.098647
    66  N   -0.060351
    67  O   -0.352380
    68  H    0.161052
    69  H    0.015524
    70  H    0.027945
    71  H    0.029681
    72  H    0.117431
    73  H    0.110030
    74  N   -0.162786
    75  C    0.235941
    76  C    0.035108
    77  O   -0.299009
    78  H    0.150862
    79  H    0.027444
    80  H    0.016515
    81  N   -0.135601
    82  C    0.177605
    83  C    0.117361
    84  O   -0.367243
    85  C    0.115838
    86  C   -0.051804
    87  C    0.062836
    88  C   -0.027286
    89  C   -0.001361
    90  C   -0.058160
    91  C    0.161487
    92  O   -0.213853
    93  H    0.155270
    94  H   -0.009635
    95  H    0.016296
    96  H   -0.033668
    97  H    0.003123
    98  H   -0.042440
    99  H   -0.002954
   100  H   -0.073285
   101  H    0.170585
   102  N   -0.126860
   103  C    0.126070
   104  C    0.079277
   105  O   -0.268654
   106  C   -0.065322
   107  C   -0.005738
   108  C    0.042199
   109  C    0.043200
   110  H    0.135150
   111  H    0.012192
   112  H   -0.007157
   113  H   -0.018731
   114  H    0.013995
   115  H    0.000180
   116  H    0.020584
   117  H    0.010634
   118  H    0.018289
   119  H    0.014444
   120  H   -0.001464
   121  N   -0.152566
   122  C    0.090267
   123  C    0.092918
   124  O   -0.276666
   125  C    0.292185
   126  O   -0.353731
   127  H    0.135478
   128  H    0.013543
   129  H   -0.022872
   130  H   -0.029013
   131  H    0.174204
   132  N   -0.114424
   133  C    0.076266
   134  C    0.080121
   135  O   -0.245220
   136  C    0.043750
   137  H    0.112506
   138  H    0.019573
   139  H    0.046256
   140  H    0.030411
   141  H    0.001277
   142  N   -0.143239
   143  C    0.101741
   144  C    0.050190
   145  O   -0.279539
   146  C    0.038483
   147  H    0.109742
   148  H    0.022400
   149  H    0.005381
   150  H    0.028121
   151  H    0.008731
   152  N   -0.126763
   153  C    0.121914
   154  C    0.032257
   155  O   -0.283336
   156  C   -0.020682
   157  C    0.118335
   158  C    0.178446
   159  O   -0.444013
   160  O   -0.420242
   161  H    0.121973
   162  H   -0.031810
   163  H    0.065605
   164  H   -0.007865
   165  H   -0.016670
   166  H   -0.025315
   167  N   -0.153228
   168  C    0.132592
   169  H    0.022647
   170  H    0.038286
   171  H    0.009471
   172  H    0.125552
   173  Ca   1.239894
   174  O   -0.258333
   175  H    0.197268
   176  H    0.187484
 Sum of Mulliken charges =  -0.00000
 Mulliken charges with hydrogens summed into heavy atoms:
               1
     1  C    0.133369
     2  C    0.018448
     3  O   -0.299973
     7  N    0.009084
     8  C    0.106639
     9  C    0.060744
    10  O   -0.293387
    11  C    0.141748
    12  C    0.128326
    13  O   -0.355214
    14  O   -0.500071
    19  N    0.028123
    20  C    0.203966
    21  C    0.051300
    22  O   -0.266695
    23  C   -0.015919
    24  C    0.050494
    25  C    0.049878
    26  C    0.184323
    27  N    0.643497
    41  N   -0.009886
    42  C    0.105129
    43  C    0.048888
    44  O   -0.310213
    45  C    0.159758
    46  C    0.062901
    47  O   -0.417618
    48  O   -0.414912
    53  N   -0.011318
    54  C    0.300205
    55  C    0.021627
    56  O   -0.302780
    60  N   -0.027991
    61  C    0.160275
    62  C    0.072402
    63  O   -0.300565
    64  C    0.122825
    65  C    0.098647
    66  N    0.167110
    67  O   -0.352380
    74  N   -0.011924
    75  C    0.279900
    76  C    0.035108
    77  O   -0.299009
    81  N    0.019669
    82  C    0.167969
    83  C    0.117361
    84  O   -0.367243
    85  C    0.098466
    86  C   -0.051804
    87  C    0.065959
    88  C   -0.069726
    89  C   -0.004315
    90  C   -0.131445
    91  C    0.161487
    92  O   -0.043268
   102  N    0.008290
   103  C    0.138261
   104  C    0.079277
   105  O   -0.268654
   106  C   -0.072479
   107  C   -0.010474
   108  C    0.073597
   109  C    0.074469
   121  N   -0.017087
   122  C    0.103811
   123  C    0.092918
   124  O   -0.276666
   125  C    0.240300
   126  O   -0.179527
   132  N   -0.001918
   133  C    0.095839
   134  C    0.080121
   135  O   -0.245220
   136  C    0.121694
   142  N   -0.033497
   143  C    0.124140
   144  C    0.050190
   145  O   -0.279539
   146  C    0.080716
   152  N   -0.004790
   153  C    0.090105
   154  C    0.032257
   155  O   -0.283336
   156  C    0.037058
   157  C    0.076350
   158  C    0.178446
   159  O   -0.444013
   160  O   -0.420242
   167  N   -0.027676
   168  C    0.202995
   173  Ca   1.239894
   174  O    0.126419
 DipInt: DoE/N= T F RetVal/Mat= T F Init=T NMatP=  1 IDeriv=0 Min/MaxMlt=  0  4
 Entering OneElI...
 OneElI was handed  1333951383 working-precision words.
 Multipole integrals L=0 to 4 MinM= 0 MaxM= 0.
 Requested accuracy = 0.1000D-12
 ShPair: Thresh= 1.00D-13 NBox=     0 BxSize= 0.00D+00 RnKept= 2.55D+01
         NSMCal=               327645 NSMKep=              168646
 PrmmSu-InSpLW:  IPartL=    0 NPrtUS=    1 NPrtUL=    1 DoSpLW=F IThBeg=    0 IThEnd=    0 NThAct=    1.
 PrsmSu:  NPrtUS=   1 ThrOK=F IAlg=1 NPAlg=1 LenDen=           0 ISkipM=0 DoSpLW=F IThBeg=    0 IThEnd=    0.
 Prism:   IPart=     0 DynPar=F LinDyn=F Incr=         512.
 PRISM was handed  1323562043 working-precision words and168646 shell-pairs
 IPart=  0 NShTot=      168646 NBatch=         384 AvBLen=       439.2
 PrsmSu-ThDecC:  IPartSL=    0    0 NPrtUSL=    1    1 IThBeg=    0 IThEnd=    0 CPU=   -1 GPU=   -1 NThAct=    1.
 PrSmSu:  NxtVal=            513.
 Electronic moments (au):
       -716.00000000         12.14052097          1.25798491         -7.90985858
     -47836.58306991     -25584.55631530     -13799.98487456         57.02146720
        -39.94810845        -17.55428494     -95872.42171627     -43242.63641171
     -29012.36802387      18293.61992283      41561.98056261      56552.57070732
      -8877.11675507       7562.31851690      12397.31677756         -2.23839429
   -6490174.89495356   -2050716.51566940    -732121.49884475     229222.64189737
     389748.18053412    -170007.26003122      74283.06768352    -109444.04125772
     -17906.50609106   -1299385.62516289    -738975.71980274    -391546.31848450
    -105913.24651098     -40494.07465385     -36282.77879411
 Electronic spatial extent (au):  <R**2>=          87221.1243
 DipInt: DoE/N= F T RetVal/Mat= T F Init=T NMatP=  1 IDeriv=0 Min/MaxMlt=  0  4
 Nuclear    moments (au):
        716.00000000         -0.00000000         -0.00000000          0.00000000
      47329.92241424      25227.84791753      13436.80941738          0.00000000
         -0.00000000         -0.00000000      97053.01266222      44165.36972686
      28726.47409305     -16787.52431972     -41614.37591337     -57407.83968394
       9138.98490395      -7667.46477335     -13064.77724561       -454.49604498
    6298828.48746307    1970574.62652244     688779.27584741    -231251.05927410
    -394272.94332059     183232.91815938     -78676.24937652     109664.06853951
      19158.85096010    1259477.61022763     706987.89809878     371093.03683007
     106186.71415182      35743.99731080      37863.27415250
 Total      moments (au):
         -0.00000000         12.14052097          1.25798491         -7.90985858
       -506.66065567       -356.70839777       -363.17545719         57.02146720
        -39.94810845        -17.55428494       1180.59094594        922.73331515
       -285.89393081       1506.09560311        -52.39535076       -855.26897661
        261.86814888       -105.14625645       -667.46046804       -456.73443927
    -191346.40749049     -80141.88914696     -43342.22299734      -2028.41737672
      -4524.76278647      13225.65812816      -4393.18169300        220.02728179
       1252.34486903     -39908.01493526     -31987.82170396     -20453.28165442
        273.46764084      -4750.07734304       1580.49535838
 Traceless Quadrup. (au):
        -97.81248546         52.13977244         45.67271302         57.02146720
        -39.94810845        -17.55428494
 Charge=             -0.0000 electrons
 Dipole moment (field-independent basis, Debye):
    X=             30.8581    Y=              3.1975    Z=            -20.1049  Tot=             36.9683
 Quadrupole moment (field-independent basis, Debye-Ang):
   XX=           -681.4759   YY=           -479.7850   ZZ=           -488.4834
   XY=             76.6958   XZ=            -53.7316   YZ=            -23.6111
 Traceless Quadrupole moment (field-independent basis, Debye-Ang):
   XX=           -131.5611   YY=             70.1298   ZZ=             61.4314
   XY=             76.6958   XZ=            -53.7316   YZ=            -23.6111
 Octapole moment (field-independent basis, Debye-Ang**2):
  XXX=            840.2992  YYY=            656.7660  ZZZ=           -203.4883  XYY=           1071.9808
  XXY=            -37.2930  XXZ=           -608.7475  XZZ=            186.3877  YZZ=            -74.8391
  YYZ=           -475.0726  XYZ=           -325.0860
 Hexadecapole moment (field-independent basis, Debye-Ang**3):
 XXXX=         -72070.2324 YYYY=         -30185.2784 ZZZZ=         -16324.7595 XXXY=           -763.9992
 XXXZ=          -1704.2426 YYYX=           4981.4170 YYYZ=          -1654.6829 ZZZX=             82.8728
 ZZZY=            471.6931 XXYY=         -15031.2721 XXZZ=         -12048.1475 YYZZ=          -7703.6866
 XXYZ=            103.0010 YYXZ=          -1789.1069 ZZXY=            595.2903
 N-N= 2.225922079961D+04 E-N=-5.699776333334D+04  KE= 5.290711305981D+03
 Leave Link  601 at Sat Sep 14 23:36:49 2019, MaxMem=  1342177280 cpu:              46.7 elap:               1.2
 FitSet:  NAtFit=   176 NAtPot=   176 NAtFrz=     0 MDM=   180 TotChg=   0.00000
 Merz-Kollman atomic radii used.
 Read replacement radii for each type of atom:
 Rad(20) =   1.700000000000D+00
 Atom Element Radius
    1     6    1.50
    2     6    1.50
    3     8    1.40
    4     1    1.20
    5     1    1.20
    6     1    1.20
    7     7    1.50
    8     6    1.50
    9     6    1.50
   10     8    1.40
   11     6    1.50
   12     6    1.50
   13     8    1.40
   14     8    1.40
   15     1    1.20
   16     1    1.20
   17     1    1.20
   18     1    1.20
   19     7    1.50
   20     6    1.50
   21     6    1.50
   22     8    1.40
   23     6    1.50
   24     6    1.50
   25     6    1.50
   26     6    1.50
   27     7    1.50
   28     1    1.20
   29     1    1.20
   30     1    1.20
   31     1    1.20
   32     1    1.20
   33     1    1.20
   34     1    1.20
   35     1    1.20
   36     1    1.20
   37     1    1.20
   38     1    1.20
   39     1    1.20
   40     1    1.20
   41     7    1.50
   42     6    1.50
   43     6    1.50
   44     8    1.40
   45     6    1.50
   46     6    1.50
   47     8    1.40
   48     8    1.40
   49     1    1.20
   50     1    1.20
   51     1    1.20
   52     1    1.20
   53     7    1.50
   54     6    1.50
   55     6    1.50
   56     8    1.40
   57     1    1.20
   58     1    1.20
   59     1    1.20
   60     7    1.50
   61     6    1.50
   62     6    1.50
   63     8    1.40
   64     6    1.50
   65     6    1.50
   66     7    1.50
   67     8    1.40
   68     1    1.20
   69     1    1.20
   70     1    1.20
   71     1    1.20
   72     1    1.20
   73     1    1.20
   74     7    1.50
   75     6    1.50
   76     6    1.50
   77     8    1.40
   78     1    1.20
   79     1    1.20
   80     1    1.20
   81     7    1.50
   82     6    1.50
   83     6    1.50
   84     8    1.40
   85     6    1.50
   86     6    1.50
   87     6    1.50
   88     6    1.50
   89     6    1.50
   90     6    1.50
   91     6    1.50
   92     8    1.40
   93     1    1.20
   94     1    1.20
   95     1    1.20
   96     1    1.20
   97     1    1.20
   98     1    1.20
   99     1    1.20
  100     1    1.20
  101     1    1.20
  102     7    1.50
  103     6    1.50
  104     6    1.50
  105     8    1.40
  106     6    1.50
  107     6    1.50
  108     6    1.50
  109     6    1.50
  110     1    1.20
  111     1    1.20
  112     1    1.20
  113     1    1.20
  114     1    1.20
  115     1    1.20
  116     1    1.20
  117     1    1.20
  118     1    1.20
  119     1    1.20
  120     1    1.20
  121     7    1.50
  122     6    1.50
  123     6    1.50
  124     8    1.40
  125     6    1.50
  126     8    1.40
  127     1    1.20
  128     1    1.20
  129     1    1.20
  130     1    1.20
  131     1    1.20
  132     7    1.50
  133     6    1.50
  134     6    1.50
  135     8    1.40
  136     6    1.50
  137     1    1.20
  138     1    1.20
  139     1    1.20
  140     1    1.20
  141     1    1.20
  142     7    1.50
  143     6    1.50
  144     6    1.50
  145     8    1.40
  146     6    1.50
  147     1    1.20
  148     1    1.20
  149     1    1.20
  150     1    1.20
  151     1    1.20
  152     7    1.50
  153     6    1.50
  154     6    1.50
  155     8    1.40
  156     6    1.50
  157     6    1.50
  158     6    1.50
  159     8    1.40
  160     8    1.40
  161     1    1.20
  162     1    1.20
  163     1    1.20
  164     1    1.20
  165     1    1.20
  166     1    1.20
  167     7    1.50
  168     6    1.50
  169     1    1.20
  170     1    1.20
  171     1    1.20
  172     1    1.20
  173    20    1.70
  174     8    1.40
[...]
 **** Fit      -0.031020
 **** Fit      -0.032760
 **** Fit      -0.033859
 **** Fit      -0.034902
 **** Fit      -0.035864
 **** Fit      -0.035816
 **** Fit      -0.033760
 **** Fit      -0.031827
 **** Fit      -0.032827
 **** Fit      -0.033461
 **** Fit      -0.034191
 **** Fit      -0.035325
 **** Fit      -0.036929
 **** Fit      -0.038629
 **** Fit      -0.031118
 **** Fit      -0.032108
 **** Fit      -0.032510
 **** Fit      -0.032702
 **** Fit      -0.033004
 **** Fit      -0.033688
 **** Fit      -0.034975
 **** Fit      -0.037016
 **** Fit      -0.039834
 **** Fit      -0.030773
 **** Fit      -0.031673
 **** Fit      -0.031902
 **** Fit      -0.031773
 **** Fit      -0.031552
 **** Fit      -0.031483
 **** Fit      -0.031797
 **** Fit      -0.032714
 **** Fit      -0.034450
 **** Fit      -0.037233
 **** Fit      -0.041310
 **** Fit      -0.030759
 **** Fit      -0.031452
 **** Fit      -0.031460
 **** Fit      -0.031039
 **** Fit      -0.030410
 **** Fit      -0.029784
 **** Fit      -0.029368
 **** Fit      -0.029376
 **** Fit      -0.030026
 **** Fit      -0.031555
 **** Fit      -0.034234
 **** Fit      -0.038432
 **** Fit      -0.030972
 **** Fit      -0.031403
 **** Fit      -0.031179
 **** Fit      -0.030490
 **** Fit      -0.029510
 **** Fit      -0.028407
 **** Fit      -0.027355
 **** Fit      -0.026538
 **** Fit      -0.026150
 **** Fit      -0.026405
 **** Fit      -0.027537
 **** Fit      -0.029810
 **** Fit      -0.033564
 **** Fit      -0.030557
 **** Fit      -0.031449
 **** Fit      -0.031557
 **** Fit      -0.031036
 **** Fit      -0.030025
 **** Fit      -0.028662
 **** Fit      -0.027089
 **** Fit      -0.025458
 **** Fit      -0.023933
 **** Fit      -0.022696
 **** Fit      -0.021945
 **** Fit      -0.021905
 **** Fit      -0.022822
 **** Fit      -0.024968
 **** Fit      -0.028660
 **** Fit      -0.034350
 **** Fit      -0.031744
 **** Fit      -0.032202
 **** Fit      -0.031898
 **** Fit      -0.030940
 **** Fit      -0.029440
 **** Fit      -0.027519
 **** Fit      -0.025316
 **** Fit      -0.022984
 **** Fit      -0.020701
 **** Fit      -0.018660
 **** Fit      -0.017083
 **** Fit      -0.016220
 **** Fit      -0.016356
 **** Fit      -0.017793
 **** Fit      -0.020823
 **** Fit      -0.025759
 **** Fit      -0.032404
 **** Fit      -0.033266
 **** Fit      -0.033308
 **** Fit      -0.032585
 **** Fit      -0.031161
 **** Fit      -0.029119
 **** Fit      -0.026569
 **** Fit      -0.023642
 **** Fit      -0.020497
 **** Fit      -0.017319
 **** Fit      -0.014321
 **** Fit      -0.011741
 **** Fit      -0.009855
 **** Fit      -0.008982
 **** Fit      -0.009470
 **** Fit      -0.011614
 **** Fit      -0.015599
 **** Fit      -0.021544
 **** Fit      -0.034950
 **** Fit      -0.035395
 **** Fit      -0.035015
 **** Fit      -0.033795
 **** Fit      -0.031760
 **** Fit      -0.028978
 **** Fit      -0.025561
 **** Fit      -0.021652
 **** Fit      -0.017433
 **** Fit      -0.013120
 **** Fit      -0.008969
 **** Fit      -0.005270
 **** Fit      -0.002356
 **** Fit      -0.000623
 **** Fit      -0.000505
 **** Fit      -0.002314
 **** Fit      -0.006089
 **** Fit      -0.011598
 **** Fit      -0.018449
 **** Fit      -0.038527
 **** Fit      -0.037721
 **** Fit      -0.035872
 **** Fit      -0.032977
 **** Fit      -0.029119
 **** Fit      -0.024442
 **** Fit      -0.019134
 **** Fit      -0.013431
 **** Fit      -0.007616
 **** Fit      -0.002026
 **** Fit       0.002953
 **** Fit       0.006865
 **** Fit       0.009159
 **** Fit       0.009279
 **** Fit       0.006997
 **** Fit      -0.030372
 **** Fit      -0.024061
 **** Fit      -0.016978
 **** Fit      -0.009434
 **** Fit      -0.001793
 **** Fit       0.005523
 **** Fit       0.012021
 **** Fit      -0.012236
 **** Fit      -0.001890
 **** Fit       0.037653
 **** Fit       0.042110
 **** Fit       0.027805
 **** Fit       0.025980
 **** Fit       0.006142
 **** Fit       0.000999
 **** Fit       0.014996
 **** Fit       0.053282
 **** Fit       0.038874
 **** Fit       0.024305
 **** Fit       0.069234
 **** Fit       0.074097
 **** Fit       0.073369
 **** Fit       0.066836
 **** Fit       0.056315
 **** Fit       0.043694
 **** Fit       0.030323
 **** Fit       0.017389
 **** Fit       0.061384
 **** Fit       0.060235
 **** Fit       0.053644
 **** Fit       0.043289
 **** Fit       0.031398
 **** Fit       0.020226
 **** Fit       0.012276
 **** Fit       0.008983
 **** Fit       0.050376
 **** Fit       0.047590
 **** Fit       0.039064
 **** Fit       0.028392
 **** Fit       0.019979
 **** Fit       0.016122
 **** Fit       0.035612
 **** Fit       0.040410
 **** Fit       0.035188
 **** Fit       0.026178
 **** Fit       0.022666
 **** Fit       0.031226
 **** Fit      -0.035199
 **** Fit      -0.037313
 **** Fit      -0.005158
 **** Fit      -0.004784
 **** Fit      -0.006104
 **** Fit      -0.006738
 **** Fit      -0.005634
 **** Fit      -0.004100
 **** Fit      -0.003869
 **** Fit      -0.004533
 **** Fit      -0.007998
 **** Fit      -0.006206
 **** Fit      -0.002488
 **** Fit      -0.002809
 **** Fit      -0.003535
 **** Fit      -0.004421
 **** Fit      -0.005484
 **** Fit      -0.009189
 **** Fit      -0.006907
 **** Fit      -0.001955
 **** Fit      -0.002642
 **** Fit      -0.003465
 **** Fit      -0.004452
 **** Fit      -0.005504
 **** Fit      -0.012019
 **** Fit      -0.009312
 **** Fit      -0.001186
 **** Fit      -0.001876
 **** Fit      -0.002629
 **** Fit      -0.003486
 **** Fit      -0.004619
 **** Fit      -0.005649
 **** Fit      -0.017197
 **** Fit      -0.014252
 **** Fit      -0.010979
 **** Fit      -0.000717
 **** Fit      -0.001378
 **** Fit      -0.002056
 **** Fit      -0.002808
 **** Fit      -0.003663
 **** Fit      -0.004901
 **** Fit      -0.006012
 **** Fit      -0.007184
 **** Fit      -0.021727
 **** Fit      -0.013676
 **** Fit      -0.000186
 **** Fit      -0.000850
 **** Fit      -0.001489
 **** Fit      -0.002176
 **** Fit      -0.002963
 **** Fit      -0.003875
 **** Fit      -0.005282
 **** Fit      -0.006486
 **** Fit      -0.007759
 **** Fit      -0.032160
 **** Fit      -0.017588
 **** Fit       0.000183
 **** Fit      -0.000463
 **** Fit      -0.001058
 **** Fit      -0.001670
 **** Fit      -0.002365
 **** Fit      -0.004172
 **** Fit      -0.007104
 **** Fit      -0.008520
 **** Fit      -0.010031
 **** Fit      -0.000115
 **** Fit      -0.000680
 **** Fit      -0.009418
 **** Fit      -0.011060
 **** Fit      -0.012893
 **** Fit       0.000093
 **** Fit      -0.000442
 **** Fit      -0.012383
 **** Fit      -0.014359
 **** Fit       0.000254
 **** Fit      -0.000255
 **** Fit      -0.016432
 **** Fit      -0.019095
 **** Fit       0.000345
 **** Fit      -0.000015
 **** Fit      -0.018869
 **** Fit      -0.021701
 **** Fit      -0.025518
 **** Fit      -0.030952
 **** Fit      -0.000299
 **** Fit      -0.000122
 **** Fit      -0.000405
 **** Fit      -0.021826
 **** Fit      -0.024672
 **** Fit      -0.028563
 **** Fit      -0.002620
 **** Fit      -0.001293
 **** Fit      -0.000750
 **** Fit      -0.001017
 **** Fit      -0.025930
 **** Fit      -0.028928
 **** Fit      -0.033188
 **** Fit      -0.002050
 **** Fit      -0.001753
 **** Fit      -0.031087
 **** Fit      -0.034289
 **** Fit      -0.004439
 **** Fit      -0.001843
 **** Fit      -0.002565
 **** Fit      -0.003430
 **** Fit      -0.004870
 **** Fit      -0.006059
 **** Fit      -0.001470
 **** Fit      -0.002122
 **** Fit      -0.002904
 **** Fit      -0.003819
 **** Fit      -0.005490
 **** Fit      -0.006688
 **** Fit      -0.008035
 **** Fit      -0.000751
 **** Fit      -0.001259
 **** Fit      -0.001882
 **** Fit      -0.002620
 **** Fit      -0.003467
 **** Fit      -0.004422
 **** Fit      -0.006428
 **** Fit      -0.007677
 **** Fit      -0.009086
 **** Fit      -0.010704
 **** Fit      -0.000547
 **** Fit      -0.001035
 **** Fit      -0.001671
 **** Fit      -0.002438
 **** Fit      -0.003309
 **** Fit      -0.004264
 **** Fit      -0.005299
 **** Fit      -0.007844
 **** Fit      -0.009101
 **** Fit      -0.010510
 **** Fit      -0.012139
 **** Fit      -0.014074
 **** Fit      -0.000524
 **** Fit      -0.000985
 **** Fit      -0.001665
 **** Fit      -0.002517
 **** Fit      -0.003482
 **** Fit      -0.004512
 **** Fit      -0.005580
 **** Fit      -0.006684
 **** Fit      -0.009959
 **** Fit      -0.011210
 **** Fit      -0.012599
 **** Fit      -0.014215
 **** Fit      -0.016167
 **** Fit      -0.001032
 **** Fit      -0.001733
 **** Fit      -0.002726
 **** Fit      -0.003895
 **** Fit      -0.005136
 **** Fit      -0.006378
 **** Fit      -0.007588
 **** Fit      -0.008770
 **** Fit      -0.013085
 **** Fit      -0.014326
 **** Fit      -0.015698
 **** Fit      -0.017328
 **** Fit      -0.019364
 **** Fit      -0.001711
 **** Fit      -0.002711
 **** Fit      -0.004166
 **** Fit      -0.005839
 **** Fit      -0.007533
 **** Fit      -0.009124
 **** Fit      -0.010562
 **** Fit      -0.011861
 **** Fit      -0.017697
 **** Fit      -0.018822
 **** Fit      -0.020072
 **** Fit      -0.021640
 **** Fit      -0.023720
 **** Fit      -0.002815
 **** Fit      -0.004111
 **** Fit      -0.006263
 **** Fit      -0.008766
 **** Fit      -0.011212
 **** Fit      -0.013355
 **** Fit      -0.015108
 **** Fit      -0.016514
 **** Fit      -0.026101
 **** Fit      -0.027338
 **** Fit      -0.029208
 **** Fit      -0.008209
 **** Fit      -0.007488
 **** Fit      -0.009276
 **** Fit      -0.010325
 **** Fit      -0.009212
 **** Fit      -0.007266
 **** Fit      -0.006566
 **** Fit      -0.007032
 **** Fit      -0.008639
 **** Fit      -0.010538
 **** Fit      -0.012291
 **** Fit      -0.013128
 **** Fit      -0.012464
 **** Fit      -0.010549
 **** Fit      -0.005862
 **** Fit      -0.006834
 **** Fit      -0.008277
 **** Fit      -0.010027
 **** Fit      -0.012063
 **** Fit      -0.014192
 **** Fit      -0.015992
 **** Fit      -0.016901
 **** Fit      -0.016499
 **** Fit      -0.014809
 **** Fit      -0.012337
 **** Fit      -0.006897
 **** Fit      -0.008292
 **** Fit      -0.009958
 **** Fit      -0.011972
 **** Fit      -0.014342
 **** Fit      -0.016939
 **** Fit      -0.019442
 **** Fit      -0.021353
 **** Fit      -0.022141
 **** Fit      -0.021479
 **** Fit      -0.019428
 **** Fit      -0.016464
 **** Fit      -0.007228
 **** Fit      -0.008640
 **** Fit      -0.010295
 **** Fit      -0.012312
 **** Fit      -0.014785
 **** Fit      -0.017737
 **** Fit      -0.021052
 **** Fit      -0.024412
 **** Fit      -0.027286
 **** Fit      -0.029041
 **** Fit      -0.029194
 **** Fit      -0.027618
 **** Fit      -0.024570
 **** Fit      -0.009270
 **** Fit      -0.010909
 **** Fit      -0.012892
 **** Fit      -0.015356
 **** Fit      -0.018415
 **** Fit      -0.022116
 **** Fit      -0.026371
 **** Fit      -0.031623
 **** Fit      -0.010300
 **** Fit      -0.012060
 **** Fit      -0.014187
 **** Fit      -0.016874
 **** Fit      -0.020310
 **** Fit      -0.024658
 **** Fit      -0.029992
 **** Fit      -0.013546
 **** Fit      -0.015803
 **** Fit      -0.018673
 **** Fit      -0.022415
 **** Fit      -0.027310
 **** Fit      -0.018016
 **** Fit      -0.021197
 **** Fit      -0.025430
 **** Fit      -0.025058
 **** Fit      -0.002633
 **** Fit      -0.004218
 **** Fit      -0.002620
 **** Fit      -0.001195
 **** Fit      -0.001395
 **** Fit      -0.004828
 **** Fit      -0.002603
 **** Fit      -0.000598
 **** Fit       0.000346
 **** Fit       0.000239
 **** Fit      -0.000446
 **** Fit      -0.001408
 **** Fit      -0.005347
 **** Fit      -0.002672
 **** Fit      -0.000136
 **** Fit       0.001540
 **** Fit       0.002030
 **** Fit       0.001708
 **** Fit       0.001043
 **** Fit       0.000251
 **** Fit      -0.000601
 **** Fit      -0.007864
 **** Fit      -0.004695
 **** Fit      -0.001297
 **** Fit       0.003439
 **** Fit       0.002557
 **** Fit       0.001688
 **** Fit       0.000860
 **** Fit       0.000050
 **** Fit      -0.010049
 **** Fit      -0.005978
 **** Fit       0.003265
 **** Fit       0.002256
 **** Fit       0.001400
 **** Fit       0.000603
 **** Fit      -0.013045
 **** Fit       0.002542
 **** Fit       0.001722
 **** Fit       0.000970
 **** Fit       0.002891
 **** Fit       0.002086
 **** Fit       0.001383
 **** Fit       0.000677
 **** Fit       0.002047
 **** Fit       0.001523
 **** Fit       0.000932
 **** Fit       0.001268
 **** Fit       0.000977
 **** Fit       0.000298
 **** Fit       0.000374
 **** Fit       0.044604
 **** Fit       0.047591
 **** Fit       0.050832
 **** Fit       0.010786
 **** Fit       0.040329
 **** Fit       0.042933
 **** Fit       0.046048
 **** Fit       0.038207
 **** Fit       0.040437
 **** Fit       0.043488
 **** Fit       0.037601
 **** Fit       0.040540
 **** Fit       0.025614
 **** Fit       0.018328
 **** Fit       0.057097
 **** Fit       0.034177
 **** Fit       0.028186
 **** Fit       0.020955
 **** Fit       0.011985
 **** Fit       0.053745
 **** Fit       0.054741
 **** Fit       0.055773
 **** Fit       0.044934
 **** Fit       0.039995
 **** Fit       0.034540
 **** Fit       0.028301
 **** Fit       0.021052
 **** Fit       0.013236
 **** Fit       0.050286
 **** Fit       0.051765
 **** Fit       0.052976
 **** Fit       0.053935
 **** Fit       0.054418
 **** Fit       0.047754
 **** Fit       0.044033
 **** Fit       0.039451
 **** Fit       0.034156
 **** Fit       0.028243
 **** Fit       0.022229
 **** Fit       0.017403
 **** Fit       0.015432
 **** Fit       0.017153
 **** Fit       0.046353
 **** Fit       0.048362
 **** Fit       0.049960
 **** Fit       0.051144
 **** Fit       0.051797
 **** Fit       0.051634
 **** Fit       0.050335
 **** Fit       0.046067
 **** Fit       0.042523
 **** Fit       0.038004
 **** Fit       0.032938
 **** Fit       0.028130
 **** Fit       0.024954
 **** Fit       0.024666
 **** Fit       0.027258
 **** Fit       0.031351
 **** Fit       0.041237
 **** Fit       0.043791
 **** Fit       0.046042
 **** Fit       0.047810
 **** Fit       0.048946
 **** Fit       0.049223
 **** Fit       0.048330
 **** Fit       0.044170
 **** Fit       0.040451
 **** Fit       0.035899
 **** Fit       0.032137
 **** Fit       0.031062
 **** Fit       0.033044
 **** Fit       0.036454
 **** Fit       0.039810
 **** Fit       0.042752
 **** Fit       0.045069
 **** Fit       0.046371
 **** Fit       0.046193
 **** Fit       0.042147
 **** Fit       0.038246
 **** Fit       0.036057
 **** Fit       0.038139
 **** Fit       0.041559
 **** Fit       0.043466
 **** Fit       0.040094
 **** Fit       0.031142
 **** Fit       0.035831
 **** Fit       0.037970
 **** Fit       0.038304
 **** Fit       0.040208
 **** Fit       0.042973
 **** Fit       0.040953
 **** Fit       0.043161
 **** Fit       0.046132
 **** Fit       0.045270
 **** Fit       0.048220
 **** Fit       0.052081
 **** Fit       0.045816
 **** Fit       0.048457
 **** Fit       0.052034
 **** Fit       0.056655
 **** Fit       0.048172
 **** Fit       0.051389
 **** Fit       0.055674
 -----------------------------------------------------------------
 Leave Link  602 at Sat Sep 14 23:36:52 2019, MaxMem=  1342177280 cpu:             106.4 elap:               2.3

 Test job not archived.
 1\1\GINC-C491-014\SP\RB3LYP\SVP\C54H83Ca1N15O23\PENGZHI\14-Sep-2019\0\
 \#b3lyp/svp scf=(tight,noincore) Test #IOP(5/87=12) Density=Current Po
 p=(MK,readradii) iop(6/33=2) iop(6/42=6)\\CaMKII_loop3_103.0\\0,1\C,0,
 81.66,64.26,33.7\C,0,81.31,64.18,35.18\O,0,81.92,63.39,35.9\H,0,82.698
 ,63.961,33.556\H,0,81.009,63.593,33.135\H,0,81.525,65.283,33.349\N,0,8
 0.25,64.87,35.6\C,0,79.6,64.69,36.89\C,0,78.57,63.58,36.83\O,0,77.85,6
 3.55,35.83\C,0,78.91,65.96,37.37\C,0,78.48,65.8,38.82\O,0,77.36,65.34,
 39.14\O,0,79.33,66.01,39.72\H,0,79.93,65.52,34.89\H,0,80.39,64.44,37.6
 \H,0,78.06,66.12,36.71\H,0,79.55,66.84,37.32\N,0,78.54,62.65,37.79\C,0
 ,77.69,61.49,37.84\C,0,76.69,61.36,38.99\O,0,75.53,61.01,38.78\C,0,78.
 56,60.24,37.79\C,0,77.94,58.84,37.89\C,0,78.92,57.7,37.63\C,0,80.04,57
 .71,38.66\N,0,80.37,56.39,39.22\H,0,79.36,62.67,38.4\H,0,77.05,61.51,3
 6.96\H,0,79.21,60.37,38.66\H,0,79.07,60.2,36.83\H,0,77.12,58.73,37.18\
 H,0,77.5,58.61,38.86\H,0,79.32,57.94,36.64\H,0,78.42,56.73,37.62\H,0,7
 9.7,58.37,39.46\H,0,81.,58.01,38.23\H,0,79.58,55.9,39.63\H,0,80.83,55.
 76,38.58\H,0,81.06,56.55,39.93\N,0,77.08,61.76,40.21\C,0,76.25,61.79,4
 1.39\C,0,75.2,62.89,41.36\O,0,74.23,62.72,42.1\C,0,77.01,61.94,42.71\C
 ,0,78.1,63.,42.64\O,0,77.9,64.11,42.1\O,0,79.25,62.68,43.02\H,0,78.06,
 61.96,40.36\H,0,75.65,60.88,41.39\H,0,77.55,61.01,42.87\H,0,76.36,62.1
 7,43.55\N,0,75.42,64.02,40.69\C,0,74.52,65.16,40.6\C,0,75.07,66.48,41.
 12\O,0,74.38,67.5,41.06\H,0,76.24,64.15,40.12\H,0,73.6,65.02,41.17\H,0
 ,74.29,65.3,39.54\N,0,76.2,66.43,41.83\C,0,76.56,67.52,42.7\C,0,77.24,
 68.65,41.94\O,0,77.28,69.8,42.38\C,0,77.25,67.01,43.97\C,0,78.74,66.69
 ,43.94\N,0,79.28,65.81,44.79\O,0,79.39,66.84,42.91\H,0,76.71,65.55,41.
 84\H,0,75.6,67.93,43.02\H,0,76.68,66.13,44.27\H,0,77.14,67.72,44.79\H,
 0,78.69,65.54,45.57\H,0,80.26,65.63,44.7\N,0,77.72,68.34,40.74\C,0,78.
 13,69.23,39.67\C,0,79.61,69.55,39.76\O,0,80.02,70.67,39.46\H,0,77.76,6
 7.34,40.62\H,0,77.42,70.06,39.6\H,0,77.97,68.7,38.73\N,0,80.43,68.55,4
 0.09\C,0,81.86,68.72,40.24\C,0,82.57,67.38,40.32\O,0,82.1,66.4,40.9\C,
 0,82.31,69.56,41.44\C,0,81.62,69.39,42.77\C,0,80.43,70.04,43.09\C,0,82
 .2,68.49,43.68\C,0,79.93,69.94,44.4\C,0,81.72,68.43,45.\C,0,80.52,69.0
 8,45.35\O,0,79.82,68.93,46.51\H,0,80.01,67.63,40.17\H,0,82.24,69.31,39
 .41\H,0,82.28,70.6,41.14\H,0,83.37,69.34,41.56\H,0,80.04,70.66,42.3\H,
 0,83.11,67.97,43.43\H,0,79.,70.41,44.68\H,0,82.26,67.77,45.66\H,0,80.3
 1,68.54,47.24\N,0,83.77,67.31,39.74\C,0,84.44,66.08,39.35\C,0,85.3,65.
 62,40.51\O,0,86.14,66.31,41.07\C,0,85.19,66.42,38.06\C,0,84.29,66.78,3
 6.88\C,0,85.88,65.12,37.65\C,0,84.95,67.34,35.63\H,0,84.32,68.15,39.69
 \H,0,83.65,65.34,39.2\H,0,85.93,67.21,38.19\H,0,83.61,67.57,37.19\H,0,
 83.64,65.94,36.62\H,0,86.45,65.18,36.73\H,0,86.51,64.76,38.47\H,0,85.1
 6,64.34,37.41\H,0,85.58,66.57,35.17\H,0,84.15,67.75,35.01\H,0,85.56,68
 .22,35.85\N,0,85.2,64.3,40.73\C,0,86.04,63.45,41.55\C,0,86.95,62.59,40
 .7\O,0,86.71,62.39,39.51\C,0,85.21,62.7,42.59\O,0,84.35,61.84,41.88\H,
 0,84.41,63.86,40.29\H,0,86.73,64.11,42.09\H,0,84.65,63.38,43.22\H,0,85
 .86,62.07,43.2\H,0,83.55,62.37,41.78\N,0,88.06,62.07,41.24\C,0,88.9,61
 .1,40.58\C,0,88.17,59.88,40.03\O,0,88.5,59.4,38.95\C,0,90.12,60.77,41.
 44\H,0,88.23,62.26,42.22\H,0,89.36,61.61,39.74\H,0,90.82,60.24,40.8\H,
 0,90.62,61.67,41.78\H,0,89.83,60.17,42.3\N,0,87.27,59.32,40.84\C,0,86.
 48,58.17,40.45\C,0,85.43,58.54,39.41\O,0,85.13,57.75,38.52\C,0,85.69,5
 7.63,41.64\H,0,87.17,59.67,41.79\H,0,87.16,57.38,40.15\H,0,84.75,58.18
 ,41.7\H,0,85.47,56.56,41.56\H,0,86.23,57.76,42.58\N,0,84.92,59.77,39.3
 4\C,0,84.06,60.23,38.27\C,0,84.82,60.41,36.96\O,0,84.3,60.01,35.92\C,0
 ,83.36,61.53,38.66\C,0,82.12,61.24,39.5\C,0,81.62,62.52,40.15\O,0,82.2
 3,63.,41.12\O,0,80.58,63.09,39.74\H,0,84.99,60.41,40.12\H,0,83.37,59.4
 4,37.97\H,0,83.12,62.13,37.79\H,0,84.1,62.14,39.19\H,0,82.3,60.59,40.3
 5\H,0,81.31,60.78,38.93\N,0,86.,61.03,36.97\C,0,86.75,61.34,35.77\H,0,
 87.743,60.897,35.838\H,0,86.231,60.935,34.902\H,0,86.841,62.421,35.667
 \H,0,86.31,61.4,37.85\Ca,0,80.33,64.73,41.65\O,0,81.85,64.84,43.77\H,0
 ,82.27,64.08,44.16\H,0,82.51,65.53,43.8\\Version=ES64L-G16RevA.03\Stat
 e=1-A\HF=-5333.6373386\RMSD=2.922e-09\Dipole=8.2457122,-11.3801001,3.7
 472909\Quadrupole=-90.2490594,72.9326129,17.3164465,54.2214036,42.4135
 839,-26.8428337\PG=C01 [X(C54H83Ca1N15O23)]\\@


 AN AIRPLANE IS A COLLECTION OF SPARE PARTS
 FLYING IN CLOSE FORMATION.
 Job cpu time:       0 days  9 hours 56 minutes  4.5 seconds.
 Elapsed time:       0 days  0 hours 12 minutes 33.3 seconds.
 File lengths (MBytes):  RWF=   1517 Int=      0 D2E=      0 Chk=    171 Scr=      1
 Normal termination of Gaussian 16 at Sat Sep 14 23:36:53 2019.
