 Entering Gaussian System, Link 0=g16
 Initial command:
 /home1/apps/gaussian/16rA.03/g16/l1.exe "/scratch/01990/pengzhi/4328933/Gau-42721.inp" -scrdir="/scratch/01990/pengzhi/4328933/"
 Entering Link 1 = /home1/apps/gaussian/16rA.03/g16/l1.exe PID=     42722.
  
 Copyright (c) 1988,1990,1992,1993,1995,1998,2003,2009,2016,
            Gaussian, Inc.  All Rights Reserved.
  
 This is part of the Gaussian(R) 16 program.  It is based on
 the Gaussian(R) 09 system (copyright 2009, Gaussian, Inc.),
 the Gaussian(R) 03 system (copyright 2003, Gaussian, Inc.),
 the Gaussian(R) 98 system (copyright 1998, Gaussian, Inc.),
 the Gaussian(R) 94 system (copyright 1995, Gaussian, Inc.),
 the Gaussian 92(TM) system (copyright 1992, Gaussian, Inc.),
 the Gaussian 90(TM) system (copyright 1990, Gaussian, Inc.),
 the Gaussian 88(TM) system (copyright 1988, Gaussian, Inc.),
 the Gaussian 86(TM) system (copyright 1986, Carnegie Mellon
 University), and the Gaussian 82(TM) system (copyright 1983,
 Carnegie Mellon University). Gaussian is a federally registered
 trademark of Gaussian, Inc.
  
 This software contains proprietary and confidential information,
 including trade secrets, belonging to Gaussian, Inc.
  
 This software is provided under written license and may be
 used, copied, transmitted, or stored only in accord with that
 written license.
  
 The following legend is applicable only to US Government
 contracts under FAR:
  
                    RESTRICTED RIGHTS LEGEND
  
 Use, reproduction and disclosure by the US Government is
 subject to restrictions as set forth in subparagraphs (a)
 and (c) of the Commercial Computer Software - Restricted
 Rights clause in FAR 52.227-19.
  
 Gaussian, Inc.
 340 Quinnipiac St., Bldg. 40, Wallingford CT 06492
  
  
 ---------------------------------------------------------------
 Warning -- This program may not be used in any manner that
 competes with the business of Gaussian, Inc. or will provide
 assistance to any competitor of Gaussian, Inc.  The licensee
 of this program is prohibited from giving any competitor of
 Gaussian, Inc. access to this program.  By using this program,
 the user acknowledges that Gaussian, Inc. is engaged in the
 business of creating and licensing software in the field of
 computational chemistry and represents and warrants to the
 licensee that it is not a competitor of Gaussian, Inc. and that
 it will not use this program in any manner prohibited above.
 ---------------------------------------------------------------
  

 Cite this work as:
 Gaussian 16, Revision A.03,
 M. J. Frisch, G. W. Trucks, H. B. Schlegel, G. E. Scuseria, 
 M. A. Robb, J. R. Cheeseman, G. Scalmani, V. Barone, 
 G. A. Petersson, H. Nakatsuji, X. Li, M. Caricato, A. V. Marenich, 
 J. Bloino, B. G. Janesko, R. Gomperts, B. Mennucci, H. P. Hratchian, 
 J. V. Ortiz, A. F. Izmaylov, J. L. Sonnenberg, D. Williams-Young, 
 F. Ding, F. Lipparini, F. Egidi, J. Goings, B. Peng, A. Petrone, 
 T. Henderson, D. Ranasinghe, V. G. Zakrzewski, J. Gao, N. Rega, 
 G. Zheng, W. Liang, M. Hada, M. Ehara, K. Toyota, R. Fukuda, 
 J. Hasegawa, M. Ishida, T. Nakajima, Y. Honda, O. Kitao, H. Nakai, 
 T. Vreven, K. Throssell, J. A. Montgomery, Jr., J. E. Peralta, 
 F. Ogliaro, M. J. Bearpark, J. J. Heyd, E. N. Brothers, K. N. Kudin, 
 V. N. Staroverov, T. A. Keith, R. Kobayashi, J. Normand, 
 K. Raghavachari, A. P. Rendell, J. C. Burant, S. S. Iyengar, 
 J. Tomasi, M. Cossi, J. M. Millam, M. Klene, C. Adamo, R. Cammi, 
 J. W. Ochterski, R. L. Martin, K. Morokuma, O. Farkas, 
 J. B. Foresman, and D. J. Fox, Gaussian, Inc., Wallingford CT, 2016.
 
 ******************************************
 Gaussian 16:  ES64L-G16RevA.03 25-Dec-2016
                14-Sep-2019 
 ******************************************
 %chk=CaMKII_loop3_113.0.chk
 %nprocshared=48
 Will use up to   48 processors via shared memory.
 %mem=10GB
 %nosave
 ----------------------------------------------------------------------
 #b3lyp/svp scf=(tight,noincore) Test #IOP(5/87=12) Density=Current Pop
 =(MK,readradii) iop(6/33=2) iop(6/42=6)
 ----------------------------------------------------------------------
 1/30=1,38=1,172=1/1;
 2/12=2,17=6,18=5,40=1/2;
 3/5=18,7=101,11=2,25=1,30=1,74=-5/1,2,3;
 4//1;
 5/5=4,32=2,38=5,87=12/2;
 6/7=2,8=2,9=2,10=2,15=8,20=101,22=-1,28=1,33=2,42=6/1,2;
 99/5=1,9=1/99;
 ------------------
 CaMKII_loop3_113.0
 ------------------
 Symbolic Z-matrix:
 Charge =  0 Multiplicity = 1
 C                     20.99     50.8      19.61 
 C                     22.17     50.77     18.65 
 O                     22.2      51.56     17.71 
 H                     20.116    50.365    19.125 
 H                     21.233    50.225    20.503 
 H                     20.774    51.831    19.889 
 N                     23.07     49.79     18.78 
 C                     24.1      49.61     17.77 
 C                     23.59     48.74     16.63 
 O                     23.55     47.52     16.78 
 C                     25.35     48.99     18.38 
 C                     26.44     48.63     17.38 
 O                     26.25     48.83     16.16 
 O                     27.58     48.32     17.76 
 H                     23.01     49.11     19.52 
 H                     24.49     50.55     17.38 
 H                     25.       48.07     18.85 
 H                     25.72     49.7      19.12 
 N                     23.49     49.47     15.52 
 C                     23.02     48.97     14.24 
 C                     23.77     47.77     13.67 
 O                     23.27     47.13     12.75 
 C                     23.       50.13     13.25 
 C                     22.3      50.01     11.9 
 C                     22.34     51.36     11.2 
 C                     21.48     51.31     9.94 
 N                     21.88     50.35     8.91 
 H                     23.75     50.44     15.6 
 H                     21.98     48.69     14.36 
 H                     24.04     50.43     13.15 
 H                     22.51     50.93     13.82 
 H                     21.36     49.48     12.02 
 H                     22.96     49.26     11.45 
 H                     23.37     51.66     10.97 
 H                     21.8      52.05     11.85 
 H                     21.31     52.3      9.53 
 H                     20.52     51.01     10.36 
 H                     21.67     49.4      9.18 
 H                     21.19     50.5      8.19 
 H                     22.83     50.38     8.56 
 N                     25.02     47.52     14.07 
 C                     25.84     46.46     13.52 
 C                     26.57     45.53     14.47 
 O                     27.05     44.5      14.01 
 C                     26.78     47.09     12.49 
 C                     27.69     48.17     13.06 
 O                     28.4      48.01     14.07 
 O                     27.51     49.35     12.68 
 H                     25.42     47.91     14.91 
 H                     25.23     45.77     12.93 
 H                     26.13     47.57     11.75 
 H                     27.32     46.29     11.99 
 N                     26.61     45.91     15.75 
 C                     27.21     45.03     16.73 
 C                     28.73     44.93     16.8 
 O                     29.24     43.89     17.21 
 H                     26.3      46.86     15.92 
 H                     26.9      43.99     16.62 
 H                     26.86     45.33     17.72 
 N                     29.45     45.98     16.42 
 C                     30.9      46.13     16.4 
 C                     31.51     46.5      17.74 
 O                     32.56     45.95     18.06 
 C                     31.35     47.12     15.33 
 C                     31.38     48.6      15.68 
 N                     32.57     49.2      15.56 
 O                     30.38     49.23     16.03 
 H                     28.9      46.72     16.01 
 H                     31.27     45.14     16.15 
 H                     30.75     46.95     14.43 
 H                     32.37     46.81     15.13 
 H                     33.39     48.7      15.24 
 H                     32.61     50.12     15.96 
 N                     30.78     47.33     18.49 
 C                     31.22     47.94     19.73 
 C                     30.7      49.34     20.03 
 O                     30.94     49.82     21.13 
 H                     29.87     47.57     18.14 
 H                     32.29     48.12     19.76 
 H                     31.03     47.3      20.59 
 N                     30.09     50.05     19.08 
 C                     29.86     51.48     19.19 
 C                     28.69     51.95     18.33 
 O                     28.5      51.45     17.22 
 C                     31.11     52.34     19.14 
 C                     32.16     52.06     18.08 
 C                     33.4      51.59     18.52 
 C                     32.       52.56     16.78 
 C                     34.46     51.5      17.61 
 C                     33.01     52.39     15.83 
 C                     34.24     51.85     16.26 
 O                     35.18     51.71     15.28 
 H                     29.66     49.57     18.3 
 H                     29.56     51.76     20.2 
 H                     31.57     52.32     20.12 
 H                     30.75     53.35     18.94 
 H                     33.48     51.21     19.53 
 H                     31.05     52.96     16.47 
 H                     35.41     51.19     18.02 
 H                     32.91     52.55     14.77 
 H                     35.78     51.       15.53 
 N                     28.07     53.04     18.79 
 C                     26.91     53.73     18.28 
 C                     27.33     55.13     17.83 
 O                     28.09     55.83     18.49 
 C                     25.79     53.71     19.31 
 C                     25.57     52.53     20.26 
 C                     24.49     54.       18.56 
 C                     24.72     52.91     21.46 
 H                     28.55     53.48     19.55 
 H                     26.61     53.3      17.32 
 H                     25.87     54.55     19.99 
 H                     26.57     52.13     20.46 
 H                     25.04     51.69     19.8 
 H                     23.67     53.88     19.26 
 H                     24.49     55.05     18.28 
 H                     24.41     53.3      17.72 
 H                     24.5      52.04     22.09 
 H                     25.3      53.55     22.12 
 H                     23.79     53.43     21.27 
 N                     26.78     55.72     16.77 
 C                     27.03     57.09     16.36 
 C                     25.7      57.84     16.37 
 O                     24.63     57.32     16.68 
 C                     27.61     57.16     14.95 
 O                     26.67     56.49     14.13 
 H                     26.12     55.19     16.21 
 H                     27.77     57.66     16.92 
 H                     28.55     56.63     14.8 
 H                     27.58     58.22     14.73 
 H                     27.12     56.21     13.33 
 N                     25.69     59.07     15.85 
 C                     24.52     59.85     15.5 
 C                     23.63     59.34     14.38 
 O                     22.42     59.29     14.64 
 C                     24.96     61.28     15.23 
 H                     26.57     59.5      15.6 
 H                     23.85     59.89     16.36 
 H                     24.06     61.78     14.86 
 H                     25.26     61.62     16.22 
 H                     25.77     61.45     14.51 
 N                     24.16     58.85     13.26 
 C                     23.58     58.05     12.2 
 C                     22.86     56.82     12.73 
 O                     21.74     56.47     12.38 
 C                     24.68     57.72     11.19 
 H                     25.1      59.18     13.12 
 H                     22.77     58.62     11.73 
 H                     25.49     57.29     11.78 
 H                     24.41     57.06     10.37 
 H                     25.1      58.65     10.8 
 N                     23.5      56.08     13.64 
 C                     22.94     54.92     14.29 
 C                     21.85     55.22     15.31 
 O                     20.82     54.56     15.42 
 C                     24.07     54.12     14.92 
 C                     24.98     53.52     13.85 
 C                     25.91     52.39     14.26 
 O                     25.79     51.71     15.31 
 O                     26.9      52.18     13.52 
 H                     24.51     56.19     13.71 
 H                     22.42     54.32     13.55 
 H                     23.55     53.32     15.44 
 H                     24.59     54.77     15.63 
 H                     25.58     54.31     13.4 
 H                     24.38     53.08     13.06 
 N                     21.97     56.39     15.93 
 C                     21.05     56.84     16.95 
 H                     20.098    56.323    16.833 
 H                     21.463    56.622    17.935 
 H                     20.894    57.914    16.851 
 H                     22.75     57.       15.73 
 Ca                    28.06     50.31     14.96 
 O                     30.42     51.45     14.08 
 H                     30.99     51.7      13.36 
 H                     30.41     52.22     14.65 
 
 Stoichiometry    C54H83CaN15O23
 Framework group  C1[X(C54H83CaN15O23)]
 Deg. of freedom   522
 Full point group                 C1      NOp   1
 Largest Abelian subgroup         C1      NOp   1
 Largest concise Abelian subgroup C1      NOp   1
                         Standard orientation:                         
 ---------------------------------------------------------------------
 Center     Atomic      Atomic             Coordinates (Angstroms)
 Number     Number       Type             X           Y           Z
 ---------------------------------------------------------------------
      1          6           0        1.902592    2.843935    5.885371
      2          6           0        1.378349    2.444085    4.514171
      3          8           0        2.167729    2.323269    3.580960
      4          1           0        2.166178    3.901673    5.879208
      5          1           0        1.132223    2.666497    6.635151
      6          1           0        2.785663    2.251813    6.124188
      7          7           0        0.055318    2.372502    4.335941
      8          6           0       -0.489545    2.186561    3.001044
      9          6           0       -0.652287    3.524920    2.294709
     10          8           0       -1.618977    4.233428    2.570440
     11          6           0       -1.828059    1.462882    3.061625
     12          6           0       -2.551669    1.341352    1.727714
     13          8           0       -2.043194    1.842804    0.700825
     14          8           0       -3.536591    0.597323    1.599460
     15          1           0       -0.590583    2.527789    5.092444
     16          1           0        0.099398    1.506207    2.386174
     17          1           0       -2.440364    2.071402    3.728398
     18          1           0       -1.630805    0.479185    3.488275
     19          7           0        0.199252    3.598140    1.272691
     20          6           0        0.331994    4.740793    0.386111
     21          6           0       -0.938908    5.188478   -0.329281
     22          8           0       -0.969682    6.291207   -0.866908
     23          6           0        1.451740    4.449375   -0.607540
     24          6           0        2.031829    5.546414   -1.494616
     25          6           0        3.209065    4.981225   -2.274857
     26          6           0        3.920051    6.108631   -3.018601
     27          7           0        3.133102    6.835496   -4.016038
     28          1           0        0.795318    2.798344    1.131513
     29          1           0        0.695599    5.573098    0.977261
     30          1           0        1.099948    3.596822   -1.182863
     31          1           0        2.255790    4.067269    0.034721
     32          1           0        2.140170    6.462409   -0.921802
     33          1           0        1.144211    5.733451   -2.109231
     34          1           0        2.888688    4.188064   -2.961919
     35          1           0        3.939985    4.667822   -1.528040
     36          1           0        4.879500    5.788574   -3.411184
     37          1           0        4.162152    6.777149   -2.192483
     38          1           0        2.454718    7.447464   -3.586164
     39          1           0        3.795999    7.506819   -4.372257
     40          1           0        2.670492    6.309684   -4.747757
     41          7           0       -1.944796    4.324723   -0.493953
     42          6           0       -3.150305    4.631369   -1.236393
     43          6           0       -4.495944    4.314008   -0.612824
     44          8           0       -5.496877    4.798325   -1.129031
     45          6           0       -3.000903    4.022483   -2.632221
     46          6           0       -2.794410    2.513589   -2.631580
     47          8           0       -3.533914    1.717434   -2.024067
     48          8           0       -1.685425    2.072705   -3.012333
     49          1           0       -2.036691    3.474675    0.041466
     50          1           0       -3.221089    5.706237   -1.425992
     51          1           0       -2.097620    4.473905   -3.057425
     52          1           0       -3.847937    4.342126   -3.233853
     53          7           0       -4.471920    3.538113    0.474288
     54          6           0       -5.708135    3.267042    1.176493
     55          6           0       -6.688766    2.261024    0.583542
     56          8           0       -7.886242    2.379184    0.832318
     57          1           0       -3.576257    3.103537    0.665158
     58          1           0       -6.324198    4.155692    1.319900
     59          1           0       -5.462176    2.923501    2.183511
     60          7           0       -6.208000    1.284273   -0.178115
     61          6           0       -6.933191    0.210457   -0.846258
     62          6           0       -7.261891   -0.973061    0.045842
     63          8           0       -8.371386   -1.485408   -0.072152
     64          6           0       -6.206174   -0.266370   -2.099886
     65          6           0       -5.127290   -1.328289   -1.951103
     66          7           0       -5.326590   -2.457657   -2.640528
     67          8           0       -4.115821   -1.169629   -1.264693
     68          1           0       -5.223354    1.375859   -0.378825
     69          1           0       -7.879668    0.660705   -1.130789
     70          1           0       -5.812403    0.610812   -2.623714
     71          1           0       -7.006887   -0.693916   -2.693656
     72          1           0       -6.136433   -2.584510   -3.234551
     73          1           0       -4.704295   -3.206114   -2.394439
     74          7           0       -6.329400   -1.282206    0.950932
     75          6           0       -6.350137   -2.455075    1.803720
     76          6           0       -5.003042   -3.072354    2.156853
     77          8           0       -4.981734   -3.972927    2.985414
     78          1           0       -5.539881   -0.664887    1.012386
     79          1           0       -6.839512   -3.307718    1.343598
     80          1           0       -6.912192   -2.283806    2.720269
     81          7           0       -3.900733   -2.703210    1.503134
     82          6           0       -2.662088   -3.460053    1.556498
     83          6           0       -1.439241   -2.598750    1.252851
     84          8           0       -1.503543   -1.716135    0.395497
     85          6           0       -2.705508   -4.816809    0.876847
     86          6           0       -3.330956   -4.935396   -0.501287
     87          6           0       -4.512085   -5.674719   -0.603448
     88          6           0       -2.588072   -4.604512   -1.643320
     89          6           0       -5.023288   -5.976312   -1.871326
     90          6           0       -3.125179   -4.807128   -2.916883
     91          6           0       -4.353611   -5.493012   -3.016469
     92          8           0       -4.820296   -5.653913   -4.289228
     93          1           0       -3.873973   -1.802199    1.043610
     94          1           0       -2.465026   -3.833680    2.561520
     95          1           0       -3.182810   -5.515153    1.552791
     96          1           0       -1.660606   -5.104116    0.753012
     97          1           0       -5.056698   -5.906662    0.302365
     98          1           0       -1.657075   -4.073324   -1.544912
     99          1           0       -5.903096   -6.602655   -1.889575
    100          1           0       -2.732259   -4.407534   -3.836197
    101          1           0       -5.779062   -5.733214   -4.256385
    102          7           0       -0.309266   -3.023898    1.824259
    103          6           0        1.012104   -2.444704    1.806458
    104          6           0        1.957497   -3.401001    1.078016
    105          8           0        1.934740   -4.612737    1.263432
    106          6           0        1.448152   -2.083747    3.218999
    107          6           0        0.460758   -1.600019    4.284063
    108          6           0        2.583598   -1.068647    3.088867
    109          6           0        1.020541   -1.735488    5.689478
    110          1           0       -0.392800   -3.926663    2.248095
    111          1           0        1.037681   -1.590142    1.124132
    112          1           0        1.929008   -2.924094    3.705819
    113          1           0       -0.477815   -2.120896    4.065504
    114          1           0        0.199556   -0.541161    4.190822
    115          1           0        2.830539   -0.718437    4.085448
    116          1           0        3.465385   -1.593897    2.731845
    117          1           0        2.244443   -0.248739    2.444876
    118          1           0        0.340170   -1.310880    6.437144
    119          1           0        1.055716   -2.787757    5.959832
    120          1           0        2.010727   -1.339447    5.874094
    121          7           0        2.951906   -2.955412    0.311986
    122          6           0        3.965140   -3.793489   -0.303223
    123          6           0        5.330789   -3.344865    0.211790
    124          8           0        5.485586   -2.422947    1.010229
    125          6           0        3.958729   -3.662267   -1.823795
    126          8           0        4.141753   -2.281102   -2.076354
    127          1           0        3.030409   -1.955799    0.154788
    128          1           0        3.871386   -4.872083   -0.185133
    129          1           0        3.021710   -3.921597   -2.315468
    130          1           0        4.854115   -4.197358   -2.115104
    131          1           0        3.815737   -2.094863   -2.959489
    132          7           0        6.407351   -3.875700   -0.373555
    133          6           0        7.773950   -3.409087   -0.253226
    134          6           0        8.112748   -2.038082   -0.811940
    135          8           0        8.729232   -1.286080   -0.044711
    136          6           0        8.695869   -4.470064   -0.832702
    137          1           0        6.280907   -4.637336   -1.026029
    138          1           0        8.027747   -3.323338    0.804287
    139          1           0        9.688188   -4.009585   -0.819967
    140          1           0        8.593530   -5.282031   -0.114414
    141          1           0        8.498072   -4.835759   -1.847859
    142          7           0        7.637595   -1.649436   -1.994557
    143          6           0        7.555130   -0.338157   -2.605907
    144          6           0        6.903136    0.687398   -1.691938
    145          8           0        7.350826    1.806948   -1.478439
    146          6           0        6.851265   -0.480718   -3.956185
    147          1           0        7.375720   -2.435734   -2.564870
    148          1           0        8.569647    0.058697   -2.729037
    149          1           0        5.923369   -1.011216   -3.740125
    150          1           0        6.650685    0.436597   -4.503177
    151          1           0        7.414805   -1.175489   -4.583174
    152          7           0        5.767547    0.332171   -1.084031
    153          6           0        5.053574    1.157328   -0.140073
    154          6           0        5.726009    1.307255    1.217813
    155          8           0        5.786549    2.367831    1.834346
    156          6           0        3.639520    0.617002    0.009254
    157          6           0        2.845891    0.792688   -1.283916
    158          6           0        1.332151    0.678612   -1.209908
    159          8           0        0.660326    0.749560   -0.150230
    160          8           0        0.733927    0.429080   -2.283062
    161          1           0        5.250247   -0.453086   -1.475020
    162          1           0        5.030571    2.176626   -0.512234
    163          1           0        3.211190    1.248490    0.782918
    164          1           0        3.707791   -0.420569    0.349527
    165          1           0        3.205834    0.084320   -2.029071
    166          1           0        3.005442    1.789571   -1.681996
    167          7           0        6.455118    0.263179    1.599918
    168          6           0        7.146324    0.205748    2.868081
    169          1           0        7.318533    1.217856    3.233133
    170          1           0        6.539608   -0.342110    3.589236
    171          1           0        8.102552   -0.300689    2.738606
    172          1           0        6.518989   -0.559798    1.017570
    173         20           0       -1.699448    0.191388   -1.314408
    174          8           0       -2.007707   -1.758447   -3.250052
    175          1           0       -2.002286   -2.008809   -4.168251
    176          1           0       -1.507739   -2.450266   -2.814944
 ---------------------------------------------------------------------
 Rotational constants (GHZ):           0.0249065           0.0149180           0.0122940
 Standard basis: SVP (5D, 7F)
 There are  1809 symmetry adapted cartesian basis functions of A   symmetry.
 There are  1717 symmetry adapted basis functions of A   symmetry.
  1717 basis functions,  2922 primitive gaussians,  1809 cartesian basis functions
   358 alpha electrons      358 beta electrons
       nuclear repulsion energy     21882.6394114692 Hartrees.
 NAtoms=  176 NActive=  176 NUniq=  176 SFac= 1.00D+00 NAtFMM=   60 NAOKFM=T Big=T
 Integral buffers will be    131072 words long.
 Raffenetti 2 integral format.
 Two-electron integral symmetry is turned on.
 One-electron integrals computed using PRISM.
 NBasis=  1717 RedAO= T EigKep=  2.73D-04  NBF=  1717
 NBsUse=  1717 1.00D-06 EigRej= -1.00D+00 NBFU=  1717
 ExpMin= 1.98D-02 ExpMax= 3.51D+04 ExpMxC= 5.28D+03 IAcc=3 IRadAn=         5 AccDes= 0.00D+00
 Harris functional with IExCor=  402 and IRadAn=       5 diagonalized for initial guess.
 HarFok:  IExCor=  402 AccDes= 0.00D+00 IRadAn=         5 IDoV= 1 UseB2=F ITyADJ=14
 ICtDFT=  3500011 ScaDFX=  1.000000  1.000000  1.000000  1.000000
 FoFCou: FMM=F IPFlag=           0 FMFlag=      100000 FMFlg1=        2001
         NFxFlg=           0 DoJE=T BraDBF=F KetDBF=T FulRan=T
         wScrn=  0.000000 ICntrl=       500 IOpCl=  0 I1Cent=   200000004 NGrid=           0
         NMat0=    1 NMatS0=      1 NMatT0=    0 NMatD0=    1 NMtDS0=    0 NMtDT0=    0
 Petite list used in FoFCou.
 Requested convergence on RMS density matrix=1.00D-08 within 128 cycles.
 Requested convergence on MAX density matrix=1.00D-06.
 Requested convergence on             energy=1.00D-06.
 No special actions if energy rises.
 EnCoef did     3 forward-backward iterations
 SCF Done:  E(RB3LYP) =  -5333.55068449     A.U. after   18 cycles
            NFock= 18  Conv=0.33D-08     -V/T= 2.0081
 SCF density gives NOpUse=  1 NOpAll=  1.
 Hyperfine terms turned off by default for NAtoms > 100.

 **********************************************************************

            Population analysis using the SCF density.

 **********************************************************************

 Orbital symmetries:
 BldTbl:  Degeneracy threshold= 1.00D-02
       Occupied  (A) (A) (A) (A) (A) (A) (A) (A) (A) (A) (A) (A)
                 (A) (A) (A) (A) (A) (A) (A) (A) (A) (A) (A) (A)
                 (A) (A) (A) (A) (A) (A) (A) (A) (A) (A) (A) (A)
                 (A) (A) (A) (A) (A) (A) (A) (A) (A) (A) (A) (A)
                 (A) (A) (A) (A) (A) (A) (A) (A) (A) (A) (A) (A)
                 (A) (A) (A) (A) (A) (A) (A) (A) (A) (A) (A) (A)
                 (A) (A) (A) (A) (A) (A) (A) (A) (A) (A) (A) (A)
                 (A) (A) (A) (A) (A) (A) (A) (A) (A) (A) (A) (A)
                 (A) (A) (A) (A) (A) (A) (A) (A) (A) (A) (A) (A)
                 (A) (A) (A) (A) (A) (A) (A) (A) (A) (A) (A) (A)
                 (A) (A) (A) (A) (A) (A) (A) (A) (A) (A) (A) (A)
                 (A) (A) (A) (A) (A) (A) (A) (A) (A) (A) (A) (A)
                 (A) (A) (A) (A) (A) (A) (A) (A) (A) (A) (A) (A)
                 (A) (A) (A) (A) (A) (A) (A) (A) (A) (A) (A) (A)
                 (A) (A) (A) (A) (A) (A) (A) (A) (A) (A) (A) (A)
                 (A) (A) (A) (A) (A) (A) (A) (A) (A) (A) (A) (A)
                 (A) (A) (A) (A) (A) (A) (A) (A) (A) (A) (A) (A)
                 (A) (A) (A) (A) (A) (A) (A) (A) (A) (A) (A) (A)
                 (A) (A) (A) (A) (A) (A) (A) (A) (A) (A) (A) (A)
                 (A) (A) (A) (A) (A) (A) (A) (A) (A) (A) (A) (A)
                 (A) (A) (A) (A) (A) (A) (A) (A) (A) (A) (A) (A)
                 (A) (A) (A) (A) (A) (A) (A) (A) (A) (A) (A) (A)
                 (A) (A) (A) (A) (A) (A) (A) (A) (A) (A) (A) (A)
                 (A) (A) (A) (A) (A) (A) (A) (A) (A) (A) (A) (A)
                 (A) (A) (A) (A) (A) (A) (A) (A) (A) (A) (A) (A)
                 (A) (A) (A) (A) (A) (A) (A) (A) (A) (A) (A) (A)
                 (A) (A) (A) (A) (A) (A) (A) (A) (A) (A) (A) (A)
                 (A) (A) (A) (A) (A) (A) (A) (A) (A) (A) (A) (A)
                 (A) (A) (A) (A) (A) (A) (A) (A) (A) (A) (A) (A)
                 (A) (A) (A) (A) (A) (A) (A) (A) (A) (A)
       Virtual   (A) (A) (A) (A) (A) (A) (A) (A) (A) (A) (A) (A)
                 (A) (A) (A) (A) (A) (A) (A) (A) (A) (A) (A) (A)
                 (A) (A) (A) (A) (A) (A) (A) (A) (A) (A) (A) (A)
                 (A) (A) (A) (A) (A) (A) (A) (A) (A) (A) (A) (A)
                 (A) (A) (A) (A) (A) (A) (A) (A) (A) (A) (A) (A)
                 (A) (A) (A) (A) (A) (A) (A) (A) (A) (A) (A) (A)
                 (A) (A) (A) (A) (A) (A) (A) (A) (A) (A) (A) (A)
                 (A) (A) (A) (A) (A) (A) (A) (A) (A) (A) (A) (A)
                 (A) (A) (A) (A) (A) (A) (A) (A) (A) (A) (A) (A)
                 (A) (A) (A) (A) (A) (A) (A) (A) (A) (A) (A) (A)
                 (A) (A) (A) (A) (A) (A) (A) (A) (A) (A) (A) (A)
                 (A) (A) (A) (A) (A) (A) (A) (A) (A) (A) (A) (A)
                 (A) (A) (A) (A) (A) (A) (A) (A) (A) (A) (A) (A)
                 (A) (A) (A) (A) (A) (A) (A) (A) (A) (A) (A) (A)
                 (A) (A) (A) (A) (A) (A) (A) (A) (A) (A) (A) (A)
                 (A) (A) (A) (A) (A) (A) (A) (A) (A) (A) (A) (A)
                 (A) (A) (A) (A) (A) (A) (A) (A) (A) (A) (A) (A)
                 (A) (A) (A) (A) (A) (A) (A) (A) (A) (A) (A) (A)
                 (A) (A) (A) (A) (A) (A) (A) (A) (A) (A) (A) (A)
                 (A) (A) (A) (A) (A) (A) (A) (A) (A) (A) (A) (A)
                 (A) (A) (A) (A) (A) (A) (A) (A) (A) (A) (A) (A)
                 (A) (A) (A) (A) (A) (A) (A) (A) (A) (A) (A) (A)
                 (A) (A) (A) (A) (A) (A) (A) (A) (A) (A) (A) (A)
                 (A) (A) (A) (A) (A) (A) (A) (A) (A) (A) (A) (A)
                 (A) (A) (A) (A) (A) (A) (A) (A) (A) (A) (A) (A)
                 (A) (A) (A) (A) (A) (A) (A) (A) (A) (A) (A) (A)
                 (A) (A) (A) (A) (A) (A) (A) (A) (A) (A) (A) (A)
                 (A) (A) (A) (A) (A) (A) (A) (A) (A) (A) (A) (A)
                 (A) (A) (A) (A) (A) (A) (A) (A) (A) (A) (A) (A)
                 (A) (A) (A) (A) (A) (A) (A) (A) (A) (A) (A) (A)
                 (A) (A) (A) (A) (A) (A) (A) (A) (A) (A) (A) (A)
                 (A) (A) (A) (A) (A) (A) (A) (A) (A) (A) (A) (A)
                 (A) (A) (A) (A) (A) (A) (A) (A) (A) (A) (A) (A)
                 (A) (A) (A) (A) (A) (A) (A) (A) (A) (A) (A) (A)
                 (A) (A) (A) (A) (A) (A) (A) (A) (A) (A) (A) (A)
                 (A) (A) (A) (A) (A) (A) (A) (A) (A) (A) (A) (A)
                 (A) (A) (A) (A) (A) (A) (A) (A) (A) (A) (A) (A)
                 (A) (A) (A) (A) (A) (A) (A) (A) (A) (A) (A) (A)
                 (A) (A) (A) (A) (A) (A) (A) (A) (A) (A) (A) (A)
                 (A) (A) (A) (A) (A) (A) (A) (A) (A) (A) (A) (A)
                 (A) (A) (A) (A) (A) (A) (A) (A) (A) (A) (A) (A)
                 (A) (A) (A) (A) (A) (A) (A) (A) (A) (A) (A) (A)
                 (A) (A) (A) (A) (A) (A) (A) (A) (A) (A) (A) (A)
                 (A) (A) (A) (A) (A) (A) (A) (A) (A) (A) (A) (A)
                 (A) (A) (A) (A) (A) (A) (A) (A) (A) (A) (A) (A)
                 (A) (A) (A) (A) (A) (A) (A) (A) (A) (A) (A) (A)
                 (A) (A) (A) (A) (A) (A) (A) (A) (A) (A) (A) (A)
                 (A) (A) (A) (A) (A) (A) (A) (A) (A) (A) (A) (A)
                 (A) (A) (A) (A) (A) (A) (A) (A) (A) (A) (A) (A)
                 (A) (A) (A) (A) (A) (A) (A) (A) (A) (A) (A) (A)
                 (A) (A) (A) (A) (A) (A) (A) (A) (A) (A) (A) (A)
                 (A) (A) (A) (A) (A) (A) (A) (A) (A) (A) (A) (A)
                 (A) (A) (A) (A) (A) (A) (A) (A) (A) (A) (A) (A)
                 (A) (A) (A) (A) (A) (A) (A) (A) (A) (A) (A) (A)
                 (A) (A) (A) (A) (A) (A) (A) (A) (A) (A) (A) (A)
                 (A) (A) (A) (A) (A) (A) (A) (A) (A) (A) (A) (A)
                 (A) (A) (A) (A) (A) (A) (A) (A) (A) (A) (A) (A)
                 (A) (A) (A) (A) (A) (A) (A) (A) (A) (A) (A) (A)
                 (A) (A) (A) (A) (A) (A) (A) (A) (A) (A) (A) (A)
                 (A) (A) (A) (A) (A) (A) (A) (A) (A) (A) (A) (A)
                 (A) (A) (A) (A) (A) (A) (A) (A) (A) (A) (A) (A)
                 (A) (A) (A) (A) (A) (A) (A) (A) (A) (A) (A) (A)
                 (A) (A) (A) (A) (A) (A) (A) (A) (A) (A) (A) (A)
                 (A) (A) (A) (A) (A) (A) (A) (A) (A) (A) (A) (A)
                 (A) (A) (A) (A) (A) (A) (A) (A) (A) (A) (A) (A)
                 (A) (A) (A) (A) (A) (A) (A) (A) (A) (A) (A) (A)
                 (A) (A) (A) (A) (A) (A) (A) (A) (A) (A) (A) (A)
                 (A) (A) (A) (A) (A) (A) (A) (A) (A) (A) (A) (A)
                 (A) (A) (A) (A) (A) (A) (A) (A) (A) (A) (A) (A)
                 (A) (A) (A) (A) (A) (A) (A) (A) (A) (A) (A) (A)
                 (A) (A) (A) (A) (A) (A) (A) (A) (A) (A) (A) (A)
                 (A) (A) (A) (A) (A) (A) (A) (A) (A) (A) (A) (A)
                 (A) (A) (A) (A) (A) (A) (A) (A) (A) (A) (A) (A)
                 (A) (A) (A) (A) (A) (A) (A) (A) (A) (A) (A) (A)
                 (A) (A) (A) (A) (A) (A) (A) (A) (A) (A) (A) (A)
                 (A) (A) (A) (A) (A) (A) (A) (A) (A) (A) (A) (A)
                 (A) (A) (A) (A) (A) (A) (A) (A) (A) (A) (A) (A)
                 (A) (A) (A) (A) (A) (A) (A) (A) (A) (A) (A) (A)
                 (A) (A) (A) (A) (A) (A) (A) (A) (A) (A) (A) (A)
                 (A) (A) (A) (A) (A) (A) (A) (A) (A) (A) (A) (A)
                 (A) (A) (A) (A) (A) (A) (A) (A) (A) (A) (A) (A)
                 (A) (A) (A) (A) (A) (A) (A) (A) (A) (A) (A) (A)
                 (A) (A) (A) (A) (A) (A) (A) (A) (A) (A) (A) (A)
                 (A) (A) (A) (A) (A) (A) (A) (A) (A) (A) (A) (A)
                 (A) (A) (A) (A) (A) (A) (A) (A) (A) (A) (A) (A)
                 (A) (A) (A) (A) (A) (A) (A) (A) (A) (A) (A) (A)
                 (A) (A) (A) (A) (A) (A) (A) (A) (A) (A) (A) (A)
                 (A) (A) (A) (A) (A) (A) (A) (A) (A) (A) (A) (A)
                 (A) (A) (A) (A) (A) (A) (A) (A) (A) (A) (A) (A)
                 (A) (A) (A) (A) (A) (A) (A) (A) (A) (A) (A) (A)
                 (A) (A) (A) (A) (A) (A) (A) (A) (A) (A) (A) (A)
                 (A) (A) (A) (A) (A) (A) (A) (A) (A) (A) (A) (A)
                 (A) (A) (A) (A) (A) (A) (A) (A) (A) (A) (A) (A)
                 (A) (A) (A) (A) (A) (A) (A) (A) (A) (A) (A) (A)
                 (A) (A) (A) (A) (A) (A) (A) (A) (A) (A) (A) (A)
                 (A) (A) (A) (A) (A) (A) (A) (A) (A) (A) (A) (A)
                 (A) (A) (A) (A) (A) (A) (A) (A) (A) (A) (A) (A)
                 (A) (A) (A) (A) (A) (A) (A) (A) (A) (A) (A) (A)
                 (A) (A) (A) (A) (A) (A) (A) (A) (A) (A) (A) (A)
                 (A) (A) (A) (A) (A) (A) (A) (A) (A) (A) (A) (A)
                 (A) (A) (A) (A) (A) (A) (A) (A) (A) (A) (A) (A)
                 (A) (A) (A) (A) (A) (A) (A) (A) (A) (A) (A) (A)
                 (A) (A) (A) (A) (A) (A) (A) (A) (A) (A) (A) (A)
                 (A) (A) (A) (A) (A) (A) (A) (A) (A) (A) (A) (A)
                 (A) (A) (A) (A) (A) (A) (A) (A) (A) (A) (A) (A)
                 (A) (A) (A) (A) (A) (A) (A) (A) (A) (A) (A) (A)
                 (A) (A) (A) (A) (A) (A) (A) (A) (A) (A) (A) (A)
                 (A) (A) (A) (A) (A) (A) (A) (A) (A) (A) (A) (A)
                 (A) (A) (A) (A) (A) (A) (A) (A) (A) (A) (A) (A)
                 (A) (A) (A) (A) (A) (A) (A) (A) (A) (A) (A) (A)
                 (A) (A) (A) (A) (A) (A) (A) (A) (A) (A) (A) (A)
                 (A) (A) (A) (A) (A) (A) (A) (A) (A) (A) (A) (A)
                 (A) (A) (A) (A) (A) (A) (A) (A) (A) (A) (A) (A)
                 (A) (A) (A)
 The electronic state is 1-A.
 Alpha  occ. eigenvalues -- -145.33146 -19.19345 -19.17900 -19.16655 -19.13528
 Alpha  occ. eigenvalues --  -19.12816 -19.11581 -19.10667 -19.09751 -19.09284
 Alpha  occ. eigenvalues --  -19.07495 -19.06833 -19.06606 -19.06242 -19.06089
 Alpha  occ. eigenvalues --  -19.05825 -19.05637 -19.04830 -19.04724 -19.04017
 Alpha  occ. eigenvalues --  -19.03758 -19.03289 -19.03025 -19.02149 -15.38932
 Alpha  occ. eigenvalues --  -14.57815 -14.39525 -14.38621 -14.37411 -14.37392
 Alpha  occ. eigenvalues --  -14.34941 -14.34657 -14.33659 -14.33597 -14.32257
 Alpha  occ. eigenvalues --  -14.32097 -14.31073 -14.30065 -14.29750 -14.29458
 Alpha  occ. eigenvalues --  -12.52546 -12.52499 -12.52487 -10.33581 -10.32159
 Alpha  occ. eigenvalues --  -10.31154 -10.30464 -10.29707 -10.29059 -10.28447
 Alpha  occ. eigenvalues --  -10.28196 -10.27395 -10.26810 -10.26601 -10.26325
 Alpha  occ. eigenvalues --  -10.26128 -10.26077 -10.25974 -10.24913 -10.24736
 Alpha  occ. eigenvalues --  -10.24642 -10.24490 -10.24392 -10.24388 -10.24029
 Alpha  occ. eigenvalues --  -10.23532 -10.23001 -10.22768 -10.22533 -10.22277
 Alpha  occ. eigenvalues --  -10.22215 -10.21970 -10.21407 -10.21316 -10.21255
 Alpha  occ. eigenvalues --  -10.20788 -10.20783 -10.20534 -10.20503 -10.20450
 Alpha  occ. eigenvalues --  -10.19886 -10.19695 -10.19640 -10.19129 -10.18595
 Alpha  occ. eigenvalues --  -10.18353 -10.18149 -10.17781 -10.17743 -10.17740
 Alpha  occ. eigenvalues --  -10.17521 -10.17508 -10.17311 -10.17255 -10.15649
 Alpha  occ. eigenvalues --  -10.15427 -10.13806  -1.75926  -1.13146  -1.07997
 Alpha  occ. eigenvalues --   -1.06622  -1.06528  -1.05404  -1.04583  -1.04377
 Alpha  occ. eigenvalues --   -1.03938  -1.03598  -1.03339  -1.02939  -1.02702
 Alpha  occ. eigenvalues --   -1.01679  -1.01037  -1.00478  -1.00020  -0.99929
 Alpha  occ. eigenvalues --   -0.99483  -0.98789  -0.98730  -0.98586  -0.98170
 Alpha  occ. eigenvalues --   -0.97084  -0.96275  -0.96167  -0.95248  -0.94833
 Alpha  occ. eigenvalues --   -0.93468  -0.91825  -0.90725  -0.90179  -0.89703
 Alpha  occ. eigenvalues --   -0.89603  -0.89358  -0.89195  -0.89064  -0.87880
 Alpha  occ. eigenvalues --   -0.87674  -0.87402  -0.86989  -0.86722  -0.86579
 Alpha  occ. eigenvalues --   -0.85707  -0.83402  -0.82008  -0.80815  -0.80690
 Alpha  occ. eigenvalues --   -0.79421  -0.79125  -0.78215  -0.76458  -0.76347
 Alpha  occ. eigenvalues --   -0.75833  -0.75695  -0.74632  -0.73693  -0.73071
 Alpha  occ. eigenvalues --   -0.72200  -0.71905  -0.70932  -0.70674  -0.70175
 Alpha  occ. eigenvalues --   -0.70119  -0.69817  -0.69239  -0.68211  -0.67589
 Alpha  occ. eigenvalues --   -0.67585  -0.66525  -0.66015  -0.64563  -0.64280
 Alpha  occ. eigenvalues --   -0.63483  -0.62962  -0.62852  -0.62616  -0.62305
 Alpha  occ. eigenvalues --   -0.61935  -0.61142  -0.60923  -0.60628  -0.60185
 Alpha  occ. eigenvalues --   -0.60083  -0.59128  -0.58886  -0.58154  -0.58012
 Alpha  occ. eigenvalues --   -0.57346  -0.56996  -0.56829  -0.56516  -0.56163
 Alpha  occ. eigenvalues --   -0.56057  -0.55997  -0.55733  -0.55646  -0.55041
 Alpha  occ. eigenvalues --   -0.54805  -0.54081  -0.53966  -0.53851  -0.53296
 Alpha  occ. eigenvalues --   -0.52595  -0.52501  -0.52215  -0.52041  -0.51838
 Alpha  occ. eigenvalues --   -0.51300  -0.51075  -0.50893  -0.50710  -0.50471
 Alpha  occ. eigenvalues --   -0.50229  -0.49967  -0.49298  -0.48426  -0.48358
 Alpha  occ. eigenvalues --   -0.48202  -0.47895  -0.47639  -0.47593  -0.47535
 Alpha  occ. eigenvalues --   -0.47482  -0.47265  -0.46986  -0.46784  -0.46715
 Alpha  occ. eigenvalues --   -0.46034  -0.45904  -0.45874  -0.45800  -0.45785
 Alpha  occ. eigenvalues --   -0.45556  -0.45064  -0.44843  -0.44759  -0.44673
 Alpha  occ. eigenvalues --   -0.44419  -0.44317  -0.44135  -0.44072  -0.43731
 Alpha  occ. eigenvalues --   -0.43597  -0.43392  -0.43097  -0.43035  -0.42806
 Alpha  occ. eigenvalues --   -0.42787  -0.42653  -0.42397  -0.42299  -0.41997
 Alpha  occ. eigenvalues --   -0.41956  -0.41833  -0.41712  -0.41685  -0.41485
 Alpha  occ. eigenvalues --   -0.41241  -0.41149  -0.41035  -0.40937  -0.40801
 Alpha  occ. eigenvalues --   -0.40598  -0.40545  -0.40374  -0.40289  -0.40033
 Alpha  occ. eigenvalues --   -0.39859  -0.39760  -0.39298  -0.39140  -0.38991
 Alpha  occ. eigenvalues --   -0.38969  -0.38749  -0.38693  -0.38578  -0.38486
 Alpha  occ. eigenvalues --   -0.38419  -0.38216  -0.38131  -0.37976  -0.37904
 Alpha  occ. eigenvalues --   -0.37644  -0.37568  -0.37444  -0.37293  -0.37151
 Alpha  occ. eigenvalues --   -0.37089  -0.36852  -0.36754  -0.36714  -0.36513
 Alpha  occ. eigenvalues --   -0.36167  -0.35972  -0.35607  -0.35473  -0.35339
 Alpha  occ. eigenvalues --   -0.35246  -0.35153  -0.34928  -0.34770  -0.34654
 Alpha  occ. eigenvalues --   -0.34602  -0.34454  -0.34234  -0.34032  -0.33943
 Alpha  occ. eigenvalues --   -0.33819  -0.33511  -0.33416  -0.33388  -0.33037
 Alpha  occ. eigenvalues --   -0.32726  -0.32453  -0.32228  -0.31758  -0.31665
 Alpha  occ. eigenvalues --   -0.31235  -0.30864  -0.30705  -0.30643  -0.29804
 Alpha  occ. eigenvalues --   -0.29391  -0.29060  -0.28818  -0.28166  -0.28050
 Alpha  occ. eigenvalues --   -0.27678  -0.27032  -0.26661  -0.26604  -0.26387
 Alpha  occ. eigenvalues --   -0.25558  -0.25422  -0.25026  -0.24671  -0.24559
 Alpha  occ. eigenvalues --   -0.24454  -0.24143  -0.23874  -0.23546  -0.23254
 Alpha  occ. eigenvalues --   -0.23054  -0.22773  -0.22719  -0.22398  -0.22255
 Alpha  occ. eigenvalues --   -0.22095  -0.21709  -0.21565  -0.21481  -0.21320
 Alpha  occ. eigenvalues --   -0.21020  -0.20701  -0.20388  -0.19681  -0.19308
 Alpha  occ. eigenvalues --   -0.19202  -0.18487  -0.17915
 Alpha virt. eigenvalues --   -0.09484  -0.03740  -0.03712  -0.03330  -0.03023
 Alpha virt. eigenvalues --   -0.02101  -0.02057  -0.01380  -0.01082  -0.00127
 Alpha virt. eigenvalues --    0.00193   0.00337   0.00560   0.01228   0.02372
 Alpha virt. eigenvalues --    0.02882   0.03349   0.03468   0.03590   0.03662
 Alpha virt. eigenvalues --    0.03995   0.04455   0.04839   0.05052   0.05120
 Alpha virt. eigenvalues --    0.05422   0.05502   0.05836   0.06068   0.06152
 Alpha virt. eigenvalues --    0.06443   0.06521   0.06603   0.06770   0.07013
 Alpha virt. eigenvalues --    0.07229   0.07298   0.07629   0.07834   0.08075
 Alpha virt. eigenvalues --    0.08160   0.08341   0.08515   0.08886   0.09044
 Alpha virt. eigenvalues --    0.09166   0.09392   0.09443   0.09716   0.09897
 Alpha virt. eigenvalues --    0.09951   0.10189   0.10594   0.10671   0.10865
 Alpha virt. eigenvalues --    0.11121   0.11355   0.11689   0.11881   0.11985
 Alpha virt. eigenvalues --    0.12174   0.12336   0.12438   0.12785   0.13054
 Alpha virt. eigenvalues --    0.13130   0.13241   0.13375   0.13489   0.13646
 Alpha virt. eigenvalues --    0.13850   0.14032   0.14119   0.14251   0.14361
 Alpha virt. eigenvalues --    0.14878   0.15102   0.15145   0.15187   0.15511
 Alpha virt. eigenvalues --    0.15802   0.15923   0.16117   0.16248   0.16541
 Alpha virt. eigenvalues --    0.16741   0.16822   0.17012   0.17175   0.17464
 Alpha virt. eigenvalues --    0.17618   0.17815   0.17951   0.18139   0.18315
 Alpha virt. eigenvalues --    0.18400   0.18577   0.18849   0.19034   0.19143
 Alpha virt. eigenvalues --    0.19306   0.19503   0.19531   0.19660   0.19866
 Alpha virt. eigenvalues --    0.20026   0.20200   0.20214   0.20399   0.20566
 Alpha virt. eigenvalues --    0.20771   0.21038   0.21365   0.21762   0.21996
 Alpha virt. eigenvalues --    0.22209   0.22325   0.22626   0.22779   0.22834
 Alpha virt. eigenvalues --    0.23015   0.23200   0.23339   0.23444   0.23582
 Alpha virt. eigenvalues --    0.23853   0.24040   0.24419   0.24578   0.24817
 Alpha virt. eigenvalues --    0.25264   0.25459   0.25577   0.25668   0.25867
 Alpha virt. eigenvalues --    0.26007   0.26193   0.26627   0.27016   0.27271
 Alpha virt. eigenvalues --    0.27401   0.27483   0.27532   0.27701   0.27823
 Alpha virt. eigenvalues --    0.28148   0.28309   0.28647   0.28895   0.29456
 Alpha virt. eigenvalues --    0.29610   0.29817   0.29958   0.30242   0.30572
 Alpha virt. eigenvalues --    0.30888   0.31042   0.31198   0.31289   0.31493
 Alpha virt. eigenvalues --    0.32006   0.32054   0.32196   0.32321   0.32482
 Alpha virt. eigenvalues --    0.32609   0.32784   0.33036   0.33299   0.33457
 Alpha virt. eigenvalues --    0.33559   0.34078   0.34446   0.34479   0.35118
 Alpha virt. eigenvalues --    0.35369   0.35800   0.36236   0.36512   0.36907
 Alpha virt. eigenvalues --    0.37353   0.37610   0.37773   0.38105   0.38227
 Alpha virt. eigenvalues --    0.38445   0.38555   0.38943   0.39168   0.39431
 Alpha virt. eigenvalues --    0.39890   0.40039   0.40358   0.40798   0.40958
 Alpha virt. eigenvalues --    0.41076   0.41744   0.41821   0.42131   0.42493
 Alpha virt. eigenvalues --    0.42569   0.43033   0.43220   0.43342   0.43656
 Alpha virt. eigenvalues --    0.43731   0.43921   0.44097   0.44194   0.44527
 Alpha virt. eigenvalues --    0.44874   0.45099   0.45255   0.45437   0.45620
 Alpha virt. eigenvalues --    0.45699   0.45813   0.45925   0.46111   0.46165
 Alpha virt. eigenvalues --    0.46385   0.46662   0.46849   0.47044   0.47353
 Alpha virt. eigenvalues --    0.47503   0.47601   0.47706   0.47990   0.48034
 Alpha virt. eigenvalues --    0.48314   0.48496   0.48815   0.48979   0.49176
 Alpha virt. eigenvalues --    0.49461   0.49659   0.49825   0.50092   0.50200
 Alpha virt. eigenvalues --    0.50365   0.50702   0.51033   0.51283   0.51385
 Alpha virt. eigenvalues --    0.51668   0.51988   0.52278   0.52411   0.52478
 Alpha virt. eigenvalues --    0.52558   0.52822   0.52848   0.53013   0.53102
 Alpha virt. eigenvalues --    0.53308   0.53494   0.53740   0.53868   0.54131
 Alpha virt. eigenvalues --    0.54163   0.54470   0.54664   0.54852   0.55217
 Alpha virt. eigenvalues --    0.55302   0.55463   0.55575   0.55835   0.56027
 Alpha virt. eigenvalues --    0.56201   0.56393   0.56484   0.56596   0.56805
 Alpha virt. eigenvalues --    0.56961   0.57290   0.57530   0.57572   0.57781
 Alpha virt. eigenvalues --    0.57878   0.58214   0.58462   0.58556   0.58936
 Alpha virt. eigenvalues --    0.59085   0.59209   0.59269   0.59474   0.59610
 Alpha virt. eigenvalues --    0.59878   0.59950   0.60145   0.60203   0.60341
 Alpha virt. eigenvalues --    0.60435   0.60817   0.60977   0.61119   0.61181
 Alpha virt. eigenvalues --    0.61430   0.61564   0.61631   0.61792   0.61885
 Alpha virt. eigenvalues --    0.62095   0.62186   0.62367   0.62594   0.62728
 Alpha virt. eigenvalues --    0.62806   0.62989   0.63065   0.63123   0.63348
 Alpha virt. eigenvalues --    0.63388   0.63597   0.63701   0.63818   0.63875
 Alpha virt. eigenvalues --    0.64101   0.64140   0.64249   0.64357   0.64455
 Alpha virt. eigenvalues --    0.64663   0.64824   0.64909   0.65137   0.65258
 Alpha virt. eigenvalues --    0.65280   0.65413   0.65535   0.65553   0.65621
 Alpha virt. eigenvalues --    0.65836   0.66047   0.66128   0.66193   0.66440
 Alpha virt. eigenvalues --    0.66451   0.66580   0.66684   0.66804   0.66872
 Alpha virt. eigenvalues --    0.66993   0.67236   0.67298   0.67429   0.67540
 Alpha virt. eigenvalues --    0.67633   0.67766   0.67870   0.67895   0.67957
 Alpha virt. eigenvalues --    0.68047   0.68200   0.68370   0.68489   0.68578
 Alpha virt. eigenvalues --    0.68688   0.68783   0.68971   0.69022   0.69180
 Alpha virt. eigenvalues --    0.69248   0.69416   0.69542   0.69674   0.69912
 Alpha virt. eigenvalues --    0.70008   0.70138   0.70215   0.70451   0.70499
 Alpha virt. eigenvalues --    0.70603   0.70678   0.70707   0.70860   0.71064
 Alpha virt. eigenvalues --    0.71231   0.71431   0.71517   0.71631   0.71788
 Alpha virt. eigenvalues --    0.71876   0.72210   0.72473   0.72528   0.72717
 Alpha virt. eigenvalues --    0.72837   0.72975   0.73035   0.73121   0.73435
 Alpha virt. eigenvalues --    0.73571   0.73687   0.73714   0.73999   0.74185
 Alpha virt. eigenvalues --    0.74487   0.74578   0.74656   0.74844   0.74951
 Alpha virt. eigenvalues --    0.75276   0.75448   0.75585   0.75789   0.75843
 Alpha virt. eigenvalues --    0.76190   0.76556   0.76629   0.76993   0.77181
 Alpha virt. eigenvalues --    0.77619   0.77699   0.77900   0.77967   0.78034
 Alpha virt. eigenvalues --    0.78372   0.78853   0.78876   0.78995   0.79665
 Alpha virt. eigenvalues --    0.79918   0.80085   0.80208   0.80376   0.80667
 Alpha virt. eigenvalues --    0.80898   0.81129   0.81293   0.81493   0.81661
 Alpha virt. eigenvalues --    0.82081   0.82364   0.82623   0.82728   0.83241
 Alpha virt. eigenvalues --    0.83296   0.83542   0.83745   0.83972   0.84110
 Alpha virt. eigenvalues --    0.84270   0.84867   0.85045   0.85166   0.85709
 Alpha virt. eigenvalues --    0.85810   0.86238   0.86618   0.86843   0.87183
 Alpha virt. eigenvalues --    0.87458   0.87843   0.88333   0.88505   0.88700
 Alpha virt. eigenvalues --    0.89296   0.89622   0.89790   0.89879   0.90103
 Alpha virt. eigenvalues --    0.90373   0.90712   0.91270   0.91336   0.91568
 Alpha virt. eigenvalues --    0.92239   0.92752   0.92879   0.93205   0.93296
 Alpha virt. eigenvalues --    0.93363   0.93720   0.94017   0.94307   0.94769
 Alpha virt. eigenvalues --    0.95028   0.95376   0.95630   0.95924   0.96410
 Alpha virt. eigenvalues --    0.96451   0.96760   0.97120   0.97310   0.97320
 Alpha virt. eigenvalues --    0.97522   0.97993   0.98265   0.98421   0.98540
 Alpha virt. eigenvalues --    0.98895   0.99380   0.99530   0.99977   1.00317
 Alpha virt. eigenvalues --    1.00632   1.00974   1.01051   1.01485   1.01784
 Alpha virt. eigenvalues --    1.02130   1.02287   1.02550   1.02999   1.03090
 Alpha virt. eigenvalues --    1.03687   1.03784   1.04152   1.04350   1.04589
 Alpha virt. eigenvalues --    1.04922   1.05122   1.05482   1.05772   1.06141
 Alpha virt. eigenvalues --    1.06614   1.06824   1.06966   1.07487   1.07554
 Alpha virt. eigenvalues --    1.07651   1.08468   1.08737   1.09113   1.09265
 Alpha virt. eigenvalues --    1.09481   1.09770   1.10061   1.10244   1.10567
 Alpha virt. eigenvalues --    1.10887   1.11057   1.12008   1.12131   1.12389
 Alpha virt. eigenvalues --    1.12491   1.12771   1.12922   1.13200   1.13501
 Alpha virt. eigenvalues --    1.13833   1.13925   1.14114   1.14511   1.14646
 Alpha virt. eigenvalues --    1.15152   1.15328   1.15758   1.15903   1.16111
 Alpha virt. eigenvalues --    1.16401   1.16616   1.16828   1.17018   1.17450
 Alpha virt. eigenvalues --    1.17560   1.17717   1.17929   1.18161   1.18346
 Alpha virt. eigenvalues --    1.18467   1.18846   1.19120   1.19210   1.19658
 Alpha virt. eigenvalues --    1.20167   1.20542   1.20549   1.21128   1.21260
 Alpha virt. eigenvalues --    1.21399   1.21919   1.22095   1.22347   1.22603
 Alpha virt. eigenvalues --    1.22838   1.23329   1.23401   1.23789   1.23988
 Alpha virt. eigenvalues --    1.24161   1.24460   1.24618   1.25143   1.25336
 Alpha virt. eigenvalues --    1.25489   1.25914   1.26183   1.26256   1.26508
 Alpha virt. eigenvalues --    1.26882   1.26952   1.27247   1.27555   1.27821
 Alpha virt. eigenvalues --    1.28422   1.28655   1.28849   1.29048   1.29370
 Alpha virt. eigenvalues --    1.29721   1.29936   1.30213   1.30445   1.30669
 Alpha virt. eigenvalues --    1.30764   1.31042   1.31267   1.31649   1.31739
 Alpha virt. eigenvalues --    1.31900   1.32502   1.32564   1.32876   1.33085
 Alpha virt. eigenvalues --    1.33343   1.33529   1.33966   1.34136   1.34567
 Alpha virt. eigenvalues --    1.34821   1.35304   1.35631   1.35896   1.36265
 Alpha virt. eigenvalues --    1.36385   1.36670   1.36902   1.37270   1.37593
 Alpha virt. eigenvalues --    1.37816   1.38382   1.38604   1.38917   1.39113
 Alpha virt. eigenvalues --    1.39358   1.39625   1.39811   1.39901   1.40227
 Alpha virt. eigenvalues --    1.40449   1.40545   1.40877   1.41361   1.41450
 Alpha virt. eigenvalues --    1.41711   1.41840   1.42170   1.42652   1.43096
 Alpha virt. eigenvalues --    1.43461   1.44153   1.44353   1.44676   1.44697
 Alpha virt. eigenvalues --    1.44877   1.45074   1.45445   1.45874   1.46280
 Alpha virt. eigenvalues --    1.46383   1.46661   1.47206   1.47537   1.47694
 Alpha virt. eigenvalues --    1.47776   1.48289   1.48382   1.48556   1.48969
 Alpha virt. eigenvalues --    1.49137   1.49419   1.49825   1.49921   1.50103
 Alpha virt. eigenvalues --    1.50650   1.51058   1.51240   1.51458   1.51737
 Alpha virt. eigenvalues --    1.52388   1.52492   1.52743   1.52985   1.53345
 Alpha virt. eigenvalues --    1.53457   1.53657   1.53927   1.54007   1.54428
 Alpha virt. eigenvalues --    1.54654   1.55090   1.55211   1.55625   1.55948
 Alpha virt. eigenvalues --    1.55984   1.56502   1.56721   1.56919   1.57670
 Alpha virt. eigenvalues --    1.58121   1.58462   1.58861   1.59107   1.59165
 Alpha virt. eigenvalues --    1.59341   1.59625   1.59875   1.60161   1.60571
 Alpha virt. eigenvalues --    1.60848   1.61563   1.61607   1.62043   1.62188
 Alpha virt. eigenvalues --    1.62730   1.62899   1.63172   1.63354   1.63636
 Alpha virt. eigenvalues --    1.64404   1.64556   1.64638   1.65035   1.65181
 Alpha virt. eigenvalues --    1.65563   1.66007   1.66487   1.66740   1.66947
 Alpha virt. eigenvalues --    1.67083   1.67493   1.67650   1.67738   1.67882
 Alpha virt. eigenvalues --    1.68536   1.68698   1.69382   1.69448   1.69700
 Alpha virt. eigenvalues --    1.69835   1.69939   1.70272   1.70508   1.70824
 Alpha virt. eigenvalues --    1.70983   1.71170   1.71438   1.71645   1.71906
 Alpha virt. eigenvalues --    1.72264   1.72459   1.72594   1.72893   1.73006
 Alpha virt. eigenvalues --    1.73290   1.73653   1.73706   1.74051   1.74149
 Alpha virt. eigenvalues --    1.74324   1.74530   1.74920   1.75067   1.75245
 Alpha virt. eigenvalues --    1.75318   1.75531   1.75643   1.75742   1.76111
 Alpha virt. eigenvalues --    1.76166   1.76316   1.76478   1.76865   1.77009
 Alpha virt. eigenvalues --    1.77067   1.77429   1.77517   1.77573   1.77717
 Alpha virt. eigenvalues --    1.77904   1.78106   1.78319   1.78409   1.78676
 Alpha virt. eigenvalues --    1.78846   1.79123   1.79307   1.79530   1.79619
 Alpha virt. eigenvalues --    1.79892   1.79965   1.80050   1.80220   1.80415
 Alpha virt. eigenvalues --    1.80601   1.80684   1.81001   1.81077   1.81265
 Alpha virt. eigenvalues --    1.81487   1.81648   1.81733   1.82051   1.82188
 Alpha virt. eigenvalues --    1.82340   1.82661   1.82753   1.83195   1.83226
 Alpha virt. eigenvalues --    1.83357   1.83523   1.83595   1.83898   1.84221
 Alpha virt. eigenvalues --    1.84499   1.84551   1.84692   1.84806   1.84885
 Alpha virt. eigenvalues --    1.85243   1.85474   1.85935   1.86074   1.86124
 Alpha virt. eigenvalues --    1.86209   1.86508   1.86560   1.87107   1.87201
 Alpha virt. eigenvalues --    1.87372   1.87540   1.87763   1.87852   1.88310
 Alpha virt. eigenvalues --    1.88589   1.88645   1.88744   1.89258   1.89309
 Alpha virt. eigenvalues --    1.89411   1.89754   1.89892   1.89932   1.90313
 Alpha virt. eigenvalues --    1.90389   1.90602   1.90821   1.91087   1.91190
 Alpha virt. eigenvalues --    1.91448   1.91539   1.91811   1.92155   1.92240
 Alpha virt. eigenvalues --    1.92272   1.92569   1.92897   1.93093   1.93340
 Alpha virt. eigenvalues --    1.93455   1.93577   1.93806   1.94226   1.94344
 Alpha virt. eigenvalues --    1.94465   1.94728   1.94753   1.95076   1.95166
 Alpha virt. eigenvalues --    1.95386   1.95570   1.95709   1.96020   1.96136
 Alpha virt. eigenvalues --    1.96356   1.96684   1.96988   1.97176   1.97336
 Alpha virt. eigenvalues --    1.97465   1.97692   1.98063   1.98139   1.98371
 Alpha virt. eigenvalues --    1.98649   1.98731   1.98789   1.99072   1.99419
 Alpha virt. eigenvalues --    1.99553   1.99639   2.00308   2.00371   2.00630
 Alpha virt. eigenvalues --    2.00832   2.01006   2.01425   2.01685   2.01784
 Alpha virt. eigenvalues --    2.01918   2.02188   2.02339   2.02566   2.02689
 Alpha virt. eigenvalues --    2.02946   2.03246   2.03571   2.03757   2.04603
 Alpha virt. eigenvalues --    2.04672   2.04962   2.05133   2.05470   2.05578
 Alpha virt. eigenvalues --    2.05721   2.05928   2.06239   2.06514   2.07029
 Alpha virt. eigenvalues --    2.07533   2.07612   2.08185   2.08328   2.08579
 Alpha virt. eigenvalues --    2.08701   2.08783   2.09112   2.09362   2.10047
 Alpha virt. eigenvalues --    2.10208   2.10490   2.11011   2.11524   2.11683
 Alpha virt. eigenvalues --    2.11971   2.12129   2.12644   2.12831   2.13123
 Alpha virt. eigenvalues --    2.13468   2.13689   2.14129   2.14312   2.14497
 Alpha virt. eigenvalues --    2.14661   2.14862   2.15358   2.15876   2.16191
 Alpha virt. eigenvalues --    2.16236   2.16395   2.16741   2.16832   2.16924
 Alpha virt. eigenvalues --    2.17118   2.17731   2.18046   2.18122   2.18229
 Alpha virt. eigenvalues --    2.18496   2.18614   2.19216   2.19301   2.20356
 Alpha virt. eigenvalues --    2.20468   2.20747   2.21190   2.21380   2.21442
 Alpha virt. eigenvalues --    2.21526   2.22120   2.22218   2.22314   2.22636
 Alpha virt. eigenvalues --    2.23124   2.23363   2.23709   2.23874   2.24180
 Alpha virt. eigenvalues --    2.24523   2.24697   2.24889   2.25403   2.25501
 Alpha virt. eigenvalues --    2.25736   2.26146   2.26548   2.26804   2.27130
 Alpha virt. eigenvalues --    2.28346   2.28443   2.28927   2.29133   2.29322
 Alpha virt. eigenvalues --    2.29466   2.29716   2.30101   2.30387   2.30620
 Alpha virt. eigenvalues --    2.31160   2.31592   2.31627   2.32137   2.32476
 Alpha virt. eigenvalues --    2.32740   2.33294   2.33435   2.33860   2.34150
 Alpha virt. eigenvalues --    2.34249   2.34640   2.35010   2.35083   2.35445
 Alpha virt. eigenvalues --    2.35481   2.35747   2.36727   2.36832   2.37312
 Alpha virt. eigenvalues --    2.37635   2.37766   2.38029   2.38265   2.38307
 Alpha virt. eigenvalues --    2.38652   2.39165   2.39541   2.39785   2.39952
 Alpha virt. eigenvalues --    2.40401   2.40618   2.41019   2.41076   2.41914
 Alpha virt. eigenvalues --    2.42412   2.42884   2.43008   2.43435   2.43781
 Alpha virt. eigenvalues --    2.43984   2.44402   2.44583   2.44657   2.44843
 Alpha virt. eigenvalues --    2.45520   2.46003   2.46445   2.47106   2.47603
 Alpha virt. eigenvalues --    2.47699   2.48048   2.48163   2.48258   2.48430
 Alpha virt. eigenvalues --    2.48812   2.49250   2.49651   2.50029   2.50445
 Alpha virt. eigenvalues --    2.51132   2.51262   2.51631   2.52157   2.52542
 Alpha virt. eigenvalues --    2.52705   2.53099   2.53573   2.53639   2.54016
 Alpha virt. eigenvalues --    2.54314   2.54601   2.54992   2.55453   2.55714
 Alpha virt. eigenvalues --    2.56274   2.56397   2.56936   2.57366   2.57499
 Alpha virt. eigenvalues --    2.57917   2.58154   2.58363   2.59317   2.59462
 Alpha virt. eigenvalues --    2.59545   2.59793   2.59873   2.60017   2.60321
 Alpha virt. eigenvalues --    2.60658   2.61201   2.61355   2.61449   2.61749
 Alpha virt. eigenvalues --    2.61846   2.61912   2.62321   2.62628   2.63137
 Alpha virt. eigenvalues --    2.63289   2.63667   2.63697   2.64533   2.64774
 Alpha virt. eigenvalues --    2.65233   2.65351   2.65852   2.66265   2.66362
 Alpha virt. eigenvalues --    2.66552   2.67260   2.67585   2.68059   2.68479
 Alpha virt. eigenvalues --    2.68789   2.69000   2.69682   2.69981   2.70280
 Alpha virt. eigenvalues --    2.70660   2.70915   2.71094   2.71555   2.71668
 Alpha virt. eigenvalues --    2.71875   2.72053   2.72424   2.72492   2.72765
 Alpha virt. eigenvalues --    2.72857   2.73048   2.73405   2.73750   2.73960
 Alpha virt. eigenvalues --    2.74343   2.74614   2.74781   2.74938   2.75145
 Alpha virt. eigenvalues --    2.75352   2.75626   2.76103   2.76440   2.76535
 Alpha virt. eigenvalues --    2.76825   2.76976   2.77149   2.77223   2.77597
 Alpha virt. eigenvalues --    2.77890   2.78136   2.78297   2.78584   2.78657
 Alpha virt. eigenvalues --    2.79106   2.79525   2.79606   2.79899   2.80361
 Alpha virt. eigenvalues --    2.80616   2.80799   2.81020   2.81196   2.81681
 Alpha virt. eigenvalues --    2.81835   2.82101   2.82162   2.82502   2.82771
 Alpha virt. eigenvalues --    2.82926   2.83212   2.83462   2.83629   2.84187
 Alpha virt. eigenvalues --    2.84655   2.84760   2.84972   2.85042   2.85357
 Alpha virt. eigenvalues --    2.86616   2.86795   2.86909   2.87176   2.87563
 Alpha virt. eigenvalues --    2.87986   2.88974   2.89195   2.89447   2.89553
 Alpha virt. eigenvalues --    2.89965   2.90215   2.90428   2.90878   2.91462
 Alpha virt. eigenvalues --    2.91693   2.92067   2.92183   2.92255   2.92649
 Alpha virt. eigenvalues --    2.92888   2.93218   2.93334   2.93810   2.93837
 Alpha virt. eigenvalues --    2.94031   2.94343   2.94789   2.94911   2.95475
 Alpha virt. eigenvalues --    2.95582   2.96095   2.96595   2.96636   2.96753
 Alpha virt. eigenvalues --    2.96958   2.97427   2.97574   2.98058   2.98308
 Alpha virt. eigenvalues --    2.98928   2.98998   2.99221   2.99505   2.99651
 Alpha virt. eigenvalues --    2.99840   3.00166   3.00612   3.00844   3.01060
 Alpha virt. eigenvalues --    3.01167   3.01434   3.01790   3.01840   3.02012
 Alpha virt. eigenvalues --    3.02537   3.03572   3.04016   3.04074   3.04703
 Alpha virt. eigenvalues --    3.04878   3.05631   3.06265   3.06537   3.07031
 Alpha virt. eigenvalues --    3.07264   3.08320   3.08753   3.09420   3.09557
 Alpha virt. eigenvalues --    3.10791   3.11055   3.12383   3.12713   3.12859
 Alpha virt. eigenvalues --    3.13245   3.13969   3.14267   3.14496   3.14747
 Alpha virt. eigenvalues --    3.15051   3.15223   3.15665   3.15726   3.16404
 Alpha virt. eigenvalues --    3.16561   3.16772   3.17290   3.17383   3.17514
 Alpha virt. eigenvalues --    3.17997   3.19185   3.19370   3.19587   3.19960
 Alpha virt. eigenvalues --    3.20072   3.20481   3.20585   3.20978   3.21291
 Alpha virt. eigenvalues --    3.21435   3.21677   3.22995   3.23301   3.23381
 Alpha virt. eigenvalues --    3.23847   3.24138   3.24401   3.24752   3.24981
 Alpha virt. eigenvalues --    3.25097   3.25454   3.26438   3.26692   3.27062
 Alpha virt. eigenvalues --    3.28274   3.28613   3.28712   3.29012   3.31110
 Alpha virt. eigenvalues --    3.31471   3.31935   3.32875   3.34899   3.36542
 Alpha virt. eigenvalues --    3.36725   3.38211   3.39098   3.40523   3.40625
 Alpha virt. eigenvalues --    3.41828   3.46103   3.49831   3.51403   3.51705
 Alpha virt. eigenvalues --    3.52258   3.53406   3.54955   3.55414   3.56035
 Alpha virt. eigenvalues --    3.56230   3.57995   3.58534   3.58809   3.59618
 Alpha virt. eigenvalues --    3.60507   3.61169   3.62717   3.63411   3.64110
 Alpha virt. eigenvalues --    3.65262   3.65511   3.66760   3.67234   3.68529
 Alpha virt. eigenvalues --    3.68677   3.68879   3.69785   3.71135   3.71275
 Alpha virt. eigenvalues --    3.71711   3.71933   3.72633   3.72858   3.73156
 Alpha virt. eigenvalues --    3.73686   3.74066   3.74377   3.75168   3.75289
 Alpha virt. eigenvalues --    3.76821   3.77997   3.79404   3.82257
          Condensed to atoms (all electrons):
 Mulliken charges:
               1
     1  C    0.073463
     2  C    0.027616
     3  O   -0.290905
     4  H    0.045548
     5  H   -0.011687
     6  H    0.031794
     7  N   -0.126964
     8  C    0.022744
     9  C    0.103997
    10  O   -0.282670
    11  C    0.087511
    12  C    0.144552
    13  O   -0.482316
    14  O   -0.356057
    15  H    0.117261
    16  H    0.031905
    17  H    0.004042
    18  H    0.001496
    19  N   -0.134893
    20  C    0.199741
    21  C    0.084593
    22  O   -0.322797
    23  C   -0.096261
    24  C   -0.018798
    25  C   -0.000306
    26  C    0.004496
    27  N    0.091271
    28  H    0.155342
    29  H   -0.009250
    30  H    0.052093
    31  H    0.027915
    32  H    0.004442
    33  H    0.011620
    34  H    0.058527
    35  H    0.070582
    36  H    0.073443
    37  H    0.066745
    38  H    0.194751
    39  H    0.187172
    40  H    0.203990
    41  N   -0.138094
    42  C    0.059145
    43  C    0.081696
    44  O   -0.282042
    45  C    0.142377
    46  C    0.081385
    47  O   -0.433389
    48  O   -0.427502
    49  H    0.189024
    50  H    0.011880
    51  H   -0.032997
    52  H    0.002306
    53  N   -0.156811
    54  C    0.234037
    55  C    0.007213
    56  O   -0.291831
    57  H    0.116046
    58  H    0.016211
    59  H    0.021708
    60  N   -0.145212
    61  C    0.128549
    62  C    0.042630
    63  O   -0.266467
    64  C    0.096376
    65  C    0.053953
    66  N   -0.056953
    67  O   -0.333216
    68  H    0.149822
    69  H    0.012975
    70  H    0.062690
    71  H   -0.017352
    72  H    0.121767
    73  H    0.149844
    74  N   -0.181121
    75  C    0.256187
    76  C   -0.006664
    77  O   -0.297813
    78  H    0.153311
    79  H    0.026066
    80  H    0.031411
    81  N   -0.136158
    82  C    0.136535
    83  C    0.120596
    84  O   -0.354532
    85  C    0.097737
    86  C   -0.004550
    87  C   -0.029067
    88  C    0.012738
    89  C   -0.032287
    90  C   -0.005330
    91  C    0.111944
    92  O   -0.210113
    93  H    0.168521
    94  H   -0.001271
    95  H    0.019196
    96  H   -0.008337
    97  H    0.006980
    98  H   -0.037991
    99  H   -0.024662
   100  H   -0.051903
   101  H    0.180037
   102  N   -0.120844
   103  C    0.191895
   104  C    0.036757
   105  O   -0.296154
   106  C   -0.088265
   107  C    0.030826
   108  C    0.017926
   109  C    0.017993
   110  H    0.130807
   111  H    0.012223
   112  H   -0.024831
   113  H   -0.010670
   114  H    0.020247
   115  H   -0.002975
   116  H    0.016150
   117  H    0.059015
   118  H    0.007386
   119  H   -0.002890
   120  H    0.016963
   121  N   -0.109223
   122  C    0.080751
   123  C    0.103615
   124  O   -0.250865
   125  C    0.232044
   126  O   -0.311285
   127  H    0.142772
   128  H    0.045264
   129  H    0.029069
   130  H   -0.037638
   131  H    0.199821
   132  N   -0.119040
   133  C    0.076197
   134  C    0.046641
   135  O   -0.264758
   136  C    0.006659
   137  H    0.112473
   138  H    0.029840
   139  H    0.045097
   140  H    0.037690
   141  H    0.014913
   142  N   -0.100432
   143  C    0.114385
   144  C    0.040777
   145  O   -0.250622
   146  C    0.044561
   147  H    0.093427
   148  H    0.021271
   149  H   -0.030054
   150  H    0.038073
   151  H    0.018697
   152  N   -0.168614
   153  C    0.128801
   154  C    0.061317
   155  O   -0.276668
   156  C   -0.037664
   157  C    0.113230
   158  C    0.107950
   159  O   -0.410151
   160  O   -0.418837
   161  H    0.132882
   162  H   -0.027818
   163  H    0.060102
   164  H   -0.002410
   165  H   -0.047714
   166  H   -0.028665
   167  N   -0.165850
   168  C    0.131621
   169  H    0.031682
   170  H    0.009792
   171  H    0.013561
   172  H    0.144225
   173  Ca   1.268023
   174  O   -0.253227
   175  H    0.178741
   176  H    0.159042
 Sum of Mulliken charges =  -0.00000
 Mulliken charges with hydrogens summed into heavy atoms:
               1
     1  C    0.139119
     2  C    0.027616
     3  O   -0.290905
     7  N   -0.009703
     8  C    0.054649
     9  C    0.103997
    10  O   -0.282670
    11  C    0.093049
    12  C    0.144552
    13  O   -0.482316
    14  O   -0.356057
    19  N    0.020449
    20  C    0.190491
    21  C    0.084593
    22  O   -0.322797
    23  C   -0.016253
    24  C   -0.002736
    25  C    0.128803
    26  C    0.144684
    27  N    0.677184
    41  N    0.050929
    42  C    0.071025
    43  C    0.081696
    44  O   -0.282042
    45  C    0.111686
    46  C    0.081385
    47  O   -0.433389
    48  O   -0.427502
    53  N   -0.040765
    54  C    0.271956
    55  C    0.007213
    56  O   -0.291831
    60  N    0.004610
    61  C    0.141525
    62  C    0.042630
    63  O   -0.266467
    64  C    0.141714
    65  C    0.053953
    66  N    0.214658
    67  O   -0.333216
    74  N   -0.027810
    75  C    0.313663
    76  C   -0.006664
    77  O   -0.297813
    81  N    0.032363
    82  C    0.135264
    83  C    0.120596
    84  O   -0.354532
    85  C    0.108596
    86  C   -0.004550
    87  C   -0.022087
    88  C   -0.025253
    89  C   -0.056949
    90  C   -0.057233
    91  C    0.111944
    92  O   -0.030076
   102  N    0.009963
   103  C    0.204118
   104  C    0.036757
   105  O   -0.296154
   106  C   -0.113097
   107  C    0.040404
   108  C    0.090115
   109  C    0.039452
   121  N    0.033549
   122  C    0.126015
   123  C    0.103615
   124  O   -0.250865
   125  C    0.223475
   126  O   -0.111464
   132  N   -0.006567
   133  C    0.106037
   134  C    0.046641
   135  O   -0.264758
   136  C    0.104359
   142  N   -0.007006
   143  C    0.135656
   144  C    0.040777
   145  O   -0.250622
   146  C    0.071277
   152  N   -0.035732
   153  C    0.100983
   154  C    0.061317
   155  O   -0.276668
   156  C    0.020027
   157  C    0.036851
   158  C    0.107950
   159  O   -0.410151
   160  O   -0.418837
   167  N   -0.021625
   168  C    0.186656
   173  Ca   1.268023
   174  O    0.084556
 DipInt: DoE/N= T F RetVal/Mat= T F Init=T NMatP=  1 IDeriv=0 Min/MaxMlt=  0  4
 Entering OneElI...
 OneElI was handed  1333951383 working-precision words.
 Multipole integrals L=0 to 4 MinM= 0 MaxM= 0.
 Requested accuracy = 0.1000D-12
 ShPair: Thresh= 1.00D-13 NBox=     0 BxSize= 0.00D+00 RnKept= 2.55D+01
         NSMCal=               327645 NSMKep=              163424
 PrmmSu-InSpLW:  IPartL=    0 NPrtUS=    1 NPrtUL=    1 DoSpLW=F IThBeg=    0 IThEnd=    0 NThAct=    1.
 PrsmSu:  NPrtUS=   1 ThrOK=F IAlg=1 NPAlg=1 LenDen=           0 ISkipM=0 DoSpLW=F IThBeg=    0 IThEnd=    0.
 Prism:   IPart=     0 DynPar=F LinDyn=F Incr=         512.
 PRISM was handed  1323760759 working-precision words and163424 shell-pairs
 IPart=  0 NShTot=      163424 NBatch=         375 AvBLen=       435.8
 PrsmSu-ThDecC:  IPartSL=    0    0 NPrtUSL=    1    1 IThBeg=    0 IThEnd=    0 CPU=   -1 GPU=   -1 NThAct=    1.
 PrSmSu:  NxtVal=            513.
 Electronic moments (au):
       -716.00000000         10.78205807         -1.11348469         -8.76575625
     -52457.93645570     -26785.10891562     -13319.85296926         61.76047124
        -47.57816773        -40.43879625     -90696.82972786     -20745.00927784
     -23460.99223532      23080.73686658      67869.69712584      41520.36196617
     -10083.31263215      -5385.27834845      33440.24488910      12577.09878368
   -7913193.69830254   -2199658.83518797    -719607.19849550     540355.06233717
     311760.66894765    -315004.84620754     116629.10338402     -84606.24683772
     -62230.65827457   -1553383.60185903    -661521.47048582    -511231.82887844
    -114923.83453347      -5416.32388640    -188270.40850507
 Electronic spatial extent (au):  <R**2>=          92562.8983
 DipInt: DoE/N= F T RetVal/Mat= T F Init=T NMatP=  1 IDeriv=0 Min/MaxMlt=  0  4
 Nuclear    moments (au):
        716.00000000         -0.00000000          0.00000000         -0.00000000
      51957.05501227      26470.58342310      12976.14720465          0.00000000
          0.00000000         -0.00000000      91998.53994639      21893.91341507
      23053.64955747     -21777.01907563     -68735.40356741     -42500.24203000
      10470.10863978       5950.47651589     -34678.16047772     -13189.69036216
    7699755.57786139    2125258.64530455     679752.48192312    -540550.00393380
    -312735.69067424     329310.58690455    -128901.27009794      82716.38056688
      58906.87817495    1513941.53197473     628276.66759245     496263.94927790
     115910.29464332      -1132.24360073     191897.45893721
 Total      moments (au):
          0.00000000         10.78205807         -1.11348469         -8.76575625
       -500.88144343       -314.52549253       -343.70576461         61.76047124
        -47.57816773        -40.43879625       1301.71021853       1148.90413723
       -407.34267785       1303.71779095       -865.70644157       -979.88006383
        386.79600762        565.19816744      -1237.91558862       -612.59157848
    -213438.12044115     -74400.18988342     -39854.71657238       -194.94159662
       -975.02172659      14305.74069701     -12272.16671393      -1889.86627084
      -3323.78009962     -39442.06988430     -33244.80289337     -14967.87960054
        986.46010985      -6548.56748713       3627.05043215
 Traceless Quadrup. (au):
       -114.51054325         71.84540766         42.66513558         61.76047124
        -47.57816773        -40.43879625
 Charge=              0.0000 electrons
 Dipole moment (field-independent basis, Debye):
    X=             27.4053    Y=             -2.8302    Z=            -22.2803  Tot=             35.4326
 Quadrupole moment (field-independent basis, Debye-Ang):
   XX=           -673.7027   YY=           -423.0476   ZZ=           -462.2960
   XY=             83.0699   XZ=            -63.9943   YZ=            -54.3916
 Traceless Quadrupole moment (field-independent basis, Debye-Ang):
   XX=           -154.0206   YY=             96.6345   ZZ=             57.3861
   XY=             83.0699   XZ=            -63.9943   YZ=            -54.3916
 Octapole moment (field-independent basis, Debye-Ang**2):
  XXX=            926.5072  YYY=            817.7457  ZZZ=           -289.9308  XYY=            927.9361
  XXY=           -616.1765  XXZ=           -697.4409  XZZ=            275.3065  YZZ=            402.2863
  YYZ=           -881.1006  XYZ=           -436.0191
 Hexadecapole moment (field-independent basis, Debye-Ang**3):
 XXXX=         -80391.0309 YYYY=         -28022.6791 ZZZZ=         -15011.1974 XXXY=            -73.4244
 XXXZ=           -367.2399 YYYX=           5388.2279 YYYZ=          -4622.2865 ZZZX=           -711.8143
 ZZZY=          -1251.8950 XXYY=         -14855.7748 XXZZ=         -12521.5869 YYZZ=          -5637.6212
 XXYZ=            371.5482 YYXZ=          -2466.5045 ZZXY=           1366.1211
 N-N= 2.188263941147D+04 E-N=-5.624855110709D+04  KE= 5.290743273265D+03
 Leave Link  601 at Sat Sep 14 23:49:29 2019, MaxMem=  1342177280 cpu:              42.3 elap:               1.1
 FitSet:  NAtFit=   176 NAtPot=   176 NAtFrz=     0 MDM=   180 TotChg=   0.00000
 Merz-Kollman atomic radii used.
 Read replacement radii for each type of atom:
 Rad(20) =   1.700000000000D+00
 Atom Element Radius
    1     6    1.50
    2     6    1.50
    3     8    1.40
    4     1    1.20
    5     1    1.20
    6     1    1.20
    7     7    1.50
    8     6    1.50
    9     6    1.50
   10     8    1.40
   11     6    1.50
   12     6    1.50
   13     8    1.40
   14     8    1.40
   15     1    1.20
   16     1    1.20
   17     1    1.20
   18     1    1.20
   19     7    1.50
   20     6    1.50
   21     6    1.50
   22     8    1.40
   23     6    1.50
   24     6    1.50
   25     6    1.50
   26     6    1.50
   27     7    1.50
   28     1    1.20
   29     1    1.20
   30     1    1.20
   31     1    1.20
   32     1    1.20
   33     1    1.20
   34     1    1.20
   35     1    1.20
   36     1    1.20
   37     1    1.20
   38     1    1.20
   39     1    1.20
   40     1    1.20
   41     7    1.50
   42     6    1.50
   43     6    1.50
   44     8    1.40
   45     6    1.50
   46     6    1.50
   47     8    1.40
   48     8    1.40
   49     1    1.20
   50     1    1.20
   51     1    1.20
   52     1    1.20
   53     7    1.50
   54     6    1.50
   55     6    1.50
   56     8    1.40
   57     1    1.20
   58     1    1.20
   59     1    1.20
   60     7    1.50
   61     6    1.50
   62     6    1.50
   63     8    1.40
   64     6    1.50
   65     6    1.50
   66     7    1.50
   67     8    1.40
   68     1    1.20
   69     1    1.20
   70     1    1.20
   71     1    1.20
   72     1    1.20
   73     1    1.20
   74     7    1.50
   75     6    1.50
   76     6    1.50
   77     8    1.40
   78     1    1.20
   79     1    1.20
   80     1    1.20
   81     7    1.50
   82     6    1.50
   83     6    1.50
   84     8    1.40
   85     6    1.50
   86     6    1.50
   87     6    1.50
   88     6    1.50
   89     6    1.50
   90     6    1.50
   91     6    1.50
   92     8    1.40
   93     1    1.20
   94     1    1.20
   95     1    1.20
   96     1    1.20
   97     1    1.20
   98     1    1.20
   99     1    1.20
  100     1    1.20
  101     1    1.20
  102     7    1.50
  103     6    1.50
  104     6    1.50
  105     8    1.40
  106     6    1.50
  107     6    1.50
  108     6    1.50
  109     6    1.50
  110     1    1.20
  111     1    1.20
  112     1    1.20
  113     1    1.20
  114     1    1.20
  115     1    1.20
  116     1    1.20
  117     1    1.20
  118     1    1.20
  119     1    1.20
  120     1    1.20
  121     7    1.50
  122     6    1.50
  123     6    1.50
  124     8    1.40
  125     6    1.50
  126     8    1.40
  127     1    1.20
  128     1    1.20
  129     1    1.20
  130     1    1.20
  131     1    1.20
  132     7    1.50
  133     6    1.50
  134     6    1.50
  135     8    1.40
  136     6    1.50
  137     1    1.20
  138     1    1.20
  139     1    1.20
  140     1    1.20
  141     1    1.20
  142     7    1.50
  143     6    1.50
  144     6    1.50
  145     8    1.40
  146     6    1.50
  147     1    1.20
  148     1    1.20
  149     1    1.20
  150     1    1.20
  151     1    1.20
  152     7    1.50
  153     6    1.50
  154     6    1.50
  155     8    1.40
  156     6    1.50
  157     6    1.50
  158     6    1.50
  159     8    1.40
  160     8    1.40
  161     1    1.20
  162     1    1.20
  163     1    1.20
  164     1    1.20
  165     1    1.20
  166     1    1.20
  167     7    1.50
  168     6    1.50
  169     1    1.20
  170     1    1.20
  171     1    1.20
  172     1    1.20
  173    20    1.70
  174     8    1.40
[...]
 **** Fit      -0.020720
 **** Fit      -0.017668
 **** Fit      -0.015286
 **** Fit      -0.013761
 **** Fit      -0.044043
 **** Fit      -0.038679
 **** Fit      -0.033298
 **** Fit      -0.027945
 **** Fit      -0.022673
 **** Fit      -0.017587
 **** Fit      -0.012870
 **** Fit      -0.036419
 **** Fit      -0.028898
 **** Fit      -0.021612
 **** Fit      -0.014562
 **** Fit      -0.022574
 **** Fit       0.028107
 **** Fit       0.028127
 **** Fit       0.027629
 **** Fit       0.025424
 **** Fit       0.024467
 **** Fit       0.020312
 **** Fit       0.017027
 **** Fit       0.009816
 **** Fit       0.011002
 **** Fit       0.000328
 **** Fit       0.023286
 **** Fit       0.024773
 **** Fit       0.024395
 **** Fit       0.021326
 **** Fit       0.015864
 **** Fit       0.017463
 **** Fit       0.000748
 **** Fit      -0.001394
 **** Fit      -0.006779
 **** Fit      -0.016412
 **** Fit       0.009947
 **** Fit       0.011821
 **** Fit       0.015093
 **** Fit       0.001201
 **** Fit      -0.001287
 **** Fit      -0.002949
 **** Fit      -0.004423
 **** Fit      -0.006881
 **** Fit      -0.011722
 **** Fit      -0.020062
 **** Fit      -0.032363
 **** Fit       0.003632
 **** Fit       0.005499
 **** Fit       0.007815
 **** Fit       0.009687
 **** Fit       0.009827
 **** Fit       0.007786
 **** Fit      -0.004011
 **** Fit      -0.006347
 **** Fit      -0.008620
 **** Fit      -0.011638
 **** Fit      -0.016624
 **** Fit      -0.024636
 **** Fit      -0.035956
 **** Fit      -0.003236
 **** Fit      -0.001329
 **** Fit       0.000323
 **** Fit       0.001129
 **** Fit       0.000454
 **** Fit      -0.001534
 **** Fit      -0.009327
 **** Fit      -0.012007
 **** Fit      -0.015601
 **** Fit      -0.021161
 **** Fit      -0.029551
 **** Fit      -0.040234
 **** Fit      -0.033179
 **** Fit      -0.015631
 **** Fit      -0.011075
 **** Fit      -0.008318
 **** Fit      -0.006650
 **** Fit      -0.006221
 **** Fit      -0.007246
 **** Fit      -0.014651
 **** Fit      -0.018273
 **** Fit      -0.024172
 **** Fit      -0.032486
 **** Fit      -0.040431
 **** Fit      -0.042753
 **** Fit      -0.037410
 **** Fit      -0.028354
 **** Fit      -0.020416
 **** Fit      -0.015441
 **** Fit      -0.013025
 **** Fit      -0.012822
 **** Fit      -0.019992
 **** Fit      -0.025602
 **** Fit      -0.032339
 **** Fit      -0.031172
 **** Fit      -0.023708
 **** Fit      -0.019158
 **** Fit      -0.025444
 **** Fit      -0.013102
 **** Fit       0.028188
 **** Fit       0.023669
 **** Fit       0.028461
 **** Fit       0.022210
 **** Fit       0.014156
 **** Fit       0.003848
 **** Fit       0.028921
 **** Fit       0.021150
 **** Fit       0.011911
 **** Fit       0.010139
 **** Fit       0.022066
 **** Fit       0.020980
 **** Fit       0.027368
 **** Fit       0.031115
 **** Fit       0.032458
 **** Fit      -0.044495
 **** Fit      -0.045469
 **** Fit      -0.047842
 **** Fit      -0.012743
 **** Fit      -0.012131
 **** Fit      -0.013636
 **** Fit      -0.014514
 **** Fit      -0.011330
 **** Fit      -0.011622
 **** Fit      -0.012929
 **** Fit      -0.014484
 **** Fit      -0.015977
 **** Fit      -0.016735
 **** Fit      -0.010693
 **** Fit      -0.011239
 **** Fit      -0.012379
 **** Fit      -0.013730
 **** Fit      -0.015303
 **** Fit      -0.018647
 **** Fit      -0.019550
 **** Fit      -0.019257
 **** Fit      -0.009340
 **** Fit      -0.009699
 **** Fit      -0.010334
 **** Fit      -0.011008
 **** Fit      -0.012094
 **** Fit      -0.013322
 **** Fit      -0.023346
 **** Fit      -0.022882
 **** Fit      -0.008621
 **** Fit      -0.008884
 **** Fit      -0.009367
 **** Fit      -0.010084
 **** Fit      -0.010947
 **** Fit      -0.011970
 **** Fit      -0.013063
 **** Fit      -0.028209
 **** Fit      -0.026743
 **** Fit      -0.008066
 **** Fit      -0.008263
 **** Fit      -0.008652
 **** Fit      -0.009245
 **** Fit      -0.010024
 **** Fit      -0.011072
 **** Fit      -0.012137
 **** Fit      -0.013229
 **** Fit      -0.035274
 **** Fit      -0.034482
 **** Fit      -0.032139
 **** Fit      -0.007564
 **** Fit      -0.007656
 **** Fit      -0.007954
 **** Fit      -0.008465
 **** Fit      -0.009181
 **** Fit      -0.010068
 **** Fit      -0.011402
 **** Fit      -0.012526
 **** Fit      -0.013639
 **** Fit      -0.014744
 **** Fit      -0.044268
 **** Fit      -0.042544
 **** Fit      -0.039124
 **** Fit      -0.007134
 **** Fit      -0.007114
 **** Fit      -0.013197
 **** Fit      -0.014371
 **** Fit      -0.015510
 **** Fit      -0.044717
 **** Fit      -0.007370
 **** Fit      -0.006793
 **** Fit      -0.006598
 **** Fit      -0.015405
 **** Fit      -0.016578
 **** Fit      -0.007578
 **** Fit      -0.006527
 **** Fit      -0.016876
 **** Fit      -0.018077
 **** Fit      -0.008732
 **** Fit      -0.006650
 **** Fit      -0.005614
 **** Fit      -0.020168
 **** Fit      -0.021490
 **** Fit      -0.022794
 **** Fit      -0.024133
 **** Fit      -0.026088
 **** Fit      -0.027345
 **** Fit      -0.029141
 **** Fit      -0.030316
 **** Fit      -0.031528
 **** Fit      -0.033550
 **** Fit      -0.036641
 **** Fit      -0.035371
 **** Fit      -0.035475
 **** Fit      -0.036716
 **** Fit      -0.039146
 **** Fit      -0.042987
 **** Fit      -0.041526
 **** Fit      -0.042886
 **** Fit      -0.017079
 **** Fit      -0.018755
 **** Fit      -0.015820
 **** Fit      -0.017699
 **** Fit      -0.019848
 **** Fit      -0.021557
 **** Fit      -0.021909
 **** Fit      -0.015089
 **** Fit      -0.016577
 **** Fit      -0.018503
 **** Fit      -0.020811
 **** Fit      -0.023226
 **** Fit      -0.025224
 **** Fit      -0.026158
 **** Fit      -0.014849
 **** Fit      -0.016129
 **** Fit      -0.017796
 **** Fit      -0.019936
 **** Fit      -0.022545
 **** Fit      -0.025475
 **** Fit      -0.028378
 **** Fit      -0.030714
 **** Fit      -0.031864
 **** Fit      -0.031367
 **** Fit      -0.015034
 **** Fit      -0.016197
 **** Fit      -0.017704
 **** Fit      -0.019684
 **** Fit      -0.022232
 **** Fit      -0.025367
 **** Fit      -0.028991
 **** Fit      -0.032818
 **** Fit      -0.036345
 **** Fit      -0.038894
 **** Fit      -0.039773
 **** Fit      -0.015610
 **** Fit      -0.016662
 **** Fit      -0.018007
 **** Fit      -0.019786
 **** Fit      -0.022129
 **** Fit      -0.025143
 **** Fit      -0.028882
 **** Fit      -0.033303
 **** Fit      -0.038191
 **** Fit      -0.016674
 **** Fit      -0.017701
 **** Fit      -0.019023
 **** Fit      -0.020809
 **** Fit      -0.023221
 **** Fit      -0.026420
 **** Fit      -0.030553
 **** Fit      -0.035713
 **** Fit      -0.019201
 **** Fit      -0.020484
 **** Fit      -0.022247
 **** Fit      -0.024673
 **** Fit      -0.027965
 **** Fit      -0.032345
 **** Fit      -0.038041
 **** Fit      -0.021306
 **** Fit      -0.022595
 **** Fit      -0.024423
 **** Fit      -0.026996
 **** Fit      -0.030565
 **** Fit      -0.035437
 **** Fit      -0.024169
 **** Fit      -0.025596
 **** Fit      -0.027727
 **** Fit      -0.030837
 **** Fit      -0.035284
 **** Fit      -0.029543
 **** Fit      -0.032217
 **** Fit      -0.036265
 **** Fit      -0.034442
 **** Fit      -0.037799
 **** Fit      -0.011123
 **** Fit      -0.010883
 **** Fit      -0.012369
 **** Fit      -0.012794
 **** Fit      -0.011453
 **** Fit      -0.010058
 **** Fit      -0.009871
 **** Fit      -0.010708
 **** Fit      -0.014937
 **** Fit      -0.015028
 **** Fit      -0.013813
 **** Fit      -0.011921
 **** Fit      -0.010251
 **** Fit      -0.009220
 **** Fit      -0.008803
 **** Fit      -0.008941
 **** Fit      -0.009598
 **** Fit      -0.018040
 **** Fit      -0.016886
 **** Fit      -0.014867
 **** Fit      -0.012608
 **** Fit      -0.010719
 **** Fit      -0.009442
 **** Fit      -0.008663
 **** Fit      -0.008229
 **** Fit      -0.008091
 **** Fit      -0.008267
 **** Fit      -0.008758
 **** Fit      -0.009538
 **** Fit      -0.021910
 **** Fit      -0.020378
 **** Fit      -0.017902
 **** Fit      -0.015020
 **** Fit      -0.012415
 **** Fit      -0.010550
 **** Fit      -0.009382
 **** Fit      -0.008643
 **** Fit      -0.008139
 **** Fit      -0.007802
 **** Fit      -0.007657
 **** Fit      -0.007757
 **** Fit      -0.008118
 **** Fit      -0.026699
 **** Fit      -0.024282
 **** Fit      -0.020837
 **** Fit      -0.010089
 **** Fit      -0.009270
 **** Fit      -0.008687
 **** Fit      -0.008194
 **** Fit      -0.007771
 **** Fit      -0.007487
 **** Fit      -0.007431
 **** Fit      -0.007642
 **** Fit      -0.032907
 **** Fit      -0.029478
 **** Fit      -0.009836
 **** Fit      -0.009296
 **** Fit      -0.008717
 **** Fit      -0.008120
 **** Fit      -0.007623
 **** Fit      -0.007355
 **** Fit      -0.007382
 **** Fit      -0.011018
 **** Fit      -0.010337
 **** Fit      -0.009447
 **** Fit      -0.008517
 **** Fit      -0.007774
 **** Fit      -0.007389
 **** Fit      -0.013220
 **** Fit      -0.012046
 **** Fit      -0.010555
 **** Fit      -0.009110
 **** Fit      -0.008040
 **** Fit      -0.012695
 **** Fit      -0.010348
 **** Fit      -0.010017
 **** Fit      -0.007191
 **** Fit      -0.007459
 **** Fit      -0.008080
 **** Fit      -0.008956
 **** Fit      -0.010336
 **** Fit      -0.011568
 **** Fit      -0.006425
 **** Fit      -0.006697
 **** Fit      -0.007330
 **** Fit      -0.008193
 **** Fit      -0.009207
 **** Fit      -0.011023
 **** Fit      -0.012240
 **** Fit      -0.013543
 **** Fit      -0.005889
 **** Fit      -0.005679
 **** Fit      -0.006052
 **** Fit      -0.006799
 **** Fit      -0.007745
 **** Fit      -0.008784
 **** Fit      -0.009877
 **** Fit      -0.012208
 **** Fit      -0.013429
 **** Fit      -0.014743
 **** Fit      -0.016175
 **** Fit      -0.005372
 **** Fit      -0.004841
 **** Fit      -0.005237
 **** Fit      -0.006196
 **** Fit      -0.007400
 **** Fit      -0.008649
 **** Fit      -0.009862
 **** Fit      -0.011036
 **** Fit      -0.014072
 **** Fit      -0.015211
 **** Fit      -0.016451
 **** Fit      -0.017845
 **** Fit      -0.004951
 **** Fit      -0.003808
 **** Fit      -0.004225
 **** Fit      -0.005582
 **** Fit      -0.007292
 **** Fit      -0.008980
 **** Fit      -0.010487
 **** Fit      -0.011795
 **** Fit      -0.012962
 **** Fit      -0.016871
 **** Fit      -0.017840
 **** Fit      -0.018937
 **** Fit      -0.020237
 **** Fit      -0.006977
 **** Fit      -0.009631
 **** Fit      -0.011850
 **** Fit      -0.013568
 **** Fit      -0.014876
 **** Fit      -0.015927
 **** Fit      -0.020982
 **** Fit      -0.021632
 **** Fit      -0.022493
 **** Fit      -0.023670
 **** Fit      -0.019663
 **** Fit      -0.020395
 **** Fit      -0.026945
 **** Fit      -0.027333
 **** Fit      -0.028258
 **** Fit      -0.034147
 **** Fit       0.022465
 **** Fit       0.011719
 **** Fit       0.032489
 **** Fit       0.023498
 **** Fit       0.015096
 **** Fit       0.003317
 **** Fit      -0.028493
 **** Fit      -0.021818
 **** Fit      -0.015440
 **** Fit       0.025151
 **** Fit      -0.002237
 **** Fit      -0.012121
 **** Fit      -0.020683
 **** Fit      -0.027786
 **** Fit      -0.028545
 **** Fit      -0.022796
 **** Fit      -0.016988
 **** Fit      -0.011277
 **** Fit      -0.005907
 **** Fit      -0.017027
 **** Fit      -0.020387
 **** Fit      -0.021138
 **** Fit      -0.019313
 **** Fit      -0.015672
 **** Fit      -0.011093
 **** Fit       0.043196
 **** Fit       0.041255
 **** Fit       0.037224
 **** Fit       0.023201
 **** Fit       0.013949
 **** Fit       0.040922
 **** Fit       0.040662
 **** Fit       0.039163
 **** Fit       0.035936
 **** Fit       0.030643
 **** Fit       0.024434
 **** Fit       0.017091
 **** Fit       0.009033
 **** Fit       0.001105
 **** Fit      -0.005969
 **** Fit      -0.011727
 **** Fit      -0.015789
 **** Fit      -0.017697
 **** Fit      -0.014730
 **** Fit      -0.011063
 **** Fit      -0.006871
 **** Fit      -0.002539
 **** Fit       0.001668
 **** Fit       0.005558
 **** Fit       0.009063
 **** Fit       0.012176
 **** Fit       0.014828
 **** Fit       0.038563
 **** Fit       0.038430
 **** Fit       0.037258
 **** Fit       0.034664
 **** Fit       0.030397
 **** Fit       0.025233
 **** Fit       0.019033
 **** Fit       0.012289
 **** Fit       0.005774
 **** Fit       0.000176
 **** Fit      -0.003969
 **** Fit      -0.006228
 **** Fit      -0.006415
 **** Fit      -0.004801
 **** Fit      -0.001977
 **** Fit       0.001494
 **** Fit       0.005206
 **** Fit       0.008867
 **** Fit       0.012275
 **** Fit       0.015290
 **** Fit       0.017857
 **** Fit       0.020206
 **** Fit       0.036063
 **** Fit       0.036374
 **** Fit       0.035704
 **** Fit       0.033735
 **** Fit       0.030244
 **** Fit       0.025631
 **** Fit       0.020423
 **** Fit       0.014838
 **** Fit       0.009648
 **** Fit       0.005549
 **** Fit       0.003059
 **** Fit       0.002411
 **** Fit       0.003433
 **** Fit       0.005663
 **** Fit       0.008590
 **** Fit       0.011792
 **** Fit       0.014949
 **** Fit       0.017847
 **** Fit       0.020443
 **** Fit       0.022965
 **** Fit       0.025760
 **** Fit       0.031354
 **** Fit       0.033168
 **** Fit       0.034080
 **** Fit       0.033963
 **** Fit       0.032597
 **** Fit       0.029809
 **** Fit       0.025655
 **** Fit       0.021116
 **** Fit       0.016422
 **** Fit       0.012510
 **** Fit       0.010123
 **** Fit       0.009581
 **** Fit       0.010692
 **** Fit       0.012941
 **** Fit       0.015758
 **** Fit       0.018687
 **** Fit       0.021481
 **** Fit       0.024160
 **** Fit       0.026841
 **** Fit       0.029324
 **** Fit       0.031134
 **** Fit       0.031884
 **** Fit       0.031302
 **** Fit       0.029206
 **** Fit       0.025323
 **** Fit       0.021146
 **** Fit       0.017371
 **** Fit       0.015405
 **** Fit       0.015717
 **** Fit       0.017769
 **** Fit       0.020638
 **** Fit       0.023636
 **** Fit       0.026442
 **** Fit       0.028624
 **** Fit       0.029458
 **** Fit       0.028369
 **** Fit       0.024645
 **** Fit       0.021005
 **** Fit       0.019993
 **** Fit       0.022290
 **** Fit       0.025405
 **** Fit       0.026746
 **** Fit       0.023630
 **** Fit       0.025894
 **** Fit       0.032542
 **** Fit       0.026520
 **** Fit       0.039297
 **** Fit       0.034648
 **** Fit       0.027491
 **** Fit       0.041625
 **** Fit       0.036647
 **** Fit       0.028601
 **** Fit       0.044601
 **** Fit       0.043016
 **** Fit       0.038003
 **** Fit       0.029328
 **** Fit       0.044017
 **** Fit       0.044699
 **** Fit       0.043217
 **** Fit       0.038439
 **** Fit       0.029635
 **** Fit       0.041809
 **** Fit       0.043525
 **** Fit       0.044027
 **** Fit       0.042545
 **** Fit       0.038072
 **** Fit       0.043248
 **** Fit       0.043340
 **** Fit       0.041715
 **** Fit       0.037546
 **** Fit       0.043728
 **** Fit       0.043509
 **** Fit       0.041905
 -----------------------------------------------------------------
 Leave Link  602 at Sat Sep 14 23:49:31 2019, MaxMem=  1342177280 cpu:             104.3 elap:               2.2

 Test job not archived.
 1\1\GINC-C503-033\SP\RB3LYP\SVP\C54H83Ca1N15O23\PENGZHI\14-Sep-2019\0\
 \#b3lyp/svp scf=(tight,noincore) Test #IOP(5/87=12) Density=Current Po
 p=(MK,readradii) iop(6/33=2) iop(6/42=6)\\CaMKII_loop3_113.0\\0,1\C,0,
 20.99,50.8,19.61\C,0,22.17,50.77,18.65\O,0,22.2,51.56,17.71\H,0,20.116
 ,50.365,19.125\H,0,21.233,50.225,20.503\H,0,20.774,51.831,19.889\N,0,2
 3.07,49.79,18.78\C,0,24.1,49.61,17.77\C,0,23.59,48.74,16.63\O,0,23.55,
 47.52,16.78\C,0,25.35,48.99,18.38\C,0,26.44,48.63,17.38\O,0,26.25,48.8
 3,16.16\O,0,27.58,48.32,17.76\H,0,23.01,49.11,19.52\H,0,24.49,50.55,17
 .38\H,0,25.,48.07,18.85\H,0,25.72,49.7,19.12\N,0,23.49,49.47,15.52\C,0
 ,23.02,48.97,14.24\C,0,23.77,47.77,13.67\O,0,23.27,47.13,12.75\C,0,23.
 ,50.13,13.25\C,0,22.3,50.01,11.9\C,0,22.34,51.36,11.2\C,0,21.48,51.31,
 9.94\N,0,21.88,50.35,8.91\H,0,23.75,50.44,15.6\H,0,21.98,48.69,14.36\H
 ,0,24.04,50.43,13.15\H,0,22.51,50.93,13.82\H,0,21.36,49.48,12.02\H,0,2
 2.96,49.26,11.45\H,0,23.37,51.66,10.97\H,0,21.8,52.05,11.85\H,0,21.31,
 52.3,9.53\H,0,20.52,51.01,10.36\H,0,21.67,49.4,9.18\H,0,21.19,50.5,8.1
 9\H,0,22.83,50.38,8.56\N,0,25.02,47.52,14.07\C,0,25.84,46.46,13.52\C,0
 ,26.57,45.53,14.47\O,0,27.05,44.5,14.01\C,0,26.78,47.09,12.49\C,0,27.6
 9,48.17,13.06\O,0,28.4,48.01,14.07\O,0,27.51,49.35,12.68\H,0,25.42,47.
 91,14.91\H,0,25.23,45.77,12.93\H,0,26.13,47.57,11.75\H,0,27.32,46.29,1
 1.99\N,0,26.61,45.91,15.75\C,0,27.21,45.03,16.73\C,0,28.73,44.93,16.8\
 O,0,29.24,43.89,17.21\H,0,26.3,46.86,15.92\H,0,26.9,43.99,16.62\H,0,26
 .86,45.33,17.72\N,0,29.45,45.98,16.42\C,0,30.9,46.13,16.4\C,0,31.51,46
 .5,17.74\O,0,32.56,45.95,18.06\C,0,31.35,47.12,15.33\C,0,31.38,48.6,15
 .68\N,0,32.57,49.2,15.56\O,0,30.38,49.23,16.03\H,0,28.9,46.72,16.01\H,
 0,31.27,45.14,16.15\H,0,30.75,46.95,14.43\H,0,32.37,46.81,15.13\H,0,33
 .39,48.7,15.24\H,0,32.61,50.12,15.96\N,0,30.78,47.33,18.49\C,0,31.22,4
 7.94,19.73\C,0,30.7,49.34,20.03\O,0,30.94,49.82,21.13\H,0,29.87,47.57,
 18.14\H,0,32.29,48.12,19.76\H,0,31.03,47.3,20.59\N,0,30.09,50.05,19.08
 \C,0,29.86,51.48,19.19\C,0,28.69,51.95,18.33\O,0,28.5,51.45,17.22\C,0,
 31.11,52.34,19.14\C,0,32.16,52.06,18.08\C,0,33.4,51.59,18.52\C,0,32.,5
 2.56,16.78\C,0,34.46,51.5,17.61\C,0,33.01,52.39,15.83\C,0,34.24,51.85,
 16.26\O,0,35.18,51.71,15.28\H,0,29.66,49.57,18.3\H,0,29.56,51.76,20.2\
 H,0,31.57,52.32,20.12\H,0,30.75,53.35,18.94\H,0,33.48,51.21,19.53\H,0,
 31.05,52.96,16.47\H,0,35.41,51.19,18.02\H,0,32.91,52.55,14.77\H,0,35.7
 8,51.,15.53\N,0,28.07,53.04,18.79\C,0,26.91,53.73,18.28\C,0,27.33,55.1
 3,17.83\O,0,28.09,55.83,18.49\C,0,25.79,53.71,19.31\C,0,25.57,52.53,20
 .26\C,0,24.49,54.,18.56\C,0,24.72,52.91,21.46\H,0,28.55,53.48,19.55\H,
 0,26.61,53.3,17.32\H,0,25.87,54.55,19.99\H,0,26.57,52.13,20.46\H,0,25.
 04,51.69,19.8\H,0,23.67,53.88,19.26\H,0,24.49,55.05,18.28\H,0,24.41,53
 .3,17.72\H,0,24.5,52.04,22.09\H,0,25.3,53.55,22.12\H,0,23.79,53.43,21.
 27\N,0,26.78,55.72,16.77\C,0,27.03,57.09,16.36\C,0,25.7,57.84,16.37\O,
 0,24.63,57.32,16.68\C,0,27.61,57.16,14.95\O,0,26.67,56.49,14.13\H,0,26
 .12,55.19,16.21\H,0,27.77,57.66,16.92\H,0,28.55,56.63,14.8\H,0,27.58,5
 8.22,14.73\H,0,27.12,56.21,13.33\N,0,25.69,59.07,15.85\C,0,24.52,59.85
 ,15.5\C,0,23.63,59.34,14.38\O,0,22.42,59.29,14.64\C,0,24.96,61.28,15.2
 3\H,0,26.57,59.5,15.6\H,0,23.85,59.89,16.36\H,0,24.06,61.78,14.86\H,0,
 25.26,61.62,16.22\H,0,25.77,61.45,14.51\N,0,24.16,58.85,13.26\C,0,23.5
 8,58.05,12.2\C,0,22.86,56.82,12.73\O,0,21.74,56.47,12.38\C,0,24.68,57.
 72,11.19\H,0,25.1,59.18,13.12\H,0,22.77,58.62,11.73\H,0,25.49,57.29,11
 .78\H,0,24.41,57.06,10.37\H,0,25.1,58.65,10.8\N,0,23.5,56.08,13.64\C,0
 ,22.94,54.92,14.29\C,0,21.85,55.22,15.31\O,0,20.82,54.56,15.42\C,0,24.
 07,54.12,14.92\C,0,24.98,53.52,13.85\C,0,25.91,52.39,14.26\O,0,25.79,5
 1.71,15.31\O,0,26.9,52.18,13.52\H,0,24.51,56.19,13.71\H,0,22.42,54.32,
 13.55\H,0,23.55,53.32,15.44\H,0,24.59,54.77,15.63\H,0,25.58,54.31,13.4
 \H,0,24.38,53.08,13.06\N,0,21.97,56.39,15.93\C,0,21.05,56.84,16.95\H,0
 ,20.098,56.323,16.833\H,0,21.463,56.622,17.935\H,0,20.894,57.914,16.85
 1\H,0,22.75,57.,15.73\Ca,0,28.06,50.31,14.96\O,0,30.42,51.45,14.08\H,0
 ,30.99,51.7,13.36\H,0,30.41,52.22,14.65\\Version=ES64L-G16RevA.03\Stat
 e=1-A\HF=-5333.5506845\RMSD=3.325e-09\Dipole=-1.7002964,10.0588041,-9.
 5005557\Quadrupole=3.3896932,-100.4934512,97.1037579,73.1410004,51.137
 0947,5.1297547\PG=C01 [X(C54H83Ca1N15O23)]\\@


 WE TEND TO MEET ANY NEW SITUATION BY REORGANIZING. IT CAN BE A
 WONDERFUL METHOD FOR CREATING THE ILLUSION OF PROGRESS WHILE PRODUCING
 CONFUSION, INEFFICIENCY, AND DEMORALIZATION.
     -- PETRONIUS ARBITER, 210 B.C.
 Job cpu time:       0 days  9 hours  9 minutes 54.1 seconds.
 Elapsed time:       0 days  0 hours 11 minutes 34.9 seconds.
 File lengths (MBytes):  RWF=   1517 Int=      0 D2E=      0 Chk=    171 Scr=      1
 Normal termination of Gaussian 16 at Sat Sep 14 23:49:32 2019.
