 Entering Gaussian System, Link 0=g16
 Initial command:
 /home1/apps/gaussian/16rA.03/g16/l1.exe "/scratch/01990/pengzhi/4328843/Gau-196148.inp" -scrdir="/scratch/01990/pengzhi/4328843/"
 Entering Link 1 = /home1/apps/gaussian/16rA.03/g16/l1.exe PID=    196149.
  
 Copyright (c) 1988,1990,1992,1993,1995,1998,2003,2009,2016,
            Gaussian, Inc.  All Rights Reserved.
  
 This is part of the Gaussian(R) 16 program.  It is based on
 the Gaussian(R) 09 system (copyright 2009, Gaussian, Inc.),
 the Gaussian(R) 03 system (copyright 2003, Gaussian, Inc.),
 the Gaussian(R) 98 system (copyright 1998, Gaussian, Inc.),
 the Gaussian(R) 94 system (copyright 1995, Gaussian, Inc.),
 the Gaussian 92(TM) system (copyright 1992, Gaussian, Inc.),
 the Gaussian 90(TM) system (copyright 1990, Gaussian, Inc.),
 the Gaussian 88(TM) system (copyright 1988, Gaussian, Inc.),
 the Gaussian 86(TM) system (copyright 1986, Carnegie Mellon
 University), and the Gaussian 82(TM) system (copyright 1983,
 Carnegie Mellon University). Gaussian is a federally registered
 trademark of Gaussian, Inc.
  
 This software contains proprietary and confidential information,
 including trade secrets, belonging to Gaussian, Inc.
  
 This software is provided under written license and may be
 used, copied, transmitted, or stored only in accord with that
 written license.
  
 The following legend is applicable only to US Government
 contracts under FAR:
  
                    RESTRICTED RIGHTS LEGEND
  
 Use, reproduction and disclosure by the US Government is
 subject to restrictions as set forth in subparagraphs (a)
 and (c) of the Commercial Computer Software - Restricted
 Rights clause in FAR 52.227-19.
  
 Gaussian, Inc.
 340 Quinnipiac St., Bldg. 40, Wallingford CT 06492
  
  
 ---------------------------------------------------------------
 Warning -- This program may not be used in any manner that
 competes with the business of Gaussian, Inc. or will provide
 assistance to any competitor of Gaussian, Inc.  The licensee
 of this program is prohibited from giving any competitor of
 Gaussian, Inc. access to this program.  By using this program,
 the user acknowledges that Gaussian, Inc. is engaged in the
 business of creating and licensing software in the field of
 computational chemistry and represents and warrants to the
 licensee that it is not a competitor of Gaussian, Inc. and that
 it will not use this program in any manner prohibited above.
 ---------------------------------------------------------------
  

 Cite this work as:
 Gaussian 16, Revision A.03,
 M. J. Frisch, G. W. Trucks, H. B. Schlegel, G. E. Scuseria, 
 M. A. Robb, J. R. Cheeseman, G. Scalmani, V. Barone, 
 G. A. Petersson, H. Nakatsuji, X. Li, M. Caricato, A. V. Marenich, 
 J. Bloino, B. G. Janesko, R. Gomperts, B. Mennucci, H. P. Hratchian, 
 J. V. Ortiz, A. F. Izmaylov, J. L. Sonnenberg, D. Williams-Young, 
 F. Ding, F. Lipparini, F. Egidi, J. Goings, B. Peng, A. Petrone, 
 T. Henderson, D. Ranasinghe, V. G. Zakrzewski, J. Gao, N. Rega, 
 G. Zheng, W. Liang, M. Hada, M. Ehara, K. Toyota, R. Fukuda, 
 J. Hasegawa, M. Ishida, T. Nakajima, Y. Honda, O. Kitao, H. Nakai, 
 T. Vreven, K. Throssell, J. A. Montgomery, Jr., J. E. Peralta, 
 F. Ogliaro, M. J. Bearpark, J. J. Heyd, E. N. Brothers, K. N. Kudin, 
 V. N. Staroverov, T. A. Keith, R. Kobayashi, J. Normand, 
 K. Raghavachari, A. P. Rendell, J. C. Burant, S. S. Iyengar, 
 J. Tomasi, M. Cossi, J. M. Millam, M. Klene, C. Adamo, R. Cammi, 
 J. W. Ochterski, R. L. Martin, K. Morokuma, O. Farkas, 
 J. B. Foresman, and D. J. Fox, Gaussian, Inc., Wallingford CT, 2016.
 
 ******************************************
 Gaussian 16:  ES64L-G16RevA.03 25-Dec-2016
                14-Sep-2019 
 ******************************************
 %chk=CaMKII_loop3_104.0.chk
 %nprocshared=48
 Will use up to   48 processors via shared memory.
 %mem=10GB
 %nosave
 ----------------------------------------------------------------------
 #b3lyp/svp scf=(tight,noincore) Test #IOP(5/87=12) Density=Current Pop
 =(MK,readradii) iop(6/33=2) iop(6/42=6)
 ----------------------------------------------------------------------
 1/30=1,38=1,172=1/1;
 2/12=2,17=6,18=5,40=1/2;
 3/5=18,7=101,11=2,25=1,30=1,74=-5/1,2,3;
 4//1;
 5/5=4,32=2,38=5,87=12/2;
 6/7=2,8=2,9=2,10=2,15=8,20=101,22=-1,28=1,33=2,42=6/1,2;
 99/5=1,9=1/99;
 ------------------
 CaMKII_loop3_104.0
 ------------------
 Symbolic Z-matrix:
 Charge =  0 Multiplicity = 1
 C                     81.58     64.19     35.38 
 C                     81.04     64.1      36.8 
 O                     81.36     63.16     37.53 
 H                     82.604    63.816    35.357 
 H                     80.959    63.589    34.716 
 H                     81.566    65.229    35.05 
 N                     80.2      65.03     37.26 
 C                     79.5      65.01     38.53 
 C                     78.3      64.1      38.33 
 O                     77.27     64.54     37.82 
 C                     79.21     66.46     38.93 
 C                     78.64     66.62     40.34 
 O                     78.72     65.63     41.1 
 O                     78.11     67.72     40.61 
 H                     80.06     65.81     36.64 
 H                     80.1      64.56     39.32 
 H                     78.6      66.93     38.16 
 H                     80.16     67.       39. 
 N                     78.33     62.95     39. 
 C                     77.31     61.92     38.93 
 C                     76.12     62.15     39.84 
 O                     74.98     62.04     39.39 
 C                     77.98     60.58     39.18 
 C                     77.15     59.37     38.77 
 C                     77.97     58.12     38.47 
 C                     78.7      57.58     39.7 
 N                     79.44     56.37     39.32 
 H                     79.19     62.75     39.5 
 H                     76.85     61.94     37.94 
 H                     78.32     60.52     40.22 
 H                     78.86     60.54     38.54 
 H                     76.58     59.49     37.84 
 H                     76.43     59.05     39.53 
 H                     78.71     58.34     37.7 
 H                     77.3      57.36     38.07 
 H                     77.95     57.41     40.47 
 H                     79.48     58.3      39.95 
 H                     79.93     56.46     38.44 
 H                     80.11     56.12     40.04 
 H                     78.94     55.5      39.4 
 N                     76.46     62.38     41.11 
 C                     75.52     62.6      42.2 
 C                     74.89     63.97     41.99 
 O                     73.72     64.16     42.34 
 C                     76.14     62.51     43.59 
 C                     77.52     63.13     43.75 
 O                     77.68     64.37     43.88 
 O                     78.57     62.45     43.63 
 H                     77.43     62.56     41.32 
 H                     74.78     61.81     42.24 
 H                     76.18     61.47     43.89 
 H                     75.36     62.89     44.24 
 N                     75.72     64.95     41.62 
 C                     75.24     66.32     41.58 
 C                     75.33     67.08     42.9 
 O                     74.34     67.5      43.51 
 H                     76.65     64.78     41.27 
 H                     74.16     66.25     41.4 
 H                     75.75     66.97     40.88 
 N                     76.54     67.29     43.4 
 C                     76.85     68.04     44.6 
 C                     77.81     69.21     44.39 
 O                     78.21     69.88     45.34 
 C                     77.42     67.01     45.57 
 C                     78.79     66.49     45.18 
 N                     79.34     65.73     46.13 
 O                     79.33     66.58     44.08 
 H                     77.36     67.01     42.88 
 H                     75.92     68.51     44.92 
 H                     76.74     66.17     45.68 
 H                     77.51     67.48     46.56 
 H                     78.92     65.82     47.04 
 H                     80.32     65.57     45.93 
 N                     78.22     69.43     43.14 
 C                     79.14     70.48     42.76 
 C                     80.61     70.11     42.6 
 O                     81.4      70.99     42.28 
 H                     77.94     68.76     42.44 
 H                     79.05     71.23     43.54 
 H                     78.76     70.88     41.83 
 N                     81.02     68.85     42.77 
 C                     82.4      68.4      42.74 
 C                     82.63     66.99     42.22 
 O                     81.8      66.15     42.56 
 C                     83.22     68.71     43.98 
 C                     82.49     68.55     45.29 
 C                     81.75     69.63     45.8 
 C                     82.71     67.36     45.99 
 C                     81.07     69.5      47.02 
 C                     82.14     67.36     47.27 
 C                     81.31     68.36     47.81 
 O                     80.62     68.26     48.98 
 H                     80.37     68.15     43.12 
 H                     82.77     69.04     41.94 
 H                     83.72     69.69     43.98 
 H                     84.02     67.97     43.98 
 H                     81.68     70.49     45.16 
 H                     83.31     66.54     45.63 
 H                     80.52     70.33     47.44 
 H                     82.3      66.49     47.89 
 H                     81.       67.57     49.53 
 N                     83.74     66.8      41.5 
 C                     84.1      65.55     40.87 
 C                     85.17     64.87     41.71 
 O                     86.26     65.42     41.83 
 C                     84.61     65.73     39.44 
 C                     83.88     66.72     38.54 
 C                     84.61     64.38     38.73 
 C                     84.81     67.24     37.45 
 H                     84.19     67.63     41.13 
 H                     83.25     64.87     40.76 
 H                     85.62     66.14     39.5 
 H                     83.53     67.57     39.11 
 H                     83.02     66.23     38.09 
 H                     83.58     64.07     38.58 
 H                     85.08     64.45     37.74 
 H                     85.24     63.66     39.25 
 H                     85.44     68.03     37.86 
 H                     85.52     66.52     37.05 
 H                     84.28     67.5      36.53 
 N                     84.81     63.78     42.39 
 C                     85.74     62.91     43.07 
 C                     86.62     62.04     42.17 
 O                     86.3      61.83     41. 
 C                     84.94     62.01     44. 
 O                     84.11     61.11     43.29 
 H                     83.82     63.56     42.38 
 H                     86.45     63.43     43.71 
 H                     84.27     62.59     44.62 
 H                     85.62     61.36     44.55 
 H                     83.38     61.66     42.99 
 N                     87.64     61.4      42.74 
 C                     88.38     60.46     41.92 
 C                     87.58     59.25     41.45 
 O                     87.78     58.97     40.27 
 C                     89.56     59.94     42.75 
 H                     87.76     61.49     43.73 
 H                     88.73     60.95     41.02 
 H                     90.08     60.84     43.07 
 H                     89.27     59.44     43.67 
 H                     90.19     59.33     42.12 
 N                     86.71     58.63     42.25 
 C                     85.87     57.53     41.81 
 C                     84.85     57.84     40.73 
 O                     84.57     56.94     39.93 
 C                     85.3      57.11     43.16 
 H                     86.68     58.85     43.23 
 H                     86.47     56.69     41.46 
 H                     84.44     56.44     43.11 
 H                     86.08     56.48     43.59 
 H                     84.97     57.89     43.85 
 N                     84.49     59.11     40.57 
 C                     83.67     59.6      39.49 
 C                     84.55     59.85     38.27 
 O                     84.15     59.52     37.16 
 C                     83.06     60.95     39.87 
 C                     81.87     60.74     40.79 
 C                     81.48     62.06     41.45 
 O                     82.08     62.5      42.45 
 O                     80.57     62.7      40.88 
 H                     84.82     59.79     41.25 
 H                     82.86     58.91     39.24 
 H                     82.65     61.57     39.07 
 H                     83.82     61.56     40.36 
 H                     82.04     60.03     41.59 
 H                     81.08     60.42     40.11 
 N                     85.74     60.44     38.44 
 C                     86.64     60.52     37.31 
 H                     87.6      60.08     37.579 
 H                     86.215    59.975    36.467 
 H                     86.784    61.564    37.033 
 H                     86.       60.87     39.32 
 Ca                    80.11     64.35     42.9 
 O                     81.66     64.24     45.05 
 H                     82.41     64.69     45.44 
 H                     81.57     63.44     45.56 
 
 Stoichiometry    C54H83CaN15O23
 Framework group  C1[X(C54H83CaN15O23)]
 Deg. of freedom   522
 Full point group                 C1      NOp   1
 Largest Abelian subgroup         C1      NOp   1
 Largest concise Abelian subgroup C1      NOp   1
                         Standard orientation:                         
 ---------------------------------------------------------------------
 Center     Atomic      Atomic             Coordinates (Angstroms)
 Number     Number       Type             X           Y           Z
 ---------------------------------------------------------------------
      1          6           0        2.024300    2.443070    5.457674
      2          6           0        1.301323    2.243715    4.133416
      3          8           0        1.940021    2.132759    3.085249
      4          1           0        2.954159    1.873581    5.452558
      5          1           0        2.247277    3.501025    5.594607
      6          1           0        1.391035    2.095927    6.274426
      7          7           0       -0.032534    2.205892    4.094744
      8          6           0       -0.861611    2.159691    2.905712
      9          6           0       -0.939628    3.588904    2.396434
     10          8           0       -1.755440    4.372910    2.880567
     11          6           0       -2.184927    1.485479    3.281043
     12          6           0       -3.098841    1.190881    2.090844
     13          8           0       -2.589495    1.269461    0.951330
     14          8           0       -4.292710    0.925496    2.351704
     15          1           0       -0.477033    2.210948    4.997404
     16          1           0       -0.402772    1.573543    2.110415
     17          1           0       -2.670352    2.060213    4.068408
     18          1           0       -1.969953    0.482312    3.663721
     19          7           0       -0.323121    3.823800    1.240128
     20          6           0       -0.241036    5.118480    0.589540
     21          6           0       -1.450512    5.478739   -0.249794
     22          8           0       -1.971658    6.586087   -0.121782
     23          6           0        1.050899    5.160461   -0.208045
     24          6           0        1.486097    6.556126   -0.636791
     25          6           0        2.981325    6.692442   -0.902518
     26          6           0        3.451610    5.853424   -2.090913
     27          7           0        4.891834    6.066148   -2.282233
     28          1           0        0.218296    3.053705    0.861418
     29          1           0       -0.247514    5.901343    1.350582
     30          1           0        0.992409    4.463785   -1.051858
     31          1           0        1.844296    4.815528    0.453122
     32          1           0        1.320238    7.344786    0.107995
     33          1           0        1.010607    6.903216   -1.559741
     34          1           0        3.542667    6.383855   -0.020152
     35          1           0        3.202470    7.744558   -1.077580
     36          1           0        2.848881    6.145032   -2.948808
     37          1           0        3.375630    4.807111   -1.792996
     38          1           0        5.416330    6.057268   -1.417695
     39          1           0        5.277730    5.361980   -2.902742
     40          1           0        5.151925    6.827191   -2.887596
     41          7           0       -1.782357    4.535836   -1.134222
     42          6           0       -2.878734    4.632960   -2.087439
     43          6           0       -4.178094    4.528349   -1.300914
     44          8           0       -5.174373    5.147818   -1.689740
     45          6           0       -2.843091    3.583298   -3.192671
     46          6           0       -2.433906    2.179881   -2.771495
     47          8           0       -3.236729    1.395846   -2.205047
     48          8           0       -1.243649    1.784612   -2.851185
     49          1           0       -1.346074    3.630002   -1.053452
     50          1           0       -2.817262    5.551851   -2.657666
     51          1           0       -2.183098    3.925203   -3.980523
     52          1           0       -3.812464    3.683108   -3.667701
     53          7           0       -4.212591    3.599618   -0.340461
     54          6           0       -5.467363    3.306011    0.329048
     55          6           0       -6.346324    2.267654   -0.361852
     56          8           0       -7.466994    2.522510   -0.817644
     57          1           0       -3.385329    3.149126    0.018695
     58          1           0       -6.060779    4.226395    0.262326
     59          1           0       -5.376518    2.926836    1.339282
     60          7           0       -5.865196    1.036589   -0.467666
     61          6           0       -6.558117   -0.106185   -1.026708
     62          6           0       -6.690591   -1.297290   -0.078911
     63          8           0       -7.192552   -2.354367   -0.455771
     64          6           0       -5.768903   -0.468467   -2.280738
     65          6           0       -4.400593   -1.057494   -1.997585
     66          7           0       -3.806749   -1.527692   -3.097068
     67          8           0       -3.776093   -1.003605   -0.940799
     68          1           0       -4.979842    0.799040   -0.042322
     69          1           0       -7.585707    0.211386   -1.203928
     70          1           0       -5.655284    0.398343   -2.925587
     71          1           0       -6.343735   -1.215140   -2.847438
     72          1           0       -4.420991   -1.672520   -3.880860
     73          1           0       -3.000331   -2.088496   -2.849701
     74          7           0       -6.194722   -1.141901    1.149490
     75          6           0       -6.216897   -2.167313    2.169950
     76          6           0       -4.959545   -3.008651    2.356007
     77          8           0       -4.965417   -3.881466    3.215692
     78          1           0       -5.692173   -0.287843    1.337450
     79          1           0       -7.038977   -2.821252    1.895087
     80          1           0       -6.455600   -1.656949    3.092906
     81          7           0       -3.866840   -2.775743    1.623648
     82          6           0       -2.651754   -3.570064    1.644167
     83          6           0       -1.358212   -2.816156    1.380022
     84          8           0       -1.412277   -1.942182    0.517847
     85          6           0       -2.720158   -4.895906    0.906900
     86          6           0       -3.483131   -4.869552   -0.393783
     87          6           0       -4.872552   -5.077862   -0.379098
     88          6           0       -2.725170   -4.770260   -1.564312
     89          6           0       -5.596484   -5.062491   -1.580508
     90          6           0       -3.487313   -4.927598   -2.729509
     91          6           0       -4.888226   -5.043433   -2.796776
     92          8           0       -5.624186   -5.012541   -3.942380
     93          1           0       -3.905493   -2.108769    0.856412
     94          1           0       -2.613593   -3.794626    2.709350
     95          1           0       -3.081707   -5.747054    1.502911
     96          1           0       -1.686424   -5.130219    0.653736
     97          1           0       -5.321558   -5.154931    0.593813
     98          1           0       -1.653972   -4.652886   -1.591837
     99          1           0       -6.660830   -5.249264   -1.589545
    100          1           0       -2.967025   -4.903583   -3.675883
    101          1           0       -5.065967   -5.208491   -4.699344
    102          7           0       -0.286830   -3.222743    2.068083
    103          6           0        1.012781   -2.593818    2.001276
    104          6           0        1.920527   -3.440380    1.122510
    105          8           0        2.203572   -4.575430    1.492032
    106          6           0        1.656587   -2.411541    3.375936
    107          6           0        0.770408   -1.942373    4.523790
    108          6           0        2.818102   -1.429276    3.263519
    109          6           0        1.343412   -2.393561    5.862258
    110          1           0       -0.462037   -3.795178    2.886569
    111          1           0        0.972514   -1.578552    1.595550
    112          1           0        2.004209   -3.391340    3.709032
    113          1           0       -0.224865   -2.356061    4.433272
    114          1           0        0.695592   -0.857923    4.499928
    115          1           0        2.415403   -0.442522    3.054593
    116          1           0        3.377500   -1.363485    4.206199
    117          1           0        3.568016   -1.783128    2.557745
    118          1           0        1.072393   -3.435088    6.037959
    119          1           0        2.428129   -2.388782    5.938845
    120          1           0        1.102522   -1.707632    6.678575
    121          7           0        2.240095   -2.948877   -0.075989
    122          6           0        3.239357   -3.525617   -0.943772
    123          6           0        4.692549   -3.346881   -0.499264
    124          8           0        4.992570   -2.474102    0.315380
    125          6           0        3.065018   -2.912877   -2.325457
    126          8           0        3.375993   -1.532282   -2.341358
    127          1           0        1.757285   -2.099523   -0.348189
    128          1           0        3.137844   -4.599377   -1.088116
    129          1           0        2.036233   -2.979061   -2.652446
    130          1           0        3.789104   -3.351802   -3.011347
    131          1           0        2.612524   -1.120910   -1.925079
    132          7           0        5.623143   -4.053009   -1.139794
    133          6           0        7.010169   -3.772173   -0.822163
    134          6           0        7.483212   -2.371577   -1.195742
    135          8           0        8.171140   -1.847341   -0.322398
    136          6           0        7.880290   -4.774280   -1.590520
    137          1           0        5.333135   -4.636384   -1.900168
    138          1           0        7.170964   -3.863103    0.244831
    139          1           0        7.489067   -5.746706   -1.300468
    140          1           0        7.759088   -4.732243   -2.669428
    141          1           0        8.907267   -4.659103   -1.277547
    142          7           0        7.108068   -1.784395   -2.334067
    143          6           0        7.469199   -0.421383   -2.681894
    144          6           0        6.926069    0.677794   -1.787625
    145          8           0        7.620054    1.689673   -1.636339
    146          6           0        6.978899   -0.405360   -4.125206
    147          1           0        6.633424   -2.315016   -3.043190
    148          1           0        8.551291   -0.298784   -2.728236
    149          1           0        6.906722    0.585194   -4.577526
    150          1           0        7.790545   -0.873984   -4.683616
    151          1           0        6.008514   -0.854295   -4.349283
    152          7           0        5.855603    0.398217   -1.050036
    153          6           0        5.315942    1.260503   -0.028211
    154          6           0        6.085254    1.037553    1.269384
    155          8           0        6.398952    2.001263    1.957756
    156          6           0        3.861906    0.882565    0.258047
    157          6           0        2.956707    1.453230   -0.819708
    158          6           0        1.579585    0.798814   -0.746393
    159          8           0        1.352105   -0.317587   -1.251866
    160          8           0        0.720054    1.423015   -0.087470
    161          1           0        5.384525   -0.488875   -1.207691
    162          1           0        5.351584    2.314505   -0.315457
    163          1           0        3.410138    1.248701    1.182358
    164          1           0        3.775987   -0.204214    0.294499
    165          1           0        3.316297    1.309809   -1.831205
    166          1           0        2.879142    2.507050   -0.550732
    167          7           0        6.389573   -0.214246    1.634748
    168          6           0        7.262860   -0.409954    2.771572
    169          1           0        8.107615   -1.032272    2.477175
    170          1           0        7.628425    0.556036    3.120174
    171          1           0        6.711863   -0.901308    3.573055
    172          1           0        5.986358   -1.017986    1.167501
    173         20           0       -1.351332    0.041290   -0.990074
    174          8           0       -0.934798   -2.036727   -2.585518
    175          1           0       -0.884638   -2.992436   -2.550812
    176          1           0       -0.591062   -1.810710   -3.445147
 ---------------------------------------------------------------------
 Rotational constants (GHZ):           0.0247817           0.0157798           0.0127447
 Standard basis: SVP (5D, 7F)
 There are  1809 symmetry adapted cartesian basis functions of A   symmetry.
 There are  1717 symmetry adapted basis functions of A   symmetry.
  1717 basis functions,  2922 primitive gaussians,  1809 cartesian basis functions
   358 alpha electrons      358 beta electrons
       nuclear repulsion energy     22086.5256274894 Hartrees.
 NAtoms=  176 NActive=  176 NUniq=  176 SFac= 1.00D+00 NAtFMM=   60 NAOKFM=T Big=T
 Integral buffers will be    131072 words long.
 Raffenetti 2 integral format.
 Two-electron integral symmetry is turned on.
 One-electron integrals computed using PRISM.
 NBasis=  1717 RedAO= T EigKep=  2.94D-04  NBF=  1717
 NBsUse=  1717 1.00D-06 EigRej= -1.00D+00 NBFU=  1717
 ExpMin= 1.98D-02 ExpMax= 3.51D+04 ExpMxC= 5.28D+03 IAcc=3 IRadAn=         5 AccDes= 0.00D+00
 Harris functional with IExCor=  402 and IRadAn=       5 diagonalized for initial guess.
 HarFok:  IExCor=  402 AccDes= 0.00D+00 IRadAn=         5 IDoV= 1 UseB2=F ITyADJ=14
 ICtDFT=  3500011 ScaDFX=  1.000000  1.000000  1.000000  1.000000
 FoFCou: FMM=F IPFlag=           0 FMFlag=      100000 FMFlg1=        2001
         NFxFlg=           0 DoJE=T BraDBF=F KetDBF=T FulRan=T
         wScrn=  0.000000 ICntrl=       500 IOpCl=  0 I1Cent=   200000004 NGrid=           0
         NMat0=    1 NMatS0=      1 NMatT0=    0 NMatD0=    1 NMtDS0=    0 NMtDT0=    0
 Petite list used in FoFCou.
 Requested convergence on RMS density matrix=1.00D-08 within 128 cycles.
 Requested convergence on MAX density matrix=1.00D-06.
 Requested convergence on             energy=1.00D-06.
 No special actions if energy rises.
 EnCoef did     4 forward-backward iterations
 SCF Done:  E(RB3LYP) =  -5333.62497114     A.U. after   19 cycles
            NFock= 19  Conv=0.26D-08     -V/T= 2.0081
 SCF density gives NOpUse=  1 NOpAll=  1.
 Hyperfine terms turned off by default for NAtoms > 100.

 **********************************************************************

            Population analysis using the SCF density.

 **********************************************************************

 Orbital symmetries:
 BldTbl:  Degeneracy threshold= 1.00D-02
       Occupied  (A) (A) (A) (A) (A) (A) (A) (A) (A) (A) (A) (A)
                 (A) (A) (A) (A) (A) (A) (A) (A) (A) (A) (A) (A)
                 (A) (A) (A) (A) (A) (A) (A) (A) (A) (A) (A) (A)
                 (A) (A) (A) (A) (A) (A) (A) (A) (A) (A) (A) (A)
                 (A) (A) (A) (A) (A) (A) (A) (A) (A) (A) (A) (A)
                 (A) (A) (A) (A) (A) (A) (A) (A) (A) (A) (A) (A)
                 (A) (A) (A) (A) (A) (A) (A) (A) (A) (A) (A) (A)
                 (A) (A) (A) (A) (A) (A) (A) (A) (A) (A) (A) (A)
                 (A) (A) (A) (A) (A) (A) (A) (A) (A) (A) (A) (A)
                 (A) (A) (A) (A) (A) (A) (A) (A) (A) (A) (A) (A)
                 (A) (A) (A) (A) (A) (A) (A) (A) (A) (A) (A) (A)
                 (A) (A) (A) (A) (A) (A) (A) (A) (A) (A) (A) (A)
                 (A) (A) (A) (A) (A) (A) (A) (A) (A) (A) (A) (A)
                 (A) (A) (A) (A) (A) (A) (A) (A) (A) (A) (A) (A)
                 (A) (A) (A) (A) (A) (A) (A) (A) (A) (A) (A) (A)
                 (A) (A) (A) (A) (A) (A) (A) (A) (A) (A) (A) (A)
                 (A) (A) (A) (A) (A) (A) (A) (A) (A) (A) (A) (A)
                 (A) (A) (A) (A) (A) (A) (A) (A) (A) (A) (A) (A)
                 (A) (A) (A) (A) (A) (A) (A) (A) (A) (A) (A) (A)
                 (A) (A) (A) (A) (A) (A) (A) (A) (A) (A) (A) (A)
                 (A) (A) (A) (A) (A) (A) (A) (A) (A) (A) (A) (A)
                 (A) (A) (A) (A) (A) (A) (A) (A) (A) (A) (A) (A)
                 (A) (A) (A) (A) (A) (A) (A) (A) (A) (A) (A) (A)
                 (A) (A) (A) (A) (A) (A) (A) (A) (A) (A) (A) (A)
                 (A) (A) (A) (A) (A) (A) (A) (A) (A) (A) (A) (A)
                 (A) (A) (A) (A) (A) (A) (A) (A) (A) (A) (A) (A)
                 (A) (A) (A) (A) (A) (A) (A) (A) (A) (A) (A) (A)
                 (A) (A) (A) (A) (A) (A) (A) (A) (A) (A) (A) (A)
                 (A) (A) (A) (A) (A) (A) (A) (A) (A) (A) (A) (A)
                 (A) (A) (A) (A) (A) (A) (A) (A) (A) (A)
       Virtual   (A) (A) (A) (A) (A) (A) (A) (A) (A) (A) (A) (A)
                 (A) (A) (A) (A) (A) (A) (A) (A) (A) (A) (A) (A)
                 (A) (A) (A) (A) (A) (A) (A) (A) (A) (A) (A) (A)
                 (A) (A) (A) (A) (A) (A) (A) (A) (A) (A) (A) (A)
                 (A) (A) (A) (A) (A) (A) (A) (A) (A) (A) (A) (A)
                 (A) (A) (A) (A) (A) (A) (A) (A) (A) (A) (A) (A)
                 (A) (A) (A) (A) (A) (A) (A) (A) (A) (A) (A) (A)
                 (A) (A) (A) (A) (A) (A) (A) (A) (A) (A) (A) (A)
                 (A) (A) (A) (A) (A) (A) (A) (A) (A) (A) (A) (A)
                 (A) (A) (A) (A) (A) (A) (A) (A) (A) (A) (A) (A)
                 (A) (A) (A) (A) (A) (A) (A) (A) (A) (A) (A) (A)
                 (A) (A) (A) (A) (A) (A) (A) (A) (A) (A) (A) (A)
                 (A) (A) (A) (A) (A) (A) (A) (A) (A) (A) (A) (A)
                 (A) (A) (A) (A) (A) (A) (A) (A) (A) (A) (A) (A)
                 (A) (A) (A) (A) (A) (A) (A) (A) (A) (A) (A) (A)
                 (A) (A) (A) (A) (A) (A) (A) (A) (A) (A) (A) (A)
                 (A) (A) (A) (A) (A) (A) (A) (A) (A) (A) (A) (A)
                 (A) (A) (A) (A) (A) (A) (A) (A) (A) (A) (A) (A)
                 (A) (A) (A) (A) (A) (A) (A) (A) (A) (A) (A) (A)
                 (A) (A) (A) (A) (A) (A) (A) (A) (A) (A) (A) (A)
                 (A) (A) (A) (A) (A) (A) (A) (A) (A) (A) (A) (A)
                 (A) (A) (A) (A) (A) (A) (A) (A) (A) (A) (A) (A)
                 (A) (A) (A) (A) (A) (A) (A) (A) (A) (A) (A) (A)
                 (A) (A) (A) (A) (A) (A) (A) (A) (A) (A) (A) (A)
                 (A) (A) (A) (A) (A) (A) (A) (A) (A) (A) (A) (A)
                 (A) (A) (A) (A) (A) (A) (A) (A) (A) (A) (A) (A)
                 (A) (A) (A) (A) (A) (A) (A) (A) (A) (A) (A) (A)
                 (A) (A) (A) (A) (A) (A) (A) (A) (A) (A) (A) (A)
                 (A) (A) (A) (A) (A) (A) (A) (A) (A) (A) (A) (A)
                 (A) (A) (A) (A) (A) (A) (A) (A) (A) (A) (A) (A)
                 (A) (A) (A) (A) (A) (A) (A) (A) (A) (A) (A) (A)
                 (A) (A) (A) (A) (A) (A) (A) (A) (A) (A) (A) (A)
                 (A) (A) (A) (A) (A) (A) (A) (A) (A) (A) (A) (A)
                 (A) (A) (A) (A) (A) (A) (A) (A) (A) (A) (A) (A)
                 (A) (A) (A) (A) (A) (A) (A) (A) (A) (A) (A) (A)
                 (A) (A) (A) (A) (A) (A) (A) (A) (A) (A) (A) (A)
                 (A) (A) (A) (A) (A) (A) (A) (A) (A) (A) (A) (A)
                 (A) (A) (A) (A) (A) (A) (A) (A) (A) (A) (A) (A)
                 (A) (A) (A) (A) (A) (A) (A) (A) (A) (A) (A) (A)
                 (A) (A) (A) (A) (A) (A) (A) (A) (A) (A) (A) (A)
                 (A) (A) (A) (A) (A) (A) (A) (A) (A) (A) (A) (A)
                 (A) (A) (A) (A) (A) (A) (A) (A) (A) (A) (A) (A)
                 (A) (A) (A) (A) (A) (A) (A) (A) (A) (A) (A) (A)
                 (A) (A) (A) (A) (A) (A) (A) (A) (A) (A) (A) (A)
                 (A) (A) (A) (A) (A) (A) (A) (A) (A) (A) (A) (A)
                 (A) (A) (A) (A) (A) (A) (A) (A) (A) (A) (A) (A)
                 (A) (A) (A) (A) (A) (A) (A) (A) (A) (A) (A) (A)
                 (A) (A) (A) (A) (A) (A) (A) (A) (A) (A) (A) (A)
                 (A) (A) (A) (A) (A) (A) (A) (A) (A) (A) (A) (A)
                 (A) (A) (A) (A) (A) (A) (A) (A) (A) (A) (A) (A)
                 (A) (A) (A) (A) (A) (A) (A) (A) (A) (A) (A) (A)
                 (A) (A) (A) (A) (A) (A) (A) (A) (A) (A) (A) (A)
                 (A) (A) (A) (A) (A) (A) (A) (A) (A) (A) (A) (A)
                 (A) (A) (A) (A) (A) (A) (A) (A) (A) (A) (A) (A)
                 (A) (A) (A) (A) (A) (A) (A) (A) (A) (A) (A) (A)
                 (A) (A) (A) (A) (A) (A) (A) (A) (A) (A) (A) (A)
                 (A) (A) (A) (A) (A) (A) (A) (A) (A) (A) (A) (A)
                 (A) (A) (A) (A) (A) (A) (A) (A) (A) (A) (A) (A)
                 (A) (A) (A) (A) (A) (A) (A) (A) (A) (A) (A) (A)
                 (A) (A) (A) (A) (A) (A) (A) (A) (A) (A) (A) (A)
                 (A) (A) (A) (A) (A) (A) (A) (A) (A) (A) (A) (A)
                 (A) (A) (A) (A) (A) (A) (A) (A) (A) (A) (A) (A)
                 (A) (A) (A) (A) (A) (A) (A) (A) (A) (A) (A) (A)
                 (A) (A) (A) (A) (A) (A) (A) (A) (A) (A) (A) (A)
                 (A) (A) (A) (A) (A) (A) (A) (A) (A) (A) (A) (A)
                 (A) (A) (A) (A) (A) (A) (A) (A) (A) (A) (A) (A)
                 (A) (A) (A) (A) (A) (A) (A) (A) (A) (A) (A) (A)
                 (A) (A) (A) (A) (A) (A) (A) (A) (A) (A) (A) (A)
                 (A) (A) (A) (A) (A) (A) (A) (A) (A) (A) (A) (A)
                 (A) (A) (A) (A) (A) (A) (A) (A) (A) (A) (A) (A)
                 (A) (A) (A) (A) (A) (A) (A) (A) (A) (A) (A) (A)
                 (A) (A) (A) (A) (A) (A) (A) (A) (A) (A) (A) (A)
                 (A) (A) (A) (A) (A) (A) (A) (A) (A) (A) (A) (A)
                 (A) (A) (A) (A) (A) (A) (A) (A) (A) (A) (A) (A)
                 (A) (A) (A) (A) (A) (A) (A) (A) (A) (A) (A) (A)
                 (A) (A) (A) (A) (A) (A) (A) (A) (A) (A) (A) (A)
                 (A) (A) (A) (A) (A) (A) (A) (A) (A) (A) (A) (A)
                 (A) (A) (A) (A) (A) (A) (A) (A) (A) (A) (A) (A)
                 (A) (A) (A) (A) (A) (A) (A) (A) (A) (A) (A) (A)
                 (A) (A) (A) (A) (A) (A) (A) (A) (A) (A) (A) (A)
                 (A) (A) (A) (A) (A) (A) (A) (A) (A) (A) (A) (A)
                 (A) (A) (A) (A) (A) (A) (A) (A) (A) (A) (A) (A)
                 (A) (A) (A) (A) (A) (A) (A) (A) (A) (A) (A) (A)
                 (A) (A) (A) (A) (A) (A) (A) (A) (A) (A) (A) (A)
                 (A) (A) (A) (A) (A) (A) (A) (A) (A) (A) (A) (A)
                 (A) (A) (A) (A) (A) (A) (A) (A) (A) (A) (A) (A)
                 (A) (A) (A) (A) (A) (A) (A) (A) (A) (A) (A) (A)
                 (A) (A) (A) (A) (A) (A) (A) (A) (A) (A) (A) (A)
                 (A) (A) (A) (A) (A) (A) (A) (A) (A) (A) (A) (A)
                 (A) (A) (A) (A) (A) (A) (A) (A) (A) (A) (A) (A)
                 (A) (A) (A) (A) (A) (A) (A) (A) (A) (A) (A) (A)
                 (A) (A) (A) (A) (A) (A) (A) (A) (A) (A) (A) (A)
                 (A) (A) (A) (A) (A) (A) (A) (A) (A) (A) (A) (A)
                 (A) (A) (A) (A) (A) (A) (A) (A) (A) (A) (A) (A)
                 (A) (A) (A) (A) (A) (A) (A) (A) (A) (A) (A) (A)
                 (A) (A) (A) (A) (A) (A) (A) (A) (A) (A) (A) (A)
                 (A) (A) (A) (A) (A) (A) (A) (A) (A) (A) (A) (A)
                 (A) (A) (A) (A) (A) (A) (A) (A) (A) (A) (A) (A)
                 (A) (A) (A) (A) (A) (A) (A) (A) (A) (A) (A) (A)
                 (A) (A) (A) (A) (A) (A) (A) (A) (A) (A) (A) (A)
                 (A) (A) (A) (A) (A) (A) (A) (A) (A) (A) (A) (A)
                 (A) (A) (A) (A) (A) (A) (A) (A) (A) (A) (A) (A)
                 (A) (A) (A) (A) (A) (A) (A) (A) (A) (A) (A) (A)
                 (A) (A) (A) (A) (A) (A) (A) (A) (A) (A) (A) (A)
                 (A) (A) (A) (A) (A) (A) (A) (A) (A) (A) (A) (A)
                 (A) (A) (A) (A) (A) (A) (A) (A) (A) (A) (A) (A)
                 (A) (A) (A) (A) (A) (A) (A) (A) (A) (A) (A) (A)
                 (A) (A) (A) (A) (A) (A) (A) (A) (A) (A) (A) (A)
                 (A) (A) (A) (A) (A) (A) (A) (A) (A) (A) (A) (A)
                 (A) (A) (A) (A) (A) (A) (A) (A) (A) (A) (A) (A)
                 (A) (A) (A) (A) (A) (A) (A) (A) (A) (A) (A) (A)
                 (A) (A) (A) (A) (A) (A) (A) (A) (A) (A) (A) (A)
                 (A) (A) (A) (A) (A) (A) (A) (A) (A) (A) (A) (A)
                 (A) (A) (A)
 The electronic state is 1-A.
 Alpha  occ. eigenvalues -- -145.35981 -19.21089 -19.17083 -19.14023 -19.13970
 Alpha  occ. eigenvalues --  -19.13899 -19.12451 -19.11353 -19.11017 -19.10560
 Alpha  occ. eigenvalues --  -19.10538 -19.10154 -19.07859 -19.07780 -19.06955
 Alpha  occ. eigenvalues --  -19.06862 -19.06541 -19.06287 -19.06024 -19.05430
 Alpha  occ. eigenvalues --  -19.04914 -19.04302 -19.03724 -19.03191 -15.41747
 Alpha  occ. eigenvalues --  -14.58216 -14.39927 -14.38886 -14.38463 -14.37325
 Alpha  occ. eigenvalues --  -14.35993 -14.34344 -14.34255 -14.33621 -14.33115
 Alpha  occ. eigenvalues --  -14.32690 -14.32358 -14.31007 -14.30271 -14.29126
 Alpha  occ. eigenvalues --  -12.55358 -12.55319 -12.55314 -10.34552 -10.32191
 Alpha  occ. eigenvalues --  -10.31890 -10.30069 -10.29958 -10.29411 -10.28980
 Alpha  occ. eigenvalues --  -10.28502 -10.27200 -10.27182 -10.27014 -10.26443
 Alpha  occ. eigenvalues --  -10.26122 -10.26091 -10.26000 -10.25719 -10.25503
 Alpha  occ. eigenvalues --  -10.25363 -10.25221 -10.25040 -10.24486 -10.24356
 Alpha  occ. eigenvalues --  -10.24017 -10.23391 -10.23273 -10.23176 -10.23160
 Alpha  occ. eigenvalues --  -10.22231 -10.22042 -10.22032 -10.21876 -10.21590
 Alpha  occ. eigenvalues --  -10.20807 -10.20481 -10.20386 -10.19938 -10.19613
 Alpha  occ. eigenvalues --  -10.19505 -10.19472 -10.19437 -10.19309 -10.19264
 Alpha  occ. eigenvalues --  -10.19158 -10.19134 -10.18904 -10.18734 -10.18670
 Alpha  occ. eigenvalues --  -10.18529 -10.17898 -10.17386 -10.17065 -10.17026
 Alpha  occ. eigenvalues --  -10.16417 -10.15751  -1.78790  -1.13678  -1.07676
 Alpha  occ. eigenvalues --   -1.07423  -1.07280  -1.07001  -1.06046  -1.05801
 Alpha  occ. eigenvalues --   -1.05661  -1.05521  -1.04616  -1.04061  -1.03207
 Alpha  occ. eigenvalues --   -1.03035  -1.02771  -1.01260  -1.00867  -1.00460
 Alpha  occ. eigenvalues --   -1.00430  -1.00177  -0.99320  -0.98916  -0.98667
 Alpha  occ. eigenvalues --   -0.97121  -0.96697  -0.96318  -0.96092  -0.95751
 Alpha  occ. eigenvalues --   -0.95392  -0.94044  -0.92929  -0.91212  -0.90549
 Alpha  occ. eigenvalues --   -0.90357  -0.90150  -0.89769  -0.89493  -0.89434
 Alpha  occ. eigenvalues --   -0.88848  -0.88519  -0.88401  -0.86492  -0.85941
 Alpha  occ. eigenvalues --   -0.85299  -0.82920  -0.82213  -0.81472  -0.80692
 Alpha  occ. eigenvalues --   -0.79453  -0.78816  -0.78188  -0.77345  -0.75978
 Alpha  occ. eigenvalues --   -0.75567  -0.75183  -0.75005  -0.74818  -0.73994
 Alpha  occ. eigenvalues --   -0.73413  -0.73235  -0.71455  -0.70731  -0.70456
 Alpha  occ. eigenvalues --   -0.69867  -0.69339  -0.68246  -0.68233  -0.67606
 Alpha  occ. eigenvalues --   -0.67310  -0.66708  -0.65741  -0.65058  -0.64686
 Alpha  occ. eigenvalues --   -0.63746  -0.63416  -0.63171  -0.62992  -0.62849
 Alpha  occ. eigenvalues --   -0.62361  -0.61989  -0.61703  -0.61637  -0.61113
 Alpha  occ. eigenvalues --   -0.60440  -0.59996  -0.59303  -0.58687  -0.58383
 Alpha  occ. eigenvalues --   -0.57727  -0.57524  -0.57150  -0.56818  -0.56608
 Alpha  occ. eigenvalues --   -0.56090  -0.56005  -0.55556  -0.55436  -0.55406
 Alpha  occ. eigenvalues --   -0.55374  -0.55256  -0.54649  -0.54301  -0.53855
 Alpha  occ. eigenvalues --   -0.53640  -0.53377  -0.53080  -0.52841  -0.52473
 Alpha  occ. eigenvalues --   -0.51846  -0.51424  -0.50937  -0.50819  -0.50785
 Alpha  occ. eigenvalues --   -0.50445  -0.50193  -0.50006  -0.49496  -0.49220
 Alpha  occ. eigenvalues --   -0.49031  -0.48594  -0.48349  -0.47991  -0.47878
 Alpha  occ. eigenvalues --   -0.47768  -0.47662  -0.47393  -0.47212  -0.47078
 Alpha  occ. eigenvalues --   -0.46974  -0.46895  -0.46592  -0.46464  -0.46141
 Alpha  occ. eigenvalues --   -0.45937  -0.45500  -0.45404  -0.45351  -0.45185
 Alpha  occ. eigenvalues --   -0.45133  -0.44898  -0.44645  -0.44502  -0.44400
 Alpha  occ. eigenvalues --   -0.43972  -0.43910  -0.43621  -0.43470  -0.43285
 Alpha  occ. eigenvalues --   -0.43083  -0.43000  -0.42906  -0.42782  -0.42708
 Alpha  occ. eigenvalues --   -0.42578  -0.42496  -0.42367  -0.42180  -0.42116
 Alpha  occ. eigenvalues --   -0.42002  -0.41886  -0.41726  -0.41424  -0.41379
 Alpha  occ. eigenvalues --   -0.41189  -0.41143  -0.41015  -0.40850  -0.40743
 Alpha  occ. eigenvalues --   -0.40655  -0.40273  -0.40054  -0.39878  -0.39734
 Alpha  occ. eigenvalues --   -0.39640  -0.39569  -0.39516  -0.39199  -0.39090
 Alpha  occ. eigenvalues --   -0.38922  -0.38899  -0.38832  -0.38681  -0.38609
 Alpha  occ. eigenvalues --   -0.38269  -0.38150  -0.38004  -0.37913  -0.37708
 Alpha  occ. eigenvalues --   -0.37530  -0.37345  -0.37315  -0.37240  -0.36925
 Alpha  occ. eigenvalues --   -0.36796  -0.36789  -0.36540  -0.36460  -0.36364
 Alpha  occ. eigenvalues --   -0.36305  -0.35797  -0.35692  -0.35467  -0.35258
 Alpha  occ. eigenvalues --   -0.35089  -0.34869  -0.34782  -0.34620  -0.34553
 Alpha  occ. eigenvalues --   -0.34166  -0.33976  -0.33865  -0.33812  -0.33565
 Alpha  occ. eigenvalues --   -0.33339  -0.32996  -0.32840  -0.32650  -0.32604
 Alpha  occ. eigenvalues --   -0.32399  -0.31653  -0.31538  -0.30979  -0.30719
 Alpha  occ. eigenvalues --   -0.30381  -0.29829  -0.29531  -0.29372  -0.29029
 Alpha  occ. eigenvalues --   -0.28752  -0.28128  -0.27807  -0.27694  -0.27075
 Alpha  occ. eigenvalues --   -0.26418  -0.26381  -0.26304  -0.26211  -0.26128
 Alpha  occ. eigenvalues --   -0.25731  -0.25582  -0.25108  -0.24805  -0.24681
 Alpha  occ. eigenvalues --   -0.24089  -0.23905  -0.23589  -0.23081  -0.22991
 Alpha  occ. eigenvalues --   -0.22670  -0.22574  -0.22325  -0.22158  -0.21996
 Alpha  occ. eigenvalues --   -0.21633  -0.21319  -0.21295  -0.20662  -0.20040
 Alpha  occ. eigenvalues --   -0.19692  -0.19248  -0.18009
 Alpha virt. eigenvalues --   -0.10276  -0.04738  -0.03688  -0.03412  -0.02411
 Alpha virt. eigenvalues --   -0.02116  -0.01468  -0.01295  -0.00814  -0.00243
 Alpha virt. eigenvalues --   -0.00106   0.00188   0.00244   0.01100   0.01513
 Alpha virt. eigenvalues --    0.02066   0.02678   0.02787   0.03103   0.03211
 Alpha virt. eigenvalues --    0.03572   0.03690   0.04020   0.04280   0.04712
 Alpha virt. eigenvalues --    0.04896   0.04991   0.05201   0.05294   0.05405
 Alpha virt. eigenvalues --    0.05984   0.06053   0.06330   0.06433   0.06488
 Alpha virt. eigenvalues --    0.06637   0.07225   0.07381   0.07432   0.08017
 Alpha virt. eigenvalues --    0.08198   0.08278   0.08375   0.08538   0.08668
 Alpha virt. eigenvalues --    0.08843   0.09092   0.09324   0.09596   0.09846
 Alpha virt. eigenvalues --    0.09910   0.10035   0.10117   0.10332   0.10645
 Alpha virt. eigenvalues --    0.10794   0.11020   0.11143   0.11339   0.11451
 Alpha virt. eigenvalues --    0.11880   0.11954   0.12089   0.12470   0.12521
 Alpha virt. eigenvalues --    0.12634   0.12854   0.12874   0.13113   0.13227
 Alpha virt. eigenvalues --    0.13394   0.13786   0.13937   0.14153   0.14215
 Alpha virt. eigenvalues --    0.14260   0.14441   0.14536   0.14661   0.14891
 Alpha virt. eigenvalues --    0.14985   0.15236   0.15418   0.15500   0.15676
 Alpha virt. eigenvalues --    0.15962   0.16112   0.16183   0.16372   0.16524
 Alpha virt. eigenvalues --    0.16707   0.16965   0.17225   0.17303   0.17430
 Alpha virt. eigenvalues --    0.17626   0.17815   0.18034   0.18324   0.18513
 Alpha virt. eigenvalues --    0.18610   0.18740   0.18971   0.19275   0.19447
 Alpha virt. eigenvalues --    0.19620   0.19748   0.19815   0.19972   0.20137
 Alpha virt. eigenvalues --    0.20376   0.20556   0.20631   0.20938   0.21011
 Alpha virt. eigenvalues --    0.21131   0.21545   0.21670   0.21792   0.22026
 Alpha virt. eigenvalues --    0.22379   0.22508   0.23002   0.23112   0.23201
 Alpha virt. eigenvalues --    0.23494   0.23716   0.23810   0.23895   0.24133
 Alpha virt. eigenvalues --    0.24443   0.24721   0.24989   0.25095   0.25333
 Alpha virt. eigenvalues --    0.25416   0.25825   0.26115   0.26453   0.26650
 Alpha virt. eigenvalues --    0.26712   0.26774   0.27079   0.27266   0.27492
 Alpha virt. eigenvalues --    0.27638   0.27969   0.28159   0.28558   0.28715
 Alpha virt. eigenvalues --    0.28911   0.29028   0.29159   0.29473   0.29684
 Alpha virt. eigenvalues --    0.30175   0.30487   0.30685   0.30770   0.30964
 Alpha virt. eigenvalues --    0.31065   0.31233   0.31679   0.31909   0.32083
 Alpha virt. eigenvalues --    0.32271   0.32542   0.32716   0.32889   0.33229
 Alpha virt. eigenvalues --    0.33357   0.33638   0.33770   0.34594   0.34966
 Alpha virt. eigenvalues --    0.35267   0.35331   0.35675   0.36035   0.36261
 Alpha virt. eigenvalues --    0.36449   0.36811   0.36923   0.37461   0.37799
 Alpha virt. eigenvalues --    0.37915   0.38211   0.38780   0.38838   0.38956
 Alpha virt. eigenvalues --    0.39056   0.39326   0.39748   0.39952   0.40181
 Alpha virt. eigenvalues --    0.40590   0.40798   0.41219   0.41266   0.41512
 Alpha virt. eigenvalues --    0.41784   0.41947   0.42094   0.42290   0.42707
 Alpha virt. eigenvalues --    0.42807   0.42914   0.43411   0.43715   0.43863
 Alpha virt. eigenvalues --    0.44199   0.44366   0.44534   0.44729   0.44827
 Alpha virt. eigenvalues --    0.45174   0.45272   0.45678   0.45796   0.45918
 Alpha virt. eigenvalues --    0.45991   0.46239   0.46357   0.46420   0.46467
 Alpha virt. eigenvalues --    0.46736   0.46791   0.46926   0.47140   0.47534
 Alpha virt. eigenvalues --    0.47761   0.47990   0.48207   0.48280   0.48480
 Alpha virt. eigenvalues --    0.48643   0.48883   0.49229   0.49342   0.49896
 Alpha virt. eigenvalues --    0.50078   0.50272   0.50567   0.50756   0.50848
 Alpha virt. eigenvalues --    0.50953   0.51400   0.51660   0.51745   0.51805
 Alpha virt. eigenvalues --    0.51931   0.52002   0.52134   0.52409   0.52453
 Alpha virt. eigenvalues --    0.53040   0.53087   0.53194   0.53412   0.53457
 Alpha virt. eigenvalues --    0.53833   0.54079   0.54150   0.54445   0.54811
 Alpha virt. eigenvalues --    0.55014   0.55216   0.55382   0.55462   0.55516
 Alpha virt. eigenvalues --    0.55810   0.56015   0.56030   0.56244   0.56546
 Alpha virt. eigenvalues --    0.56722   0.56946   0.57056   0.57374   0.57487
 Alpha virt. eigenvalues --    0.57684   0.57771   0.57890   0.57965   0.58228
 Alpha virt. eigenvalues --    0.58487   0.58628   0.58802   0.58911   0.59098
 Alpha virt. eigenvalues --    0.59261   0.59414   0.59500   0.59697   0.59808
 Alpha virt. eigenvalues --    0.59968   0.60126   0.60356   0.60446   0.60758
 Alpha virt. eigenvalues --    0.60848   0.61140   0.61242   0.61337   0.61487
 Alpha virt. eigenvalues --    0.61574   0.61809   0.62156   0.62244   0.62350
 Alpha virt. eigenvalues --    0.62406   0.62544   0.62617   0.62699   0.62746
 Alpha virt. eigenvalues --    0.63060   0.63154   0.63257   0.63352   0.63591
 Alpha virt. eigenvalues --    0.63708   0.63754   0.63852   0.63888   0.64022
 Alpha virt. eigenvalues --    0.64234   0.64310   0.64387   0.64478   0.64547
 Alpha virt. eigenvalues --    0.64799   0.64886   0.65163   0.65175   0.65310
 Alpha virt. eigenvalues --    0.65436   0.65516   0.65632   0.65651   0.65848
 Alpha virt. eigenvalues --    0.66051   0.66145   0.66212   0.66299   0.66334
 Alpha virt. eigenvalues --    0.66487   0.66590   0.66623   0.66866   0.67047
 Alpha virt. eigenvalues --    0.67053   0.67282   0.67390   0.67569   0.67592
 Alpha virt. eigenvalues --    0.67761   0.67837   0.67939   0.67990   0.68205
 Alpha virt. eigenvalues --    0.68333   0.68370   0.68565   0.68603   0.68732
 Alpha virt. eigenvalues --    0.68768   0.68940   0.69076   0.69272   0.69311
 Alpha virt. eigenvalues --    0.69489   0.69615   0.69636   0.69782   0.70022
 Alpha virt. eigenvalues --    0.70051   0.70144   0.70339   0.70494   0.70539
 Alpha virt. eigenvalues --    0.70667   0.70773   0.70813   0.70976   0.71106
 Alpha virt. eigenvalues --    0.71112   0.71360   0.71677   0.71851   0.71891
 Alpha virt. eigenvalues --    0.72142   0.72269   0.72469   0.72677   0.72760
 Alpha virt. eigenvalues --    0.73114   0.73256   0.73374   0.73565   0.73796
 Alpha virt. eigenvalues --    0.73864   0.74041   0.74258   0.74431   0.74485
 Alpha virt. eigenvalues --    0.74777   0.74966   0.75221   0.75418   0.75610
 Alpha virt. eigenvalues --    0.75945   0.76055   0.76272   0.76321   0.76494
 Alpha virt. eigenvalues --    0.76652   0.76821   0.77172   0.77275   0.77450
 Alpha virt. eigenvalues --    0.77684   0.78032   0.78262   0.78547   0.78625
 Alpha virt. eigenvalues --    0.79192   0.79338   0.79533   0.79728   0.80198
 Alpha virt. eigenvalues --    0.80353   0.80640   0.80804   0.81131   0.81476
 Alpha virt. eigenvalues --    0.81609   0.81703   0.82139   0.82362   0.82618
 Alpha virt. eigenvalues --    0.83044   0.83373   0.83549   0.83772   0.84124
 Alpha virt. eigenvalues --    0.84272   0.84564   0.84810   0.85180   0.85508
 Alpha virt. eigenvalues --    0.85720   0.86406   0.86454   0.86644   0.86733
 Alpha virt. eigenvalues --    0.87246   0.87577   0.87785   0.88298   0.88423
 Alpha virt. eigenvalues --    0.88734   0.88941   0.89170   0.89324   0.89434
 Alpha virt. eigenvalues --    0.89929   0.90079   0.90781   0.91129   0.91315
 Alpha virt. eigenvalues --    0.91637   0.92068   0.92389   0.92478   0.92867
 Alpha virt. eigenvalues --    0.93231   0.93726   0.93823   0.93995   0.94323
 Alpha virt. eigenvalues --    0.94470   0.94814   0.94879   0.95321   0.95363
 Alpha virt. eigenvalues --    0.95547   0.95929   0.96256   0.96467   0.96551
 Alpha virt. eigenvalues --    0.97079   0.97181   0.97446   0.97697   0.98142
 Alpha virt. eigenvalues --    0.98594   0.98706   0.98876   0.99101   0.99367
 Alpha virt. eigenvalues --    0.99410   0.99906   1.00015   1.00304   1.00661
 Alpha virt. eigenvalues --    1.00934   1.01373   1.01577   1.01964   1.02552
 Alpha virt. eigenvalues --    1.02699   1.02883   1.03177   1.03271   1.03800
 Alpha virt. eigenvalues --    1.04152   1.04540   1.04864   1.05299   1.05653
 Alpha virt. eigenvalues --    1.05978   1.06385   1.06545   1.06650   1.06997
 Alpha virt. eigenvalues --    1.07257   1.07599   1.07972   1.08249   1.08815
 Alpha virt. eigenvalues --    1.09043   1.09219   1.09722   1.09850   1.10132
 Alpha virt. eigenvalues --    1.10540   1.10932   1.11115   1.11529   1.11548
 Alpha virt. eigenvalues --    1.12134   1.12347   1.12753   1.12984   1.13307
 Alpha virt. eigenvalues --    1.13387   1.14046   1.14154   1.14281   1.14440
 Alpha virt. eigenvalues --    1.14765   1.14978   1.15055   1.15285   1.15518
 Alpha virt. eigenvalues --    1.15669   1.16138   1.16224   1.16656   1.16803
 Alpha virt. eigenvalues --    1.16844   1.17333   1.17636   1.17869   1.18043
 Alpha virt. eigenvalues --    1.18240   1.18509   1.18886   1.19301   1.19532
 Alpha virt. eigenvalues --    1.19714   1.20107   1.20329   1.20473   1.20757
 Alpha virt. eigenvalues --    1.20931   1.21326   1.21587   1.21598   1.22136
 Alpha virt. eigenvalues --    1.22303   1.22429   1.23112   1.23261   1.23663
 Alpha virt. eigenvalues --    1.23729   1.24298   1.24644   1.25009   1.25249
 Alpha virt. eigenvalues --    1.25420   1.25619   1.25724   1.26216   1.26228
 Alpha virt. eigenvalues --    1.26378   1.26587   1.26655   1.27075   1.27310
 Alpha virt. eigenvalues --    1.27569   1.27876   1.28348   1.28381   1.28525
 Alpha virt. eigenvalues --    1.28742   1.29122   1.29485   1.29793   1.29958
 Alpha virt. eigenvalues --    1.30454   1.30699   1.31097   1.31363   1.31923
 Alpha virt. eigenvalues --    1.32134   1.32471   1.32804   1.32997   1.33179
 Alpha virt. eigenvalues --    1.33372   1.33543   1.33818   1.34176   1.34688
 Alpha virt. eigenvalues --    1.34774   1.35119   1.35570   1.35792   1.36008
 Alpha virt. eigenvalues --    1.36326   1.36815   1.36985   1.37129   1.37218
 Alpha virt. eigenvalues --    1.37664   1.37827   1.38319   1.38556   1.38804
 Alpha virt. eigenvalues --    1.38978   1.39165   1.39245   1.39299   1.39412
 Alpha virt. eigenvalues --    1.40115   1.40625   1.40780   1.40899   1.41152
 Alpha virt. eigenvalues --    1.41324   1.41830   1.41870   1.42428   1.42480
 Alpha virt. eigenvalues --    1.43138   1.43411   1.43527   1.43814   1.43964
 Alpha virt. eigenvalues --    1.44302   1.44434   1.44767   1.45287   1.45613
 Alpha virt. eigenvalues --    1.45838   1.46187   1.46662   1.46872   1.47046
 Alpha virt. eigenvalues --    1.47431   1.47640   1.47872   1.48037   1.48188
 Alpha virt. eigenvalues --    1.48412   1.48496   1.49078   1.49387   1.49768
 Alpha virt. eigenvalues --    1.49847   1.50051   1.50155   1.50392   1.50489
 Alpha virt. eigenvalues --    1.50700   1.51065   1.51142   1.51612   1.51963
 Alpha virt. eigenvalues --    1.52086   1.52180   1.53277   1.53655   1.53835
 Alpha virt. eigenvalues --    1.54137   1.54402   1.54608   1.54805   1.55229
 Alpha virt. eigenvalues --    1.55540   1.55745   1.56065   1.56138   1.57068
 Alpha virt. eigenvalues --    1.57224   1.57660   1.57834   1.58193   1.58677
 Alpha virt. eigenvalues --    1.59049   1.59432   1.59655   1.60150   1.60383
 Alpha virt. eigenvalues --    1.60537   1.60805   1.61005   1.61450   1.61503
 Alpha virt. eigenvalues --    1.61700   1.61966   1.62649   1.62782   1.63175
 Alpha virt. eigenvalues --    1.63458   1.63609   1.63947   1.64111   1.64623
 Alpha virt. eigenvalues --    1.64902   1.65033   1.65492   1.65763   1.66030
 Alpha virt. eigenvalues --    1.66410   1.67074   1.67081   1.67486   1.67706
 Alpha virt. eigenvalues --    1.67948   1.68389   1.68620   1.68962   1.69293
 Alpha virt. eigenvalues --    1.69582   1.69966   1.69984   1.70402   1.70566
 Alpha virt. eigenvalues --    1.71144   1.71442   1.71636   1.71830   1.72001
 Alpha virt. eigenvalues --    1.72325   1.72418   1.72695   1.73022   1.73192
 Alpha virt. eigenvalues --    1.73263   1.73541   1.73900   1.74059   1.74218
 Alpha virt. eigenvalues --    1.74236   1.74378   1.74443   1.75138   1.75176
 Alpha virt. eigenvalues --    1.75290   1.75492   1.75699   1.75863   1.75877
 Alpha virt. eigenvalues --    1.76248   1.76599   1.76637   1.76824   1.77020
 Alpha virt. eigenvalues --    1.77127   1.77277   1.77425   1.77523   1.77645
 Alpha virt. eigenvalues --    1.78066   1.78161   1.78369   1.78451   1.78471
 Alpha virt. eigenvalues --    1.78708   1.78854   1.78993   1.79219   1.79402
 Alpha virt. eigenvalues --    1.79492   1.79758   1.79927   1.79999   1.80230
 Alpha virt. eigenvalues --    1.80326   1.80525   1.80657   1.80826   1.81335
 Alpha virt. eigenvalues --    1.81486   1.81710   1.81757   1.81959   1.82112
 Alpha virt. eigenvalues --    1.82190   1.82498   1.82698   1.82819   1.82999
 Alpha virt. eigenvalues --    1.83272   1.83439   1.83508   1.83597   1.83700
 Alpha virt. eigenvalues --    1.83879   1.84162   1.84455   1.84869   1.84876
 Alpha virt. eigenvalues --    1.85214   1.85303   1.85543   1.85792   1.85845
 Alpha virt. eigenvalues --    1.85880   1.86044   1.86465   1.86625   1.86858
 Alpha virt. eigenvalues --    1.87061   1.87405   1.87584   1.87750   1.87986
 Alpha virt. eigenvalues --    1.88156   1.88192   1.88474   1.88516   1.88765
 Alpha virt. eigenvalues --    1.88811   1.89077   1.89282   1.89499   1.89673
 Alpha virt. eigenvalues --    1.89968   1.90191   1.90527   1.90791   1.90917
 Alpha virt. eigenvalues --    1.90971   1.91093   1.91321   1.91460   1.91950
 Alpha virt. eigenvalues --    1.92115   1.92296   1.92353   1.92448   1.92695
 Alpha virt. eigenvalues --    1.92912   1.93121   1.93203   1.93495   1.93590
 Alpha virt. eigenvalues --    1.93728   1.93872   1.93910   1.94467   1.94682
 Alpha virt. eigenvalues --    1.95240   1.95519   1.95721   1.95805   1.95967
 Alpha virt. eigenvalues --    1.96170   1.96353   1.96677   1.97036   1.97132
 Alpha virt. eigenvalues --    1.97306   1.97508   1.97820   1.98246   1.98457
 Alpha virt. eigenvalues --    1.98597   1.98960   1.99013   1.99475   1.99758
 Alpha virt. eigenvalues --    2.00001   2.00262   2.00388   2.00669   2.00773
 Alpha virt. eigenvalues --    2.00889   2.01068   2.01445   2.01580   2.02239
 Alpha virt. eigenvalues --    2.02398   2.02694   2.02885   2.03415   2.03788
 Alpha virt. eigenvalues --    2.03958   2.04061   2.04550   2.04759   2.04856
 Alpha virt. eigenvalues --    2.05145   2.05428   2.05700   2.05875   2.06039
 Alpha virt. eigenvalues --    2.06093   2.06289   2.06765   2.07038   2.07135
 Alpha virt. eigenvalues --    2.07259   2.07320   2.07541   2.07673   2.07913
 Alpha virt. eigenvalues --    2.07984   2.08498   2.08832   2.08961   2.09209
 Alpha virt. eigenvalues --    2.09445   2.09739   2.09938   2.10287   2.10972
 Alpha virt. eigenvalues --    2.11136   2.11604   2.11682   2.12484   2.12598
 Alpha virt. eigenvalues --    2.12782   2.12988   2.13190   2.13553   2.13649
 Alpha virt. eigenvalues --    2.14099   2.14202   2.14530   2.14747   2.15107
 Alpha virt. eigenvalues --    2.15208   2.15576   2.15794   2.15961   2.16330
 Alpha virt. eigenvalues --    2.16417   2.16846   2.16900   2.17218   2.17568
 Alpha virt. eigenvalues --    2.17792   2.17909   2.18186   2.18469   2.18602
 Alpha virt. eigenvalues --    2.18957   2.19179   2.19437   2.19747   2.20121
 Alpha virt. eigenvalues --    2.20330   2.20710   2.20947   2.21297   2.21448
 Alpha virt. eigenvalues --    2.21642   2.21836   2.22277   2.22874   2.23292
 Alpha virt. eigenvalues --    2.23418   2.23823   2.24051   2.24224   2.24439
 Alpha virt. eigenvalues --    2.24888   2.25064   2.25709   2.25839   2.26441
 Alpha virt. eigenvalues --    2.26700   2.26919   2.27207   2.27385   2.27793
 Alpha virt. eigenvalues --    2.27958   2.28842   2.29088   2.29571   2.30173
 Alpha virt. eigenvalues --    2.30426   2.30950   2.31186   2.31360   2.31854
 Alpha virt. eigenvalues --    2.32069   2.32310   2.32660   2.32811   2.33104
 Alpha virt. eigenvalues --    2.33429   2.33526   2.34166   2.34405   2.34637
 Alpha virt. eigenvalues --    2.35060   2.35337   2.35595   2.35756   2.35894
 Alpha virt. eigenvalues --    2.37058   2.37159   2.37603   2.37753   2.38128
 Alpha virt. eigenvalues --    2.38373   2.39302   2.39446   2.39996   2.40476
 Alpha virt. eigenvalues --    2.40892   2.41040   2.41212   2.41427   2.41536
 Alpha virt. eigenvalues --    2.41872   2.42315   2.42565   2.42592   2.42736
 Alpha virt. eigenvalues --    2.43387   2.43726   2.43881   2.44480   2.44652
 Alpha virt. eigenvalues --    2.45376   2.45415   2.45625   2.45866   2.46082
 Alpha virt. eigenvalues --    2.46415   2.46852   2.46864   2.47550   2.47916
 Alpha virt. eigenvalues --    2.48192   2.48980   2.49165   2.49350   2.49733
 Alpha virt. eigenvalues --    2.50067   2.50451   2.51020   2.51232   2.51732
 Alpha virt. eigenvalues --    2.51880   2.52741   2.53061   2.53288   2.53805
 Alpha virt. eigenvalues --    2.54134   2.54506   2.54833   2.55192   2.55561
 Alpha virt. eigenvalues --    2.55757   2.56158   2.56498   2.56860   2.57047
 Alpha virt. eigenvalues --    2.57450   2.57741   2.57953   2.58118   2.58675
 Alpha virt. eigenvalues --    2.58986   2.59242   2.59380   2.59722   2.59884
 Alpha virt. eigenvalues --    2.60210   2.60396   2.60578   2.60711   2.60776
 Alpha virt. eigenvalues --    2.61420   2.61686   2.61931   2.62201   2.62371
 Alpha virt. eigenvalues --    2.62483   2.62615   2.63042   2.63153   2.63395
 Alpha virt. eigenvalues --    2.64460   2.64794   2.64892   2.65013   2.65473
 Alpha virt. eigenvalues --    2.65885   2.65981   2.66370   2.66969   2.67465
 Alpha virt. eigenvalues --    2.67754   2.67825   2.68310   2.68867   2.68904
 Alpha virt. eigenvalues --    2.69316   2.69499   2.69620   2.69916   2.70390
 Alpha virt. eigenvalues --    2.70559   2.70938   2.71111   2.71561   2.71878
 Alpha virt. eigenvalues --    2.72114   2.72348   2.72475   2.72694   2.73038
 Alpha virt. eigenvalues --    2.73422   2.73615   2.74060   2.74130   2.74353
 Alpha virt. eigenvalues --    2.74684   2.74954   2.75156   2.75363   2.75833
 Alpha virt. eigenvalues --    2.75905   2.76101   2.76122   2.76434   2.77033
 Alpha virt. eigenvalues --    2.77165   2.77628   2.78101   2.78266   2.78359
 Alpha virt. eigenvalues --    2.78628   2.79234   2.79375   2.79551   2.79735
 Alpha virt. eigenvalues --    2.79840   2.79872   2.80237   2.80558   2.80763
 Alpha virt. eigenvalues --    2.81280   2.81418   2.81503   2.82201   2.82631
 Alpha virt. eigenvalues --    2.82850   2.83233   2.83331   2.83755   2.84178
 Alpha virt. eigenvalues --    2.84928   2.85153   2.85220   2.85629   2.86178
 Alpha virt. eigenvalues --    2.86656   2.86734   2.87136   2.87269   2.87334
 Alpha virt. eigenvalues --    2.87760   2.88118   2.88275   2.88387   2.88484
 Alpha virt. eigenvalues --    2.88777   2.89105   2.90077   2.90103   2.90217
 Alpha virt. eigenvalues --    2.90313   2.90460   2.90960   2.92125   2.92161
 Alpha virt. eigenvalues --    2.92316   2.92636   2.92869   2.93127   2.93432
 Alpha virt. eigenvalues --    2.93964   2.94439   2.94667   2.94750   2.94922
 Alpha virt. eigenvalues --    2.95075   2.95374   2.95507   2.95596   2.96286
 Alpha virt. eigenvalues --    2.96381   2.96785   2.96924   2.97169   2.97926
 Alpha virt. eigenvalues --    2.98311   2.98559   2.99093   2.99164   2.99535
 Alpha virt. eigenvalues --    3.00046   3.00292   3.00536   3.00660   3.01096
 Alpha virt. eigenvalues --    3.01304   3.01429   3.01660   3.01923   3.02159
 Alpha virt. eigenvalues --    3.02191   3.02378   3.02775   3.03184   3.03262
 Alpha virt. eigenvalues --    3.03632   3.04137   3.04506   3.04748   3.05888
 Alpha virt. eigenvalues --    3.06161   3.06534   3.06547   3.06745   3.08188
 Alpha virt. eigenvalues --    3.08825   3.09555   3.09690   3.10448   3.10939
 Alpha virt. eigenvalues --    3.11441   3.11976   3.12877   3.13447   3.14125
 Alpha virt. eigenvalues --    3.15097   3.15501   3.15612   3.15766   3.16333
 Alpha virt. eigenvalues --    3.16438   3.16558   3.17030   3.17131   3.17604
 Alpha virt. eigenvalues --    3.18286   3.18664   3.18889   3.19226   3.19332
 Alpha virt. eigenvalues --    3.20057   3.20351   3.20721   3.21172   3.21462
 Alpha virt. eigenvalues --    3.21611   3.22144   3.22285   3.22402   3.22560
 Alpha virt. eigenvalues --    3.23027   3.23356   3.23545   3.23831   3.24291
 Alpha virt. eigenvalues --    3.24405   3.24664   3.25091   3.25219   3.25761
 Alpha virt. eigenvalues --    3.26590   3.27579   3.27685   3.29211   3.31021
 Alpha virt. eigenvalues --    3.31837   3.33825   3.34304   3.34354   3.34502
 Alpha virt. eigenvalues --    3.35482   3.37081   3.37612   3.38837   3.40963
 Alpha virt. eigenvalues --    3.42469   3.44158   3.44539   3.48925   3.49470
 Alpha virt. eigenvalues --    3.50096   3.50182   3.52158   3.54262   3.55569
 Alpha virt. eigenvalues --    3.56168   3.56240   3.56322   3.56586   3.58791
 Alpha virt. eigenvalues --    3.59550   3.60109   3.60421   3.61233   3.61842
 Alpha virt. eigenvalues --    3.65737   3.65986   3.66558   3.67206   3.68037
 Alpha virt. eigenvalues --    3.68213   3.68576   3.68829   3.69751   3.70238
 Alpha virt. eigenvalues --    3.70438   3.70708   3.71055   3.71190   3.71862
 Alpha virt. eigenvalues --    3.72033   3.72682   3.73284   3.73949   3.74913
 Alpha virt. eigenvalues --    3.79612   3.79957   3.80318   3.90498
          Condensed to atoms (all electrons):
 Mulliken charges:
               1
     1  C    0.074307
     2  C    0.010026
     3  O   -0.303229
     4  H    0.036181
     5  H    0.045040
     6  H   -0.000748
     7  N   -0.124494
     8  C    0.111770
     9  C    0.067134
    10  O   -0.275764
    11  C    0.069982
    12  C    0.169591
    13  O   -0.472811
    14  O   -0.374392
    15  H    0.112919
    16  H    0.004814
    17  H    0.016013
    18  H    0.002708
    19  N   -0.144211
    20  C    0.117656
    21  C    0.087416
    22  O   -0.252264
    23  C   -0.010724
    24  C    0.065083
    25  C   -0.079820
    26  C    0.028021
    27  N    0.087964
    28  H    0.149374
    29  H    0.003125
    30  H    0.020279
    31  H    0.024778
    32  H    0.034147
    33  H    0.017066
    34  H    0.027914
    35  H    0.018859
    36  H    0.080127
    37  H    0.086138
    38  H    0.204864
    39  H    0.185373
    40  H    0.177551
    41  N   -0.170115
    42  C    0.094319
    43  C    0.090673
    44  O   -0.279777
    45  C    0.175521
    46  C    0.066110
    47  O   -0.393679
    48  O   -0.455988
    49  H    0.130558
    50  H   -0.007901
    51  H   -0.022961
    52  H    0.012510
    53  N   -0.156311
    54  C    0.239275
    55  C    0.005423
    56  O   -0.294519
    57  H    0.129696
    58  H    0.015190
    59  H    0.037968
    60  N   -0.164638
    61  C    0.124483
    62  C    0.036165
    63  O   -0.295629
    64  C    0.088304
    65  C    0.092926
    66  N   -0.046904
    67  O   -0.363859
    68  H    0.149108
    69  H    0.029054
    70  H    0.052592
    71  H    0.017653
    72  H    0.117808
    73  H    0.104357
    74  N   -0.168420
    75  C    0.243430
    76  C    0.028392
    77  O   -0.305665
    78  H    0.129454
    79  H    0.029108
    80  H    0.035884
    81  N   -0.154187
    82  C    0.142794
    83  C    0.122849
    84  O   -0.366396
    85  C    0.151230
    86  C   -0.084551
    87  C    0.040335
    88  C   -0.011071
    89  C    0.024987
    90  C   -0.058893
    91  C    0.151007
    92  O   -0.190978
    93  H    0.169777
    94  H   -0.012863
    95  H    0.022660
    96  H   -0.026479
    97  H    0.001581
    98  H   -0.046691
    99  H   -0.003332
   100  H   -0.076640
   101  H    0.170702
   102  N   -0.096032
   103  C    0.130676
   104  C    0.081590
   105  O   -0.275634
   106  C   -0.140990
   107  C    0.043019
   108  C    0.028861
   109  C    0.021628
   110  H    0.149046
   111  H    0.006795
   112  H   -0.003843
   113  H   -0.022476
   114  H    0.000002
   115  H    0.044354
   116  H   -0.001867
   117  H    0.024785
   118  H    0.011107
   119  H   -0.000439
   120  H    0.008169
   121  N   -0.125952
   122  C    0.098399
   123  C    0.108876
   124  O   -0.279815
   125  C    0.258394
   126  O   -0.355686
   127  H    0.136692
   128  H    0.003421
   129  H   -0.021511
   130  H   -0.028874
   131  H    0.171499
   132  N   -0.119141
   133  C    0.102654
   134  C    0.044915
   135  O   -0.254841
   136  C    0.041546
   137  H    0.113668
   138  H    0.025423
   139  H    0.020784
   140  H    0.003519
   141  H    0.044658
   142  N   -0.129619
   143  C    0.115213
   144  C    0.074675
   145  O   -0.297802
   146  C   -0.001269
   147  H    0.109715
   148  H    0.025019
   149  H    0.003555
   150  H    0.022681
   151  H    0.025848
   152  N   -0.127642
   153  C    0.163959
   154  C    0.085023
   155  O   -0.283193
   156  C   -0.075792
   157  C    0.091464
   158  C    0.179475
   159  O   -0.446091
   160  O   -0.395812
   161  H    0.143147
   162  H   -0.058405
   163  H    0.066674
   164  H    0.001852
   165  H   -0.011902
   166  H   -0.012072
   167  N   -0.178400
   168  C    0.127385
   169  H    0.021066
   170  H    0.037446
   171  H    0.004212
   172  H    0.137079
   173  Ca   1.250663
   174  O   -0.252115
   175  H    0.178906
   176  H    0.194480
 Sum of Mulliken charges =  -0.00000
 Mulliken charges with hydrogens summed into heavy atoms:
               1
     1  C    0.154779
     2  C    0.010026
     3  O   -0.303229
     7  N   -0.011575
     8  C    0.116584
     9  C    0.067134
    10  O   -0.275764
    11  C    0.088703
    12  C    0.169591
    13  O   -0.472811
    14  O   -0.374392
    19  N    0.005163
    20  C    0.120781
    21  C    0.087416
    22  O   -0.252264
    23  C    0.034333
    24  C    0.116297
    25  C   -0.033048
    26  C    0.194287
    27  N    0.655752
    41  N   -0.039557
    42  C    0.086418
    43  C    0.090673
    44  O   -0.279777
    45  C    0.165070
    46  C    0.066110
    47  O   -0.393679
    48  O   -0.455988
    53  N   -0.026615
    54  C    0.292433
    55  C    0.005423
    56  O   -0.294519
    60  N   -0.015530
    61  C    0.153537
    62  C    0.036165
    63  O   -0.295629
    64  C    0.158549
    65  C    0.092926
    66  N    0.175261
    67  O   -0.363859
    74  N   -0.038966
    75  C    0.308421
    76  C    0.028392
    77  O   -0.305665
    81  N    0.015590
    82  C    0.129931
    83  C    0.122849
    84  O   -0.366396
    85  C    0.147411
    86  C   -0.084551
    87  C    0.041916
    88  C   -0.057762
    89  C    0.021654
    90  C   -0.135533
    91  C    0.151007
    92  O   -0.020276
   102  N    0.053014
   103  C    0.137471
   104  C    0.081590
   105  O   -0.275634
   106  C   -0.144833
   107  C    0.020545
   108  C    0.096133
   109  C    0.040466
   121  N    0.010740
   122  C    0.101820
   123  C    0.108876
   124  O   -0.279815
   125  C    0.208009
   126  O   -0.184187
   132  N   -0.005473
   133  C    0.128077
   134  C    0.044915
   135  O   -0.254841
   136  C    0.110506
   142  N   -0.019905
   143  C    0.140232
   144  C    0.074675
   145  O   -0.297802
   146  C    0.050815
   152  N    0.015505
   153  C    0.105554
   154  C    0.085023
   155  O   -0.283193
   156  C   -0.007266
   157  C    0.067490
   158  C    0.179475
   159  O   -0.446091
   160  O   -0.395812
   167  N   -0.041321
   168  C    0.190109
   173  Ca   1.250663
   174  O    0.121271
 DipInt: DoE/N= T F RetVal/Mat= T F Init=T NMatP=  1 IDeriv=0 Min/MaxMlt=  0  4
 Entering OneElI...
 OneElI was handed  1333951383 working-precision words.
 Multipole integrals L=0 to 4 MinM= 0 MaxM= 0.
 Requested accuracy = 0.1000D-12
 ShPair: Thresh= 1.00D-13 NBox=     0 BxSize= 0.00D+00 RnKept= 2.55D+01
         NSMCal=               327645 NSMKep=              166504
 PrmmSu-InSpLW:  IPartL=    0 NPrtUS=    1 NPrtUL=    1 DoSpLW=F IThBeg=    0 IThEnd=    0 NThAct=    1.
 PrsmSu:  NPrtUS=   1 ThrOK=F IAlg=1 NPAlg=1 LenDen=           0 ISkipM=0 DoSpLW=F IThBeg=    0 IThEnd=    0.
 Prism:   IPart=     0 DynPar=F LinDyn=F Incr=         512.
 PRISM was handed  1323650887 working-precision words and166504 shell-pairs
 IPart=  0 NShTot=      166504 NBatch=         382 AvBLen=       435.9
 PrsmSu-ThDecC:  IPartSL=    0    0 NPrtUSL=    1    1 IThBeg=    0 IThEnd=    0 CPU=   -1 GPU=   -1 NThAct=    1.
 PrSmSu:  NxtVal=            513.
 Electronic moments (au):
       -716.00000000         12.41657506         -0.20471314         -7.07312335
     -49217.65682941     -27299.90916250     -13053.85003715         85.71234869
        -47.62173808         -8.63745622     -91684.28352079     -45228.65678051
     -27280.39536438      20548.88007119      59426.91930861      53476.84523930
      -7871.54795740       6450.63721202      21274.98230892       -189.04553574
   -6729109.04774697   -2305226.53923634    -666220.19153542     264286.68782473
     293088.68516391    -230898.04308606      63793.72731058     -76305.12700352
     -29409.61434881   -1530633.54428600    -712098.25442238    -403855.76186458
     -98536.80296467     -18979.24502642     -77622.31181588
 Electronic spatial extent (au):  <R**2>=          89571.4160
 DipInt: DoE/N= F T RetVal/Mat= T F Init=T NMatP=  1 IDeriv=0 Min/MaxMlt=  0  4
 Nuclear    moments (au):
        716.00000000         -0.00000000         -0.00000000          0.00000000
      48713.56666813      26944.21055111      12689.25678261         -0.00000000
         -0.00000000         -0.00000000      92869.42295743      45921.65106268
      27019.69164379     -18795.41868218     -59514.74362519     -54087.42825512
       8165.13521494      -6408.14966575     -22076.51884080       -253.77101611
    6533780.87806639    2217812.99969669     625230.10153512    -261082.55296903
    -301149.72947808     246396.13102407     -67690.35941768      77077.78988864
      30727.90990363    1490980.92467267     678821.53612437     383654.06817015
      98120.87738855      13484.43458089      79349.68677445
 Total      moments (au):
         -0.00000000         12.41657506         -0.20471314         -7.07312335
       -504.09016127       -355.69861139       -364.59325454         85.71234869
        -47.62173808         -8.63745622       1185.13943664        692.99428217
       -260.70372059       1753.46138901        -87.82431657       -610.58301583
        293.58725754         42.48754627       -801.53653188       -442.81655186
    -195328.16968058     -87413.53953965     -40990.09000030       3204.13485570
      -8061.04431417      15498.08793802      -3896.63210710        772.66288513
       1318.29555482     -39652.61961333     -33276.71829801     -20201.69369443
       -415.92557612      -5494.81044553       1727.37495858
 Traceless Quadrup. (au):
        -95.96281887         52.42873101         43.53408786         85.71234869
        -47.62173808         -8.63745622
 Charge=             -0.0000 electrons
 Dipole moment (field-independent basis, Debye):
    X=             31.5598    Y=             -0.5203    Z=            -17.9781  Tot=             36.3250
 Quadrupole moment (field-independent basis, Debye-Ang):
   XX=           -678.0185   YY=           -478.4268   ZZ=           -490.3904
   XY=            115.2860   XZ=            -64.0529   YZ=            -11.6177
 Traceless Quadrupole moment (field-independent basis, Debye-Ang):
   XX=           -129.0733   YY=             70.5184   ZZ=             58.5548
   XY=            115.2860   XZ=            -64.0529   YZ=            -11.6177
 Octapole moment (field-independent basis, Debye-Ang**2):
  XXX=            843.5366  YYY=            493.2466  ZZZ=           -185.5589  XYY=           1248.0463
  XXY=            -62.5100  XXZ=           -434.5895  XZZ=            208.9641  YZZ=             30.2410
  YYZ=           -570.5028  XYZ=           -315.1798
 Hexadecapole moment (field-independent basis, Debye-Ang**3):
 XXXX=         -73569.9550 YYYY=         -32924.1306 ZZZZ=         -15438.8334 XXXY=           1206.8308
 XXXZ=          -3036.1758 YYYX=           5837.3231 YYYZ=          -1467.6585 ZZZX=            291.0219
 ZZZY=            496.5333 XXYY=         -14935.0780 XXZZ=         -12533.6078 YYZZ=          -7608.9265
 XXYZ=           -156.6575 YYXZ=          -2069.6091 ZZXY=            650.6122
 N-N= 2.208652562749D+04 E-N=-5.665172070312D+04  KE= 5.290692913262D+03
 Leave Link  601 at Sat Sep 14 23:36:36 2019, MaxMem=  1342177280 cpu:              47.6 elap:               1.2
 FitSet:  NAtFit=   176 NAtPot=   176 NAtFrz=     0 MDM=   180 TotChg=   0.00000
 Merz-Kollman atomic radii used.
 Read replacement radii for each type of atom:
 Rad(20) =   1.700000000000D+00
 Atom Element Radius
    1     6    1.50
    2     6    1.50
    3     8    1.40
    4     1    1.20
    5     1    1.20
    6     1    1.20
    7     7    1.50
    8     6    1.50
    9     6    1.50
   10     8    1.40
   11     6    1.50
   12     6    1.50
   13     8    1.40
   14     8    1.40
   15     1    1.20
   16     1    1.20
   17     1    1.20
   18     1    1.20
   19     7    1.50
   20     6    1.50
   21     6    1.50
   22     8    1.40
   23     6    1.50
   24     6    1.50
   25     6    1.50
   26     6    1.50
   27     7    1.50
   28     1    1.20
   29     1    1.20
   30     1    1.20
   31     1    1.20
   32     1    1.20
   33     1    1.20
   34     1    1.20
   35     1    1.20
   36     1    1.20
   37     1    1.20
   38     1    1.20
   39     1    1.20
   40     1    1.20
   41     7    1.50
   42     6    1.50
   43     6    1.50
   44     8    1.40
   45     6    1.50
   46     6    1.50
   47     8    1.40
   48     8    1.40
   49     1    1.20
   50     1    1.20
   51     1    1.20
   52     1    1.20
   53     7    1.50
   54     6    1.50
   55     6    1.50
   56     8    1.40
   57     1    1.20
   58     1    1.20
   59     1    1.20
   60     7    1.50
   61     6    1.50
   62     6    1.50
   63     8    1.40
   64     6    1.50
   65     6    1.50
   66     7    1.50
   67     8    1.40
   68     1    1.20
   69     1    1.20
   70     1    1.20
   71     1    1.20
   72     1    1.20
   73     1    1.20
   74     7    1.50
   75     6    1.50
   76     6    1.50
   77     8    1.40
   78     1    1.20
   79     1    1.20
   80     1    1.20
   81     7    1.50
   82     6    1.50
   83     6    1.50
   84     8    1.40
   85     6    1.50
   86     6    1.50
   87     6    1.50
   88     6    1.50
   89     6    1.50
   90     6    1.50
   91     6    1.50
   92     8    1.40
   93     1    1.20
   94     1    1.20
   95     1    1.20
   96     1    1.20
   97     1    1.20
   98     1    1.20
   99     1    1.20
  100     1    1.20
  101     1    1.20
  102     7    1.50
  103     6    1.50
  104     6    1.50
  105     8    1.40
  106     6    1.50
  107     6    1.50
  108     6    1.50
  109     6    1.50
  110     1    1.20
  111     1    1.20
  112     1    1.20
  113     1    1.20
  114     1    1.20
  115     1    1.20
  116     1    1.20
  117     1    1.20
  118     1    1.20
  119     1    1.20
  120     1    1.20
  121     7    1.50
  122     6    1.50
  123     6    1.50
  124     8    1.40
  125     6    1.50
  126     8    1.40
  127     1    1.20
  128     1    1.20
  129     1    1.20
  130     1    1.20
  131     1    1.20
  132     7    1.50
  133     6    1.50
  134     6    1.50
  135     8    1.40
  136     6    1.50
  137     1    1.20
  138     1    1.20
  139     1    1.20
  140     1    1.20
  141     1    1.20
  142     7    1.50
  143     6    1.50
  144     6    1.50
  145     8    1.40
  146     6    1.50
  147     1    1.20
  148     1    1.20
  149     1    1.20
  150     1    1.20
  151     1    1.20
  152     7    1.50
  153     6    1.50
  154     6    1.50
  155     8    1.40
  156     6    1.50
  157     6    1.50
  158     6    1.50
  159     8    1.40
  160     8    1.40
  161     1    1.20
  162     1    1.20
  163     1    1.20
  164     1    1.20
  165     1    1.20
  166     1    1.20
  167     7    1.50
  168     6    1.50
  169     1    1.20
  170     1    1.20
  171     1    1.20
  172     1    1.20
  173    20    1.70
  174     8    1.40
[...]
 **** Fit      -0.022752
 **** Fit      -0.025281
 **** Fit      -0.029317
 **** Fit      -0.026908
 **** Fit      -0.026842
 **** Fit      -0.026129
 **** Fit      -0.024931
 **** Fit      -0.023397
 **** Fit      -0.021685
 **** Fit      -0.019966
 **** Fit      -0.018436
 **** Fit      -0.017306
 **** Fit      -0.016802
 **** Fit      -0.017150
 **** Fit      -0.018590
 **** Fit      -0.021398
 **** Fit      -0.025938
 **** Fit      -0.027169
 **** Fit      -0.027342
 **** Fit      -0.026764
 **** Fit      -0.025553
 **** Fit      -0.023827
 **** Fit      -0.021711
 **** Fit      -0.019352
 **** Fit      -0.016925
 **** Fit      -0.014646
 **** Fit      -0.012766
 **** Fit      -0.011558
 **** Fit      -0.011293
 **** Fit      -0.012231
 **** Fit      -0.014634
 **** Fit      -0.018816
 **** Fit      -0.025187
 **** Fit      -0.028349
 **** Fit      -0.027931
 **** Fit      -0.026819
 **** Fit      -0.025070
 **** Fit      -0.022762
 **** Fit      -0.019993
 **** Fit      -0.016890
 **** Fit      -0.013626
 **** Fit      -0.010433
 **** Fit      -0.007600
 **** Fit      -0.005459
 **** Fit      -0.004338
 **** Fit      -0.004521
 **** Fit      -0.006235
 **** Fit      -0.009671
 **** Fit      -0.015026
 **** Fit      -0.030117
 **** Fit      -0.029785
 **** Fit      -0.028762
 **** Fit      -0.027024
 **** Fit      -0.024591
 **** Fit      -0.021513
 **** Fit      -0.017872
 **** Fit      -0.013788
 **** Fit      -0.009445
 **** Fit      -0.005112
 **** Fit      -0.001157
 **** Fit       0.001979
 **** Fit       0.003868
 **** Fit       0.004184
 **** Fit       0.002755
 **** Fit      -0.000450
 **** Fit      -0.005365
 **** Fit      -0.011798
 **** Fit      -0.032636
 **** Fit      -0.031716
 **** Fit      -0.030022
 **** Fit      -0.027497
 **** Fit      -0.024146
 **** Fit      -0.020012
 **** Fit      -0.015172
 **** Fit      -0.009754
 **** Fit      -0.003978
 **** Fit       0.001798
 **** Fit       0.007050
 **** Fit       0.011143
 **** Fit       0.013502
 **** Fit       0.013809
 **** Fit       0.012075
 **** Fit       0.008576
 **** Fit       0.003773
 **** Fit      -0.032926
 **** Fit      -0.036088
 **** Fit      -0.034626
 **** Fit      -0.032190
 **** Fit      -0.028732
 **** Fit      -0.024273
 **** Fit      -0.018869
 **** Fit      -0.012606
 **** Fit      -0.005630
 **** Fit       0.001794
 **** Fit       0.009194
 **** Fit       0.015844
 **** Fit       0.020865
 **** Fit       0.023559
 **** Fit      -0.030503
 **** Fit      -0.024130
 **** Fit      -0.016576
 **** Fit      -0.007996
 **** Fit       0.001360
 **** Fit       0.011006
 **** Fit       0.020080
 **** Fit      -0.001068
 **** Fit       0.011139
 **** Fit       0.027796
 **** Fit       0.014078
 **** Fit       0.038124
 **** Fit       0.026081
 **** Fit       0.013843
 **** Fit       0.004597
 **** Fit       0.002533
 **** Fit       0.005536
 **** Fit      -0.002360
 **** Fit       0.006766
 **** Fit       0.002034
 **** Fit       0.006290
 **** Fit       0.002883
 **** Fit       0.001077
 **** Fit       0.008984
 **** Fit       0.009620
 **** Fit       0.015326
 **** Fit       0.010333
 **** Fit       0.027685
 **** Fit       0.030860
 **** Fit       0.030061
 **** Fit       0.037907
 **** Fit       0.047814
 **** Fit       0.052431
 **** Fit       0.017817
 **** Fit       0.036812
 **** Fit       0.027432
 **** Fit       0.064154
 **** Fit       0.064475
 **** Fit       0.054385
 **** Fit       0.062641
 **** Fit       0.066888
 **** Fit       0.048724
 **** Fit       0.039026
 **** Fit       0.045641
 **** Fit       0.052133
 **** Fit       0.056046
 **** Fit       0.055402
 **** Fit       0.050080
 **** Fit       0.041428
 **** Fit       0.031144
 **** Fit       0.020866
 **** Fit       0.012307
 **** Fit       0.007019
 **** Fit       0.032952
 **** Fit       0.038502
 **** Fit       0.043726
 **** Fit       0.046850
 **** Fit       0.045922
 **** Fit       0.040662
 **** Fit       0.032548
 **** Fit       0.023769
 **** Fit       0.016538
 **** Fit       0.012309
 **** Fit       0.010703
 **** Fit       0.031393
 **** Fit       0.036536
 **** Fit       0.039088
 **** Fit       0.036932
 **** Fit       0.030518
 **** Fit       0.023053
 **** Fit       0.017786
 **** Fit       0.015308
 **** Fit       0.025215
 **** Fit       0.029020
 **** Fit       0.032222
 **** Fit       0.028401
 **** Fit       0.022273
 **** Fit       0.020039
 **** Fit       0.022922
 **** Fit       0.025976
 **** Fit      -0.025220
 **** Fit      -0.005378
 **** Fit      -0.006506
 **** Fit      -0.005385
 **** Fit      -0.006473
 **** Fit      -0.007639
 **** Fit      -0.008478
 **** Fit      -0.008314
 **** Fit      -0.004462
 **** Fit      -0.005379
 **** Fit      -0.006312
 **** Fit      -0.007430
 **** Fit      -0.008736
 **** Fit      -0.010027
 **** Fit      -0.010809
 **** Fit      -0.010559
 **** Fit      -0.003893
 **** Fit      -0.004586
 **** Fit      -0.005418
 **** Fit      -0.006259
 **** Fit      -0.007265
 **** Fit      -0.013921
 **** Fit      -0.013168
 **** Fit      -0.003474
 **** Fit      -0.004050
 **** Fit      -0.004689
 **** Fit      -0.005558
 **** Fit      -0.006294
 **** Fit      -0.007134
 **** Fit      -0.017224
 **** Fit      -0.015108
 **** Fit      -0.002820
 **** Fit      -0.003286
 **** Fit      -0.003765
 **** Fit      -0.004295
 **** Fit      -0.004892
 **** Fit      -0.005840
 **** Fit      -0.006556
 **** Fit      -0.023436
 **** Fit      -0.021131
 **** Fit      -0.017841
 **** Fit      -0.002668
 **** Fit      -0.003079
 **** Fit      -0.003508
 **** Fit      -0.003990
 **** Fit      -0.004544
 **** Fit      -0.005166
 **** Fit      -0.006293
 **** Fit      -0.007013
 **** Fit      -0.021230
 **** Fit      -0.016953
 **** Fit      -0.002585
 **** Fit      -0.002948
 **** Fit      -0.003338
 **** Fit      -0.003785
 **** Fit      -0.004312
 **** Fit      -0.004921
 **** Fit      -0.005590
 **** Fit      -0.006943
 **** Fit      -0.007708
 **** Fit      -0.008484
 **** Fit      -0.023332
 **** Fit      -0.002172
 **** Fit      -0.002465
 **** Fit      -0.002803
 **** Fit      -0.006173
 **** Fit      -0.007821
 **** Fit      -0.008643
 **** Fit      -0.009464
 **** Fit      -0.002091
 **** Fit      -0.002336
 **** Fit      -0.009880
 **** Fit      -0.010768
 **** Fit      -0.002115
 **** Fit      -0.001907
 **** Fit      -0.002075
 **** Fit      -0.011515
 **** Fit      -0.012485
 **** Fit      -0.004623
 **** Fit      -0.003022
 **** Fit      -0.001925
 **** Fit      -0.001570
 **** Fit      -0.001916
 **** Fit      -0.014618
 **** Fit      -0.015812
 **** Fit      -0.003269
 **** Fit      -0.017280
 **** Fit      -0.018471
 **** Fit      -0.020202
 **** Fit      -0.020714
 **** Fit      -0.021877
 **** Fit      -0.023788
 **** Fit      -0.025016
 **** Fit      -0.026072
 **** Fit      -0.028184
 **** Fit      -0.031724
 **** Fit      -0.030247
 **** Fit      -0.031007
 **** Fit      -0.033179
 **** Fit      -0.036654
 **** Fit      -0.003650
 **** Fit      -0.004159
 **** Fit      -0.006024
 **** Fit      -0.003031
 **** Fit      -0.003394
 **** Fit      -0.003889
 **** Fit      -0.004500
 **** Fit      -0.005215
 **** Fit      -0.006710
 **** Fit      -0.007637
 **** Fit      -0.002596
 **** Fit      -0.002862
 **** Fit      -0.003282
 **** Fit      -0.003812
 **** Fit      -0.004423
 **** Fit      -0.005107
 **** Fit      -0.005867
 **** Fit      -0.007694
 **** Fit      -0.008680
 **** Fit      -0.002292
 **** Fit      -0.002635
 **** Fit      -0.003178
 **** Fit      -0.003825
 **** Fit      -0.004519
 **** Fit      -0.005240
 **** Fit      -0.005996
 **** Fit      -0.006806
 **** Fit      -0.009110
 **** Fit      -0.010100
 **** Fit      -0.011229
 **** Fit      -0.001899
 **** Fit      -0.002415
 **** Fit      -0.003220
 **** Fit      -0.004121
 **** Fit      -0.005007
 **** Fit      -0.005843
 **** Fit      -0.006636
 **** Fit      -0.007418
 **** Fit      -0.008229
 **** Fit      -0.011141
 **** Fit      -0.012094
 **** Fit      -0.013222
 **** Fit      -0.001881
 **** Fit      -0.003152
 **** Fit      -0.004579
 **** Fit      -0.005902
 **** Fit      -0.007032
 **** Fit      -0.007980
 **** Fit      -0.008797
 **** Fit      -0.009551
 **** Fit      -0.010312
 **** Fit      -0.014050
 **** Fit      -0.014923
 **** Fit      -0.016034
 **** Fit      -0.017453
 **** Fit      -0.006766
 **** Fit      -0.008769
 **** Fit      -0.010244
 **** Fit      -0.011297
 **** Fit      -0.012074
 **** Fit      -0.012716
 **** Fit      -0.013341
 **** Fit      -0.018231
 **** Fit      -0.018883
 **** Fit      -0.019884
 **** Fit      -0.021320
 **** Fit      -0.017575
 **** Fit      -0.017833
 **** Fit      -0.024430
 **** Fit      -0.025085
 **** Fit      -0.026341
 **** Fit      -0.009829
 **** Fit      -0.010870
 **** Fit      -0.007781
 **** Fit      -0.009078
 **** Fit      -0.010796
 **** Fit      -0.012526
 **** Fit      -0.013435
 **** Fit      -0.007517
 **** Fit      -0.008599
 **** Fit      -0.010075
 **** Fit      -0.011965
 **** Fit      -0.014081
 **** Fit      -0.015965
 **** Fit      -0.016972
 **** Fit      -0.016613
 **** Fit      -0.007506
 **** Fit      -0.008474
 **** Fit      -0.009789
 **** Fit      -0.011558
 **** Fit      -0.013812
 **** Fit      -0.016429
 **** Fit      -0.019068
 **** Fit      -0.021152
 **** Fit      -0.022026
 **** Fit      -0.021290
 **** Fit      -0.007775
 **** Fit      -0.008674
 **** Fit      -0.009894
 **** Fit      -0.011576
 **** Fit      -0.013830
 **** Fit      -0.016701
 **** Fit      -0.020093
 **** Fit      -0.023685
 **** Fit      -0.026872
 **** Fit      -0.008352
 **** Fit      -0.009179
 **** Fit      -0.010298
 **** Fit      -0.011854
 **** Fit      -0.013993
 **** Fit      -0.016842
 **** Fit      -0.020478
 **** Fit      -0.024856
 **** Fit      -0.009274
 **** Fit      -0.010086
 **** Fit      -0.011205
 **** Fit      -0.012800
 **** Fit      -0.015051
 **** Fit      -0.018154
 **** Fit      -0.022297
 **** Fit      -0.011379
 **** Fit      -0.012486
 **** Fit      -0.014095
 **** Fit      -0.016411
 **** Fit      -0.019675
 **** Fit      -0.024176
 **** Fit      -0.013149
 **** Fit      -0.014284
 **** Fit      -0.015981
 **** Fit      -0.018475
 **** Fit      -0.022065
 **** Fit      -0.015502
 **** Fit      -0.016764
 **** Fit      -0.018747
 **** Fit      -0.021760
 **** Fit      -0.026231
 **** Fit      -0.019974
 **** Fit      -0.022424
 **** Fit      -0.026283
 **** Fit      -0.023901
 **** Fit      -0.026890
 **** Fit      -0.003182
 **** Fit      -0.003591
 **** Fit      -0.004458
 **** Fit      -0.004090
 **** Fit      -0.002723
 **** Fit      -0.002096
 **** Fit      -0.002565
 **** Fit      -0.003952
 **** Fit      -0.005004
 **** Fit      -0.005912
 **** Fit      -0.006177
 **** Fit      -0.005381
 **** Fit      -0.003788
 **** Fit      -0.002212
 **** Fit      -0.001336
 **** Fit      -0.001223
 **** Fit      -0.001566
 **** Fit      -0.002176
 **** Fit      -0.002986
 **** Fit      -0.008252
 **** Fit      -0.007195
 **** Fit      -0.005390
 **** Fit      -0.003364
 **** Fit      -0.001640
 **** Fit      -0.000643
 **** Fit      -0.000406
 **** Fit      -0.000597
 **** Fit      -0.000956
 **** Fit      -0.001409
 **** Fit      -0.001967
 **** Fit      -0.002631
 **** Fit      -0.003395
 **** Fit      -0.010767
 **** Fit      -0.009096
 **** Fit      -0.006782
 **** Fit      -0.004284
 **** Fit       0.000256
 **** Fit      -0.000141
 **** Fit      -0.000537
 **** Fit      -0.000913
 **** Fit      -0.001323
 **** Fit      -0.001812
 **** Fit      -0.002385
 **** Fit      -0.003029
 **** Fit      -0.010723
 **** Fit      -0.007724
 **** Fit       0.000213
 **** Fit      -0.000326
 **** Fit      -0.000686
 **** Fit      -0.000975
 **** Fit      -0.001295
 **** Fit      -0.001707
 **** Fit      -0.002214
 **** Fit      -0.002787
 **** Fit      -0.012950
 **** Fit      -0.000495
 **** Fit      -0.000886
 **** Fit      -0.001072
 **** Fit      -0.001203
 **** Fit      -0.001400
 **** Fit      -0.001723
 **** Fit      -0.002169
 **** Fit      -0.001640
 **** Fit      -0.001661
 **** Fit      -0.001572
 **** Fit      -0.001550
 **** Fit      -0.001708
 **** Fit      -0.002065
 **** Fit      -0.002831
 **** Fit      -0.002655
 **** Fit      -0.002277
 **** Fit      -0.001943
 **** Fit      -0.001844
 **** Fit      -0.002048
 **** Fit      -0.004231
 **** Fit      -0.003611
 **** Fit      -0.002833
 **** Fit      -0.002257
 **** Fit      -0.005310
 **** Fit      -0.003962
 **** Fit       0.053227
 **** Fit       0.055128
 **** Fit       0.052287
 **** Fit       0.053978
 **** Fit       0.055742
 **** Fit       0.054289
 **** Fit       0.055813
 **** Fit       0.057519
 **** Fit       0.059290
 **** Fit       0.056132
 **** Fit       0.057623
 **** Fit       0.059401
 **** Fit       0.061405
 **** Fit       0.057640
 **** Fit       0.059303
 **** Fit       0.058891
 **** Fit       0.022909
 **** Fit       0.018704
 **** Fit       0.012973
 **** Fit       0.035609
 **** Fit       0.031365
 **** Fit       0.027400
 **** Fit       0.022907
 **** Fit       0.017232
 **** Fit       0.060495
 **** Fit       0.058917
 **** Fit       0.042500
 **** Fit       0.038210
 **** Fit       0.034107
 **** Fit       0.029890
 **** Fit       0.025104
 **** Fit       0.019675
 **** Fit       0.014317
 **** Fit       0.010481
 **** Fit       0.009342
 **** Fit       0.010674
 **** Fit       0.052036
 **** Fit       0.054808
 **** Fit       0.056743
 **** Fit       0.057713
 **** Fit       0.057758
 **** Fit       0.057008
 **** Fit       0.055574
 **** Fit       0.053445
 **** Fit       0.050516
 **** Fit       0.046769
 **** Fit       0.043554
 **** Fit       0.039700
 **** Fit       0.035733
 **** Fit       0.031538
 **** Fit       0.027102
 **** Fit       0.022926
 **** Fit       0.020003
 **** Fit       0.019144
 **** Fit       0.020378
 **** Fit       0.023377
 **** Fit       0.048334
 **** Fit       0.051252
 **** Fit       0.053297
 **** Fit       0.054402
 **** Fit       0.054589
 **** Fit       0.053929
 **** Fit       0.052468
 **** Fit       0.050200
 **** Fit       0.047159
 **** Fit       0.043877
 **** Fit       0.040196
 **** Fit       0.036285
 **** Fit       0.032351
 **** Fit       0.028955
 **** Fit       0.027005
 **** Fit       0.027141
 **** Fit       0.029381
 **** Fit       0.033346
 **** Fit       0.038219
 **** Fit       0.042892
 **** Fit       0.046698
 **** Fit       0.049465
 **** Fit       0.051129
 **** Fit       0.051676
 **** Fit       0.051150
 **** Fit       0.049601
 **** Fit       0.047111
 **** Fit       0.043642
 **** Fit       0.039867
 **** Fit       0.036101
 **** Fit       0.033445
 **** Fit       0.033123
 **** Fit       0.035472
 **** Fit       0.039583
 **** Fit       0.043838
 **** Fit       0.047010
 **** Fit       0.048584
 **** Fit       0.048442
 **** Fit       0.046689
 **** Fit       0.042994
 **** Fit       0.039273
 **** Fit       0.038004
 **** Fit       0.040882
 **** Fit       0.044576
 **** Fit       0.045462
 **** Fit       0.042045
 -----------------------------------------------------------------
 Leave Link  602 at Sat Sep 14 23:36:38 2019, MaxMem=  1342177280 cpu:             106.5 elap:               2.3

 Test job not archived.
 1\1\GINC-C506-104\SP\RB3LYP\SVP\C54H83Ca1N15O23\PENGZHI\14-Sep-2019\0\
 \#b3lyp/svp scf=(tight,noincore) Test #IOP(5/87=12) Density=Current Po
 p=(MK,readradii) iop(6/33=2) iop(6/42=6)\\CaMKII_loop3_104.0\\0,1\C,0,
 81.58,64.19,35.38\C,0,81.04,64.1,36.8\O,0,81.36,63.16,37.53\H,0,82.604
 ,63.816,35.357\H,0,80.959,63.589,34.716\H,0,81.566,65.229,35.05\N,0,80
 .2,65.03,37.26\C,0,79.5,65.01,38.53\C,0,78.3,64.1,38.33\O,0,77.27,64.5
 4,37.82\C,0,79.21,66.46,38.93\C,0,78.64,66.62,40.34\O,0,78.72,65.63,41
 .1\O,0,78.11,67.72,40.61\H,0,80.06,65.81,36.64\H,0,80.1,64.56,39.32\H,
 0,78.6,66.93,38.16\H,0,80.16,67.,39.\N,0,78.33,62.95,39.\C,0,77.31,61.
 92,38.93\C,0,76.12,62.15,39.84\O,0,74.98,62.04,39.39\C,0,77.98,60.58,3
 9.18\C,0,77.15,59.37,38.77\C,0,77.97,58.12,38.47\C,0,78.7,57.58,39.7\N
 ,0,79.44,56.37,39.32\H,0,79.19,62.75,39.5\H,0,76.85,61.94,37.94\H,0,78
 .32,60.52,40.22\H,0,78.86,60.54,38.54\H,0,76.58,59.49,37.84\H,0,76.43,
 59.05,39.53\H,0,78.71,58.34,37.7\H,0,77.3,57.36,38.07\H,0,77.95,57.41,
 40.47\H,0,79.48,58.3,39.95\H,0,79.93,56.46,38.44\H,0,80.11,56.12,40.04
 \H,0,78.94,55.5,39.4\N,0,76.46,62.38,41.11\C,0,75.52,62.6,42.2\C,0,74.
 89,63.97,41.99\O,0,73.72,64.16,42.34\C,0,76.14,62.51,43.59\C,0,77.52,6
 3.13,43.75\O,0,77.68,64.37,43.88\O,0,78.57,62.45,43.63\H,0,77.43,62.56
 ,41.32\H,0,74.78,61.81,42.24\H,0,76.18,61.47,43.89\H,0,75.36,62.89,44.
 24\N,0,75.72,64.95,41.62\C,0,75.24,66.32,41.58\C,0,75.33,67.08,42.9\O,
 0,74.34,67.5,43.51\H,0,76.65,64.78,41.27\H,0,74.16,66.25,41.4\H,0,75.7
 5,66.97,40.88\N,0,76.54,67.29,43.4\C,0,76.85,68.04,44.6\C,0,77.81,69.2
 1,44.39\O,0,78.21,69.88,45.34\C,0,77.42,67.01,45.57\C,0,78.79,66.49,45
 .18\N,0,79.34,65.73,46.13\O,0,79.33,66.58,44.08\H,0,77.36,67.01,42.88\
 H,0,75.92,68.51,44.92\H,0,76.74,66.17,45.68\H,0,77.51,67.48,46.56\H,0,
 78.92,65.82,47.04\H,0,80.32,65.57,45.93\N,0,78.22,69.43,43.14\C,0,79.1
 4,70.48,42.76\C,0,80.61,70.11,42.6\O,0,81.4,70.99,42.28\H,0,77.94,68.7
 6,42.44\H,0,79.05,71.23,43.54\H,0,78.76,70.88,41.83\N,0,81.02,68.85,42
 .77\C,0,82.4,68.4,42.74\C,0,82.63,66.99,42.22\O,0,81.8,66.15,42.56\C,0
 ,83.22,68.71,43.98\C,0,82.49,68.55,45.29\C,0,81.75,69.63,45.8\C,0,82.7
 1,67.36,45.99\C,0,81.07,69.5,47.02\C,0,82.14,67.36,47.27\C,0,81.31,68.
 36,47.81\O,0,80.62,68.26,48.98\H,0,80.37,68.15,43.12\H,0,82.77,69.04,4
 1.94\H,0,83.72,69.69,43.98\H,0,84.02,67.97,43.98\H,0,81.68,70.49,45.16
 \H,0,83.31,66.54,45.63\H,0,80.52,70.33,47.44\H,0,82.3,66.49,47.89\H,0,
 81.,67.57,49.53\N,0,83.74,66.8,41.5\C,0,84.1,65.55,40.87\C,0,85.17,64.
 87,41.71\O,0,86.26,65.42,41.83\C,0,84.61,65.73,39.44\C,0,83.88,66.72,3
 8.54\C,0,84.61,64.38,38.73\C,0,84.81,67.24,37.45\H,0,84.19,67.63,41.13
 \H,0,83.25,64.87,40.76\H,0,85.62,66.14,39.5\H,0,83.53,67.57,39.11\H,0,
 83.02,66.23,38.09\H,0,83.58,64.07,38.58\H,0,85.08,64.45,37.74\H,0,85.2
 4,63.66,39.25\H,0,85.44,68.03,37.86\H,0,85.52,66.52,37.05\H,0,84.28,67
 .5,36.53\N,0,84.81,63.78,42.39\C,0,85.74,62.91,43.07\C,0,86.62,62.04,4
 2.17\O,0,86.3,61.83,41.\C,0,84.94,62.01,44.\O,0,84.11,61.11,43.29\H,0,
 83.82,63.56,42.38\H,0,86.45,63.43,43.71\H,0,84.27,62.59,44.62\H,0,85.6
 2,61.36,44.55\H,0,83.38,61.66,42.99\N,0,87.64,61.4,42.74\C,0,88.38,60.
 46,41.92\C,0,87.58,59.25,41.45\O,0,87.78,58.97,40.27\C,0,89.56,59.94,4
 2.75\H,0,87.76,61.49,43.73\H,0,88.73,60.95,41.02\H,0,90.08,60.84,43.07
 \H,0,89.27,59.44,43.67\H,0,90.19,59.33,42.12\N,0,86.71,58.63,42.25\C,0
 ,85.87,57.53,41.81\C,0,84.85,57.84,40.73\O,0,84.57,56.94,39.93\C,0,85.
 3,57.11,43.16\H,0,86.68,58.85,43.23\H,0,86.47,56.69,41.46\H,0,84.44,56
 .44,43.11\H,0,86.08,56.48,43.59\H,0,84.97,57.89,43.85\N,0,84.49,59.11,
 40.57\C,0,83.67,59.6,39.49\C,0,84.55,59.85,38.27\O,0,84.15,59.52,37.16
 \C,0,83.06,60.95,39.87\C,0,81.87,60.74,40.79\C,0,81.48,62.06,41.45\O,0
 ,82.08,62.5,42.45\O,0,80.57,62.7,40.88\H,0,84.82,59.79,41.25\H,0,82.86
 ,58.91,39.24\H,0,82.65,61.57,39.07\H,0,83.82,61.56,40.36\H,0,82.04,60.
 03,41.59\H,0,81.08,60.42,40.11\N,0,85.74,60.44,38.44\C,0,86.64,60.52,3
 7.31\H,0,87.6,60.08,37.579\H,0,86.215,59.975,36.467\H,0,86.784,61.564,
 37.033\H,0,86.,60.87,39.32\Ca,0,80.11,64.35,42.9\O,0,81.66,64.24,45.05
 \H,0,82.41,64.69,45.44\H,0,81.57,63.44,45.56\\Version=ES64L-G16RevA.03
 \State=1-A\HF=-5333.6249711\RMSD=2.608e-09\Dipole=6.991262,-12.2716909
 ,2.1840729\Quadrupole=-100.3676144,75.2883709,25.0792435,77.2731858,48
 .6632385,-9.5251912\PG=C01 [X(C54H83Ca1N15O23)]\\@


 NOTHING RESEMBLES A NEW PHENOMENON AS MUCH AS A MISTAKE.

                               -- ENRICO FERMI (?)
 Job cpu time:       0 days  9 hours 45 minutes 29.4 seconds.
 Elapsed time:       0 days  0 hours 12 minutes 19.9 seconds.
 File lengths (MBytes):  RWF=   1517 Int=      0 D2E=      0 Chk=    171 Scr=      1
 Normal termination of Gaussian 16 at Sat Sep 14 23:36:39 2019.
