 Entering Gaussian System, Link 0=g16
 Initial command:
 /home1/apps/gaussian/16rA.03/g16/l1.exe "/scratch/01990/pengzhi/4329084/Gau-424472.inp" -scrdir="/scratch/01990/pengzhi/4329084/"
 Entering Link 1 = /home1/apps/gaussian/16rA.03/g16/l1.exe PID=    424473.
  
 Copyright (c) 1988,1990,1992,1993,1995,1998,2003,2009,2016,
            Gaussian, Inc.  All Rights Reserved.
  
 This is part of the Gaussian(R) 16 program.  It is based on
 the Gaussian(R) 09 system (copyright 2009, Gaussian, Inc.),
 the Gaussian(R) 03 system (copyright 2003, Gaussian, Inc.),
 the Gaussian(R) 98 system (copyright 1998, Gaussian, Inc.),
 the Gaussian(R) 94 system (copyright 1995, Gaussian, Inc.),
 the Gaussian 92(TM) system (copyright 1992, Gaussian, Inc.),
 the Gaussian 90(TM) system (copyright 1990, Gaussian, Inc.),
 the Gaussian 88(TM) system (copyright 1988, Gaussian, Inc.),
 the Gaussian 86(TM) system (copyright 1986, Carnegie Mellon
 University), and the Gaussian 82(TM) system (copyright 1983,
 Carnegie Mellon University). Gaussian is a federally registered
 trademark of Gaussian, Inc.
  
 This software contains proprietary and confidential information,
 including trade secrets, belonging to Gaussian, Inc.
  
 This software is provided under written license and may be
 used, copied, transmitted, or stored only in accord with that
 written license.
  
 The following legend is applicable only to US Government
 contracts under FAR:
  
                    RESTRICTED RIGHTS LEGEND
  
 Use, reproduction and disclosure by the US Government is
 subject to restrictions as set forth in subparagraphs (a)
 and (c) of the Commercial Computer Software - Restricted
 Rights clause in FAR 52.227-19.
  
 Gaussian, Inc.
 340 Quinnipiac St., Bldg. 40, Wallingford CT 06492
  
  
 ---------------------------------------------------------------
 Warning -- This program may not be used in any manner that
 competes with the business of Gaussian, Inc. or will provide
 assistance to any competitor of Gaussian, Inc.  The licensee
 of this program is prohibited from giving any competitor of
 Gaussian, Inc. access to this program.  By using this program,
 the user acknowledges that Gaussian, Inc. is engaged in the
 business of creating and licensing software in the field of
 computational chemistry and represents and warrants to the
 licensee that it is not a competitor of Gaussian, Inc. and that
 it will not use this program in any manner prohibited above.
 ---------------------------------------------------------------
  

 Cite this work as:
 Gaussian 16, Revision A.03,
 M. J. Frisch, G. W. Trucks, H. B. Schlegel, G. E. Scuseria, 
 M. A. Robb, J. R. Cheeseman, G. Scalmani, V. Barone, 
 G. A. Petersson, H. Nakatsuji, X. Li, M. Caricato, A. V. Marenich, 
 J. Bloino, B. G. Janesko, R. Gomperts, B. Mennucci, H. P. Hratchian, 
 J. V. Ortiz, A. F. Izmaylov, J. L. Sonnenberg, D. Williams-Young, 
 F. Ding, F. Lipparini, F. Egidi, J. Goings, B. Peng, A. Petrone, 
 T. Henderson, D. Ranasinghe, V. G. Zakrzewski, J. Gao, N. Rega, 
 G. Zheng, W. Liang, M. Hada, M. Ehara, K. Toyota, R. Fukuda, 
 J. Hasegawa, M. Ishida, T. Nakajima, Y. Honda, O. Kitao, H. Nakai, 
 T. Vreven, K. Throssell, J. A. Montgomery, Jr., J. E. Peralta, 
 F. Ogliaro, M. J. Bearpark, J. J. Heyd, E. N. Brothers, K. N. Kudin, 
 V. N. Staroverov, T. A. Keith, R. Kobayashi, J. Normand, 
 K. Raghavachari, A. P. Rendell, J. C. Burant, S. S. Iyengar, 
 J. Tomasi, M. Cossi, J. M. Millam, M. Klene, C. Adamo, R. Cammi, 
 J. W. Ochterski, R. L. Martin, K. Morokuma, O. Farkas, 
 J. B. Foresman, and D. J. Fox, Gaussian, Inc., Wallingford CT, 2016.
 
 ******************************************
 Gaussian 16:  ES64L-G16RevA.03 25-Dec-2016
                15-Sep-2019 
 ******************************************
 %chk=CaMKII_loop3_97.0.chk
 %nprocshared=48
 Will use up to   48 processors via shared memory.
 %mem=10GB
 %nosave
 ----------------------------------------------------------------------
 #b3lyp/svp scf=(tight,noincore) Test #IOP(5/87=12) Density=Current Pop
 =(MK,readradii) iop(6/33=2) iop(6/42=6)
 ----------------------------------------------------------------------
 1/30=1,38=1,172=1/1;
 2/12=2,17=6,18=5,40=1/2;
 3/5=18,7=101,11=2,25=1,30=1,74=-5/1,2,3;
 4//1;
 5/5=4,32=2,38=5,87=12/2;
 6/7=2,8=2,9=2,10=2,15=8,20=101,22=-1,28=1,33=2,42=6/1,2;
 99/5=1,9=1/99;
 -----------------
 CaMKII_loop3_97.0
 -----------------
 Symbolic Z-matrix:
 Charge =  0 Multiplicity = 1
 C                     59.34     48.29     36.99 
 C                     58.97     47.6      38.3 
 O                     59.58     46.63     38.74 
 H                     60.371    48.047    36.731 
 H                     58.676    47.946    36.197 
 H                     59.24     49.369    37.106 
 N                     57.9      48.12     38.89 
 C                     57.29     47.59     40.09 
 C                     56.49     46.34     39.75 
 O                     55.48     46.46     39.06 
 C                     56.49     48.62     40.88 
 C                     55.95     48.15     42.22 
 O                     55.82     48.84     43.26 
 O                     55.74     46.92     42.26 
 H                     57.57     49.03     38.58 
 H                     58.04     47.23     40.8 
 H                     55.66     49.05     40.31 
 H                     57.2      49.42     41.09 
 N                     56.88     45.18     40.29 
 C                     56.39     43.87     39.89 
 C                     55.11     43.43     40.58 
 O                     54.17     43.08     39.88 
 C                     57.47     42.82     40.14 
 C                     58.83     43.1      39.5 
 C                     58.66     43.2      37.99 
 C                     59.98     43.42     37.26 
 N                     59.77     43.54     35.81 
 H                     57.6      45.25     40.98 
 H                     56.22     43.91     38.81 
 H                     57.05     41.88     39.8 
 H                     57.7      42.55     41.17 
 H                     59.45     42.23     39.69 
 H                     59.24     44.04     39.89 
 H                     57.99     44.03     37.78 
 H                     58.28     42.3      37.52 
 H                     60.66     42.59     37.43 
 H                     60.57     44.28     37.6 
 H                     59.3      42.74     35.43 
 H                     59.25     44.4      35.71 
 H                     60.62     43.75     35.29 
 N                     55.17     43.51     41.92 
 C                     53.99     43.24     42.72 
 C                     53.06     44.43     42.88 
 O                     51.92     44.29     43.32 
 C                     54.55     42.9      44.1 
 C                     55.36     44.03     44.72 
 O                     56.61     43.99     44.64 
 O                     54.8      45.08     45.08 
 H                     55.96     43.89     42.41 
 H                     53.37     42.42     42.37 
 H                     55.21     42.03     44.02 
 H                     53.68     42.8      44.75 
 N                     53.51     45.59     42.39 
 C                     52.57     46.68     42.19 
 C                     52.26     47.61     43.35 
 O                     51.54     48.6      43.19 
 H                     54.48     45.75     42.16 
 H                     51.69     46.3      41.67 
 H                     52.96     47.26     41.35 
 N                     52.8      47.37     44.55 
 C                     52.52     48.11     45.76 
 C                     52.87     49.59     45.74 
 O                     52.41     50.31     46.63 
 C                     52.85     47.26     46.98 
 C                     54.36     47.12     47.15 
 N                     54.85     46.6      48.28 
 O                     55.19     47.63     46.4 
 H                     53.4      46.57     44.7 
 H                     51.44     48.2      45.91 
 H                     52.44     46.27     46.83 
 H                     52.48     47.79     47.86 
 H                     54.3      46.13     48.99 
 H                     55.86     46.51     48.29 
 N                     53.59     50.11     44.74 
 C                     53.82     51.54     44.61 
 C                     55.22     52.       44.97 
 O                     55.38     53.2      45.19 
 H                     54.11     49.52     44.11 
 H                     53.13     52.21     45.12 
 H                     53.77     51.9      43.59 
 N                     56.19     51.08     44.98 
 C                     57.6      51.32     45.15 
 C                     58.47     50.19     44.63 
 O                     58.29     48.98     44.8 
 C                     58.01     51.63     46.59 
 C                     57.68     50.53     47.58 
 C                     56.43     50.51     48.19 
 C                     58.6      49.52     47.88 
 C                     56.05     49.48     49.06 
 C                     58.25     48.51     48.77 
 C                     56.97     48.46     49.37 
 O                     56.7      47.47     50.27 
 H                     55.95     50.11     44.88 
 H                     57.83     52.17     44.5 
 H                     57.46     52.51     46.95 
 H                     59.07     51.86     46.53 
 H                     55.66     51.2      47.86 
 H                     59.62     49.54     47.51 
 H                     55.06     49.48     49.48 
 H                     58.96     47.71     48.93 
 H                     57.46     46.89     50.32 
 N                     59.48     50.58     43.85 
 C                     60.59     49.8      43.34 
 C                     61.55     49.5      44.48 
 O                     62.03     50.43     45.13 
 C                     61.21     50.64     42.22 
 C                     60.32     50.74     40.99 
 C                     62.42     49.79     41.85 
 C                     60.87     51.76     40.01 
 H                     59.47     51.58     43.76 
 H                     60.27     48.88     42.86 
 H                     61.59     51.63     42.44 
 H                     59.32     51.04     41.33 
 H                     60.25     49.79     40.46 
 H                     63.36     50.03     42.35 
 H                     62.18     48.73     41.92 
 H                     62.6      50.02     40.8 
 H                     61.94     51.72     39.83 
 H                     60.27     51.76     39.1 
 H                     60.68     52.75     40.45 
 N                     61.96     48.23     44.64 
 C                     63.03     47.77     45.49 
 C                     64.14     46.95     44.86 
 O                     64.03     46.53     43.71 
 C                     62.4      46.85     46.53 
 O                     61.84     45.65     46.04 
 H                     61.41     47.59     44.08 
 H                     63.45     48.63     46.01 
 H                     61.71     47.41     47.16 
 H                     63.11     46.58     47.31 
 H                     61.1      45.88     45.48 
 N                     65.17     46.65     45.65 
 C                     66.34     45.92     45.18 
 C                     66.09     44.52     44.63 
 O                     66.73     44.06     43.69 
 C                     67.31     45.78     46.35 
 H                     65.27     46.89     46.62 
 H                     66.85     46.48     44.4 
 H                     66.96     45.41     47.31 
 H                     68.03     45.02     46.05 
 H                     67.85     46.72     46.45 
 N                     65.       43.86     45.03 
 C                     64.53     42.59     44.5 
 C                     63.99     42.72     43.08 
 O                     64.18     41.88     42.21 
 C                     63.56     41.99     45.5 
 H                     64.47     44.29     45.77 
 H                     65.4      41.96     44.32 
 H                     64.1      41.72     46.41 
 H                     62.74     42.68     45.71 
 H                     63.2      41.02     45.14 
 N                     63.28     43.8      42.77 
 C                     62.66     44.09     41.49 
 C                     63.57     44.88     40.57 
 O                     63.53     44.69     39.35 
 C                     61.39     44.89     41.74 
 C                     60.56     44.45     42.95 
 C                     59.59     45.55     43.35 
 O                     58.53     45.64     42.71 
 O                     59.76     46.26     44.37 
 H                     63.36     44.58     43.41 
 H                     62.32     43.13     41.11 
 H                     60.77     44.69     40.86 
 H                     61.57     45.96     41.82 
 H                     61.21     44.35     43.82 
 H                     60.16     43.45     42.79 
 N                     64.54     45.66     41.05 
 C                     65.58     46.18     40.19 
 H                     66.489    45.593    40.324 
 H                     65.258    46.117    39.151 
 H                     65.778    47.22     40.447 
 H                     64.53     45.86     42.04 
 Ca                    57.06     46.6      44.63 
 O                     57.59     45.81     47.3 
 H                     57.93     45.85     48.19 
 H                     57.38     44.89     47.16 
 
 Stoichiometry    C54H83CaN15O23
 Framework group  C1[X(C54H83CaN15O23)]
 Deg. of freedom   522
 Full point group                 C1      NOp   1
 Largest Abelian subgroup         C1      NOp   1
 Largest concise Abelian subgroup C1      NOp   1
                         Standard orientation:                         
 ---------------------------------------------------------------------
 Center     Atomic      Atomic             Coordinates (Angstroms)
 Number     Number       Type             X           Y           Z
 ---------------------------------------------------------------------
      1          6           0        1.817180    4.230035    4.808385
      2          6           0        1.364783    3.629934    3.480109
      3          8           0        2.108413    3.516455    2.510193
      4          1           0        2.904890    4.188028    4.873298
      5          1           0        1.489920    5.267948    4.869358
      6          1           0        1.382703    3.662443    5.631044
      7          7           0        0.081794    3.287878    3.461806
      8          6           0       -0.613575    2.786141    2.296592
      9          6           0       -0.910331    3.934512    1.341982
     10          8           0       -1.717838    4.792970    1.690669
     11          6           0       -1.842284    1.946106    2.627675
     12          6           0       -2.523433    1.278229    1.445272
     13          8           0       -3.091387    0.159298    1.440764
     14          8           0       -2.369254    1.901200    0.374414
     15          1           0       -0.415661    3.225448    4.345968
     16          1           0        0.018131    2.117096    1.705384
     17          1           0       -2.601705    2.497502    3.191539
     18          1           0       -1.467050    1.147041    3.267124
     19          7           0       -0.338955    3.908089    0.132796
     20          6           0       -0.316702    5.023235   -0.801097
     21          6           0       -1.538382    5.128248   -1.698075
     22          8           0       -2.141735    6.191857   -1.726395
     23          6           0        0.930862    4.934122   -1.676906
     24          6           0        2.261444    4.835924   -0.930241
     25          6           0        2.432624    6.067559   -0.051166
     26          6           0        3.764941    6.084509    0.689337
     27          7           0        3.879002    7.272472    1.547670
     28          1           0        0.144431    3.062800   -0.093530
     29          1           0       -0.229954    5.936197   -0.204544
     30          1           0        0.895995    5.801318   -2.326795
     31          1           0        0.978570    4.148820   -2.430381
     32          1           0        3.044462    4.873427   -1.680492
     33          1           0        2.275194    3.931926   -0.308631
     34          1           0        1.619657    6.082819    0.670466
     35          1           0        2.453987    7.006587   -0.592526
     36          1           0        4.596655    6.097981   -0.009425
     37          1           0        3.980670    5.194778    1.293604
     38          1           0        3.766493    8.123583    1.029740
     39          1           0        3.170249    7.131587    2.253233
     40          1           0        4.728860    7.291411    2.108368
     41          7           0       -1.823654    3.987835   -2.348980
     42          6           0       -3.028242    3.888339   -3.151705
     43          6           0       -4.274734    3.527275   -2.362725
     44          8           0       -5.394798    3.642722   -2.857627
     45          6           0       -2.737245    2.736576   -4.112102
     46          6           0       -2.462625    1.415362   -3.407562
     47          8           0       -1.273498    1.055367   -3.243608
     48          8           0       -3.372816    0.827745   -2.797677
     49          1           0       -1.318292    3.132741   -2.200578
     50          1           0       -3.281057    4.777897   -3.720978
     51          1           0       -1.853165    2.977774   -4.711374
     52          1           0       -3.668491    2.567887   -4.654066
     53          7           0       -4.079438    3.215357   -1.077125
     54          6           0       -5.220750    3.195569   -0.177839
     55          6           0       -6.053880    1.930338   -0.069750
     56          8           0       -6.971644    1.847442    0.751795
     57          1           0       -3.172527    2.981308   -0.700118
     58          1           0       -5.802415    4.106801   -0.321098
     59          1           0       -4.829164    3.461230    0.807141
     60          7           0       -5.767889    0.883711   -0.852043
     61          6           0       -6.529720   -0.342802   -0.925386
     62          6           0       -6.631708   -1.149616    0.359896
     63          8           0       -7.478699   -2.044597    0.420843
     64          6           0       -6.265412   -1.043055   -2.251880
     65          6           0       -4.865434   -1.649815   -2.274336
     66          7           0       -4.527632   -2.490012   -3.257881
     67          8           0       -4.066990   -1.579822   -1.342087
     68          1           0       -5.014318    0.927538   -1.524880
     69          1           0       -7.592443   -0.123211   -1.064667
     70          1           0       -6.321476   -0.309125   -3.044914
     71          1           0       -6.971275   -1.872184   -2.332518
     72          1           0       -5.068740   -2.645942   -4.100725
     73          1           0       -3.567705   -2.813887   -3.213771
     74          7           0       -5.878876   -0.843577    1.422151
     75          6           0       -6.051447   -1.495446    2.710555
     76          6           0       -4.973223   -2.499803    3.070970
     77          8           0       -5.226623   -3.300687    3.970066
     78          1           0       -5.075763   -0.241077    1.336110
     79          1           0       -7.006982   -1.978572    2.907130
     80          1           0       -5.960914   -0.824563    3.555671
     81          7           0       -3.808597   -2.417599    2.419596
     82          6           0       -2.611991   -3.168303    2.700982
     83          6           0       -1.353266   -2.523770    2.149268
     84          8           0       -1.207919   -2.025792    1.028424
     85          6           0       -2.663575   -4.622173    2.230451
     86          6           0       -2.883631   -4.784646    0.739083
     87          6           0       -4.180889   -4.824022    0.238513
     88          6           0       -1.807858   -4.876234   -0.150201
     89          6           0       -4.439236   -4.904970   -1.135861
     90          6           0       -2.048966   -4.993407   -1.515059
     91          6           0       -3.362920   -4.999906   -2.038874
     92          8           0       -3.538079   -5.162972   -3.382648
     93          1           0       -3.724779   -1.793768    1.637094
     94          1           0       -2.492373   -3.126690    3.788116
     95          1           0       -3.514978   -5.133071    2.700128
     96          1           0       -1.733931   -5.058387    2.584823
     97          1           0       -5.017316   -4.610347    0.896261
     98          1           0       -0.780646   -4.948940    0.192216
     99          1           0       -5.456319   -4.892698   -1.484990
    100          1           0       -1.195816   -4.996673   -2.179757
    101          1           0       -2.676602   -5.199082   -3.798646
    102          7           0       -0.345930   -2.436764    3.020076
    103          6           0        1.030908   -2.050696    2.783712
    104          6           0        1.737857   -3.169570    2.035686
    105          8           0        1.757777   -4.303494    2.516954
    106          6           0        1.626284   -1.763433    4.164801
    107          6           0        1.063800   -0.502332    4.803734
    108          6           0        3.083014   -1.492767    3.806783
    109          6           0        1.508687   -0.388203    6.250229
    110          1           0       -0.625160   -2.832744    3.899525
    111          1           0        1.116075   -1.115440    2.238511
    112          1           0        1.637955   -2.543210    4.916275
    113          1           0       -0.030980   -0.563601    4.746247
    114          1           0        1.401259    0.398749    4.291412
    115          1           0        3.765809   -2.343042    3.851771
    116          1           0        3.152759   -0.963630    2.857441
    117          1           0        3.431691   -0.817887    4.588295
    118          1           0        2.554687   -0.603644    6.446107
    119          1           0        1.168268    0.559002    6.668581
    120          1           0        0.939935   -1.143307    6.812492
    121          7           0        2.449871   -2.844497    0.942999
    122          6           0        3.374106   -3.692824    0.232274
    123          6           0        4.791036   -3.191032    0.027542
    124          8           0        5.083977   -2.025674    0.286632
    125          6           0        2.811725   -3.874208   -1.173332
    126          8           0        2.758389   -2.713538   -1.975642
    127          1           0        2.259270   -1.895294    0.645704
    128          1           0        3.389618   -4.667504    0.718234
    129          1           0        1.859792   -4.402235   -1.133189
    130          1           0        3.363552   -4.628045   -1.732453
    131          1           0        2.138270   -2.107708   -1.572502
    132          7           0        5.645812   -4.052295   -0.522534
    133          6           0        7.054214   -3.743399   -0.731546
    134          6           0        7.360668   -2.549852   -1.629618
    135          8           0        8.310600   -1.801138   -1.425029
    136          6           0        7.716715   -4.965575   -1.361449
    137          1           0        5.438695   -4.983860   -0.835247
    138          1           0        7.548623   -3.559284    0.219117
    139          1           0        7.272591   -5.441416   -2.231695
    140          1           0        8.676501   -4.620063   -1.742805
    141          1           0        7.919680   -5.681666   -0.566956
    142          7           0        6.447896   -2.174342   -2.529362
    143          6           0        6.507843   -0.980270   -3.357189
    144          6           0        6.306034    0.295830   -2.547410
    145          8           0        6.933002    1.327112   -2.752270
    146          6           0        5.546613   -1.159849   -4.516795
    147          1           0        5.656052   -2.786518   -2.637175
    148          1           0        7.540344   -0.846189   -3.676823
    149          1           0        5.910072   -1.958286   -5.167176
    150          1           0        4.535866   -1.364207   -4.157311
    151          1           0        5.580832   -0.283634   -5.173435
    152          7           0        5.406872    0.287939   -1.568612
    153          6           0        5.051131    1.403897   -0.711298
    154          6           0        5.882448    1.450493    0.555722
    155          8           0        6.189858    2.538910    1.052658
    156          6           0        3.581796    1.274961   -0.337358
    157          6           0        2.653943    0.800705   -1.460198
    158          6           0        1.339715    0.302650   -0.880848
    159          8           0        0.482756    1.152661   -0.590327
    160          8           0        1.048718   -0.916010   -0.820948
    161          1           0        5.102130   -0.625191   -1.256001
    162          1           0        5.105714    2.284435   -1.346336
    163          1           0        3.273989    2.299482   -0.104096
    164          1           0        3.417981    0.641340    0.531773
    165          1           0        3.079312   -0.084742   -1.933953
    166          1           0        2.612429    1.543879   -2.254911
    167          7           0        6.440489    0.350750    1.064502
    168          6           0        7.456721    0.430292    2.090439
    169          1           0        8.438424    0.276843    1.641530
    170          1           0        7.422879    1.412722    2.560396
    171          1           0        7.276378   -0.338386    2.841081
    172          1           0        6.138335   -0.539046    0.694142
    173         20           0       -1.614334   -0.328529   -1.011264
    174          8           0       -1.525788   -2.298186   -3.047562
    175          1           0       -1.433251   -3.155901   -3.453839
    176          1           0       -1.419250   -1.676327   -3.763133
 ---------------------------------------------------------------------
 Rotational constants (GHZ):           0.0246034           0.0165393           0.0136834
 Standard basis: SVP (5D, 7F)
 There are  1809 symmetry adapted cartesian basis functions of A   symmetry.
 There are  1717 symmetry adapted basis functions of A   symmetry.
  1717 basis functions,  2922 primitive gaussians,  1809 cartesian basis functions
   358 alpha electrons      358 beta electrons
       nuclear repulsion energy     22312.8058872547 Hartrees.
 NAtoms=  176 NActive=  176 NUniq=  176 SFac= 1.00D+00 NAtFMM=   60 NAOKFM=T Big=T
 Integral buffers will be    131072 words long.
 Raffenetti 2 integral format.
 Two-electron integral symmetry is turned on.
 One-electron integrals computed using PRISM.
 NBasis=  1717 RedAO= T EigKep=  2.35D-04  NBF=  1717
 NBsUse=  1717 1.00D-06 EigRej= -1.00D+00 NBFU=  1717
 ExpMin= 1.98D-02 ExpMax= 3.51D+04 ExpMxC= 5.28D+03 IAcc=3 IRadAn=         5 AccDes= 0.00D+00
 Harris functional with IExCor=  402 and IRadAn=       5 diagonalized for initial guess.
 HarFok:  IExCor=  402 AccDes= 0.00D+00 IRadAn=         5 IDoV= 1 UseB2=F ITyADJ=14
 ICtDFT=  3500011 ScaDFX=  1.000000  1.000000  1.000000  1.000000
 FoFCou: FMM=F IPFlag=           0 FMFlag=      100000 FMFlg1=        2001
         NFxFlg=           0 DoJE=T BraDBF=F KetDBF=T FulRan=T
         wScrn=  0.000000 ICntrl=       500 IOpCl=  0 I1Cent=   200000004 NGrid=           0
         NMat0=    1 NMatS0=      1 NMatT0=    0 NMatD0=    1 NMtDS0=    0 NMtDT0=    0
 Petite list used in FoFCou.
 Requested convergence on RMS density matrix=1.00D-08 within 128 cycles.
 Requested convergence on MAX density matrix=1.00D-06.
 Requested convergence on             energy=1.00D-06.
 No special actions if energy rises.
 EnCoef did     2 forward-backward iterations
 EnCoef did     2 forward-backward iterations
 EnCoef did     2 forward-backward iterations
 SCF Done:  E(RB3LYP) =  -5333.62131992     A.U. after   20 cycles
            NFock= 20  Conv=0.67D-08     -V/T= 2.0081
 SCF density gives NOpUse=  1 NOpAll=  1.
 Hyperfine terms turned off by default for NAtoms > 100.

 **********************************************************************

            Population analysis using the SCF density.

 **********************************************************************

 Orbital symmetries:
 BldTbl:  Degeneracy threshold= 1.00D-02
       Occupied  (A) (A) (A) (A) (A) (A) (A) (A) (A) (A) (A) (A)
                 (A) (A) (A) (A) (A) (A) (A) (A) (A) (A) (A) (A)
                 (A) (A) (A) (A) (A) (A) (A) (A) (A) (A) (A) (A)
                 (A) (A) (A) (A) (A) (A) (A) (A) (A) (A) (A) (A)
                 (A) (A) (A) (A) (A) (A) (A) (A) (A) (A) (A) (A)
                 (A) (A) (A) (A) (A) (A) (A) (A) (A) (A) (A) (A)
                 (A) (A) (A) (A) (A) (A) (A) (A) (A) (A) (A) (A)
                 (A) (A) (A) (A) (A) (A) (A) (A) (A) (A) (A) (A)
                 (A) (A) (A) (A) (A) (A) (A) (A) (A) (A) (A) (A)
                 (A) (A) (A) (A) (A) (A) (A) (A) (A) (A) (A) (A)
                 (A) (A) (A) (A) (A) (A) (A) (A) (A) (A) (A) (A)
                 (A) (A) (A) (A) (A) (A) (A) (A) (A) (A) (A) (A)
                 (A) (A) (A) (A) (A) (A) (A) (A) (A) (A) (A) (A)
                 (A) (A) (A) (A) (A) (A) (A) (A) (A) (A) (A) (A)
                 (A) (A) (A) (A) (A) (A) (A) (A) (A) (A) (A) (A)
                 (A) (A) (A) (A) (A) (A) (A) (A) (A) (A) (A) (A)
                 (A) (A) (A) (A) (A) (A) (A) (A) (A) (A) (A) (A)
                 (A) (A) (A) (A) (A) (A) (A) (A) (A) (A) (A) (A)
                 (A) (A) (A) (A) (A) (A) (A) (A) (A) (A) (A) (A)
                 (A) (A) (A) (A) (A) (A) (A) (A) (A) (A) (A) (A)
                 (A) (A) (A) (A) (A) (A) (A) (A) (A) (A) (A) (A)
                 (A) (A) (A) (A) (A) (A) (A) (A) (A) (A) (A) (A)
                 (A) (A) (A) (A) (A) (A) (A) (A) (A) (A) (A) (A)
                 (A) (A) (A) (A) (A) (A) (A) (A) (A) (A) (A) (A)
                 (A) (A) (A) (A) (A) (A) (A) (A) (A) (A) (A) (A)
                 (A) (A) (A) (A) (A) (A) (A) (A) (A) (A) (A) (A)
                 (A) (A) (A) (A) (A) (A) (A) (A) (A) (A) (A) (A)
                 (A) (A) (A) (A) (A) (A) (A) (A) (A) (A) (A) (A)
                 (A) (A) (A) (A) (A) (A) (A) (A) (A) (A) (A) (A)
                 (A) (A) (A) (A) (A) (A) (A) (A) (A) (A)
       Virtual   (A) (A) (A) (A) (A) (A) (A) (A) (A) (A) (A) (A)
                 (A) (A) (A) (A) (A) (A) (A) (A) (A) (A) (A) (A)
                 (A) (A) (A) (A) (A) (A) (A) (A) (A) (A) (A) (A)
                 (A) (A) (A) (A) (A) (A) (A) (A) (A) (A) (A) (A)
                 (A) (A) (A) (A) (A) (A) (A) (A) (A) (A) (A) (A)
                 (A) (A) (A) (A) (A) (A) (A) (A) (A) (A) (A) (A)
                 (A) (A) (A) (A) (A) (A) (A) (A) (A) (A) (A) (A)
                 (A) (A) (A) (A) (A) (A) (A) (A) (A) (A) (A) (A)
                 (A) (A) (A) (A) (A) (A) (A) (A) (A) (A) (A) (A)
                 (A) (A) (A) (A) (A) (A) (A) (A) (A) (A) (A) (A)
                 (A) (A) (A) (A) (A) (A) (A) (A) (A) (A) (A) (A)
                 (A) (A) (A) (A) (A) (A) (A) (A) (A) (A) (A) (A)
                 (A) (A) (A) (A) (A) (A) (A) (A) (A) (A) (A) (A)
                 (A) (A) (A) (A) (A) (A) (A) (A) (A) (A) (A) (A)
                 (A) (A) (A) (A) (A) (A) (A) (A) (A) (A) (A) (A)
                 (A) (A) (A) (A) (A) (A) (A) (A) (A) (A) (A) (A)
                 (A) (A) (A) (A) (A) (A) (A) (A) (A) (A) (A) (A)
                 (A) (A) (A) (A) (A) (A) (A) (A) (A) (A) (A) (A)
                 (A) (A) (A) (A) (A) (A) (A) (A) (A) (A) (A) (A)
                 (A) (A) (A) (A) (A) (A) (A) (A) (A) (A) (A) (A)
                 (A) (A) (A) (A) (A) (A) (A) (A) (A) (A) (A) (A)
                 (A) (A) (A) (A) (A) (A) (A) (A) (A) (A) (A) (A)
                 (A) (A) (A) (A) (A) (A) (A) (A) (A) (A) (A) (A)
                 (A) (A) (A) (A) (A) (A) (A) (A) (A) (A) (A) (A)
                 (A) (A) (A) (A) (A) (A) (A) (A) (A) (A) (A) (A)
                 (A) (A) (A) (A) (A) (A) (A) (A) (A) (A) (A) (A)
                 (A) (A) (A) (A) (A) (A) (A) (A) (A) (A) (A) (A)
                 (A) (A) (A) (A) (A) (A) (A) (A) (A) (A) (A) (A)
                 (A) (A) (A) (A) (A) (A) (A) (A) (A) (A) (A) (A)
                 (A) (A) (A) (A) (A) (A) (A) (A) (A) (A) (A) (A)
                 (A) (A) (A) (A) (A) (A) (A) (A) (A) (A) (A) (A)
                 (A) (A) (A) (A) (A) (A) (A) (A) (A) (A) (A) (A)
                 (A) (A) (A) (A) (A) (A) (A) (A) (A) (A) (A) (A)
                 (A) (A) (A) (A) (A) (A) (A) (A) (A) (A) (A) (A)
                 (A) (A) (A) (A) (A) (A) (A) (A) (A) (A) (A) (A)
                 (A) (A) (A) (A) (A) (A) (A) (A) (A) (A) (A) (A)
                 (A) (A) (A) (A) (A) (A) (A) (A) (A) (A) (A) (A)
                 (A) (A) (A) (A) (A) (A) (A) (A) (A) (A) (A) (A)
                 (A) (A) (A) (A) (A) (A) (A) (A) (A) (A) (A) (A)
                 (A) (A) (A) (A) (A) (A) (A) (A) (A) (A) (A) (A)
                 (A) (A) (A) (A) (A) (A) (A) (A) (A) (A) (A) (A)
                 (A) (A) (A) (A) (A) (A) (A) (A) (A) (A) (A) (A)
                 (A) (A) (A) (A) (A) (A) (A) (A) (A) (A) (A) (A)
                 (A) (A) (A) (A) (A) (A) (A) (A) (A) (A) (A) (A)
                 (A) (A) (A) (A) (A) (A) (A) (A) (A) (A) (A) (A)
                 (A) (A) (A) (A) (A) (A) (A) (A) (A) (A) (A) (A)
                 (A) (A) (A) (A) (A) (A) (A) (A) (A) (A) (A) (A)
                 (A) (A) (A) (A) (A) (A) (A) (A) (A) (A) (A) (A)
                 (A) (A) (A) (A) (A) (A) (A) (A) (A) (A) (A) (A)
                 (A) (A) (A) (A) (A) (A) (A) (A) (A) (A) (A) (A)
                 (A) (A) (A) (A) (A) (A) (A) (A) (A) (A) (A) (A)
                 (A) (A) (A) (A) (A) (A) (A) (A) (A) (A) (A) (A)
                 (A) (A) (A) (A) (A) (A) (A) (A) (A) (A) (A) (A)
                 (A) (A) (A) (A) (A) (A) (A) (A) (A) (A) (A) (A)
                 (A) (A) (A) (A) (A) (A) (A) (A) (A) (A) (A) (A)
                 (A) (A) (A) (A) (A) (A) (A) (A) (A) (A) (A) (A)
                 (A) (A) (A) (A) (A) (A) (A) (A) (A) (A) (A) (A)
                 (A) (A) (A) (A) (A) (A) (A) (A) (A) (A) (A) (A)
                 (A) (A) (A) (A) (A) (A) (A) (A) (A) (A) (A) (A)
                 (A) (A) (A) (A) (A) (A) (A) (A) (A) (A) (A) (A)
                 (A) (A) (A) (A) (A) (A) (A) (A) (A) (A) (A) (A)
                 (A) (A) (A) (A) (A) (A) (A) (A) (A) (A) (A) (A)
                 (A) (A) (A) (A) (A) (A) (A) (A) (A) (A) (A) (A)
                 (A) (A) (A) (A) (A) (A) (A) (A) (A) (A) (A) (A)
                 (A) (A) (A) (A) (A) (A) (A) (A) (A) (A) (A) (A)
                 (A) (A) (A) (A) (A) (A) (A) (A) (A) (A) (A) (A)
                 (A) (A) (A) (A) (A) (A) (A) (A) (A) (A) (A) (A)
                 (A) (A) (A) (A) (A) (A) (A) (A) (A) (A) (A) (A)
                 (A) (A) (A) (A) (A) (A) (A) (A) (A) (A) (A) (A)
                 (A) (A) (A) (A) (A) (A) (A) (A) (A) (A) (A) (A)
                 (A) (A) (A) (A) (A) (A) (A) (A) (A) (A) (A) (A)
                 (A) (A) (A) (A) (A) (A) (A) (A) (A) (A) (A) (A)
                 (A) (A) (A) (A) (A) (A) (A) (A) (A) (A) (A) (A)
                 (A) (A) (A) (A) (A) (A) (A) (A) (A) (A) (A) (A)
                 (A) (A) (A) (A) (A) (A) (A) (A) (A) (A) (A) (A)
                 (A) (A) (A) (A) (A) (A) (A) (A) (A) (A) (A) (A)
                 (A) (A) (A) (A) (A) (A) (A) (A) (A) (A) (A) (A)
                 (A) (A) (A) (A) (A) (A) (A) (A) (A) (A) (A) (A)
                 (A) (A) (A) (A) (A) (A) (A) (A) (A) (A) (A) (A)
                 (A) (A) (A) (A) (A) (A) (A) (A) (A) (A) (A) (A)
                 (A) (A) (A) (A) (A) (A) (A) (A) (A) (A) (A) (A)
                 (A) (A) (A) (A) (A) (A) (A) (A) (A) (A) (A) (A)
                 (A) (A) (A) (A) (A) (A) (A) (A) (A) (A) (A) (A)
                 (A) (A) (A) (A) (A) (A) (A) (A) (A) (A) (A) (A)
                 (A) (A) (A) (A) (A) (A) (A) (A) (A) (A) (A) (A)
                 (A) (A) (A) (A) (A) (A) (A) (A) (A) (A) (A) (A)
                 (A) (A) (A) (A) (A) (A) (A) (A) (A) (A) (A) (A)
                 (A) (A) (A) (A) (A) (A) (A) (A) (A) (A) (A) (A)
                 (A) (A) (A) (A) (A) (A) (A) (A) (A) (A) (A) (A)
                 (A) (A) (A) (A) (A) (A) (A) (A) (A) (A) (A) (A)
                 (A) (A) (A) (A) (A) (A) (A) (A) (A) (A) (A) (A)
                 (A) (A) (A) (A) (A) (A) (A) (A) (A) (A) (A) (A)
                 (A) (A) (A) (A) (A) (A) (A) (A) (A) (A) (A) (A)
                 (A) (A) (A) (A) (A) (A) (A) (A) (A) (A) (A) (A)
                 (A) (A) (A) (A) (A) (A) (A) (A) (A) (A) (A) (A)
                 (A) (A) (A) (A) (A) (A) (A) (A) (A) (A) (A) (A)
                 (A) (A) (A) (A) (A) (A) (A) (A) (A) (A) (A) (A)
                 (A) (A) (A) (A) (A) (A) (A) (A) (A) (A) (A) (A)
                 (A) (A) (A) (A) (A) (A) (A) (A) (A) (A) (A) (A)
                 (A) (A) (A) (A) (A) (A) (A) (A) (A) (A) (A) (A)
                 (A) (A) (A) (A) (A) (A) (A) (A) (A) (A) (A) (A)
                 (A) (A) (A) (A) (A) (A) (A) (A) (A) (A) (A) (A)
                 (A) (A) (A) (A) (A) (A) (A) (A) (A) (A) (A) (A)
                 (A) (A) (A) (A) (A) (A) (A) (A) (A) (A) (A) (A)
                 (A) (A) (A) (A) (A) (A) (A) (A) (A) (A) (A) (A)
                 (A) (A) (A) (A) (A) (A) (A) (A) (A) (A) (A) (A)
                 (A) (A) (A) (A) (A) (A) (A) (A) (A) (A) (A) (A)
                 (A) (A) (A) (A) (A) (A) (A) (A) (A) (A) (A) (A)
                 (A) (A) (A) (A) (A) (A) (A) (A) (A) (A) (A) (A)
                 (A) (A) (A) (A) (A) (A) (A) (A) (A) (A) (A) (A)
                 (A) (A) (A) (A) (A) (A) (A) (A) (A) (A) (A) (A)
                 (A) (A) (A) (A) (A) (A) (A) (A) (A) (A) (A) (A)
                 (A) (A) (A) (A) (A) (A) (A) (A) (A) (A) (A) (A)
                 (A) (A) (A)
 The electronic state is 1-A.
 Alpha  occ. eigenvalues -- -145.37415 -19.18176 -19.17357 -19.14843 -19.13829
 Alpha  occ. eigenvalues --  -19.12124 -19.11720 -19.10626 -19.10589 -19.10567
 Alpha  occ. eigenvalues --  -19.09432 -19.08746 -19.08169 -19.07814 -19.07674
 Alpha  occ. eigenvalues --  -19.07491 -19.07255 -19.06890 -19.06887 -19.06425
 Alpha  occ. eigenvalues --  -19.06142 -19.04665 -19.04584 -19.03834 -15.43057
 Alpha  occ. eigenvalues --  -14.56731 -14.40296 -14.37416 -14.36753 -14.36681
 Alpha  occ. eigenvalues --  -14.36632 -14.33807 -14.33372 -14.33229 -14.33207
 Alpha  occ. eigenvalues --  -14.32878 -14.32296 -14.30486 -14.30041 -14.29190
 Alpha  occ. eigenvalues --  -12.56681 -12.56646 -12.56639 -10.33141 -10.31773
 Alpha  occ. eigenvalues --  -10.30703 -10.29837 -10.29534 -10.29412 -10.28677
 Alpha  occ. eigenvalues --  -10.27519 -10.27023 -10.26950 -10.26702 -10.26644
 Alpha  occ. eigenvalues --  -10.26151 -10.26148 -10.26030 -10.25588 -10.25483
 Alpha  occ. eigenvalues --  -10.25256 -10.24944 -10.24933 -10.24746 -10.23852
 Alpha  occ. eigenvalues --  -10.23831 -10.23239 -10.23229 -10.23142 -10.22787
 Alpha  occ. eigenvalues --  -10.22614 -10.22250 -10.22226 -10.22224 -10.22078
 Alpha  occ. eigenvalues --  -10.20819 -10.20724 -10.20344 -10.20122 -10.20077
 Alpha  occ. eigenvalues --  -10.19923 -10.19661 -10.19468 -10.19374 -10.18799
 Alpha  occ. eigenvalues --  -10.18730 -10.18640 -10.18501 -10.18468 -10.18405
 Alpha  occ. eigenvalues --  -10.18348 -10.18345 -10.18002 -10.17835 -10.17790
 Alpha  occ. eigenvalues --  -10.17670 -10.16320  -1.79776  -1.12023  -1.07843
 Alpha  occ. eigenvalues --   -1.07483  -1.07464  -1.07213  -1.06131  -1.04916
 Alpha  occ. eigenvalues --   -1.04807  -1.04545  -1.04488  -1.04126  -1.03337
 Alpha  occ. eigenvalues --   -1.02428  -1.02143  -1.02003  -1.01906  -1.01714
 Alpha  occ. eigenvalues --   -1.00818  -1.00739  -1.00025  -0.99162  -0.97888
 Alpha  occ. eigenvalues --   -0.97491  -0.97186  -0.96564  -0.94665  -0.93941
 Alpha  occ. eigenvalues --   -0.93886  -0.93393  -0.93218  -0.92037  -0.91383
 Alpha  occ. eigenvalues --   -0.91269  -0.91151  -0.90129  -0.90032  -0.89112
 Alpha  occ. eigenvalues --   -0.87965  -0.87356  -0.86539  -0.86509  -0.85838
 Alpha  occ. eigenvalues --   -0.84149  -0.84037  -0.82463  -0.80482  -0.79882
 Alpha  occ. eigenvalues --   -0.79015  -0.78892  -0.78068  -0.77495  -0.76261
 Alpha  occ. eigenvalues --   -0.75886  -0.75461  -0.74653  -0.73626  -0.73621
 Alpha  occ. eigenvalues --   -0.73156  -0.72937  -0.72439  -0.70938  -0.70571
 Alpha  occ. eigenvalues --   -0.69337  -0.69023  -0.68827  -0.68363  -0.67856
 Alpha  occ. eigenvalues --   -0.67643  -0.66571  -0.66048  -0.65561  -0.65173
 Alpha  occ. eigenvalues --   -0.64486  -0.63856  -0.62884  -0.62104  -0.61699
 Alpha  occ. eigenvalues --   -0.61620  -0.60708  -0.60409  -0.60327  -0.59313
 Alpha  occ. eigenvalues --   -0.59079  -0.58690  -0.58598  -0.58540  -0.58296
 Alpha  occ. eigenvalues --   -0.57909  -0.57813  -0.57338  -0.57119  -0.56764
 Alpha  occ. eigenvalues --   -0.56121  -0.55916  -0.55686  -0.55011  -0.54647
 Alpha  occ. eigenvalues --   -0.54548  -0.54400  -0.54349  -0.54306  -0.53979
 Alpha  occ. eigenvalues --   -0.53661  -0.53337  -0.52814  -0.52137  -0.52056
 Alpha  occ. eigenvalues --   -0.51519  -0.51342  -0.50756  -0.50369  -0.50184
 Alpha  occ. eigenvalues --   -0.50024  -0.49705  -0.49564  -0.49024  -0.48834
 Alpha  occ. eigenvalues --   -0.48730  -0.48516  -0.48414  -0.48232  -0.48120
 Alpha  occ. eigenvalues --   -0.47854  -0.47609  -0.47551  -0.47259  -0.46899
 Alpha  occ. eigenvalues --   -0.46584  -0.46383  -0.46220  -0.45830  -0.45726
 Alpha  occ. eigenvalues --   -0.45553  -0.45243  -0.45103  -0.45077  -0.44886
 Alpha  occ. eigenvalues --   -0.44613  -0.44396  -0.44225  -0.44104  -0.44030
 Alpha  occ. eigenvalues --   -0.44005  -0.43847  -0.43655  -0.43531  -0.43368
 Alpha  occ. eigenvalues --   -0.43240  -0.43183  -0.43071  -0.42872  -0.42813
 Alpha  occ. eigenvalues --   -0.42607  -0.42501  -0.42269  -0.42051  -0.41993
 Alpha  occ. eigenvalues --   -0.41875  -0.41807  -0.41714  -0.41424  -0.41396
 Alpha  occ. eigenvalues --   -0.41277  -0.41191  -0.41133  -0.40953  -0.40861
 Alpha  occ. eigenvalues --   -0.40721  -0.40634  -0.40468  -0.40225  -0.40080
 Alpha  occ. eigenvalues --   -0.39836  -0.39719  -0.39588  -0.39488  -0.39354
 Alpha  occ. eigenvalues --   -0.39156  -0.38958  -0.38912  -0.38807  -0.38756
 Alpha  occ. eigenvalues --   -0.38463  -0.38231  -0.38044  -0.37986  -0.37800
 Alpha  occ. eigenvalues --   -0.37674  -0.37555  -0.37504  -0.37370  -0.37301
 Alpha  occ. eigenvalues --   -0.37107  -0.36859  -0.36344  -0.36272  -0.36204
 Alpha  occ. eigenvalues --   -0.35947  -0.35705  -0.35622  -0.35510  -0.35270
 Alpha  occ. eigenvalues --   -0.35152  -0.35057  -0.35011  -0.34649  -0.34575
 Alpha  occ. eigenvalues --   -0.34474  -0.34407  -0.34297  -0.33998  -0.33958
 Alpha  occ. eigenvalues --   -0.33901  -0.33803  -0.33795  -0.32850  -0.32211
 Alpha  occ. eigenvalues --   -0.31985  -0.31719  -0.31493  -0.31128  -0.29653
 Alpha  occ. eigenvalues --   -0.29482  -0.29080  -0.28603  -0.28422  -0.28232
 Alpha  occ. eigenvalues --   -0.28019  -0.27917  -0.27191  -0.26788  -0.26521
 Alpha  occ. eigenvalues --   -0.26289  -0.26215  -0.26136  -0.26102  -0.25704
 Alpha  occ. eigenvalues --   -0.25652  -0.25333  -0.24969  -0.24810  -0.24780
 Alpha  occ. eigenvalues --   -0.24586  -0.24435  -0.24009  -0.23814  -0.23718
 Alpha  occ. eigenvalues --   -0.23639  -0.22874  -0.22793  -0.22639  -0.22528
 Alpha  occ. eigenvalues --   -0.22171  -0.21996  -0.21767  -0.21524  -0.20255
 Alpha  occ. eigenvalues --   -0.20064  -0.19418  -0.18851
 Alpha virt. eigenvalues --   -0.09051  -0.03216  -0.02899  -0.02768  -0.01813
 Alpha virt. eigenvalues --   -0.00443  -0.00393  -0.00222  -0.00197   0.00267
 Alpha virt. eigenvalues --    0.00685   0.00802   0.00864   0.01578   0.01985
 Alpha virt. eigenvalues --    0.02510   0.02810   0.03005   0.03210   0.03661
 Alpha virt. eigenvalues --    0.03893   0.04081   0.04228   0.04659   0.04720
 Alpha virt. eigenvalues --    0.05001   0.05205   0.05442   0.05574   0.05689
 Alpha virt. eigenvalues --    0.05800   0.06131   0.06230   0.06307   0.06645
 Alpha virt. eigenvalues --    0.06734   0.07014   0.07187   0.07545   0.07801
 Alpha virt. eigenvalues --    0.07996   0.08417   0.08433   0.08514   0.08781
 Alpha virt. eigenvalues --    0.09280   0.09540   0.09761   0.09936   0.10075
 Alpha virt. eigenvalues --    0.10221   0.10438   0.10550   0.10779   0.11074
 Alpha virt. eigenvalues --    0.11145   0.11348   0.11515   0.11610   0.11953
 Alpha virt. eigenvalues --    0.11990   0.12123   0.12281   0.12519   0.12673
 Alpha virt. eigenvalues --    0.12713   0.12794   0.12996   0.13040   0.13239
 Alpha virt. eigenvalues --    0.13529   0.13686   0.13962   0.14249   0.14400
 Alpha virt. eigenvalues --    0.14494   0.14669   0.14817   0.15022   0.15304
 Alpha virt. eigenvalues --    0.15398   0.15570   0.15745   0.15802   0.15991
 Alpha virt. eigenvalues --    0.16188   0.16436   0.16512   0.16715   0.16841
 Alpha virt. eigenvalues --    0.16956   0.17093   0.17270   0.17369   0.17623
 Alpha virt. eigenvalues --    0.17657   0.17807   0.18127   0.18287   0.18481
 Alpha virt. eigenvalues --    0.18571   0.18684   0.19027   0.19126   0.19303
 Alpha virt. eigenvalues --    0.19449   0.19612   0.19867   0.19937   0.20127
 Alpha virt. eigenvalues --    0.20401   0.20724   0.20873   0.20906   0.21171
 Alpha virt. eigenvalues --    0.21424   0.21620   0.21711   0.22178   0.22508
 Alpha virt. eigenvalues --    0.22718   0.22827   0.23052   0.23147   0.23411
 Alpha virt. eigenvalues --    0.23686   0.23782   0.23878   0.24248   0.24403
 Alpha virt. eigenvalues --    0.24616   0.24860   0.24902   0.25032   0.25321
 Alpha virt. eigenvalues --    0.25598   0.25692   0.25775   0.26002   0.26444
 Alpha virt. eigenvalues --    0.26579   0.26649   0.26883   0.27019   0.27609
 Alpha virt. eigenvalues --    0.27931   0.28262   0.28343   0.28404   0.28460
 Alpha virt. eigenvalues --    0.28852   0.29405   0.29655   0.29800   0.30216
 Alpha virt. eigenvalues --    0.30572   0.30649   0.31018   0.31376   0.31718
 Alpha virt. eigenvalues --    0.32089   0.32273   0.32336   0.32489   0.32619
 Alpha virt. eigenvalues --    0.32960   0.33044   0.33145   0.33317   0.33489
 Alpha virt. eigenvalues --    0.33723   0.34062   0.34382   0.34619   0.34701
 Alpha virt. eigenvalues --    0.35322   0.35550   0.36298   0.36674   0.36798
 Alpha virt. eigenvalues --    0.37199   0.37746   0.37769   0.37886   0.38009
 Alpha virt. eigenvalues --    0.38107   0.38223   0.38370   0.38814   0.39031
 Alpha virt. eigenvalues --    0.39271   0.39403   0.39862   0.40007   0.40320
 Alpha virt. eigenvalues --    0.40667   0.40754   0.40877   0.41262   0.41494
 Alpha virt. eigenvalues --    0.41697   0.42090   0.42355   0.42699   0.42848
 Alpha virt. eigenvalues --    0.42970   0.43395   0.43489   0.43688   0.43849
 Alpha virt. eigenvalues --    0.44022   0.44286   0.44323   0.44441   0.44699
 Alpha virt. eigenvalues --    0.44780   0.45159   0.45363   0.45504   0.45602
 Alpha virt. eigenvalues --    0.45652   0.45974   0.46183   0.46521   0.46739
 Alpha virt. eigenvalues --    0.46879   0.47061   0.47412   0.47547   0.47782
 Alpha virt. eigenvalues --    0.48032   0.48210   0.48374   0.48538   0.48694
 Alpha virt. eigenvalues --    0.49048   0.49291   0.49431   0.49469   0.49730
 Alpha virt. eigenvalues --    0.50007   0.50347   0.50551   0.50711   0.51212
 Alpha virt. eigenvalues --    0.51279   0.51678   0.51856   0.51901   0.52003
 Alpha virt. eigenvalues --    0.52242   0.52409   0.52553   0.52894   0.53102
 Alpha virt. eigenvalues --    0.53297   0.53638   0.53695   0.53976   0.54061
 Alpha virt. eigenvalues --    0.54174   0.54553   0.54605   0.55101   0.55233
 Alpha virt. eigenvalues --    0.55346   0.55651   0.55837   0.55941   0.56134
 Alpha virt. eigenvalues --    0.56298   0.56459   0.56655   0.56778   0.56946
 Alpha virt. eigenvalues --    0.57192   0.57300   0.57431   0.57644   0.57995
 Alpha virt. eigenvalues --    0.58152   0.58304   0.58524   0.58613   0.58709
 Alpha virt. eigenvalues --    0.58798   0.58851   0.59079   0.59209   0.59525
 Alpha virt. eigenvalues --    0.59717   0.60075   0.60137   0.60177   0.60426
 Alpha virt. eigenvalues --    0.60495   0.60503   0.60664   0.60812   0.60982
 Alpha virt. eigenvalues --    0.61187   0.61436   0.61597   0.61709   0.61853
 Alpha virt. eigenvalues --    0.61912   0.62066   0.62251   0.62437   0.62545
 Alpha virt. eigenvalues --    0.62561   0.62761   0.62776   0.62938   0.63093
 Alpha virt. eigenvalues --    0.63128   0.63252   0.63267   0.63460   0.63547
 Alpha virt. eigenvalues --    0.63653   0.64082   0.64176   0.64341   0.64383
 Alpha virt. eigenvalues --    0.64423   0.64527   0.64793   0.64848   0.64868
 Alpha virt. eigenvalues --    0.64966   0.65082   0.65121   0.65256   0.65397
 Alpha virt. eigenvalues --    0.65492   0.65617   0.65682   0.65883   0.65924
 Alpha virt. eigenvalues --    0.65981   0.66117   0.66185   0.66411   0.66478
 Alpha virt. eigenvalues --    0.66700   0.66778   0.66853   0.66944   0.67061
 Alpha virt. eigenvalues --    0.67163   0.67191   0.67318   0.67453   0.67485
 Alpha virt. eigenvalues --    0.67582   0.67668   0.67886   0.67931   0.68023
 Alpha virt. eigenvalues --    0.68121   0.68322   0.68397   0.68531   0.68564
 Alpha virt. eigenvalues --    0.68799   0.68878   0.68910   0.69246   0.69281
 Alpha virt. eigenvalues --    0.69481   0.69563   0.69740   0.69890   0.70073
 Alpha virt. eigenvalues --    0.70143   0.70243   0.70474   0.70605   0.70807
 Alpha virt. eigenvalues --    0.70965   0.71101   0.71266   0.71280   0.71505
 Alpha virt. eigenvalues --    0.71686   0.71784   0.71938   0.72020   0.72135
 Alpha virt. eigenvalues --    0.72217   0.72346   0.72441   0.72628   0.72832
 Alpha virt. eigenvalues --    0.73040   0.73176   0.73271   0.73429   0.73584
 Alpha virt. eigenvalues --    0.73704   0.74079   0.74358   0.74500   0.74580
 Alpha virt. eigenvalues --    0.74727   0.75089   0.75303   0.75400   0.75504
 Alpha virt. eigenvalues --    0.75785   0.75978   0.76630   0.76755   0.76970
 Alpha virt. eigenvalues --    0.77009   0.77192   0.77514   0.77649   0.77829
 Alpha virt. eigenvalues --    0.78329   0.78436   0.78515   0.78885   0.79237
 Alpha virt. eigenvalues --    0.79581   0.79901   0.79968   0.80285   0.80653
 Alpha virt. eigenvalues --    0.80863   0.81240   0.81349   0.81689   0.81986
 Alpha virt. eigenvalues --    0.82236   0.82330   0.82662   0.82894   0.83137
 Alpha virt. eigenvalues --    0.83449   0.83784   0.84046   0.84349   0.84570
 Alpha virt. eigenvalues --    0.84901   0.85171   0.85656   0.85869   0.86298
 Alpha virt. eigenvalues --    0.86403   0.86566   0.87038   0.87342   0.87494
 Alpha virt. eigenvalues --    0.87634   0.88074   0.88195   0.88400   0.89005
 Alpha virt. eigenvalues --    0.89082   0.89472   0.89629   0.90022   0.90395
 Alpha virt. eigenvalues --    0.90568   0.90799   0.91271   0.91650   0.91912
 Alpha virt. eigenvalues --    0.91968   0.92094   0.92695   0.92724   0.93404
 Alpha virt. eigenvalues --    0.93605   0.93900   0.93937   0.94108   0.94663
 Alpha virt. eigenvalues --    0.95029   0.95319   0.95510   0.95869   0.96268
 Alpha virt. eigenvalues --    0.96617   0.96830   0.97062   0.97457   0.97709
 Alpha virt. eigenvalues --    0.97740   0.97907   0.98243   0.98618   0.98943
 Alpha virt. eigenvalues --    0.99229   0.99384   0.99700   1.00071   1.00281
 Alpha virt. eigenvalues --    1.00529   1.00625   1.00895   1.01213   1.01298
 Alpha virt. eigenvalues --    1.01753   1.02303   1.02457   1.02982   1.03058
 Alpha virt. eigenvalues --    1.03246   1.03800   1.03981   1.04255   1.04416
 Alpha virt. eigenvalues --    1.05078   1.05184   1.05589   1.05814   1.06138
 Alpha virt. eigenvalues --    1.06485   1.06735   1.06983   1.07259   1.07622
 Alpha virt. eigenvalues --    1.07752   1.07968   1.08318   1.08389   1.08635
 Alpha virt. eigenvalues --    1.08883   1.09123   1.09453   1.09608   1.10234
 Alpha virt. eigenvalues --    1.10537   1.10960   1.11239   1.11586   1.11864
 Alpha virt. eigenvalues --    1.12115   1.12171   1.12454   1.12531   1.13237
 Alpha virt. eigenvalues --    1.13667   1.14118   1.14278   1.14447   1.14845
 Alpha virt. eigenvalues --    1.14971   1.15120   1.15517   1.15713   1.15991
 Alpha virt. eigenvalues --    1.16364   1.16483   1.16718   1.17081   1.17306
 Alpha virt. eigenvalues --    1.17827   1.18221   1.18444   1.18515   1.18789
 Alpha virt. eigenvalues --    1.19085   1.19343   1.19451   1.19665   1.19867
 Alpha virt. eigenvalues --    1.20525   1.20652   1.20773   1.21137   1.21635
 Alpha virt. eigenvalues --    1.21684   1.21898   1.22074   1.22186   1.22377
 Alpha virt. eigenvalues --    1.22533   1.23367   1.23413   1.23812   1.23988
 Alpha virt. eigenvalues --    1.24210   1.24378   1.24565   1.24610   1.25026
 Alpha virt. eigenvalues --    1.25297   1.25662   1.25889   1.26054   1.26289
 Alpha virt. eigenvalues --    1.26502   1.26668   1.26817   1.27020   1.27481
 Alpha virt. eigenvalues --    1.27661   1.27996   1.28222   1.28494   1.28614
 Alpha virt. eigenvalues --    1.29107   1.29410   1.29824   1.30143   1.30309
 Alpha virt. eigenvalues --    1.30643   1.30826   1.31070   1.31535   1.31759
 Alpha virt. eigenvalues --    1.32371   1.32711   1.32968   1.33055   1.33221
 Alpha virt. eigenvalues --    1.33487   1.33568   1.34029   1.34073   1.34398
 Alpha virt. eigenvalues --    1.34624   1.35116   1.35453   1.35603   1.36093
 Alpha virt. eigenvalues --    1.36506   1.36696   1.36917   1.37544   1.37695
 Alpha virt. eigenvalues --    1.37867   1.38190   1.38427   1.38599   1.38775
 Alpha virt. eigenvalues --    1.39134   1.39354   1.39527   1.39655   1.39904
 Alpha virt. eigenvalues --    1.39971   1.40316   1.41029   1.41199   1.41511
 Alpha virt. eigenvalues --    1.41719   1.42032   1.42081   1.42498   1.42567
 Alpha virt. eigenvalues --    1.42846   1.43129   1.43689   1.43938   1.44045
 Alpha virt. eigenvalues --    1.44130   1.44455   1.44678   1.45119   1.45184
 Alpha virt. eigenvalues --    1.45521   1.45981   1.46340   1.46713   1.46925
 Alpha virt. eigenvalues --    1.47525   1.47884   1.47911   1.48136   1.48182
 Alpha virt. eigenvalues --    1.48877   1.49077   1.49407   1.49441   1.49801
 Alpha virt. eigenvalues --    1.50058   1.50151   1.50603   1.51278   1.51450
 Alpha virt. eigenvalues --    1.51769   1.51973   1.52010   1.52427   1.52805
 Alpha virt. eigenvalues --    1.52884   1.53154   1.53767   1.53910   1.54235
 Alpha virt. eigenvalues --    1.54580   1.54704   1.54821   1.54926   1.55263
 Alpha virt. eigenvalues --    1.55514   1.55963   1.56251   1.56530   1.56893
 Alpha virt. eigenvalues --    1.57188   1.57427   1.57980   1.58046   1.58382
 Alpha virt. eigenvalues --    1.58606   1.59223   1.59469   1.59760   1.60607
 Alpha virt. eigenvalues --    1.61062   1.61187   1.61417   1.61626   1.61854
 Alpha virt. eigenvalues --    1.62230   1.62339   1.62840   1.63331   1.63683
 Alpha virt. eigenvalues --    1.63818   1.64082   1.64311   1.64407   1.65001
 Alpha virt. eigenvalues --    1.65591   1.65708   1.65808   1.66065   1.66431
 Alpha virt. eigenvalues --    1.66822   1.67712   1.67867   1.68295   1.68487
 Alpha virt. eigenvalues --    1.68619   1.68962   1.69315   1.69546   1.69697
 Alpha virt. eigenvalues --    1.69947   1.70252   1.70512   1.71009   1.71264
 Alpha virt. eigenvalues --    1.71508   1.71675   1.71714   1.72109   1.72162
 Alpha virt. eigenvalues --    1.72387   1.72518   1.73032   1.73293   1.73530
 Alpha virt. eigenvalues --    1.73706   1.73835   1.74183   1.74429   1.74573
 Alpha virt. eigenvalues --    1.74624   1.74819   1.74898   1.75520   1.75735
 Alpha virt. eigenvalues --    1.75900   1.76007   1.76157   1.76262   1.76302
 Alpha virt. eigenvalues --    1.76662   1.76718   1.76844   1.77026   1.77211
 Alpha virt. eigenvalues --    1.77332   1.77509   1.77690   1.77730   1.78101
 Alpha virt. eigenvalues --    1.78135   1.78548   1.78592   1.78806   1.79031
 Alpha virt. eigenvalues --    1.79076   1.79206   1.79435   1.79622   1.79794
 Alpha virt. eigenvalues --    1.79831   1.80132   1.80258   1.80593   1.80741
 Alpha virt. eigenvalues --    1.80843   1.81061   1.81135   1.81350   1.81582
 Alpha virt. eigenvalues --    1.81637   1.81875   1.82059   1.82240   1.82454
 Alpha virt. eigenvalues --    1.82671   1.82901   1.83081   1.83259   1.83299
 Alpha virt. eigenvalues --    1.83542   1.83642   1.83962   1.84291   1.84435
 Alpha virt. eigenvalues --    1.84571   1.84733   1.84984   1.85035   1.85271
 Alpha virt. eigenvalues --    1.85415   1.85535   1.85854   1.86083   1.86364
 Alpha virt. eigenvalues --    1.86533   1.86659   1.86884   1.86911   1.87083
 Alpha virt. eigenvalues --    1.87560   1.87887   1.88026   1.88067   1.88229
 Alpha virt. eigenvalues --    1.88340   1.88480   1.88624   1.88772   1.89138
 Alpha virt. eigenvalues --    1.89195   1.89355   1.89451   1.89758   1.89942
 Alpha virt. eigenvalues --    1.90357   1.90540   1.90747   1.90975   1.91086
 Alpha virt. eigenvalues --    1.91389   1.91458   1.91590   1.91708   1.91812
 Alpha virt. eigenvalues --    1.92131   1.92170   1.92452   1.92710   1.93025
 Alpha virt. eigenvalues --    1.93278   1.93493   1.93777   1.94033   1.94192
 Alpha virt. eigenvalues --    1.94231   1.94367   1.94730   1.94810   1.94941
 Alpha virt. eigenvalues --    1.95052   1.95229   1.95571   1.95678   1.95847
 Alpha virt. eigenvalues --    1.96066   1.96257   1.96496   1.96560   1.96804
 Alpha virt. eigenvalues --    1.96928   1.97168   1.97380   1.97856   1.98048
 Alpha virt. eigenvalues --    1.98154   1.98260   1.98736   1.98852   1.99075
 Alpha virt. eigenvalues --    1.99356   1.99524   1.99863   2.00379   2.00622
 Alpha virt. eigenvalues --    2.00809   2.00910   2.01309   2.01476   2.01774
 Alpha virt. eigenvalues --    2.01850   2.02250   2.02755   2.02821   2.03057
 Alpha virt. eigenvalues --    2.03294   2.03760   2.03991   2.04474   2.04592
 Alpha virt. eigenvalues --    2.04908   2.05260   2.05314   2.05676   2.05855
 Alpha virt. eigenvalues --    2.05930   2.06252   2.06345   2.06534   2.06907
 Alpha virt. eigenvalues --    2.07097   2.07459   2.07886   2.08077   2.08736
 Alpha virt. eigenvalues --    2.09122   2.09145   2.09410   2.09520   2.10239
 Alpha virt. eigenvalues --    2.10346   2.10597   2.10778   2.11652   2.11689
 Alpha virt. eigenvalues --    2.11775   2.12074   2.12113   2.12543   2.12559
 Alpha virt. eigenvalues --    2.12767   2.13067   2.13373   2.13644   2.14287
 Alpha virt. eigenvalues --    2.14408   2.14912   2.15426   2.15612   2.15773
 Alpha virt. eigenvalues --    2.16039   2.16227   2.16323   2.16506   2.16606
 Alpha virt. eigenvalues --    2.16779   2.17000   2.17183   2.17575   2.17902
 Alpha virt. eigenvalues --    2.18180   2.18392   2.18610   2.19084   2.19124
 Alpha virt. eigenvalues --    2.19757   2.19933   2.20328   2.20480   2.21031
 Alpha virt. eigenvalues --    2.21210   2.21403   2.21485   2.22065   2.22431
 Alpha virt. eigenvalues --    2.22634   2.22858   2.23560   2.24167   2.24525
 Alpha virt. eigenvalues --    2.24718   2.25034   2.25433   2.25958   2.26085
 Alpha virt. eigenvalues --    2.26121   2.26741   2.27115   2.27406   2.27528
 Alpha virt. eigenvalues --    2.27667   2.27882   2.28718   2.28797   2.29150
 Alpha virt. eigenvalues --    2.29391   2.29552   2.29785   2.30269   2.31041
 Alpha virt. eigenvalues --    2.31156   2.31592   2.31883   2.32077   2.32423
 Alpha virt. eigenvalues --    2.32448   2.32710   2.33012   2.33336   2.33651
 Alpha virt. eigenvalues --    2.33857   2.34196   2.34409   2.34661   2.34725
 Alpha virt. eigenvalues --    2.35371   2.36046   2.36614   2.36911   2.37214
 Alpha virt. eigenvalues --    2.37329   2.37507   2.38192   2.38614   2.38859
 Alpha virt. eigenvalues --    2.39441   2.39474   2.39775   2.39907   2.40064
 Alpha virt. eigenvalues --    2.40325   2.40584   2.40695   2.41054   2.41823
 Alpha virt. eigenvalues --    2.42236   2.42633   2.42797   2.43244   2.43509
 Alpha virt. eigenvalues --    2.44051   2.44297   2.44616   2.44764   2.45065
 Alpha virt. eigenvalues --    2.45214   2.45598   2.45885   2.46300   2.46630
 Alpha virt. eigenvalues --    2.47046   2.47153   2.47738   2.47900   2.48292
 Alpha virt. eigenvalues --    2.48459   2.48739   2.49833   2.50115   2.50492
 Alpha virt. eigenvalues --    2.50744   2.51213   2.51510   2.51702   2.52230
 Alpha virt. eigenvalues --    2.52587   2.52665   2.53018   2.53332   2.53693
 Alpha virt. eigenvalues --    2.53932   2.54162   2.54369   2.54742   2.54833
 Alpha virt. eigenvalues --    2.55182   2.55478   2.56445   2.56584   2.56833
 Alpha virt. eigenvalues --    2.57368   2.57512   2.57820   2.58064   2.58256
 Alpha virt. eigenvalues --    2.59033   2.59654   2.60219   2.60339   2.60519
 Alpha virt. eigenvalues --    2.60971   2.61115   2.61250   2.61442   2.62069
 Alpha virt. eigenvalues --    2.62168   2.62240   2.62315   2.62874   2.63238
 Alpha virt. eigenvalues --    2.63392   2.63563   2.64177   2.64397   2.64456
 Alpha virt. eigenvalues --    2.64758   2.64899   2.65041   2.65711   2.65886
 Alpha virt. eigenvalues --    2.66591   2.66725   2.66998   2.67187   2.67302
 Alpha virt. eigenvalues --    2.67599   2.67915   2.68382   2.68477   2.68708
 Alpha virt. eigenvalues --    2.68889   2.69098   2.69402   2.69805   2.70090
 Alpha virt. eigenvalues --    2.70170   2.70509   2.70582   2.70946   2.70975
 Alpha virt. eigenvalues --    2.71410   2.71526   2.72332   2.72438   2.72699
 Alpha virt. eigenvalues --    2.73012   2.73238   2.73338   2.73786   2.74003
 Alpha virt. eigenvalues --    2.74065   2.74301   2.74489   2.74648   2.75057
 Alpha virt. eigenvalues --    2.75391   2.75763   2.76427   2.76530   2.77057
 Alpha virt. eigenvalues --    2.77333   2.77397   2.77490   2.78161   2.78390
 Alpha virt. eigenvalues --    2.78610   2.78747   2.78917   2.79236   2.79396
 Alpha virt. eigenvalues --    2.79639   2.79865   2.80274   2.80427   2.80979
 Alpha virt. eigenvalues --    2.81315   2.81897   2.82319   2.82666   2.82737
 Alpha virt. eigenvalues --    2.82879   2.83075   2.83618   2.83912   2.83990
 Alpha virt. eigenvalues --    2.84571   2.84817   2.85201   2.85496   2.85890
 Alpha virt. eigenvalues --    2.86526   2.86862   2.87179   2.87413   2.87954
 Alpha virt. eigenvalues --    2.88297   2.88486   2.89120   2.89384   2.89564
 Alpha virt. eigenvalues --    2.89880   2.90163   2.90208   2.90468   2.90609
 Alpha virt. eigenvalues --    2.90736   2.91305   2.91657   2.92043   2.92635
 Alpha virt. eigenvalues --    2.92661   2.92722   2.92972   2.93044   2.93305
 Alpha virt. eigenvalues --    2.93519   2.93761   2.94103   2.94687   2.94989
 Alpha virt. eigenvalues --    2.95618   2.95695   2.95878   2.95987   2.96317
 Alpha virt. eigenvalues --    2.96929   2.97238   2.97431   2.97611   2.97726
 Alpha virt. eigenvalues --    2.97922   2.98270   2.98453   2.98815   2.99700
 Alpha virt. eigenvalues --    3.00087   3.00261   3.00882   3.00927   3.01635
 Alpha virt. eigenvalues --    3.01667   3.02010   3.02518   3.02647   3.03113
 Alpha virt. eigenvalues --    3.03768   3.04070   3.04246   3.04305   3.04762
 Alpha virt. eigenvalues --    3.05135   3.05432   3.05782   3.06145   3.06866
 Alpha virt. eigenvalues --    3.07180   3.07625   3.07749   3.08017   3.08416
 Alpha virt. eigenvalues --    3.08676   3.09468   3.10162   3.11022   3.11527
 Alpha virt. eigenvalues --    3.11669   3.12070   3.12259   3.12620   3.12975
 Alpha virt. eigenvalues --    3.13931   3.14240   3.14874   3.15541   3.16337
 Alpha virt. eigenvalues --    3.16442   3.16512   3.16791   3.16905   3.16933
 Alpha virt. eigenvalues --    3.17007   3.17521   3.17897   3.18235   3.18923
 Alpha virt. eigenvalues --    3.19028   3.19423   3.19485   3.19981   3.21094
 Alpha virt. eigenvalues --    3.21215   3.21284   3.21382   3.22489   3.22695
 Alpha virt. eigenvalues --    3.22938   3.23501   3.23889   3.23975   3.24688
 Alpha virt. eigenvalues --    3.24791   3.25698   3.25831   3.26390   3.26997
 Alpha virt. eigenvalues --    3.27353   3.27629   3.28605   3.29549   3.29756
 Alpha virt. eigenvalues --    3.29881   3.31833   3.32603   3.32865   3.35524
 Alpha virt. eigenvalues --    3.37060   3.38317   3.38419   3.40101   3.40546
 Alpha virt. eigenvalues --    3.41811   3.43906   3.47837   3.49028   3.50507
 Alpha virt. eigenvalues --    3.50699   3.52950   3.54227   3.54998   3.55820
 Alpha virt. eigenvalues --    3.57135   3.58008   3.58961   3.59316   3.59621
 Alpha virt. eigenvalues --    3.60396   3.60586   3.61539   3.61958   3.62031
 Alpha virt. eigenvalues --    3.64373   3.66103   3.67018   3.67271   3.67489
 Alpha virt. eigenvalues --    3.68123   3.68791   3.68926   3.69260   3.69824
 Alpha virt. eigenvalues --    3.70450   3.71005   3.71587   3.71796   3.71964
 Alpha virt. eigenvalues --    3.72522   3.73013   3.73491   3.74707   3.75769
 Alpha virt. eigenvalues --    3.76386   3.81481   3.85984   3.86126
          Condensed to atoms (all electrons):
 Mulliken charges:
               1
     1  C    0.028283
     2  C    0.032634
     3  O   -0.292600
     4  H    0.022931
     5  H    0.030923
     6  H    0.027525
     7  N   -0.106663
     8  C    0.087599
     9  C    0.064518
    10  O   -0.288661
    11  C    0.089219
    12  C    0.117818
    13  O   -0.388392
    14  O   -0.427901
    15  H    0.122635
    16  H   -0.001330
    17  H    0.030511
    18  H   -0.006136
    19  N   -0.134215
    20  C    0.111241
    21  C    0.110196
    22  O   -0.243461
    23  C    0.020538
    24  C    0.030521
    25  C   -0.062186
    26  C    0.020870
    27  N    0.078350
    28  H    0.143435
    29  H   -0.020071
    30  H   -0.007874
    31  H    0.015627
    32  H    0.006015
    33  H    0.083104
    34  H    0.039851
    35  H   -0.003883
    36  H    0.059250
    37  H    0.092870
    38  H    0.187655
    39  H    0.188136
    40  H    0.191280
    41  N   -0.171257
    42  C    0.087721
    43  C    0.071347
    44  O   -0.285384
    45  C    0.142531
    46  C    0.033546
    47  O   -0.434849
    48  O   -0.375168
    49  H    0.139282
    50  H    0.020137
    51  H   -0.002173
    52  H    0.013478
    53  N   -0.173351
    54  C    0.214787
    55  C    0.046804
    56  O   -0.306911
    57  H    0.151435
    58  H    0.021646
    59  H    0.008147
    60  N   -0.142450
    61  C    0.141866
    62  C    0.074435
    63  O   -0.309723
    64  C    0.062304
    65  C    0.071657
    66  N   -0.047018
    67  O   -0.348790
    68  H    0.149207
    69  H    0.018457
    70  H    0.043915
    71  H    0.036134
    72  H    0.110341
    73  H    0.084853
    74  N   -0.143008
    75  C    0.238977
    76  C    0.000085
    77  O   -0.303353
    78  H    0.153381
    79  H    0.032701
    80  H    0.014003
    81  N   -0.125022
    82  C    0.109766
    83  C    0.096553
    84  O   -0.348493
    85  C    0.177986
    86  C   -0.043629
    87  C   -0.009537
    88  C    0.016627
    89  C    0.009009
    90  C   -0.059998
    91  C    0.148140
    92  O   -0.199951
    93  H    0.154217
    94  H   -0.015863
    95  H    0.029355
    96  H   -0.015395
    97  H    0.009683
    98  H   -0.029056
    99  H   -0.025910
   100  H   -0.069411
   101  H    0.155903
   102  N   -0.097016
   103  C    0.180941
   104  C    0.075450
   105  O   -0.291947
   106  C   -0.148869
   107  C    0.008651
   108  C    0.079392
   109  C    0.033790
   110  H    0.126831
   111  H    0.001934
   112  H   -0.000084
   113  H    0.010871
   114  H    0.003965
   115  H    0.019135
   116  H    0.008943
   117  H   -0.016194
   118  H    0.018306
   119  H    0.003277
   120  H    0.003393
   121  N   -0.116833
   122  C    0.102337
   123  C    0.147682
   124  O   -0.288620
   125  C    0.224601
   126  O   -0.338604
   127  H    0.130172
   128  H    0.022092
   129  H    0.002217
   130  H   -0.035819
   131  H    0.181760
   132  N   -0.124170
   133  C    0.081512
   134  C    0.040386
   135  O   -0.262316
   136  C    0.008480
   137  H    0.129239
   138  H    0.024730
   139  H    0.024549
   140  H    0.038763
   141  H    0.033652
   142  N   -0.141577
   143  C    0.119528
   144  C    0.042956
   145  O   -0.271689
   146  C    0.034966
   147  H    0.108988
   148  H    0.016124
   149  H    0.016222
   150  H    0.041074
   151  H    0.028070
   152  N   -0.171605
   153  C    0.169221
   154  C    0.100325
   155  O   -0.327164
   156  C   -0.037082
   157  C    0.109269
   158  C    0.162811
   159  O   -0.402315
   160  O   -0.438277
   161  H    0.135758
   162  H   -0.012378
   163  H    0.005582
   164  H    0.005262
   165  H   -0.027198
   166  H    0.007646
   167  N   -0.157984
   168  C    0.134411
   169  H    0.030890
   170  H    0.029935
   171  H    0.003845
   172  H    0.117572
   173  Ca   1.252834
   174  O   -0.228681
   175  H    0.157075
   176  H    0.184130
 Sum of Mulliken charges =  -0.00000
 Mulliken charges with hydrogens summed into heavy atoms:
               1
     1  C    0.109663
     2  C    0.032634
     3  O   -0.292600
     7  N    0.015972
     8  C    0.086269
     9  C    0.064518
    10  O   -0.288661
    11  C    0.113595
    12  C    0.117818
    13  O   -0.388392
    14  O   -0.427901
    19  N    0.009220
    20  C    0.091171
    21  C    0.110196
    22  O   -0.243461
    23  C    0.028291
    24  C    0.119640
    25  C   -0.026219
    26  C    0.172990
    27  N    0.645421
    41  N   -0.031975
    42  C    0.107857
    43  C    0.071347
    44  O   -0.285384
    45  C    0.153835
    46  C    0.033546
    47  O   -0.434849
    48  O   -0.375168
    53  N   -0.021915
    54  C    0.244580
    55  C    0.046804
    56  O   -0.306911
    60  N    0.006756
    61  C    0.160323
    62  C    0.074435
    63  O   -0.309723
    64  C    0.142353
    65  C    0.071657
    66  N    0.148176
    67  O   -0.348790
    74  N    0.010373
    75  C    0.285682
    76  C    0.000085
    77  O   -0.303353
    81  N    0.029195
    82  C    0.093903
    83  C    0.096553
    84  O   -0.348493
    85  C    0.191946
    86  C   -0.043629
    87  C    0.000145
    88  C   -0.012429
    89  C   -0.016901
    90  C   -0.129409
    91  C    0.148140
    92  O   -0.044047
   102  N    0.029814
   103  C    0.182876
   104  C    0.075450
   105  O   -0.291947
   106  C   -0.148953
   107  C    0.023486
   108  C    0.091276
   109  C    0.058766
   121  N    0.013340
   122  C    0.124429
   123  C    0.147682
   124  O   -0.288620
   125  C    0.190999
   126  O   -0.156843
   132  N    0.005069
   133  C    0.106242
   134  C    0.040386
   135  O   -0.262316
   136  C    0.105444
   142  N   -0.032589
   143  C    0.135652
   144  C    0.042956
   145  O   -0.271689
   146  C    0.120331
   152  N   -0.035846
   153  C    0.156842
   154  C    0.100325
   155  O   -0.327164
   156  C   -0.026239
   157  C    0.089716
   158  C    0.162811
   159  O   -0.402315
   160  O   -0.438277
   167  N   -0.040411
   168  C    0.199081
   173  Ca   1.252834
   174  O    0.112524
 DipInt: DoE/N= T F RetVal/Mat= T F Init=T NMatP=  1 IDeriv=0 Min/MaxMlt=  0  4
 Entering OneElI...
 OneElI was handed  1333951383 working-precision words.
 Multipole integrals L=0 to 4 MinM= 0 MaxM= 0.
 Requested accuracy = 0.1000D-12
 ShPair: Thresh= 1.00D-13 NBox=     0 BxSize= 0.00D+00 RnKept= 2.55D+01
         NSMCal=               327645 NSMKep=              170116
 PrmmSu-InSpLW:  IPartL=    0 NPrtUS=    1 NPrtUL=    1 DoSpLW=F IThBeg=    0 IThEnd=    0 NThAct=    1.
 PrsmSu:  NPrtUS=   1 ThrOK=F IAlg=1 NPAlg=1 LenDen=           0 ISkipM=0 DoSpLW=F IThBeg=    0 IThEnd=    0.
 Prism:   IPart=     0 DynPar=F LinDyn=F Incr=         512.
 PRISM was handed  1323511349 working-precision words and170116 shell-pairs
 IPart=  0 NShTot=      170116 NBatch=         387 AvBLen=       439.6
 PrsmSu-ThDecC:  IPartSL=    0    0 NPrtUSL=    1    1 IThBeg=    0 IThEnd=    0 CPU=   -1 GPU=   -1 NThAct=    1.
 PrSmSu:  NxtVal=            513.
 Electronic moments (au):
       -716.00000000         10.75510308          2.61460378          1.07488730
     -45099.55090656     -26275.34539434     -14376.05798926         49.21870435
         36.72391374         74.20723515     -74849.97548916     -40749.90958127
     -22189.76834909      -6233.70206333      54153.55588939      40939.73864038
      -2033.32027944       2068.07620567       1832.52552010     -26038.06739706
   -5821743.61326640   -2133993.28609654    -761362.94810274     366264.85353966
     419948.85618168    -224748.77766705     -84421.00969483     -50027.30328379
       -454.06559909   -1268894.87144812    -704440.15472105    -418307.35689598
     -86552.48993492    -105032.06969192     -31297.49275109
 Electronic spatial extent (au):  <R**2>=          85750.9543
 DipInt: DoE/N= F T RetVal/Mat= T F Init=T NMatP=  1 IDeriv=0 Min/MaxMlt=  0  4
 Nuclear    moments (au):
        716.00000000         -0.00000000          0.00000000          0.00000000
      44577.75420328      25966.37552467      13996.34340650          0.00000000
          0.00000000         -0.00000000      75617.02111458      42294.33828369
      22144.52556381       8019.85019890     -54243.75317434     -40956.46500407
       2182.07782398      -2010.50817917      -1563.61619975      26129.73163008
    5636808.03458641    2066566.50914279     714327.33731603    -368560.54169442
    -413346.79757696     239622.49918978      93947.33060603      51736.21786749
       4183.84432124    1234102.80300665     669655.40764673     396463.75344513
      92018.21353722     107516.71025041      31910.49158763
 Total      moments (au):
          0.00000000         10.75510308          2.61460378          1.07488730
       -521.79670329       -308.96986968       -379.71458275         49.21870435
         36.72391374         74.20723515        767.04562542       1544.42870242
        -45.24278529       1786.14813557        -90.19728495        -16.72636369
        148.75754453         57.56802651        268.90932035         91.66423302
    -184935.57867999     -67426.77695375     -47035.61078671      -2295.68815476
       6602.05860472      14873.72152273       9526.32091120       1708.91458371
       3729.77872215     -34792.06844146     -34784.74707432     -21843.60345085
       5465.72360231       2484.64055849        612.99883654
 Traceless Quadrup. (au):
       -118.30298472         94.52384890         23.77913582         49.21870435
         36.72391374         74.20723515
 Charge=              0.0000 electrons
 Dipole moment (field-independent basis, Debye):
    X=             27.3367    Y=              6.6457    Z=              2.7321  Tot=             28.2653
 Quadrupole moment (field-independent basis, Debye-Ang):
   XX=           -701.8344   YY=           -415.5751   ZZ=           -510.7291
   XY=             66.2008   XZ=             49.3949   YZ=             99.8113
 Traceless Quadrupole moment (field-independent basis, Debye-Ang):
   XX=           -159.1216   YY=            127.1378   ZZ=             31.9838
   XY=             66.2008   XZ=             49.3949   YZ=             99.8113
 Octapole moment (field-independent basis, Debye-Ang**2):
  XXX=            545.9535  YYY=           1099.2648  ZZZ=            -32.2021  XYY=           1271.3114
  XXY=            -64.1990  XXZ=            -11.9052  XZZ=            105.8799  YZZ=             40.9747
  YYZ=            191.3993  XYZ=             65.2431
 Hexadecapole moment (field-independent basis, Debye-Ang**3):
 XXXX=         -69655.6069 YYYY=         -25396.1574 ZZZZ=         -17715.8665 XXXY=           -864.6662
 XXXZ=           2486.6518 YYYX=           5602.1567 YYYZ=           3588.0693 ZZZX=            643.6592
 ZZZY=           1404.8135 XXYY=         -13104.3613 XXZZ=         -13101.6037 YYZZ=          -8227.3485
 XXYZ=           2058.6536 YYXZ=            935.8348 ZZXY=            230.8848
 N-N= 2.231280588725D+04 E-N=-5.710466712377D+04  KE= 5.290673063126D+03
 Leave Link  601 at Sun Sep 15 01:21:31 2019, MaxMem=  1342177280 cpu:              49.0 elap:               1.3
 FitSet:  NAtFit=   176 NAtPot=   176 NAtFrz=     0 MDM=   180 TotChg=   0.00000
 Merz-Kollman atomic radii used.
 Read replacement radii for each type of atom:
 Rad(20) =   1.700000000000D+00
 Atom Element Radius
    1     6    1.50
    2     6    1.50
    3     8    1.40
    4     1    1.20
    5     1    1.20
    6     1    1.20
    7     7    1.50
    8     6    1.50
    9     6    1.50
   10     8    1.40
   11     6    1.50
   12     6    1.50
   13     8    1.40
   14     8    1.40
   15     1    1.20
   16     1    1.20
   17     1    1.20
   18     1    1.20
   19     7    1.50
   20     6    1.50
   21     6    1.50
   22     8    1.40
   23     6    1.50
   24     6    1.50
   25     6    1.50
   26     6    1.50
   27     7    1.50
   28     1    1.20
   29     1    1.20
   30     1    1.20
   31     1    1.20
   32     1    1.20
   33     1    1.20
   34     1    1.20
   35     1    1.20
   36     1    1.20
   37     1    1.20
   38     1    1.20
   39     1    1.20
   40     1    1.20
   41     7    1.50
   42     6    1.50
   43     6    1.50
   44     8    1.40
   45     6    1.50
   46     6    1.50
   47     8    1.40
   48     8    1.40
   49     1    1.20
   50     1    1.20
   51     1    1.20
   52     1    1.20
   53     7    1.50
   54     6    1.50
   55     6    1.50
   56     8    1.40
   57     1    1.20
   58     1    1.20
   59     1    1.20
   60     7    1.50
   61     6    1.50
   62     6    1.50
   63     8    1.40
   64     6    1.50
   65     6    1.50
   66     7    1.50
   67     8    1.40
   68     1    1.20
   69     1    1.20
   70     1    1.20
   71     1    1.20
   72     1    1.20
   73     1    1.20
   74     7    1.50
   75     6    1.50
   76     6    1.50
   77     8    1.40
   78     1    1.20
   79     1    1.20
   80     1    1.20
   81     7    1.50
   82     6    1.50
   83     6    1.50
   84     8    1.40
   85     6    1.50
   86     6    1.50
   87     6    1.50
   88     6    1.50
   89     6    1.50
   90     6    1.50
   91     6    1.50
   92     8    1.40
   93     1    1.20
   94     1    1.20
   95     1    1.20
   96     1    1.20
   97     1    1.20
   98     1    1.20
   99     1    1.20
  100     1    1.20
  101     1    1.20
  102     7    1.50
  103     6    1.50
  104     6    1.50
  105     8    1.40
  106     6    1.50
  107     6    1.50
  108     6    1.50
  109     6    1.50
  110     1    1.20
  111     1    1.20
  112     1    1.20
  113     1    1.20
  114     1    1.20
  115     1    1.20
  116     1    1.20
  117     1    1.20
  118     1    1.20
  119     1    1.20
  120     1    1.20
  121     7    1.50
  122     6    1.50
  123     6    1.50
  124     8    1.40
  125     6    1.50
  126     8    1.40
  127     1    1.20
  128     1    1.20
  129     1    1.20
  130     1    1.20
  131     1    1.20
  132     7    1.50
  133     6    1.50
  134     6    1.50
  135     8    1.40
  136     6    1.50
  137     1    1.20
  138     1    1.20
  139     1    1.20
  140     1    1.20
  141     1    1.20
  142     7    1.50
  143     6    1.50
  144     6    1.50
  145     8    1.40
  146     6    1.50
  147     1    1.20
  148     1    1.20
  149     1    1.20
  150     1    1.20
  151     1    1.20
  152     7    1.50
  153     6    1.50
  154     6    1.50
  155     8    1.40
  156     6    1.50
  157     6    1.50
  158     6    1.50
  159     8    1.40
  160     8    1.40
  161     1    1.20
  162     1    1.20
  163     1    1.20
  164     1    1.20
  165     1    1.20
  166     1    1.20
  167     7    1.50
  168     6    1.50
  169     1    1.20
[...]
 **** Fit       0.019332
 **** Fit       0.029360
 **** Fit      -0.013647
 **** Fit      -0.011716
 **** Fit      -0.008586
 **** Fit      -0.004171
 **** Fit       0.001659
 **** Fit       0.009060
 **** Fit       0.018156
 **** Fit       0.028888
 **** Fit      -0.017215
 **** Fit      -0.016152
 **** Fit      -0.014039
 **** Fit      -0.010830
 **** Fit      -0.006433
 **** Fit      -0.000711
 **** Fit       0.006504
 **** Fit       0.015367
 **** Fit       0.025906
 **** Fit      -0.020020
 **** Fit      -0.018649
 **** Fit      -0.016298
 **** Fit      -0.012924
 **** Fit      -0.008433
 **** Fit      -0.002694
 **** Fit       0.004453
 **** Fit       0.013154
 **** Fit       0.023442
 **** Fit      -0.023886
 **** Fit      -0.023014
 **** Fit      -0.021239
 **** Fit      -0.018550
 **** Fit      -0.014893
 **** Fit      -0.010176
 **** Fit      -0.004273
 **** Fit       0.002957
 **** Fit       0.011635
 **** Fit      -0.027840
 **** Fit      -0.026383
 **** Fit      -0.024148
 **** Fit      -0.021101
 **** Fit      -0.017184
 **** Fit      -0.012313
 **** Fit      -0.006384
 **** Fit       0.000712
 **** Fit       0.009057
 **** Fit      -0.032459
 **** Fit      -0.030200
 **** Fit      -0.027218
 **** Fit      -0.023474
 **** Fit      -0.018907
 **** Fit      -0.013439
 **** Fit      -0.006981
 **** Fit       0.000527
 **** Fit       0.009082
 **** Fit      -0.034668
 **** Fit      -0.030559
 **** Fit      -0.025760
 **** Fit      -0.020216
 **** Fit      -0.013857
 **** Fit      -0.006646
 **** Fit       0.001354
 **** Fit      -0.034358
 **** Fit      -0.028184
 **** Fit      -0.021485
 **** Fit      -0.014221
 **** Fit      -0.006461
 **** Fit       0.001484
 **** Fit      -0.021224
 **** Fit      -0.008063
 **** Fit      -0.005484
 **** Fit      -0.008773
 **** Fit      -0.004903
 **** Fit      -0.011300
 **** Fit      -0.006828
 **** Fit      -0.003259
 **** Fit      -0.005770
 **** Fit      -0.002450
 **** Fit      -0.001452
 **** Fit       0.001094
 **** Fit      -0.006172
 **** Fit      -0.005803
 **** Fit      -0.022853
 **** Fit      -0.011489
 **** Fit       0.000145
 **** Fit       0.011784
 **** Fit      -0.010175
 **** Fit       0.001200
 **** Fit       0.011832
 **** Fit      -0.009115
 **** Fit       0.002043
 **** Fit       0.011771
 **** Fit      -0.008981
 **** Fit       0.001633
 **** Fit       0.010362
 **** Fit      -0.005378
 **** Fit       0.004098
 **** Fit       0.011299
 **** Fit      -0.002169
 **** Fit       0.005432
 **** Fit       0.010489
 **** Fit       0.001615
 **** Fit       0.006230
 **** Fit       0.008442
 **** Fit      -0.000085
 **** Fit       0.002825
 **** Fit      -0.002748
 **** Fit       0.009596
 **** Fit       0.013374
 **** Fit       0.002432
 **** Fit       0.005949
 **** Fit       0.009295
 **** Fit       0.011731
 **** Fit       0.012875
 **** Fit       0.002262
 **** Fit       0.004027
 **** Fit       0.006386
 **** Fit       0.008301
 **** Fit       0.009072
 **** Fit       0.008302
 **** Fit      -0.015141
 **** Fit       0.003040
 **** Fit       0.003490
 **** Fit       0.004722
 **** Fit       0.005873
 **** Fit       0.005959
 **** Fit       0.004323
 **** Fit       0.000642
 **** Fit      -0.004885
 **** Fit      -0.010913
 **** Fit      -0.014722
 **** Fit      -0.014071
 **** Fit      -0.010012
 **** Fit       0.003062
 **** Fit       0.003560
 **** Fit       0.003928
 **** Fit       0.002928
 **** Fit      -0.000203
 **** Fit      -0.004692
 **** Fit      -0.007767
 **** Fit      -0.006998
 **** Fit      -0.003712
 **** Fit      -0.000477
 **** Fit       0.001685
 **** Fit       0.002687
 **** Fit       0.002106
 **** Fit       0.002047
 **** Fit      -0.000278
 **** Fit      -0.003026
 **** Fit      -0.001809
 **** Fit       0.000837
 **** Fit       0.000137
 **** Fit      -0.004915
 **** Fit       0.009479
 **** Fit       0.009316
 **** Fit       0.009356
 **** Fit       0.009136
 **** Fit       0.009004
 **** Fit       0.009081
 **** Fit       0.009112
 **** Fit       0.009013
 **** Fit       0.009050
 **** Fit       0.008662
 **** Fit       0.008557
 **** Fit       0.008676
 **** Fit       0.008313
 **** Fit       0.008451
 **** Fit       0.009049
 **** Fit       0.008066
 **** Fit       0.007971
 **** Fit       0.008086
 **** Fit       0.007137
 **** Fit       0.007245
 **** Fit       0.007725
 **** Fit       0.008399
 **** Fit       0.007351
 **** Fit       0.007245
 **** Fit       0.007303
 **** Fit       0.007524
 **** Fit       0.005237
 **** Fit       0.005664
 **** Fit       0.006322
 **** Fit       0.008108
 **** Fit       0.007630
 **** Fit       0.006518
 **** Fit       0.006383
 **** Fit       0.006380
 **** Fit       0.006522
 **** Fit       0.002548
 **** Fit       0.003418
 **** Fit       0.007853
 **** Fit       0.007216
 **** Fit       0.006787
 **** Fit       0.005576
 **** Fit       0.005396
 **** Fit       0.005309
 **** Fit       0.005329
 **** Fit      -0.000953
 **** Fit       0.000579
 **** Fit       0.007566
 **** Fit       0.006784
 **** Fit       0.006231
 **** Fit       0.005845
 **** Fit       0.004537
 **** Fit       0.004299
 **** Fit       0.004109
 **** Fit       0.003987
 **** Fit       0.003945
 **** Fit      -0.006550
 **** Fit       0.007356
 **** Fit       0.006373
 **** Fit       0.005668
 **** Fit       0.005178
 **** Fit       0.004821
 **** Fit       0.002803
 **** Fit       0.002517
 **** Fit       0.002264
 **** Fit       0.007153
 **** Fit       0.005913
 **** Fit       0.005025
 **** Fit       0.000911
 **** Fit       0.000429
 **** Fit      -0.000103
 **** Fit       0.007225
 **** Fit       0.005529
 **** Fit      -0.001682
 **** Fit      -0.002565
 **** Fit       0.011411
 **** Fit       0.008451
 **** Fit       0.005780
 **** Fit      -0.005298
 **** Fit      -0.006965
 **** Fit       0.006881
 **** Fit       0.003402
 **** Fit      -0.008316
 **** Fit      -0.010438
 **** Fit      -0.013558
 **** Fit      -0.014976
 **** Fit      -0.016911
 **** Fit      -0.020675
 **** Fit      -0.022363
 **** Fit       0.003741
 **** Fit       0.004445
 **** Fit       0.004033
 **** Fit       0.002485
 **** Fit       0.002258
 **** Fit       0.001998
 **** Fit       0.004222
 **** Fit       0.003517
 **** Fit       0.003046
 **** Fit       0.002727
 **** Fit       0.001020
 **** Fit       0.000816
 **** Fit       0.000534
 **** Fit       0.000122
 **** Fit       0.003357
 **** Fit       0.002401
 **** Fit       0.001796
 **** Fit       0.001433
 **** Fit       0.001203
 **** Fit      -0.000760
 **** Fit      -0.000905
 **** Fit      -0.001172
 **** Fit      -0.001616
 **** Fit      -0.002315
 **** Fit       0.002066
 **** Fit       0.000765
 **** Fit      -0.000010
 **** Fit      -0.000412
 **** Fit      -0.000593
 **** Fit      -0.000679
 **** Fit      -0.002974
 **** Fit      -0.003022
 **** Fit      -0.003247
 **** Fit      -0.003708
 **** Fit      -0.004483
 **** Fit      -0.005709
 **** Fit       0.000248
 **** Fit      -0.001686
 **** Fit      -0.002758
 **** Fit      -0.003208
 **** Fit      -0.003285
 **** Fit      -0.003186
 **** Fit      -0.003051
 **** Fit      -0.005759
 **** Fit      -0.005653
 **** Fit      -0.005824
 **** Fit      -0.006328
 **** Fit      -0.007259
 **** Fit      -0.008781
 **** Fit      -0.007113
 **** Fit      -0.007779
 **** Fit      -0.007660
 **** Fit      -0.007174
 **** Fit      -0.006597
 **** Fit      -0.006093
 **** Fit      -0.009266
 **** Fit      -0.008916
 **** Fit      -0.009002
 **** Fit      -0.009571
 **** Fit      -0.010726
 **** Fit      -0.012665
 **** Fit      -0.014246
 **** Fit      -0.012628
 **** Fit      -0.011168
 **** Fit      -0.010026
 **** Fit      -0.013657
 **** Fit      -0.012944
 **** Fit      -0.012887
 **** Fit      -0.013502
 **** Fit      -0.014873
 **** Fit      -0.017186
 **** Fit      -0.017216
 **** Fit      -0.015060
 **** Fit      -0.019076
 **** Fit      -0.017818
 **** Fit      -0.017639
 **** Fit      -0.018484
 **** Fit      -0.020401
 **** Fit      -0.023528
 **** Fit      -0.021580
 **** Fit      -0.025572
 **** Fit      -0.023599
 **** Fit      -0.023310
 **** Fit      -0.024490
 **** Fit      -0.027018
 **** Fit      -0.030119
 **** Fit      -0.029946
 **** Fit      -0.031810
 **** Fit      -0.037487
 **** Fit       0.009126
 **** Fit       0.009063
 **** Fit       0.009310
 **** Fit       0.009225
 **** Fit       0.008881
 **** Fit       0.008753
 **** Fit       0.009014
 **** Fit       0.009354
 **** Fit       0.009455
 **** Fit       0.009121
 **** Fit       0.008564
 **** Fit       0.008231
 **** Fit       0.008411
 **** Fit       0.008774
 **** Fit       0.009158
 **** Fit       0.009357
 **** Fit       0.009182
 **** Fit       0.008597
 **** Fit       0.007815
 **** Fit       0.007209
 **** Fit       0.007581
 **** Fit       0.007879
 **** Fit       0.008286
 **** Fit       0.008664
 **** Fit       0.008846
 **** Fit       0.008657
 **** Fit       0.007998
 **** Fit       0.006962
 **** Fit       0.005870
 **** Fit       0.005128
 **** Fit       0.004963
 **** Fit       0.006516
 **** Fit       0.006714
 **** Fit       0.007050
 **** Fit       0.007422
 **** Fit       0.007697
 **** Fit       0.007714
 **** Fit       0.007295
 **** Fit       0.006320
 **** Fit       0.004849
 **** Fit       0.003215
 **** Fit       0.001939
 **** Fit       0.001451
 **** Fit       0.005257
 **** Fit       0.005453
 **** Fit       0.005702
 **** Fit       0.005902
 **** Fit       0.005925
 **** Fit       0.005609
 **** Fit       0.004776
 **** Fit       0.003290
 **** Fit       0.001192
 **** Fit      -0.003908
 **** Fit       0.003512
 **** Fit       0.003533
 **** Fit       0.003586
 **** Fit       0.003557
 **** Fit       0.003309
 **** Fit       0.002668
 **** Fit       0.001421
 **** Fit       0.001212
 **** Fit       0.000978
 **** Fit       0.000598
 **** Fit      -0.000088
 **** Fit      -0.001285
 **** Fit      -0.001561
 **** Fit      -0.002189
 **** Fit      -0.003085
 **** Fit      -0.004471
 **** Fit      -0.006234
 **** Fit      -0.008023
 **** Fit      -0.011505
 **** Fit       0.010732
 **** Fit       0.010445
 **** Fit       0.010211
 **** Fit       0.010378
 **** Fit       0.010862
 **** Fit       0.011193
 **** Fit       0.010953
 **** Fit       0.010036
 **** Fit       0.009756
 **** Fit       0.009655
 **** Fit       0.009662
 **** Fit       0.009820
 **** Fit       0.010217
 **** Fit       0.010766
 **** Fit       0.011279
 **** Fit       0.011573
 **** Fit       0.011499
 **** Fit       0.011085
 **** Fit       0.010520
 **** Fit       0.009523
 **** Fit       0.009261
 **** Fit       0.009235
 **** Fit       0.009738
 **** Fit       0.010325
 **** Fit       0.010927
 **** Fit       0.011497
 **** Fit       0.011867
 **** Fit       0.011922
 **** Fit       0.011663
 **** Fit       0.011162
 **** Fit       0.010546
 **** Fit       0.009962
 **** Fit       0.008910
 **** Fit       0.008439
 **** Fit       0.009059
 **** Fit       0.011312
 **** Fit       0.011960
 **** Fit       0.012256
 **** Fit       0.012219
 **** Fit       0.011887
 **** Fit       0.011319
 **** Fit       0.010619
 **** Fit       0.009917
 **** Fit       0.009326
 **** Fit       0.012296
 **** Fit       0.012612
 **** Fit       0.012590
 **** Fit       0.012249
 **** Fit       0.011628
 **** Fit       0.010824
 **** Fit       0.009970
 **** Fit       0.009195
 **** Fit       0.008592
 **** Fit       0.012640
 **** Fit       0.013006
 **** Fit       0.013035
 **** Fit       0.012699
 **** Fit       0.012026
 **** Fit       0.011110
 **** Fit       0.010096
 **** Fit       0.009127
 **** Fit       0.008318
 **** Fit       0.013183
 **** Fit       0.013576
 **** Fit       0.013489
 **** Fit       0.012905
 **** Fit       0.011910
 **** Fit       0.010673
 **** Fit       0.009395
 **** Fit       0.008251
 **** Fit       0.012897
 **** Fit       0.013924
 **** Fit       0.014306
 **** Fit       0.013985
 **** Fit       0.013019
 **** Fit       0.011593
 **** Fit       0.009972
 **** Fit       0.008417
 **** Fit       0.013190
 **** Fit       0.014689
 **** Fit       0.015185
 **** Fit       0.014654
 **** Fit       0.013237
 **** Fit       0.011264
 **** Fit       0.009145
 **** Fit       0.014114
 **** Fit       0.011432
 **** Fit      -0.003471
 **** Fit       0.004156
 **** Fit       0.013235
 **** Fit       0.022088
 **** Fit       0.016786
 **** Fit       0.019802
 **** Fit       0.023573
 **** Fit       0.029104
 **** Fit       0.032012
 **** Fit       0.025489
 **** Fit       0.040560
 **** Fit       0.035301
 **** Fit       0.029831
 **** Fit       0.024394
 **** Fit       0.025860
 **** Fit       0.048400
 **** Fit       0.043004
 **** Fit       0.038201
 **** Fit       0.033599
 **** Fit       0.029310
 **** Fit       0.030670
 **** Fit       0.046231
 **** Fit       0.041456
 **** Fit       0.037217
 **** Fit       0.033498
 **** Fit       0.034453
 **** Fit       0.048599
 **** Fit       0.044037
 **** Fit       0.040095
 **** Fit       0.036797
 **** Fit       0.037373
 **** Fit       0.040841
 **** Fit       0.049928
 **** Fit       0.046236
 **** Fit       0.042569
 **** Fit       0.039463
 **** Fit       0.039540
 **** Fit       0.041655
 **** Fit       0.044314
 **** Fit       0.046853
 **** Fit       0.046924
 **** Fit       0.044575
 **** Fit       0.041627
 **** Fit       0.041014
 **** Fit       0.042027
 **** Fit       0.043794
 **** Fit       0.043047
 **** Fit       0.041832
 **** Fit      -0.004899
 **** Fit       0.002579
 **** Fit      -0.002050
 **** Fit       0.010607
 **** Fit       0.006461
 **** Fit       0.001063
 **** Fit       0.014670
 **** Fit       0.010039
 **** Fit       0.004508
 **** Fit       0.019333
 **** Fit       0.017881
 **** Fit       0.012887
 **** Fit       0.007261
 **** Fit       0.000638
 **** Fit       0.028604
 **** Fit       0.022908
 **** Fit       0.020343
 **** Fit       0.015335
 **** Fit       0.010065
 **** Fit       0.004658
 **** Fit       0.008019
 **** Fit       0.012163
 **** Fit       0.017518
 **** Fit       0.036875
 **** Fit       0.030919
 **** Fit       0.025418
 **** Fit       0.022163
 **** Fit       0.017218
 **** Fit       0.012488
 **** Fit       0.008629
 **** Fit       0.006748
 **** Fit       0.007313
 **** Fit       0.009584
 **** Fit       0.012839
 **** Fit       0.017102
 **** Fit       0.022348
 **** Fit       0.028063
 **** Fit       0.033578
 **** Fit       0.038200
 **** Fit       0.040804
 **** Fit       0.040376
 **** Fit       0.037160
 **** Fit       0.032398
 **** Fit       0.027232
 **** Fit       0.023420
 **** Fit       0.018517
 **** Fit       0.014803
 **** Fit       0.013533
 **** Fit       0.015012
 **** Fit       0.018561
 **** Fit       0.023530
 **** Fit       0.028915
 **** Fit       0.033222
 **** Fit       0.034778
 **** Fit       0.032843
 **** Fit       0.028527
 **** Fit       0.024165
 **** Fit       0.019906
 **** Fit       0.019928
 **** Fit       0.024214
 **** Fit       0.028748
 **** Fit       0.028666
 **** Fit       0.024426
 -----------------------------------------------------------------
 Leave Link  602 at Sun Sep 15 01:21:33 2019, MaxMem=  1342177280 cpu:             111.6 elap:               2.4

 Test job not archived.
 1\1\GINC-C506-121\SP\RB3LYP\SVP\C54H83Ca1N15O23\PENGZHI\15-Sep-2019\0\
 \#b3lyp/svp scf=(tight,noincore) Test #IOP(5/87=12) Density=Current Po
 p=(MK,readradii) iop(6/33=2) iop(6/42=6)\\CaMKII_loop3_97.0\\0,1\C,0,5
 9.34,48.29,36.99\C,0,58.97,47.6,38.3\O,0,59.58,46.63,38.74\H,0,60.371,
 48.047,36.731\H,0,58.676,47.946,36.197\H,0,59.24,49.369,37.106\N,0,57.
 9,48.12,38.89\C,0,57.29,47.59,40.09\C,0,56.49,46.34,39.75\O,0,55.48,46
 .46,39.06\C,0,56.49,48.62,40.88\C,0,55.95,48.15,42.22\O,0,55.82,48.84,
 43.26\O,0,55.74,46.92,42.26\H,0,57.57,49.03,38.58\H,0,58.04,47.23,40.8
 \H,0,55.66,49.05,40.31\H,0,57.2,49.42,41.09\N,0,56.88,45.18,40.29\C,0,
 56.39,43.87,39.89\C,0,55.11,43.43,40.58\O,0,54.17,43.08,39.88\C,0,57.4
 7,42.82,40.14\C,0,58.83,43.1,39.5\C,0,58.66,43.2,37.99\C,0,59.98,43.42
 ,37.26\N,0,59.77,43.54,35.81\H,0,57.6,45.25,40.98\H,0,56.22,43.91,38.8
 1\H,0,57.05,41.88,39.8\H,0,57.7,42.55,41.17\H,0,59.45,42.23,39.69\H,0,
 59.24,44.04,39.89\H,0,57.99,44.03,37.78\H,0,58.28,42.3,37.52\H,0,60.66
 ,42.59,37.43\H,0,60.57,44.28,37.6\H,0,59.3,42.74,35.43\H,0,59.25,44.4,
 35.71\H,0,60.62,43.75,35.29\N,0,55.17,43.51,41.92\C,0,53.99,43.24,42.7
 2\C,0,53.06,44.43,42.88\O,0,51.92,44.29,43.32\C,0,54.55,42.9,44.1\C,0,
 55.36,44.03,44.72\O,0,56.61,43.99,44.64\O,0,54.8,45.08,45.08\H,0,55.96
 ,43.89,42.41\H,0,53.37,42.42,42.37\H,0,55.21,42.03,44.02\H,0,53.68,42.
 8,44.75\N,0,53.51,45.59,42.39\C,0,52.57,46.68,42.19\C,0,52.26,47.61,43
 .35\O,0,51.54,48.6,43.19\H,0,54.48,45.75,42.16\H,0,51.69,46.3,41.67\H,
 0,52.96,47.26,41.35\N,0,52.8,47.37,44.55\C,0,52.52,48.11,45.76\C,0,52.
 87,49.59,45.74\O,0,52.41,50.31,46.63\C,0,52.85,47.26,46.98\C,0,54.36,4
 7.12,47.15\N,0,54.85,46.6,48.28\O,0,55.19,47.63,46.4\H,0,53.4,46.57,44
 .7\H,0,51.44,48.2,45.91\H,0,52.44,46.27,46.83\H,0,52.48,47.79,47.86\H,
 0,54.3,46.13,48.99\H,0,55.86,46.51,48.29\N,0,53.59,50.11,44.74\C,0,53.
 82,51.54,44.61\C,0,55.22,52.,44.97\O,0,55.38,53.2,45.19\H,0,54.11,49.5
 2,44.11\H,0,53.13,52.21,45.12\H,0,53.77,51.9,43.59\N,0,56.19,51.08,44.
 98\C,0,57.6,51.32,45.15\C,0,58.47,50.19,44.63\O,0,58.29,48.98,44.8\C,0
 ,58.01,51.63,46.59\C,0,57.68,50.53,47.58\C,0,56.43,50.51,48.19\C,0,58.
 6,49.52,47.88\C,0,56.05,49.48,49.06\C,0,58.25,48.51,48.77\C,0,56.97,48
 .46,49.37\O,0,56.7,47.47,50.27\H,0,55.95,50.11,44.88\H,0,57.83,52.17,4
 4.5\H,0,57.46,52.51,46.95\H,0,59.07,51.86,46.53\H,0,55.66,51.2,47.86\H
 ,0,59.62,49.54,47.51\H,0,55.06,49.48,49.48\H,0,58.96,47.71,48.93\H,0,5
 7.46,46.89,50.32\N,0,59.48,50.58,43.85\C,0,60.59,49.8,43.34\C,0,61.55,
 49.5,44.48\O,0,62.03,50.43,45.13\C,0,61.21,50.64,42.22\C,0,60.32,50.74
 ,40.99\C,0,62.42,49.79,41.85\C,0,60.87,51.76,40.01\H,0,59.47,51.58,43.
 76\H,0,60.27,48.88,42.86\H,0,61.59,51.63,42.44\H,0,59.32,51.04,41.33\H
 ,0,60.25,49.79,40.46\H,0,63.36,50.03,42.35\H,0,62.18,48.73,41.92\H,0,6
 2.6,50.02,40.8\H,0,61.94,51.72,39.83\H,0,60.27,51.76,39.1\H,0,60.68,52
 .75,40.45\N,0,61.96,48.23,44.64\C,0,63.03,47.77,45.49\C,0,64.14,46.95,
 44.86\O,0,64.03,46.53,43.71\C,0,62.4,46.85,46.53\O,0,61.84,45.65,46.04
 \H,0,61.41,47.59,44.08\H,0,63.45,48.63,46.01\H,0,61.71,47.41,47.16\H,0
 ,63.11,46.58,47.31\H,0,61.1,45.88,45.48\N,0,65.17,46.65,45.65\C,0,66.3
 4,45.92,45.18\C,0,66.09,44.52,44.63\O,0,66.73,44.06,43.69\C,0,67.31,45
 .78,46.35\H,0,65.27,46.89,46.62\H,0,66.85,46.48,44.4\H,0,66.96,45.41,4
 7.31\H,0,68.03,45.02,46.05\H,0,67.85,46.72,46.45\N,0,65.,43.86,45.03\C
 ,0,64.53,42.59,44.5\C,0,63.99,42.72,43.08\O,0,64.18,41.88,42.21\C,0,63
 .56,41.99,45.5\H,0,64.47,44.29,45.77\H,0,65.4,41.96,44.32\H,0,64.1,41.
 72,46.41\H,0,62.74,42.68,45.71\H,0,63.2,41.02,45.14\N,0,63.28,43.8,42.
 77\C,0,62.66,44.09,41.49\C,0,63.57,44.88,40.57\O,0,63.53,44.69,39.35\C
 ,0,61.39,44.89,41.74\C,0,60.56,44.45,42.95\C,0,59.59,45.55,43.35\O,0,5
 8.53,45.64,42.71\O,0,59.76,46.26,44.37\H,0,63.36,44.58,43.41\H,0,62.32
 ,43.13,41.11\H,0,60.77,44.69,40.86\H,0,61.57,45.96,41.82\H,0,61.21,44.
 35,43.82\H,0,60.16,43.45,42.79\N,0,64.54,45.66,41.05\C,0,65.58,46.18,4
 0.19\H,0,66.489,45.593,40.324\H,0,65.258,46.117,39.151\H,0,65.778,47.2
 2,40.447\H,0,64.53,45.86,42.04\Ca,0,57.06,46.6,44.63\O,0,57.59,45.81,4
 7.3\H,0,57.93,45.85,48.19\H,0,57.38,44.89,47.16\\Version=ES64L-G16RevA
 .03\State=1-A\HF=-5333.6213199\RMSD=6.744e-09\Dipole=9.1728179,-3.4730
 71,-5.2403214\Quadrupole=-119.8291623,-35.0691415,154.8983038,34.53840
 15,6.1688934,1.8989738\PG=C01 [X(C54H83Ca1N15O23)]\\@


 Discoveries are often made by not following instructions,
 by going off the main road, by trying the untried.
 -- Frank Tyger
 Job cpu time:       0 days 11 hours  0 minutes  8.9 seconds.
 Elapsed time:       0 days  0 hours 13 minutes 53.8 seconds.
 File lengths (MBytes):  RWF=   1517 Int=      0 D2E=      0 Chk=    171 Scr=      1
 Normal termination of Gaussian 16 at Sun Sep 15 01:21:35 2019.
