 Entering Gaussian System, Link 0=g16
 Initial command:
 /home1/apps/gaussian/16rA.03/g16/l1.exe "/scratch/04905/jaebeomh/4356898/Gau-375123.inp" -scrdir="/scratch/04905/jaebeomh/4356898/"
 Entering Link 1 = /home1/apps/gaussian/16rA.03/g16/l1.exe PID=    375126.
  
 Copyright (c) 1988,1990,1992,1993,1995,1998,2003,2009,2016,
            Gaussian, Inc.  All Rights Reserved.
  
 This is part of the Gaussian(R) 16 program.  It is based on
 the Gaussian(R) 09 system (copyright 2009, Gaussian, Inc.),
 the Gaussian(R) 03 system (copyright 2003, Gaussian, Inc.),
 the Gaussian(R) 98 system (copyright 1998, Gaussian, Inc.),
 the Gaussian(R) 94 system (copyright 1995, Gaussian, Inc.),
 the Gaussian 92(TM) system (copyright 1992, Gaussian, Inc.),
 the Gaussian 90(TM) system (copyright 1990, Gaussian, Inc.),
 the Gaussian 88(TM) system (copyright 1988, Gaussian, Inc.),
 the Gaussian 86(TM) system (copyright 1986, Carnegie Mellon
 University), and the Gaussian 82(TM) system (copyright 1983,
 Carnegie Mellon University). Gaussian is a federally registered
 trademark of Gaussian, Inc.
  
 This software contains proprietary and confidential information,
 including trade secrets, belonging to Gaussian, Inc.
  
 This software is provided under written license and may be
 used, copied, transmitted, or stored only in accord with that
 written license.
  
 The following legend is applicable only to US Government
 contracts under FAR:
  
                    RESTRICTED RIGHTS LEGEND
  
 Use, reproduction and disclosure by the US Government is
 subject to restrictions as set forth in subparagraphs (a)
 and (c) of the Commercial Computer Software - Restricted
 Rights clause in FAR 52.227-19.
  
 Gaussian, Inc.
 340 Quinnipiac St., Bldg. 40, Wallingford CT 06492
  
  
 ---------------------------------------------------------------
 Warning -- This program may not be used in any manner that
 competes with the business of Gaussian, Inc. or will provide
 assistance to any competitor of Gaussian, Inc.  The licensee
 of this program is prohibited from giving any competitor of
 Gaussian, Inc. access to this program.  By using this program,
 the user acknowledges that Gaussian, Inc. is engaged in the
 business of creating and licensing software in the field of
 computational chemistry and represents and warrants to the
 licensee that it is not a competitor of Gaussian, Inc. and that
 it will not use this program in any manner prohibited above.
 ---------------------------------------------------------------
  

 Cite this work as:
 Gaussian 16, Revision A.03,
 M. J. Frisch, G. W. Trucks, H. B. Schlegel, G. E. Scuseria, 
 M. A. Robb, J. R. Cheeseman, G. Scalmani, V. Barone, 
 G. A. Petersson, H. Nakatsuji, X. Li, M. Caricato, A. V. Marenich, 
 J. Bloino, B. G. Janesko, R. Gomperts, B. Mennucci, H. P. Hratchian, 
 J. V. Ortiz, A. F. Izmaylov, J. L. Sonnenberg, D. Williams-Young, 
 F. Ding, F. Lipparini, F. Egidi, J. Goings, B. Peng, A. Petrone, 
 T. Henderson, D. Ranasinghe, V. G. Zakrzewski, J. Gao, N. Rega, 
 G. Zheng, W. Liang, M. Hada, M. Ehara, K. Toyota, R. Fukuda, 
 J. Hasegawa, M. Ishida, T. Nakajima, Y. Honda, O. Kitao, H. Nakai, 
 T. Vreven, K. Throssell, J. A. Montgomery, Jr., J. E. Peralta, 
 F. Ogliaro, M. J. Bearpark, J. J. Heyd, E. N. Brothers, K. N. Kudin, 
 V. N. Staroverov, T. A. Keith, R. Kobayashi, J. Normand, 
 K. Raghavachari, A. P. Rendell, J. C. Burant, S. S. Iyengar, 
 J. Tomasi, M. Cossi, J. M. Millam, M. Klene, C. Adamo, R. Cammi, 
 J. W. Ochterski, R. L. Martin, K. Morokuma, O. Farkas, 
 J. B. Foresman, and D. J. Fox, Gaussian, Inc., Wallingford CT, 2016.
 
 ******************************************
 Gaussian 16:  ES64L-G16RevA.03 25-Dec-2016
                18-Sep-2019 
 ******************************************
 %chk=CaMKII_loop3_48.0.chk
 %nprocshared=48
 Will use up to   48 processors via shared memory.
 %mem=10GB
 %nosave
 ----------------------------------------------------------------------
 #b3lyp/svp scf=(tight,noincore) Test #IOP(5/87=12) Density=Current Pop
 =(MK,readradii) iop(6/33=2) iop(6/42=6)
 ----------------------------------------------------------------------
 1/30=1,38=1,172=1/1;
 2/12=2,17=6,18=5,40=1/2;
 3/5=18,7=101,11=2,25=1,30=1,74=-5/1,2,3;
 4//1;
 5/5=4,32=2,38=5,87=12/2;
 6/7=2,8=2,9=2,10=2,15=8,20=101,22=-1,28=1,33=2,42=6/1,2;
 99/5=1,9=1/99;
 -----------------
 CaMKII_loop3_48.0
 -----------------
 Symbolic Z-matrix:
 Charge =  0 Multiplicity = 1
 C                     69.53     50.1      22.95 
 C                     68.07     49.67     23.04 
 O                     67.77     48.51     23.29 
 H                     70.14     49.25     22.645 
 H                     69.629    50.9      22.216 
 H                     69.865    50.456    23.924 
 N                     67.17     50.65     23.07 
 C                     65.84     50.45     23.6 
 C                     64.99     49.78     22.53 
 O                     64.42     50.45     21.67 
 C                     65.31     51.79     24.12 
 C                     63.95     51.69     24.81 
 O                     63.45     50.55     24.86 
 O                     63.44     52.77     25.17 
 H                     67.48     51.61     23.03 
 H                     65.82     49.77     24.45 
 H                     65.16     52.46     23.28 
 H                     66.04     52.07     24.88 
 N                     64.83     48.46     22.6 
 C                     64.28     47.63     21.54 
 C                     62.78     47.78     21.36 
 O                     62.25     47.31     20.36 
 C                     64.71     46.17     21.65 
 C                     64.84     45.58     20.25 
 C                     65.46     44.19     20.32 
 C                     64.46     43.1      20.71 
 N                     65.17     41.87     21.08 
 H                     65.24     47.98     23.39 
 H                     64.74     48.03     20.64 
 H                     64.1      45.56     22.33 
 H                     65.65     46.12     22.2 
 H                     65.46     46.17     19.58 
 H                     63.86     45.51     19.76 
 H                     66.29     44.14     21.03 
 H                     65.87     43.98     19.33 
 H                     63.86     42.8      19.85 
 H                     63.8      43.37     21.53 
 H                     65.6      41.4      20.3 
 H                     65.84     42.       21.83 
 H                     64.64     41.11     21.47 
 N                     62.1      48.42     22.32 
 C                     60.69     48.73     22.2 
 C                     60.33     50.18     22.51 
 O                     59.2      50.63     22.38 
 C                     59.89     47.83     23.14 
 C                     60.23     47.77     24.62 
 O                     59.74     46.9      25.36 
 O                     61.26     48.37     25. 
 H                     62.55     48.6      23.2 
 H                     60.34     48.46     21.21 
 H                     59.85     46.78     22.83 
 H                     58.86     48.13     22.93 
 N                     61.31     51.02     22.87 
 C                     61.11     52.43     23.1 
 C                     60.26     52.8      24.31 
 O                     59.41     53.68     24.34 
 H                     62.23     50.6      22.94 
 H                     60.67     52.79     22.17 
 H                     62.02     53.03     23.18 
 N                     60.45     51.98     25.35 
 C                     59.79     52.26     26.62 
 C                     60.37     53.29     27.58 
 O                     59.71     53.54     28.59 
 C                     59.45     50.92     27.27 
 C                     60.52     50.33     28.17 
 N                     60.2      49.87     29.38 
 O                     61.73     50.37     27.95 
 H                     61.28     51.41     25.4 
 H                     58.85     52.78     26.4 
 H                     59.23     50.18     26.5 
 H                     58.54     51.12     27.82 
 H                     59.21     49.7      29.48 
 H                     60.89     49.54     30.04 
 N                     61.63     53.7      27.44 
 C                     62.25     54.64     28.36 
 C                     63.19     54.08     29.42 
 O                     63.62     54.77     30.33 
 H                     62.12     53.49     26.58 
 H                     61.45     55.14     28.9 
 H                     62.75     55.42     27.78 
 N                     63.43     52.77     29.25 
 C                     64.17     51.91     30.16 
 C                     65.02     51.       29.29 
 O                     64.65     50.68     28.16 
 C                     63.28     51.08     31.07 
 C                     62.32     51.81     31.99 
 C                     62.47     51.86     33.38 
 C                     61.2      52.37     31.37 
 C                     61.53     52.54     34.17 
 C                     60.3      53.09     32.16 
 C                     60.47     53.23     33.55 
 O                     59.54     53.87     34.32 
 H                     62.99     52.26     28.51 
 H                     64.78     52.56     30.79 
 H                     63.98     50.59     31.75 
 H                     62.82     50.24     30.56 
 H                     63.31     51.4      33.88 
 H                     60.96     52.36     30.31 
 H                     61.59     52.5      35.25 
 H                     59.46     53.55     31.67 
 H                     59.02     54.38     33.7 
 N                     66.12     50.43     29.79 
 C                     66.91     49.31     29.32 
 C                     66.81     48.11     30.24 
 O                     67.12     48.3      31.42 
 C                     68.38     49.7      29.21 
 C                     68.4      50.83     28.19 
 C                     69.26     48.52     28.77 
 C                     69.78     51.4      27.85 
 H                     66.55     50.99     30.52 
 H                     66.64     48.96     28.32 
 H                     68.79     50.16     30.11 
 H                     67.79     51.65     28.58 
 H                     68.01     50.58     27.21 
 H                     70.25     48.9      28.52 
 H                     69.29     47.81     29.6 
 H                     68.84     48.13     27.85 
 H                     70.37     51.54     28.76 
 H                     70.36     50.75     27.21 
 H                     69.73     52.36     27.34 
 N                     66.46     46.94     29.71 
 C                     66.64     45.68     30.41 
 C                     67.9      44.96     29.94 
 O                     68.43     45.27     28.88 
 C                     65.39     44.8      30.33 
 O                     64.87     45.01     29.04 
 H                     66.43     46.96     28.71 
 H                     66.82     45.94     31.45 
 H                     64.73     45.19     31.11 
 H                     65.61     43.75     30.56 
 H                     64.3      44.27     28.8 
 N                     68.45     44.06     30.75 
 C                     69.69     43.33     30.6 
 C                     69.65     42.53     29.3 
 O                     70.61     42.46     28.53 
 C                     69.88     42.48     31.85 
 H                     67.97     43.95     31.64 
 H                     70.48     44.08     30.61 
 H                     69.89     43.25     32.63 
 H                     69.09     41.74     31.96 
 H                     70.85     42.       31.77 
 N                     68.48     42.02     28.94 
 C                     68.31     41.35     27.66 
 C                     68.63     42.17     26.42 
 O                     69.18     41.76     25.4 
 C                     66.91     40.75     27.57 
 H                     67.76     41.82     29.62 
 H                     68.93     40.46     27.61 
 H                     66.79     40.41     26.54 
 H                     66.79     39.94     28.28 
 H                     66.19     41.53     27.81 
 N                     68.24     43.44     26.49 
 C                     68.49     44.41     25.44 
 C                     69.97     44.77     25.41 
 O                     70.6      44.97     24.38 
 C                     67.58     45.63     25.58 
 C                     66.11     45.36     25.89 
 C                     65.37     46.69     25.97 
 O                     65.65     47.56     26.82 
 O                     64.45     46.93     25.16 
 H                     67.79     43.77     27.34 
 H                     68.22     43.99     24.47 
 H                     67.67     46.09     24.6 
 H                     67.97     46.33     26.32 
 H                     66.07     44.95     26.9 
 H                     65.64     44.7      25.16 
 N                     70.59     44.87     26.59 
 C                     71.98     45.27     26.64 
 H                     72.572    44.602    26.014 
 H                     72.078    46.292    26.274 
 H                     72.338    45.216    27.668 
 H                     70.12     44.83     27.48 
 Ca                    63.24     48.71     26.62 
 O                     63.82     47.96     29.02 
 H                     63.51     47.94     29.93 
 H                     64.44     47.23     28.96 
 
 Stoichiometry    C54H83CaN15O23
 Framework group  C1[X(C54H83CaN15O23)]
 Deg. of freedom   522
 Full point group                 C1      NOp   1
 Largest Abelian subgroup         C1      NOp   1
 Largest concise Abelian subgroup C1      NOp   1
                         Standard orientation:                         
 ---------------------------------------------------------------------
 Center     Atomic      Atomic             Coordinates (Angstroms)
 Number     Number       Type             X           Y           Z
 ---------------------------------------------------------------------
      1          6           0        2.360431    2.230917    5.411644
      2          6           0        1.723424    2.561653    4.066492
      3          8           0        2.365157    2.474146    3.027925
      4          1           0        3.433392    2.414361    5.359411
      5          1           0        1.921743    2.860112    6.186385
      6          1           0        2.182855    1.182490    5.650193
      7          7           0        0.401046    2.712026    4.064111
      8          6           0       -0.381867    2.570510    2.857123
      9          6           0       -0.290534    3.868607    2.067880
     10          8           0       -1.049338    4.805963    2.310738
     11          6           0       -1.798414    2.128243    3.237509
     12          6           0       -2.696790    1.834634    2.036503
     13          8           0       -2.173507    1.991656    0.916852
     14          8           0       -3.884460    1.557159    2.298320
     15          1           0       -0.111953    2.607463    4.927360
     16          1           0        0.002891    1.801135    2.189798
     17          1           0       -2.287309    2.934080    3.774733
     18          1           0       -1.634556    1.184747    3.758916
     19          7           0        0.585638    3.926775    1.066961
     20          6           0        0.990232    5.145074    0.383549
     21          6           0       -0.071853    5.709787   -0.542720
     22          8           0        0.068039    6.842491   -0.989053
     23          6           0        2.348911    5.015812   -0.299006
     24          6           0        3.059649    6.364204   -0.257883
     25          6           0        4.494427    6.218221   -0.749310
     26          6           0        4.611043    6.178858   -2.274122
     27          7           0        5.944840    5.710321   -2.668279
     28          1           0        1.107442    3.087601    0.852235
     29          1           0        1.107405    5.862434    1.191797
     30          1           0        2.320727    4.563255   -1.299505
     31          1           0        2.923978    4.238774    0.205088
     32          1           0        3.107995    6.805725    0.734147
     33          1           0        2.540659    7.101760   -0.884029
     34          1           0        4.977058    5.316743   -0.362136
     35          1           0        5.048133    7.073707   -0.357068
     36          1           0        4.559690    7.185007   -2.692006
     37          1           0        3.872518    5.549916   -2.763931
     38          1           0        6.678733    6.374822   -2.483779
     39          1           0        6.183490    4.801880   -2.286074
     40          1           0        6.119141    5.524626   -3.640769
     41          7           0       -1.119058    4.928393   -0.836634
     42          6           0       -2.250542    5.401327   -1.607788
     43          6           0       -3.611574    5.108646   -0.983185
     44          8           0       -4.664963    5.507565   -1.460191
     45          6           0       -2.218907    4.767731   -2.997448
     46          6           0       -2.148075    3.257482   -3.151494
     47          8           0       -1.911442    2.731438   -4.252350
     48          8           0       -1.979346    2.579124   -2.113871
     49          1           0       -1.077746    3.950634   -0.609520
     50          1           0       -2.145042    6.463761   -1.796479
     51          1           0       -1.417198    5.142293   -3.643333
     52          1           0       -3.084468    5.226237   -3.482811
     53          7           0       -3.652514    4.447850    0.181836
     54          6           0       -4.869217    4.191823    0.913330
     55          6           0       -5.857298    3.232405    0.260095
     56          8           0       -7.072290    3.375676    0.227417
     57          1           0       -2.749982    4.160889    0.543484
     58          1           0       -5.302138    5.181154    1.061329
     59          1           0       -4.738879    3.834015    1.937774
     60          7           0       -5.256356    2.232961   -0.395709
     61          6           0       -6.061593    1.170691   -0.987382
     62          6           0       -6.583440    0.027997   -0.126669
     63          8           0       -7.331981   -0.782387   -0.675453
     64          6           0       -5.363562    0.720531   -2.269493
     65          6           0       -4.345520   -0.393976   -2.113086
     66          7           0       -4.367677   -1.443090   -2.935867
     67          8           0       -3.561366   -0.508437   -1.171756
     68          1           0       -4.297184    1.998691   -0.192224
     69          1           0       -7.032304    1.600968   -1.261211
     70          1           0       -4.850437    1.566113   -2.728400
     71          1           0       -6.176326    0.422435   -2.918456
     72          1           0       -4.895857   -1.263915   -3.777248
     73          1           0       -3.759481   -2.241518   -2.820932
     74          7           0       -6.054647   -0.199937    1.074881
     75          6           0       -6.477828   -1.309224    1.914405
     76          6           0       -5.587681   -2.544705    1.959420
     77          8           0       -5.945489   -3.577916    2.501221
     78          1           0       -5.466136    0.509157    1.492780
     79          1           0       -7.442716   -1.645909    1.543954
     80          1           0       -6.661581   -0.934065    2.924499
     81          7           0       -4.427857   -2.363331    1.307874
     82          6           0       -3.422933   -3.382311    1.048826
     83          6           0       -2.074919   -2.715992    1.264178
     84          8           0       -1.926504   -1.510460    1.062024
     85          6           0       -3.498210   -3.967384   -0.351575
     86          6           0       -4.789292   -4.641095   -0.775982
     87          6           0       -4.912343   -6.020898   -0.971177
     88          6           0       -5.854144   -3.780577   -1.055264
     89          6           0       -6.135869   -6.571821   -1.382963
     90          6           0       -7.081690   -4.344700   -1.412191
     91          6           0       -7.259209   -5.735489   -1.533815
     92          8           0       -8.443638   -6.267348   -1.960024
     93          1           0       -4.233802   -1.502188    0.836623
     94          1           0       -3.597114   -4.191903    1.759967
     95          1           0       -2.766253   -4.777693   -0.339800
     96          1           0       -3.100098   -3.301378   -1.110023
     97          1           0       -4.088334   -6.697435   -0.796517
     98          1           0       -5.862897   -2.696532   -0.977348
     99          1           0       -6.209081   -7.623841   -1.626880
    100          1           0       -7.907015   -3.677779   -1.589261
    101          1           0       -9.081675   -5.564110   -1.844854
    102          7           0       -0.999759   -3.455149    1.551543
    103          6           0        0.414057   -3.144255    1.489329
    104          6           0        1.127379   -3.926972    0.405389
    105          8           0        1.030872   -5.156396    0.467063
    106          6           0        1.090161   -3.455928    2.820060
    107          6           0        0.390544   -2.551281    3.824973
    108          6           0        2.603394   -3.194184    2.775178
    109          6           0        0.903621   -2.629011    5.265670
    110          1           0       -1.236457   -4.307135    2.051037
    111          1           0        0.632737   -2.088582    1.307305
    112          1           0        0.893053   -4.459767    3.198420
    113          1           0       -0.671121   -2.814578    3.836946
    114          1           0        0.453783   -1.489022    3.618560
    115          1           0        2.993940   -3.242282    3.791131
    116          1           0        3.045712   -3.955816    2.128516
    117          1           0        2.744187   -2.172826    2.440655
    118          1           0        1.061809   -3.670540    5.558917
    119          1           0        1.851319   -2.127954    5.404634
    120          1           0        0.218865   -2.185394    5.985748
    121          7           0        1.846805   -3.250469   -0.487398
    122          6           0        2.815736   -3.892743   -1.358407
    123          6           0        4.234778   -3.732566   -0.822158
    124          8           0        4.485876   -2.874433    0.015193
    125          6           0        2.674601   -3.426492   -2.809610
    126          8           0        2.349553   -2.060213   -2.730707
    127          1           0        1.943945   -2.282142   -0.254575
    128          1           0        2.600836   -4.957178   -1.309457
    129          1           0        1.851411   -4.024489   -3.210681
    130          1           0        3.573964   -3.640684   -3.400429
    131          1           0        2.565814   -1.630685   -3.566671
    132          7           0        5.159546   -4.602087   -1.218817
    133          6           0        6.530994   -4.743636   -0.780530
    134          6           0        7.275631   -3.432793   -1.023027
    135          8           0        8.052370   -2.944666   -0.199735
    136          6           0        7.126783   -5.943129   -1.506721
    137          1           0        4.813384   -5.322654   -1.847749
    138          1           0        6.480265   -5.011450    0.274175
    139          1           0        6.453589   -6.744061   -1.180043
    140          1           0        7.154226   -5.791328   -2.583756
    141          1           0        8.126463   -6.095464   -1.112852
    142          7           0        6.945978   -2.741875   -2.105876
    143          6           0        7.506203   -1.423652   -2.360109
    144          6           0        7.262524   -0.368246   -1.292805
    145          8           0        8.060904    0.491187   -0.925433
    146          6           0        7.059216   -0.925225   -3.731194
    147          1           0        6.539159   -3.190710   -2.914483
    148          1           0        8.582072   -1.485573   -2.493043
    149          1           0        7.371686    0.118565   -3.792545
    150          1           0        7.494929   -1.525102   -4.521702
    151          1           0        5.975887   -1.012373   -3.787793
    152          7           0        6.048499   -0.410855   -0.750376
    153          6           0        5.621983    0.471171    0.320144
    154          6           0        6.316530    0.081780    1.618942
    155          8           0        6.711006    0.891223    2.447792
    156          6           0        4.098785    0.503410    0.442324
    157          6           0        3.306433    0.615252   -0.857511
    158          6           0        1.819011    0.652842   -0.527265
    159          8           0        1.236871   -0.293850    0.040791
    160          8           0        1.148752    1.662634   -0.829212
    161          1           0        5.397333   -1.128547   -1.058273
    162          1           0        5.889173    1.502383    0.084749
    163          1           0        3.941425    1.392856    1.045833
    164          1           0        3.729898   -0.356269    1.003194
    165          1           0        3.454820   -0.319541   -1.399676
    166          1           0        3.592115    1.484197   -1.451414
    167          7           0        6.488631   -1.224885    1.842121
    168          6           0        7.084273   -1.669646    3.083893
    169          1           0        8.051405   -1.184131    3.216166
    170          1           0        6.430143   -1.407946    3.915560
    171          1           0        7.221770   -2.750458    3.055561
    172          1           0        6.096501   -1.952511    1.266452
    173         20           0       -1.162489    0.470735   -0.869749
    174          8           0       -0.539900   -1.945084   -1.529371
    175          1           0       -0.845825   -2.735970   -1.982702
    176          1           0        0.417381   -2.007414   -1.554432
 ---------------------------------------------------------------------
 Rotational constants (GHZ):           0.0229140           0.0153697           0.0114999
 Standard basis: SVP (5D, 7F)
 There are  1809 symmetry adapted cartesian basis functions of A   symmetry.
 There are  1717 symmetry adapted basis functions of A   symmetry.
  1717 basis functions,  2922 primitive gaussians,  1809 cartesian basis functions
   358 alpha electrons      358 beta electrons
       nuclear repulsion energy     21652.2628733966 Hartrees.
 NAtoms=  176 NActive=  176 NUniq=  176 SFac= 1.00D+00 NAtFMM=   60 NAOKFM=T Big=T
 Integral buffers will be    131072 words long.
 Raffenetti 2 integral format.
 Two-electron integral symmetry is turned on.
 One-electron integrals computed using PRISM.
 NBasis=  1717 RedAO= T EigKep=  2.54D-04  NBF=  1717
 NBsUse=  1717 1.00D-06 EigRej= -1.00D+00 NBFU=  1717
 ExpMin= 1.98D-02 ExpMax= 3.51D+04 ExpMxC= 5.28D+03 IAcc=3 IRadAn=         5 AccDes= 0.00D+00
 Harris functional with IExCor=  402 and IRadAn=       5 diagonalized for initial guess.
 HarFok:  IExCor=  402 AccDes= 0.00D+00 IRadAn=         5 IDoV= 1 UseB2=F ITyADJ=14
 ICtDFT=  3500011 ScaDFX=  1.000000  1.000000  1.000000  1.000000
 FoFCou: FMM=F IPFlag=           0 FMFlag=      100000 FMFlg1=        2001
         NFxFlg=           0 DoJE=T BraDBF=F KetDBF=T FulRan=T
         wScrn=  0.000000 ICntrl=       500 IOpCl=  0 I1Cent=   200000004 NGrid=           0
         NMat0=    1 NMatS0=      1 NMatT0=    0 NMatD0=    1 NMtDS0=    0 NMtDT0=    0
 Petite list used in FoFCou.
 Requested convergence on RMS density matrix=1.00D-08 within 128 cycles.
 Requested convergence on MAX density matrix=1.00D-06.
 Requested convergence on             energy=1.00D-06.
 No special actions if energy rises.
 EnCoef did     4 forward-backward iterations
 SCF Done:  E(RB3LYP) =  -5333.59805623     A.U. after   18 cycles
            NFock= 18  Conv=0.47D-08     -V/T= 2.0081
 SCF density gives NOpUse=  1 NOpAll=  1.
 Hyperfine terms turned off by default for NAtoms > 100.

 **********************************************************************

            Population analysis using the SCF density.

 **********************************************************************

 Orbital symmetries:
 BldTbl:  Degeneracy threshold= 1.00D-02
       Occupied  (A) (A) (A) (A) (A) (A) (A) (A) (A) (A) (A) (A)
                 (A) (A) (A) (A) (A) (A) (A) (A) (A) (A) (A) (A)
                 (A) (A) (A) (A) (A) (A) (A) (A) (A) (A) (A) (A)
                 (A) (A) (A) (A) (A) (A) (A) (A) (A) (A) (A) (A)
                 (A) (A) (A) (A) (A) (A) (A) (A) (A) (A) (A) (A)
                 (A) (A) (A) (A) (A) (A) (A) (A) (A) (A) (A) (A)
                 (A) (A) (A) (A) (A) (A) (A) (A) (A) (A) (A) (A)
                 (A) (A) (A) (A) (A) (A) (A) (A) (A) (A) (A) (A)
                 (A) (A) (A) (A) (A) (A) (A) (A) (A) (A) (A) (A)
                 (A) (A) (A) (A) (A) (A) (A) (A) (A) (A) (A) (A)
                 (A) (A) (A) (A) (A) (A) (A) (A) (A) (A) (A) (A)
                 (A) (A) (A) (A) (A) (A) (A) (A) (A) (A) (A) (A)
                 (A) (A) (A) (A) (A) (A) (A) (A) (A) (A) (A) (A)
                 (A) (A) (A) (A) (A) (A) (A) (A) (A) (A) (A) (A)
                 (A) (A) (A) (A) (A) (A) (A) (A) (A) (A) (A) (A)
                 (A) (A) (A) (A) (A) (A) (A) (A) (A) (A) (A) (A)
                 (A) (A) (A) (A) (A) (A) (A) (A) (A) (A) (A) (A)
                 (A) (A) (A) (A) (A) (A) (A) (A) (A) (A) (A) (A)
                 (A) (A) (A) (A) (A) (A) (A) (A) (A) (A) (A) (A)
                 (A) (A) (A) (A) (A) (A) (A) (A) (A) (A) (A) (A)
                 (A) (A) (A) (A) (A) (A) (A) (A) (A) (A) (A) (A)
                 (A) (A) (A) (A) (A) (A) (A) (A) (A) (A) (A) (A)
                 (A) (A) (A) (A) (A) (A) (A) (A) (A) (A) (A) (A)
                 (A) (A) (A) (A) (A) (A) (A) (A) (A) (A) (A) (A)
                 (A) (A) (A) (A) (A) (A) (A) (A) (A) (A) (A) (A)
                 (A) (A) (A) (A) (A) (A) (A) (A) (A) (A) (A) (A)
                 (A) (A) (A) (A) (A) (A) (A) (A) (A) (A) (A) (A)
                 (A) (A) (A) (A) (A) (A) (A) (A) (A) (A) (A) (A)
                 (A) (A) (A) (A) (A) (A) (A) (A) (A) (A) (A) (A)
                 (A) (A) (A) (A) (A) (A) (A) (A) (A) (A)
       Virtual   (A) (A) (A) (A) (A) (A) (A) (A) (A) (A) (A) (A)
                 (A) (A) (A) (A) (A) (A) (A) (A) (A) (A) (A) (A)
                 (A) (A) (A) (A) (A) (A) (A) (A) (A) (A) (A) (A)
                 (A) (A) (A) (A) (A) (A) (A) (A) (A) (A) (A) (A)
                 (A) (A) (A) (A) (A) (A) (A) (A) (A) (A) (A) (A)
                 (A) (A) (A) (A) (A) (A) (A) (A) (A) (A) (A) (A)
                 (A) (A) (A) (A) (A) (A) (A) (A) (A) (A) (A) (A)
                 (A) (A) (A) (A) (A) (A) (A) (A) (A) (A) (A) (A)
                 (A) (A) (A) (A) (A) (A) (A) (A) (A) (A) (A) (A)
                 (A) (A) (A) (A) (A) (A) (A) (A) (A) (A) (A) (A)
                 (A) (A) (A) (A) (A) (A) (A) (A) (A) (A) (A) (A)
                 (A) (A) (A) (A) (A) (A) (A) (A) (A) (A) (A) (A)
                 (A) (A) (A) (A) (A) (A) (A) (A) (A) (A) (A) (A)
                 (A) (A) (A) (A) (A) (A) (A) (A) (A) (A) (A) (A)
                 (A) (A) (A) (A) (A) (A) (A) (A) (A) (A) (A) (A)
                 (A) (A) (A) (A) (A) (A) (A) (A) (A) (A) (A) (A)
                 (A) (A) (A) (A) (A) (A) (A) (A) (A) (A) (A) (A)
                 (A) (A) (A) (A) (A) (A) (A) (A) (A) (A) (A) (A)
                 (A) (A) (A) (A) (A) (A) (A) (A) (A) (A) (A) (A)
                 (A) (A) (A) (A) (A) (A) (A) (A) (A) (A) (A) (A)
                 (A) (A) (A) (A) (A) (A) (A) (A) (A) (A) (A) (A)
                 (A) (A) (A) (A) (A) (A) (A) (A) (A) (A) (A) (A)
                 (A) (A) (A) (A) (A) (A) (A) (A) (A) (A) (A) (A)
                 (A) (A) (A) (A) (A) (A) (A) (A) (A) (A) (A) (A)
                 (A) (A) (A) (A) (A) (A) (A) (A) (A) (A) (A) (A)
                 (A) (A) (A) (A) (A) (A) (A) (A) (A) (A) (A) (A)
                 (A) (A) (A) (A) (A) (A) (A) (A) (A) (A) (A) (A)
                 (A) (A) (A) (A) (A) (A) (A) (A) (A) (A) (A) (A)
                 (A) (A) (A) (A) (A) (A) (A) (A) (A) (A) (A) (A)
                 (A) (A) (A) (A) (A) (A) (A) (A) (A) (A) (A) (A)
                 (A) (A) (A) (A) (A) (A) (A) (A) (A) (A) (A) (A)
                 (A) (A) (A) (A) (A) (A) (A) (A) (A) (A) (A) (A)
                 (A) (A) (A) (A) (A) (A) (A) (A) (A) (A) (A) (A)
                 (A) (A) (A) (A) (A) (A) (A) (A) (A) (A) (A) (A)
                 (A) (A) (A) (A) (A) (A) (A) (A) (A) (A) (A) (A)
                 (A) (A) (A) (A) (A) (A) (A) (A) (A) (A) (A) (A)
                 (A) (A) (A) (A) (A) (A) (A) (A) (A) (A) (A) (A)
                 (A) (A) (A) (A) (A) (A) (A) (A) (A) (A) (A) (A)
                 (A) (A) (A) (A) (A) (A) (A) (A) (A) (A) (A) (A)
                 (A) (A) (A) (A) (A) (A) (A) (A) (A) (A) (A) (A)
                 (A) (A) (A) (A) (A) (A) (A) (A) (A) (A) (A) (A)
                 (A) (A) (A) (A) (A) (A) (A) (A) (A) (A) (A) (A)
                 (A) (A) (A) (A) (A) (A) (A) (A) (A) (A) (A) (A)
                 (A) (A) (A) (A) (A) (A) (A) (A) (A) (A) (A) (A)
                 (A) (A) (A) (A) (A) (A) (A) (A) (A) (A) (A) (A)
                 (A) (A) (A) (A) (A) (A) (A) (A) (A) (A) (A) (A)
                 (A) (A) (A) (A) (A) (A) (A) (A) (A) (A) (A) (A)
                 (A) (A) (A) (A) (A) (A) (A) (A) (A) (A) (A) (A)
                 (A) (A) (A) (A) (A) (A) (A) (A) (A) (A) (A) (A)
                 (A) (A) (A) (A) (A) (A) (A) (A) (A) (A) (A) (A)
                 (A) (A) (A) (A) (A) (A) (A) (A) (A) (A) (A) (A)
                 (A) (A) (A) (A) (A) (A) (A) (A) (A) (A) (A) (A)
                 (A) (A) (A) (A) (A) (A) (A) (A) (A) (A) (A) (A)
                 (A) (A) (A) (A) (A) (A) (A) (A) (A) (A) (A) (A)
                 (A) (A) (A) (A) (A) (A) (A) (A) (A) (A) (A) (A)
                 (A) (A) (A) (A) (A) (A) (A) (A) (A) (A) (A) (A)
                 (A) (A) (A) (A) (A) (A) (A) (A) (A) (A) (A) (A)
                 (A) (A) (A) (A) (A) (A) (A) (A) (A) (A) (A) (A)
                 (A) (A) (A) (A) (A) (A) (A) (A) (A) (A) (A) (A)
                 (A) (A) (A) (A) (A) (A) (A) (A) (A) (A) (A) (A)
                 (A) (A) (A) (A) (A) (A) (A) (A) (A) (A) (A) (A)
                 (A) (A) (A) (A) (A) (A) (A) (A) (A) (A) (A) (A)
                 (A) (A) (A) (A) (A) (A) (A) (A) (A) (A) (A) (A)
                 (A) (A) (A) (A) (A) (A) (A) (A) (A) (A) (A) (A)
                 (A) (A) (A) (A) (A) (A) (A) (A) (A) (A) (A) (A)
                 (A) (A) (A) (A) (A) (A) (A) (A) (A) (A) (A) (A)
                 (A) (A) (A) (A) (A) (A) (A) (A) (A) (A) (A) (A)
                 (A) (A) (A) (A) (A) (A) (A) (A) (A) (A) (A) (A)
                 (A) (A) (A) (A) (A) (A) (A) (A) (A) (A) (A) (A)
                 (A) (A) (A) (A) (A) (A) (A) (A) (A) (A) (A) (A)
                 (A) (A) (A) (A) (A) (A) (A) (A) (A) (A) (A) (A)
                 (A) (A) (A) (A) (A) (A) (A) (A) (A) (A) (A) (A)
                 (A) (A) (A) (A) (A) (A) (A) (A) (A) (A) (A) (A)
                 (A) (A) (A) (A) (A) (A) (A) (A) (A) (A) (A) (A)
                 (A) (A) (A) (A) (A) (A) (A) (A) (A) (A) (A) (A)
                 (A) (A) (A) (A) (A) (A) (A) (A) (A) (A) (A) (A)
                 (A) (A) (A) (A) (A) (A) (A) (A) (A) (A) (A) (A)
                 (A) (A) (A) (A) (A) (A) (A) (A) (A) (A) (A) (A)
                 (A) (A) (A) (A) (A) (A) (A) (A) (A) (A) (A) (A)
                 (A) (A) (A) (A) (A) (A) (A) (A) (A) (A) (A) (A)
                 (A) (A) (A) (A) (A) (A) (A) (A) (A) (A) (A) (A)
                 (A) (A) (A) (A) (A) (A) (A) (A) (A) (A) (A) (A)
                 (A) (A) (A) (A) (A) (A) (A) (A) (A) (A) (A) (A)
                 (A) (A) (A) (A) (A) (A) (A) (A) (A) (A) (A) (A)
                 (A) (A) (A) (A) (A) (A) (A) (A) (A) (A) (A) (A)
                 (A) (A) (A) (A) (A) (A) (A) (A) (A) (A) (A) (A)
                 (A) (A) (A) (A) (A) (A) (A) (A) (A) (A) (A) (A)
                 (A) (A) (A) (A) (A) (A) (A) (A) (A) (A) (A) (A)
                 (A) (A) (A) (A) (A) (A) (A) (A) (A) (A) (A) (A)
                 (A) (A) (A) (A) (A) (A) (A) (A) (A) (A) (A) (A)
                 (A) (A) (A) (A) (A) (A) (A) (A) (A) (A) (A) (A)
                 (A) (A) (A) (A) (A) (A) (A) (A) (A) (A) (A) (A)
                 (A) (A) (A) (A) (A) (A) (A) (A) (A) (A) (A) (A)
                 (A) (A) (A) (A) (A) (A) (A) (A) (A) (A) (A) (A)
                 (A) (A) (A) (A) (A) (A) (A) (A) (A) (A) (A) (A)
                 (A) (A) (A) (A) (A) (A) (A) (A) (A) (A) (A) (A)
                 (A) (A) (A) (A) (A) (A) (A) (A) (A) (A) (A) (A)
                 (A) (A) (A) (A) (A) (A) (A) (A) (A) (A) (A) (A)
                 (A) (A) (A) (A) (A) (A) (A) (A) (A) (A) (A) (A)
                 (A) (A) (A) (A) (A) (A) (A) (A) (A) (A) (A) (A)
                 (A) (A) (A) (A) (A) (A) (A) (A) (A) (A) (A) (A)
                 (A) (A) (A) (A) (A) (A) (A) (A) (A) (A) (A) (A)
                 (A) (A) (A) (A) (A) (A) (A) (A) (A) (A) (A) (A)
                 (A) (A) (A) (A) (A) (A) (A) (A) (A) (A) (A) (A)
                 (A) (A) (A) (A) (A) (A) (A) (A) (A) (A) (A) (A)
                 (A) (A) (A) (A) (A) (A) (A) (A) (A) (A) (A) (A)
                 (A) (A) (A) (A) (A) (A) (A) (A) (A) (A) (A) (A)
                 (A) (A) (A) (A) (A) (A) (A) (A) (A) (A) (A) (A)
                 (A) (A) (A) (A) (A) (A) (A) (A) (A) (A) (A) (A)
                 (A) (A) (A) (A) (A) (A) (A) (A) (A) (A) (A) (A)
                 (A) (A) (A) (A) (A) (A) (A) (A) (A) (A) (A) (A)
                 (A) (A) (A) (A) (A) (A) (A) (A) (A) (A) (A) (A)
                 (A) (A) (A) (A) (A) (A) (A) (A) (A) (A) (A) (A)
                 (A) (A) (A)
 The electronic state is 1-A.
 Alpha  occ. eigenvalues -- -145.36916 -19.20729 -19.17909 -19.15494 -19.14886
 Alpha  occ. eigenvalues --  -19.13429 -19.11575 -19.11273 -19.10707 -19.10542
 Alpha  occ. eigenvalues --  -19.09621 -19.08640 -19.08278 -19.07472 -19.06665
 Alpha  occ. eigenvalues --  -19.06664 -19.06375 -19.06220 -19.05567 -19.03983
 Alpha  occ. eigenvalues --  -19.03731 -19.03203 -19.02190 -18.99603 -15.42655
 Alpha  occ. eigenvalues --  -14.58239 -14.41483 -14.40140 -14.38162 -14.36299
 Alpha  occ. eigenvalues --  -14.36296 -14.36017 -14.34009 -14.32993 -14.32096
 Alpha  occ. eigenvalues --  -14.32047 -14.31962 -14.30718 -14.29282 -14.28720
 Alpha  occ. eigenvalues --  -12.56283 -12.56234 -12.56210 -10.34458 -10.33744
 Alpha  occ. eigenvalues --  -10.32232 -10.30383 -10.30008 -10.29792 -10.29580
 Alpha  occ. eigenvalues --  -10.29146 -10.28591 -10.28223 -10.28176 -10.27006
 Alpha  occ. eigenvalues --  -10.26608 -10.26484 -10.26214 -10.25495 -10.25191
 Alpha  occ. eigenvalues --  -10.24816 -10.24728 -10.24645 -10.23876 -10.23711
 Alpha  occ. eigenvalues --  -10.23387 -10.23338 -10.23033 -10.23010 -10.22468
 Alpha  occ. eigenvalues --  -10.22094 -10.22005 -10.21587 -10.20613 -10.20520
 Alpha  occ. eigenvalues --  -10.20241 -10.20038 -10.19976 -10.19646 -10.19591
 Alpha  occ. eigenvalues --  -10.19278 -10.19261 -10.18950 -10.18583 -10.18291
 Alpha  occ. eigenvalues --  -10.18158 -10.18114 -10.18060 -10.17955 -10.17578
 Alpha  occ. eigenvalues --  -10.17381 -10.17342 -10.16964 -10.16811 -10.16551
 Alpha  occ. eigenvalues --  -10.15299 -10.12939  -1.79514  -1.13802  -1.09352
 Alpha  occ. eigenvalues --   -1.08509  -1.07372  -1.07256  -1.06795  -1.06662
 Alpha  occ. eigenvalues --   -1.04699  -1.04583  -1.04112  -1.03748  -1.03744
 Alpha  occ. eigenvalues --   -1.03702  -1.03466  -1.01614  -1.00722  -0.99968
 Alpha  occ. eigenvalues --   -0.99875  -0.99280  -0.99139  -0.98739  -0.98718
 Alpha  occ. eigenvalues --   -0.97280  -0.96488  -0.96353  -0.96024  -0.95308
 Alpha  occ. eigenvalues --   -0.93518  -0.92876  -0.92814  -0.90871  -0.90850
 Alpha  occ. eigenvalues --   -0.90273  -0.89938  -0.89667  -0.89076  -0.88461
 Alpha  occ. eigenvalues --   -0.88288  -0.87798  -0.86803  -0.85108  -0.84772
 Alpha  occ. eigenvalues --   -0.84668  -0.83433  -0.82481  -0.81767  -0.81022
 Alpha  occ. eigenvalues --   -0.80564  -0.79536  -0.77968  -0.76434  -0.76053
 Alpha  occ. eigenvalues --   -0.74866  -0.74617  -0.73647  -0.73189  -0.72790
 Alpha  occ. eigenvalues --   -0.72779  -0.72417  -0.72090  -0.71021  -0.70967
 Alpha  occ. eigenvalues --   -0.70752  -0.70081  -0.69351  -0.68547  -0.67837
 Alpha  occ. eigenvalues --   -0.67658  -0.67115  -0.66097  -0.65102  -0.64165
 Alpha  occ. eigenvalues --   -0.64063  -0.63615  -0.63071  -0.62612  -0.62550
 Alpha  occ. eigenvalues --   -0.61726  -0.61275  -0.60484  -0.60399  -0.60375
 Alpha  occ. eigenvalues --   -0.60158  -0.59186  -0.58831  -0.58573  -0.57881
 Alpha  occ. eigenvalues --   -0.57683  -0.57550  -0.57132  -0.57051  -0.56964
 Alpha  occ. eigenvalues --   -0.56454  -0.56166  -0.55752  -0.55016  -0.54931
 Alpha  occ. eigenvalues --   -0.54886  -0.54799  -0.54691  -0.54533  -0.54097
 Alpha  occ. eigenvalues --   -0.53121  -0.53055  -0.52589  -0.52500  -0.52172
 Alpha  occ. eigenvalues --   -0.51649  -0.51375  -0.50959  -0.50815  -0.50672
 Alpha  occ. eigenvalues --   -0.50127  -0.50038  -0.49548  -0.49188  -0.48924
 Alpha  occ. eigenvalues --   -0.48739  -0.48690  -0.48135  -0.47982  -0.47743
 Alpha  occ. eigenvalues --   -0.47452  -0.47360  -0.47047  -0.46972  -0.46916
 Alpha  occ. eigenvalues --   -0.46784  -0.46565  -0.46376  -0.46268  -0.45881
 Alpha  occ. eigenvalues --   -0.45716  -0.45671  -0.45439  -0.45124  -0.45094
 Alpha  occ. eigenvalues --   -0.44938  -0.44867  -0.44756  -0.44490  -0.44321
 Alpha  occ. eigenvalues --   -0.43914  -0.43858  -0.43824  -0.43568  -0.43468
 Alpha  occ. eigenvalues --   -0.43261  -0.43164  -0.42966  -0.42829  -0.42691
 Alpha  occ. eigenvalues --   -0.42336  -0.42178  -0.42045  -0.41923  -0.41704
 Alpha  occ. eigenvalues --   -0.41625  -0.41465  -0.41386  -0.41317  -0.41161
 Alpha  occ. eigenvalues --   -0.41092  -0.41004  -0.40675  -0.40592  -0.40426
 Alpha  occ. eigenvalues --   -0.40205  -0.40155  -0.39954  -0.39692  -0.39670
 Alpha  occ. eigenvalues --   -0.39466  -0.39296  -0.39226  -0.39126  -0.38871
 Alpha  occ. eigenvalues --   -0.38798  -0.38584  -0.38455  -0.38262  -0.38183
 Alpha  occ. eigenvalues --   -0.38036  -0.37916  -0.37775  -0.37440  -0.37423
 Alpha  occ. eigenvalues --   -0.37282  -0.37212  -0.37034  -0.36809  -0.36681
 Alpha  occ. eigenvalues --   -0.36094  -0.36072  -0.35851  -0.35797  -0.35755
 Alpha  occ. eigenvalues --   -0.35474  -0.35199  -0.35054  -0.34937  -0.34778
 Alpha  occ. eigenvalues --   -0.34602  -0.34578  -0.33998  -0.33974  -0.33937
 Alpha  occ. eigenvalues --   -0.33853  -0.33478  -0.33215  -0.33036  -0.32988
 Alpha  occ. eigenvalues --   -0.32913  -0.32845  -0.32589  -0.32412  -0.32266
 Alpha  occ. eigenvalues --   -0.32158  -0.31942  -0.31357  -0.31146  -0.30905
 Alpha  occ. eigenvalues --   -0.29654  -0.29451  -0.29105  -0.28928  -0.28699
 Alpha  occ. eigenvalues --   -0.28315  -0.28071  -0.27558  -0.27179  -0.27138
 Alpha  occ. eigenvalues --   -0.26595  -0.26392  -0.26227  -0.25666  -0.25060
 Alpha  occ. eigenvalues --   -0.24807  -0.24621  -0.24236  -0.24061  -0.23966
 Alpha  occ. eigenvalues --   -0.23837  -0.23533  -0.23056  -0.22912  -0.22828
 Alpha  occ. eigenvalues --   -0.22052  -0.21561  -0.21437  -0.21187  -0.20984
 Alpha  occ. eigenvalues --   -0.20944  -0.20642  -0.19852  -0.19613  -0.18715
 Alpha  occ. eigenvalues --   -0.18548  -0.18236  -0.15661
 Alpha virt. eigenvalues --   -0.10510  -0.04632  -0.04549  -0.04417  -0.03785
 Alpha virt. eigenvalues --   -0.02888  -0.01741  -0.01088  -0.00370  -0.00163
 Alpha virt. eigenvalues --   -0.00117   0.00352   0.00642   0.00790   0.01800
 Alpha virt. eigenvalues --    0.02222   0.02239   0.02709   0.02779   0.02949
 Alpha virt. eigenvalues --    0.03393   0.03832   0.04040   0.04371   0.04536
 Alpha virt. eigenvalues --    0.04708   0.04931   0.05183   0.05254   0.05340
 Alpha virt. eigenvalues --    0.05472   0.05711   0.05851   0.06658   0.06805
 Alpha virt. eigenvalues --    0.06863   0.07138   0.07241   0.07440   0.07667
 Alpha virt. eigenvalues --    0.07964   0.07972   0.08182   0.08374   0.08458
 Alpha virt. eigenvalues --    0.08648   0.08845   0.08971   0.09127   0.09242
 Alpha virt. eigenvalues --    0.09441   0.09861   0.09952   0.10302   0.10551
 Alpha virt. eigenvalues --    0.10676   0.10942   0.11059   0.11229   0.11406
 Alpha virt. eigenvalues --    0.11558   0.11694   0.11771   0.11944   0.12158
 Alpha virt. eigenvalues --    0.12503   0.12609   0.12852   0.13028   0.13354
 Alpha virt. eigenvalues --    0.13693   0.13769   0.13914   0.13975   0.14077
 Alpha virt. eigenvalues --    0.14173   0.14447   0.14636   0.14746   0.15007
 Alpha virt. eigenvalues --    0.15242   0.15440   0.15526   0.15761   0.15828
 Alpha virt. eigenvalues --    0.16050   0.16107   0.16233   0.16435   0.16698
 Alpha virt. eigenvalues --    0.16763   0.16923   0.17158   0.17236   0.17286
 Alpha virt. eigenvalues --    0.17451   0.17708   0.17921   0.18125   0.18211
 Alpha virt. eigenvalues --    0.18432   0.18670   0.18936   0.19196   0.19428
 Alpha virt. eigenvalues --    0.19479   0.19659   0.19928   0.20240   0.20346
 Alpha virt. eigenvalues --    0.20494   0.20585   0.20980   0.21071   0.21277
 Alpha virt. eigenvalues --    0.21372   0.21674   0.21747   0.22102   0.22211
 Alpha virt. eigenvalues --    0.22419   0.22512   0.22751   0.22891   0.23227
 Alpha virt. eigenvalues --    0.23445   0.23640   0.24004   0.24362   0.24452
 Alpha virt. eigenvalues --    0.24633   0.24724   0.24862   0.25256   0.25502
 Alpha virt. eigenvalues --    0.25801   0.25870   0.25985   0.26028   0.26341
 Alpha virt. eigenvalues --    0.26593   0.26675   0.26791   0.27145   0.27401
 Alpha virt. eigenvalues --    0.27511   0.27979   0.28539   0.28924   0.28937
 Alpha virt. eigenvalues --    0.29186   0.29607   0.29629   0.29927   0.30555
 Alpha virt. eigenvalues --    0.30655   0.30808   0.30974   0.31072   0.31493
 Alpha virt. eigenvalues --    0.31766   0.31828   0.31971   0.32151   0.32420
 Alpha virt. eigenvalues --    0.32630   0.32815   0.32947   0.33672   0.33677
 Alpha virt. eigenvalues --    0.34071   0.34210   0.34375   0.34420   0.34932
 Alpha virt. eigenvalues --    0.35015   0.35412   0.35922   0.36051   0.36316
 Alpha virt. eigenvalues --    0.36756   0.37092   0.37361   0.37690   0.37875
 Alpha virt. eigenvalues --    0.38148   0.38324   0.38577   0.38888   0.39356
 Alpha virt. eigenvalues --    0.39458   0.39821   0.40111   0.40227   0.40462
 Alpha virt. eigenvalues --    0.40722   0.40812   0.40900   0.41331   0.41596
 Alpha virt. eigenvalues --    0.41937   0.42063   0.42295   0.42400   0.42659
 Alpha virt. eigenvalues --    0.43032   0.43326   0.43606   0.43670   0.44160
 Alpha virt. eigenvalues --    0.44253   0.44387   0.44714   0.44849   0.44927
 Alpha virt. eigenvalues --    0.45103   0.45333   0.45651   0.45736   0.46189
 Alpha virt. eigenvalues --    0.46386   0.46484   0.46586   0.46850   0.47045
 Alpha virt. eigenvalues --    0.47052   0.47194   0.47446   0.47710   0.47855
 Alpha virt. eigenvalues --    0.47911   0.48196   0.48384   0.48598   0.48845
 Alpha virt. eigenvalues --    0.48970   0.49161   0.49617   0.49901   0.50027
 Alpha virt. eigenvalues --    0.50252   0.50604   0.50780   0.50813   0.51025
 Alpha virt. eigenvalues --    0.51169   0.51346   0.51521   0.51868   0.52034
 Alpha virt. eigenvalues --    0.52102   0.52278   0.52597   0.52890   0.53067
 Alpha virt. eigenvalues --    0.53143   0.53536   0.53733   0.53752   0.54112
 Alpha virt. eigenvalues --    0.54261   0.54297   0.54480   0.54702   0.54810
 Alpha virt. eigenvalues --    0.55077   0.55191   0.55420   0.55505   0.55556
 Alpha virt. eigenvalues --    0.55651   0.55712   0.56065   0.56234   0.56461
 Alpha virt. eigenvalues --    0.56692   0.56769   0.56976   0.56998   0.57219
 Alpha virt. eigenvalues --    0.57459   0.57534   0.57647   0.57904   0.57941
 Alpha virt. eigenvalues --    0.58136   0.58244   0.58328   0.58611   0.58863
 Alpha virt. eigenvalues --    0.59140   0.59294   0.59340   0.59569   0.59710
 Alpha virt. eigenvalues --    0.59852   0.59957   0.60093   0.60308   0.60444
 Alpha virt. eigenvalues --    0.60569   0.60687   0.60807   0.61078   0.61240
 Alpha virt. eigenvalues --    0.61458   0.61512   0.61558   0.61791   0.61918
 Alpha virt. eigenvalues --    0.62041   0.62212   0.62463   0.62572   0.62691
 Alpha virt. eigenvalues --    0.62822   0.62934   0.63039   0.63216   0.63245
 Alpha virt. eigenvalues --    0.63293   0.63521   0.63626   0.63774   0.63852
 Alpha virt. eigenvalues --    0.63955   0.64129   0.64241   0.64375   0.64660
 Alpha virt. eigenvalues --    0.64715   0.64746   0.65006   0.65187   0.65252
 Alpha virt. eigenvalues --    0.65352   0.65494   0.65605   0.65678   0.65762
 Alpha virt. eigenvalues --    0.65770   0.66009   0.66066   0.66357   0.66469
 Alpha virt. eigenvalues --    0.66617   0.66678   0.66757   0.66846   0.67251
 Alpha virt. eigenvalues --    0.67318   0.67441   0.67548   0.67675   0.67856
 Alpha virt. eigenvalues --    0.67959   0.68075   0.68125   0.68297   0.68326
 Alpha virt. eigenvalues --    0.68594   0.68656   0.68767   0.68879   0.69023
 Alpha virt. eigenvalues --    0.69102   0.69154   0.69364   0.69432   0.69573
 Alpha virt. eigenvalues --    0.69743   0.69780   0.69965   0.70033   0.70101
 Alpha virt. eigenvalues --    0.70335   0.70393   0.70633   0.70783   0.70802
 Alpha virt. eigenvalues --    0.70911   0.70960   0.71092   0.71266   0.71353
 Alpha virt. eigenvalues --    0.71515   0.71545   0.71681   0.71825   0.71898
 Alpha virt. eigenvalues --    0.72156   0.72162   0.72248   0.72336   0.72404
 Alpha virt. eigenvalues --    0.72644   0.73169   0.73328   0.73560   0.73723
 Alpha virt. eigenvalues --    0.73874   0.74106   0.74245   0.74649   0.74727
 Alpha virt. eigenvalues --    0.74903   0.75357   0.75419   0.75665   0.75752
 Alpha virt. eigenvalues --    0.75923   0.76119   0.76193   0.76423   0.76690
 Alpha virt. eigenvalues --    0.76915   0.77067   0.77284   0.77507   0.77742
 Alpha virt. eigenvalues --    0.77969   0.78133   0.78345   0.78513   0.78692
 Alpha virt. eigenvalues --    0.79088   0.79787   0.79921   0.79978   0.80242
 Alpha virt. eigenvalues --    0.80477   0.80665   0.81139   0.81216   0.81454
 Alpha virt. eigenvalues --    0.81479   0.81772   0.81918   0.82301   0.82622
 Alpha virt. eigenvalues --    0.82689   0.82949   0.83185   0.83398   0.83902
 Alpha virt. eigenvalues --    0.84118   0.84253   0.84581   0.85050   0.85151
 Alpha virt. eigenvalues --    0.85439   0.85545   0.85654   0.85995   0.86292
 Alpha virt. eigenvalues --    0.86625   0.86941   0.87172   0.87572   0.87844
 Alpha virt. eigenvalues --    0.87957   0.88336   0.88472   0.89158   0.89272
 Alpha virt. eigenvalues --    0.89715   0.90065   0.90347   0.90584   0.90840
 Alpha virt. eigenvalues --    0.91409   0.91667   0.91974   0.92152   0.92727
 Alpha virt. eigenvalues --    0.92891   0.93296   0.93676   0.93802   0.93920
 Alpha virt. eigenvalues --    0.93982   0.94046   0.94499   0.95067   0.95278
 Alpha virt. eigenvalues --    0.95592   0.95939   0.96129   0.96429   0.97072
 Alpha virt. eigenvalues --    0.97426   0.97545   0.97897   0.98308   0.98403
 Alpha virt. eigenvalues --    0.98691   0.98803   0.99554   0.99877   0.99919
 Alpha virt. eigenvalues --    1.00362   1.00664   1.00780   1.01041   1.01766
 Alpha virt. eigenvalues --    1.01973   1.02268   1.02369   1.02573   1.02613
 Alpha virt. eigenvalues --    1.02903   1.03663   1.04028   1.04454   1.04476
 Alpha virt. eigenvalues --    1.04927   1.05146   1.05363   1.05779   1.06024
 Alpha virt. eigenvalues --    1.06179   1.06975   1.07214   1.07433   1.07766
 Alpha virt. eigenvalues --    1.07890   1.07942   1.08430   1.08513   1.08750
 Alpha virt. eigenvalues --    1.09199   1.09257   1.09325   1.09715   1.09979
 Alpha virt. eigenvalues --    1.10266   1.10415   1.10570   1.10907   1.11286
 Alpha virt. eigenvalues --    1.11840   1.12007   1.12350   1.12528   1.12913
 Alpha virt. eigenvalues --    1.12981   1.13153   1.13420   1.13761   1.13857
 Alpha virt. eigenvalues --    1.13931   1.14603   1.14967   1.15216   1.15450
 Alpha virt. eigenvalues --    1.15518   1.16019   1.16116   1.16299   1.16572
 Alpha virt. eigenvalues --    1.17199   1.17492   1.17729   1.18005   1.18064
 Alpha virt. eigenvalues --    1.18511   1.18693   1.18993   1.19162   1.19421
 Alpha virt. eigenvalues --    1.19582   1.20106   1.20359   1.20559   1.20950
 Alpha virt. eigenvalues --    1.21083   1.21438   1.21641   1.22076   1.22396
 Alpha virt. eigenvalues --    1.22688   1.22826   1.23227   1.23572   1.23732
 Alpha virt. eigenvalues --    1.23932   1.24035   1.24260   1.24359   1.24469
 Alpha virt. eigenvalues --    1.24907   1.25119   1.25309   1.25520   1.25804
 Alpha virt. eigenvalues --    1.25960   1.26155   1.26389   1.26776   1.26954
 Alpha virt. eigenvalues --    1.27242   1.27474   1.27952   1.28114   1.28351
 Alpha virt. eigenvalues --    1.28455   1.28704   1.28768   1.28946   1.29512
 Alpha virt. eigenvalues --    1.29675   1.29849   1.30176   1.30712   1.31035
 Alpha virt. eigenvalues --    1.31322   1.31796   1.32002   1.32089   1.32596
 Alpha virt. eigenvalues --    1.32790   1.33371   1.33764   1.33953   1.34155
 Alpha virt. eigenvalues --    1.34369   1.34606   1.34953   1.35458   1.35740
 Alpha virt. eigenvalues --    1.35997   1.36073   1.36242   1.36570   1.36918
 Alpha virt. eigenvalues --    1.37576   1.37667   1.37957   1.38167   1.38378
 Alpha virt. eigenvalues --    1.38612   1.38723   1.38961   1.39097   1.39397
 Alpha virt. eigenvalues --    1.39459   1.39854   1.40227   1.40623   1.40992
 Alpha virt. eigenvalues --    1.41248   1.41534   1.41917   1.41959   1.42412
 Alpha virt. eigenvalues --    1.42538   1.42817   1.42969   1.43172   1.43450
 Alpha virt. eigenvalues --    1.43778   1.44125   1.44247   1.44696   1.45118
 Alpha virt. eigenvalues --    1.45467   1.45565   1.45736   1.46164   1.46639
 Alpha virt. eigenvalues --    1.46962   1.47103   1.47415   1.47833   1.48297
 Alpha virt. eigenvalues --    1.48741   1.49079   1.49543   1.49915   1.50080
 Alpha virt. eigenvalues --    1.50285   1.50750   1.50927   1.50993   1.51605
 Alpha virt. eigenvalues --    1.51843   1.51919   1.52172   1.52282   1.52534
 Alpha virt. eigenvalues --    1.52750   1.53069   1.53359   1.53743   1.53910
 Alpha virt. eigenvalues --    1.54132   1.54323   1.54872   1.55111   1.55297
 Alpha virt. eigenvalues --    1.55541   1.55852   1.56426   1.56454   1.56957
 Alpha virt. eigenvalues --    1.57366   1.57743   1.58110   1.58645   1.58973
 Alpha virt. eigenvalues --    1.59547   1.59624   1.60064   1.60244   1.60643
 Alpha virt. eigenvalues --    1.61005   1.61200   1.61371   1.61618   1.61930
 Alpha virt. eigenvalues --    1.62088   1.62359   1.62641   1.63023   1.63407
 Alpha virt. eigenvalues --    1.63957   1.64320   1.64569   1.64663   1.64883
 Alpha virt. eigenvalues --    1.65475   1.65874   1.66001   1.66403   1.66570
 Alpha virt. eigenvalues --    1.67182   1.67304   1.67484   1.67957   1.68248
 Alpha virt. eigenvalues --    1.68353   1.68467   1.68607   1.68890   1.69293
 Alpha virt. eigenvalues --    1.69448   1.69778   1.70099   1.70352   1.70551
 Alpha virt. eigenvalues --    1.70653   1.70871   1.71291   1.71460   1.71671
 Alpha virt. eigenvalues --    1.71722   1.72045   1.72171   1.72279   1.72368
 Alpha virt. eigenvalues --    1.72595   1.72696   1.73166   1.73321   1.73842
 Alpha virt. eigenvalues --    1.73923   1.74218   1.74332   1.74680   1.74857
 Alpha virt. eigenvalues --    1.74970   1.75032   1.75549   1.75653   1.75729
 Alpha virt. eigenvalues --    1.75834   1.76121   1.76144   1.76327   1.76575
 Alpha virt. eigenvalues --    1.76800   1.76922   1.76933   1.77141   1.77283
 Alpha virt. eigenvalues --    1.77432   1.77655   1.77942   1.78279   1.78450
 Alpha virt. eigenvalues --    1.78592   1.78884   1.79086   1.79178   1.79399
 Alpha virt. eigenvalues --    1.79524   1.79737   1.79863   1.79999   1.80077
 Alpha virt. eigenvalues --    1.80191   1.80440   1.80604   1.80797   1.80997
 Alpha virt. eigenvalues --    1.81171   1.81339   1.81648   1.81763   1.81904
 Alpha virt. eigenvalues --    1.82053   1.82471   1.82584   1.82708   1.82799
 Alpha virt. eigenvalues --    1.82906   1.83235   1.83341   1.83382   1.83567
 Alpha virt. eigenvalues --    1.83727   1.83826   1.84016   1.84204   1.84607
 Alpha virt. eigenvalues --    1.84837   1.84960   1.85067   1.85299   1.85428
 Alpha virt. eigenvalues --    1.85852   1.85929   1.86051   1.86375   1.86560
 Alpha virt. eigenvalues --    1.86988   1.87176   1.87287   1.87447   1.87653
 Alpha virt. eigenvalues --    1.87751   1.87919   1.87995   1.88263   1.88465
 Alpha virt. eigenvalues --    1.88694   1.88934   1.89163   1.89453   1.89547
 Alpha virt. eigenvalues --    1.89867   1.89956   1.90242   1.90363   1.90633
 Alpha virt. eigenvalues --    1.90779   1.91019   1.91336   1.91522   1.91693
 Alpha virt. eigenvalues --    1.91815   1.91869   1.91920   1.92125   1.92805
 Alpha virt. eigenvalues --    1.92856   1.92972   1.93242   1.93551   1.93716
 Alpha virt. eigenvalues --    1.93875   1.94413   1.94730   1.95009   1.95218
 Alpha virt. eigenvalues --    1.95427   1.95705   1.95863   1.96006   1.96253
 Alpha virt. eigenvalues --    1.96395   1.96552   1.97112   1.97208   1.97291
 Alpha virt. eigenvalues --    1.97601   1.97788   1.97931   1.97967   1.98428
 Alpha virt. eigenvalues --    1.98506   1.98570   1.98902   1.99193   1.99447
 Alpha virt. eigenvalues --    1.99851   1.99965   2.00247   2.00307   2.00534
 Alpha virt. eigenvalues --    2.00677   2.00887   2.01253   2.01377   2.01717
 Alpha virt. eigenvalues --    2.01856   2.01971   2.02407   2.02714   2.02863
 Alpha virt. eigenvalues --    2.03380   2.03504   2.03770   2.03890   2.04602
 Alpha virt. eigenvalues --    2.04765   2.05021   2.05286   2.05673   2.05799
 Alpha virt. eigenvalues --    2.06157   2.06458   2.06743   2.06943   2.07059
 Alpha virt. eigenvalues --    2.07355   2.07460   2.07629   2.07778   2.08359
 Alpha virt. eigenvalues --    2.08721   2.08898   2.09190   2.09490   2.09794
 Alpha virt. eigenvalues --    2.10075   2.10334   2.10546   2.10797   2.10954
 Alpha virt. eigenvalues --    2.11199   2.11632   2.11974   2.12068   2.12240
 Alpha virt. eigenvalues --    2.12590   2.12825   2.13111   2.13407   2.13938
 Alpha virt. eigenvalues --    2.14235   2.14318   2.14691   2.15014   2.15297
 Alpha virt. eigenvalues --    2.15387   2.15855   2.16222   2.16326   2.16753
 Alpha virt. eigenvalues --    2.17080   2.17316   2.17531   2.17615   2.17973
 Alpha virt. eigenvalues --    2.18311   2.18502   2.18651   2.19082   2.19382
 Alpha virt. eigenvalues --    2.19747   2.20372   2.20405   2.20586   2.20975
 Alpha virt. eigenvalues --    2.21132   2.21270   2.21473   2.21609   2.22401
 Alpha virt. eigenvalues --    2.22949   2.23140   2.23599   2.23836   2.24018
 Alpha virt. eigenvalues --    2.24129   2.24268   2.24877   2.24967   2.25608
 Alpha virt. eigenvalues --    2.25706   2.25973   2.26199   2.26616   2.26834
 Alpha virt. eigenvalues --    2.27269   2.28227   2.28646   2.28875   2.29038
 Alpha virt. eigenvalues --    2.29266   2.29934   2.30022   2.30088   2.30421
 Alpha virt. eigenvalues --    2.30820   2.30863   2.30984   2.31588   2.31705
 Alpha virt. eigenvalues --    2.31908   2.32153   2.32353   2.32663   2.33403
 Alpha virt. eigenvalues --    2.33769   2.34200   2.34913   2.35045   2.35220
 Alpha virt. eigenvalues --    2.35605   2.35803   2.35912   2.36192   2.36423
 Alpha virt. eigenvalues --    2.36797   2.36867   2.37056   2.37533   2.37696
 Alpha virt. eigenvalues --    2.38155   2.38301   2.38996   2.39246   2.40037
 Alpha virt. eigenvalues --    2.40384   2.40579   2.40690   2.41037   2.41789
 Alpha virt. eigenvalues --    2.41841   2.42091   2.42309   2.42350   2.42683
 Alpha virt. eigenvalues --    2.43153   2.43616   2.43963   2.44407   2.44700
 Alpha virt. eigenvalues --    2.44902   2.45517   2.45932   2.46078   2.46608
 Alpha virt. eigenvalues --    2.46798   2.46920   2.46982   2.47298   2.48009
 Alpha virt. eigenvalues --    2.48229   2.48636   2.48776   2.49010   2.49345
 Alpha virt. eigenvalues --    2.49618   2.50030   2.50513   2.50994   2.51142
 Alpha virt. eigenvalues --    2.51516   2.51960   2.52548   2.52844   2.53042
 Alpha virt. eigenvalues --    2.53077   2.53117   2.53538   2.54267   2.54549
 Alpha virt. eigenvalues --    2.54622   2.55421   2.55446   2.55670   2.56267
 Alpha virt. eigenvalues --    2.57737   2.57942   2.58128   2.58175   2.58626
 Alpha virt. eigenvalues --    2.59090   2.59367   2.59892   2.60298   2.60542
 Alpha virt. eigenvalues --    2.60743   2.60976   2.61041   2.61228   2.61955
 Alpha virt. eigenvalues --    2.62094   2.62259   2.62559   2.62729   2.63062
 Alpha virt. eigenvalues --    2.63090   2.63674   2.63905   2.64163   2.64493
 Alpha virt. eigenvalues --    2.64862   2.65049   2.65983   2.66104   2.66239
 Alpha virt. eigenvalues --    2.66644   2.66888   2.66963   2.67588   2.67750
 Alpha virt. eigenvalues --    2.68041   2.68420   2.68574   2.69261   2.69677
 Alpha virt. eigenvalues --    2.70050   2.70460   2.70508   2.70772   2.70875
 Alpha virt. eigenvalues --    2.70964   2.71107   2.71256   2.71856   2.72016
 Alpha virt. eigenvalues --    2.72031   2.72389   2.72738   2.73031   2.73725
 Alpha virt. eigenvalues --    2.74062   2.74272   2.74457   2.74696   2.74911
 Alpha virt. eigenvalues --    2.75035   2.75130   2.75390   2.75411   2.75706
 Alpha virt. eigenvalues --    2.75972   2.76144   2.76542   2.76798   2.76891
 Alpha virt. eigenvalues --    2.77889   2.78105   2.78248   2.78372   2.78726
 Alpha virt. eigenvalues --    2.78906   2.79224   2.79287   2.79560   2.79803
 Alpha virt. eigenvalues --    2.80059   2.80685   2.81085   2.81174   2.81539
 Alpha virt. eigenvalues --    2.81842   2.82044   2.82135   2.82547   2.82854
 Alpha virt. eigenvalues --    2.83164   2.83213   2.83939   2.84296   2.84496
 Alpha virt. eigenvalues --    2.84750   2.84906   2.85277   2.85676   2.85834
 Alpha virt. eigenvalues --    2.86153   2.86362   2.86542   2.86724   2.87283
 Alpha virt. eigenvalues --    2.87600   2.87793   2.88061   2.88099   2.88478
 Alpha virt. eigenvalues --    2.88523   2.89956   2.90104   2.90159   2.90411
 Alpha virt. eigenvalues --    2.90657   2.90746   2.90871   2.91047   2.91315
 Alpha virt. eigenvalues --    2.92050   2.92158   2.92442   2.92833   2.92948
 Alpha virt. eigenvalues --    2.93162   2.93605   2.93741   2.94011   2.94280
 Alpha virt. eigenvalues --    2.94530   2.95067   2.95297   2.95327   2.95616
 Alpha virt. eigenvalues --    2.96378   2.96743   2.96961   2.97340   2.97800
 Alpha virt. eigenvalues --    2.98435   2.98478   2.98830   2.99198   2.99417
 Alpha virt. eigenvalues --    2.99532   2.99925   3.00382   3.01035   3.01441
 Alpha virt. eigenvalues --    3.01561   3.01844   3.02044   3.02206   3.02847
 Alpha virt. eigenvalues --    3.03410   3.03492   3.03863   3.04237   3.04701
 Alpha virt. eigenvalues --    3.05530   3.05662   3.06328   3.06640   3.06906
 Alpha virt. eigenvalues --    3.07093   3.07534   3.07950   3.08195   3.08670
 Alpha virt. eigenvalues --    3.09195   3.09988   3.10263   3.10363   3.10729
 Alpha virt. eigenvalues --    3.11398   3.11703   3.12628   3.13006   3.13318
 Alpha virt. eigenvalues --    3.14314   3.14999   3.15036   3.15142   3.15729
 Alpha virt. eigenvalues --    3.15821   3.15978   3.16624   3.16738   3.16984
 Alpha virt. eigenvalues --    3.17196   3.17636   3.17736   3.18329   3.18626
 Alpha virt. eigenvalues --    3.19224   3.19706   3.20141   3.20467   3.21006
 Alpha virt. eigenvalues --    3.21757   3.21928   3.22496   3.22753   3.22915
 Alpha virt. eigenvalues --    3.23330   3.23618   3.24246   3.24571   3.24824
 Alpha virt. eigenvalues --    3.25271   3.25920   3.26377   3.26538   3.27094
 Alpha virt. eigenvalues --    3.28549   3.29204   3.30034   3.30165   3.30944
 Alpha virt. eigenvalues --    3.32072   3.32969   3.33602   3.33674   3.33892
 Alpha virt. eigenvalues --    3.34818   3.34904   3.36430   3.39823   3.41115
 Alpha virt. eigenvalues --    3.42143   3.42742   3.48035   3.49401   3.51944
 Alpha virt. eigenvalues --    3.53022   3.53240   3.54965   3.55573   3.57524
 Alpha virt. eigenvalues --    3.58053   3.58168   3.58699   3.59499   3.60110
 Alpha virt. eigenvalues --    3.60325   3.60790   3.61323   3.62411   3.63380
 Alpha virt. eigenvalues --    3.63879   3.66457   3.66895   3.67605   3.67749
 Alpha virt. eigenvalues --    3.68664   3.69346   3.70068   3.70488   3.70709
 Alpha virt. eigenvalues --    3.71208   3.71586   3.71732   3.71920   3.72100
 Alpha virt. eigenvalues --    3.72314   3.72598   3.73468   3.74000   3.74489
 Alpha virt. eigenvalues --    3.76675   3.82759   3.83341   3.86066
          Condensed to atoms (all electrons):
 Mulliken charges:
               1
     1  C    0.038805
     2  C    0.030280
     3  O   -0.289002
     4  H    0.033862
     5  H    0.012031
     6  H    0.040159
     7  N   -0.098630
     8  C    0.068477
     9  C    0.068778
    10  O   -0.294237
    11  C    0.077640
    12  C    0.167552
    13  O   -0.479164
    14  O   -0.374963
    15  H    0.113594
    16  H   -0.009807
    17  H    0.021919
    18  H    0.006502
    19  N   -0.131587
    20  C    0.140692
    21  C    0.061684
    22  O   -0.301786
    23  C    0.035049
    24  C    0.031645
    25  C   -0.018642
    26  C    0.047333
    27  N    0.074645
    28  H    0.145064
    29  H    0.012171
    30  H   -0.002994
    31  H    0.005258
    32  H    0.020895
    33  H    0.034906
    34  H    0.016342
    35  H    0.020055
    36  H    0.066043
    37  H    0.085088
    38  H    0.183669
    39  H    0.190120
    40  H    0.169115
    41  N   -0.138089
    42  C    0.170728
    43  C    0.050589
    44  O   -0.279664
    45  C    0.012508
    46  C    0.117077
    47  O   -0.370979
    48  O   -0.477563
    49  H    0.153289
    50  H    0.009376
    51  H   -0.011431
    52  H    0.012337
    53  N   -0.156771
    54  C    0.230636
    55  C    0.047828
    56  O   -0.277334
    57  H    0.145181
    58  H   -0.001737
    59  H    0.036140
    60  N   -0.165515
    61  C    0.122316
    62  C    0.069920
    63  O   -0.316741
    64  C    0.107439
    65  C    0.056721
    66  N   -0.018700
    67  O   -0.378060
    68  H    0.140073
    69  H    0.035690
    70  H    0.079134
    71  H    0.004491
    72  H    0.130859
    73  H    0.122107
    74  N   -0.163745
    75  C    0.197853
    76  C    0.044746
    77  O   -0.273191
    78  H    0.146026
    79  H    0.032160
    80  H    0.034888
    81  N   -0.166010
    82  C    0.123297
    83  C    0.114733
    84  O   -0.316884
    85  C    0.165926
    86  C   -0.001525
    87  C    0.007101
    88  C   -0.003389
    89  C   -0.040774
    90  C   -0.070362
    91  C    0.191254
    92  O   -0.194095
    93  H    0.154555
    94  H   -0.002092
    95  H   -0.035828
    96  H   -0.062124
    97  H   -0.042159
    98  H   -0.014221
    99  H   -0.031039
   100  H   -0.032412
   101  H    0.172374
   102  N   -0.119788
   103  C    0.186085
   104  C    0.024066
   105  O   -0.288617
   106  C   -0.149934
   107  C    0.009802
   108  C    0.080497
   109  C    0.031461
   110  H    0.129841
   111  H    0.022052
   112  H   -0.009797
   113  H   -0.005729
   114  H    0.007703
   115  H    0.003480
   116  H    0.018955
   117  H    0.027018
   118  H   -0.007213
   119  H    0.008843
   120  H    0.007726
   121  N   -0.140863
   122  C    0.084053
   123  C    0.067025
   124  O   -0.273838
   125  C    0.239338
   126  O   -0.286961
   127  H    0.158695
   128  H    0.023604
   129  H    0.010906
   130  H   -0.008882
   131  H    0.189475
   132  N   -0.120955
   133  C    0.070120
   134  C    0.080316
   135  O   -0.241364
   136  C    0.036879
   137  H    0.113749
   138  H    0.031236
   139  H    0.040764
   140  H    0.014815
   141  H    0.052933
   142  N   -0.123579
   143  C    0.086516
   144  C    0.061049
   145  O   -0.267837
   146  C    0.036501
   147  H    0.105036
   148  H    0.011528
   149  H    0.025312
   150  H    0.026238
   151  H   -0.011797
   152  N   -0.166008
   153  C    0.161096
   154  C    0.077830
   155  O   -0.270903
   156  C   -0.038493
   157  C    0.146309
   158  C    0.089953
   159  O   -0.412387
   160  O   -0.408821
   161  H    0.136638
   162  H   -0.042500
   163  H    0.038518
   164  H    0.024712
   165  H   -0.043583
   166  H   -0.042545
   167  N   -0.175648
   168  C    0.152737
   169  H    0.027086
   170  H    0.012185
   171  H   -0.002125
   172  H    0.124452
   173  Ca   1.288119
   174  O   -0.313401
   175  H    0.177089
   176  H    0.177750
 Sum of Mulliken charges =  -0.00000
 Mulliken charges with hydrogens summed into heavy atoms:
               1
     1  C    0.124856
     2  C    0.030280
     3  O   -0.289002
     7  N    0.014964
     8  C    0.058670
     9  C    0.068778
    10  O   -0.294237
    11  C    0.106061
    12  C    0.167552
    13  O   -0.479164
    14  O   -0.374963
    19  N    0.013477
    20  C    0.152863
    21  C    0.061684
    22  O   -0.301786
    23  C    0.037312
    24  C    0.087447
    25  C    0.017755
    26  C    0.198464
    27  N    0.617549
    41  N    0.015200
    42  C    0.180104
    43  C    0.050589
    44  O   -0.279664
    45  C    0.013414
    46  C    0.117077
    47  O   -0.370979
    48  O   -0.477563
    53  N   -0.011590
    54  C    0.265040
    55  C    0.047828
    56  O   -0.277334
    60  N   -0.025441
    61  C    0.158007
    62  C    0.069920
    63  O   -0.316741
    64  C    0.191064
    65  C    0.056721
    66  N    0.234267
    67  O   -0.378060
    74  N   -0.017720
    75  C    0.264900
    76  C    0.044746
    77  O   -0.273191
    81  N   -0.011455
    82  C    0.121205
    83  C    0.114733
    84  O   -0.316884
    85  C    0.067975
    86  C   -0.001525
    87  C   -0.035058
    88  C   -0.017611
    89  C   -0.071813
    90  C   -0.102775
    91  C    0.191254
    92  O   -0.021721
   102  N    0.010053
   103  C    0.208136
   104  C    0.024066
   105  O   -0.288617
   106  C   -0.159732
   107  C    0.011776
   108  C    0.129950
   109  C    0.040817
   121  N    0.017832
   122  C    0.107657
   123  C    0.067025
   124  O   -0.273838
   125  C    0.241362
   126  O   -0.097486
   132  N   -0.007206
   133  C    0.101356
   134  C    0.080316
   135  O   -0.241364
   136  C    0.145390
   142  N   -0.018543
   143  C    0.098044
   144  C    0.061049
   145  O   -0.267837
   146  C    0.076253
   152  N   -0.029371
   153  C    0.118596
   154  C    0.077830
   155  O   -0.270903
   156  C    0.024737
   157  C    0.060181
   158  C    0.089953
   159  O   -0.412387
   160  O   -0.408821
   167  N   -0.051196
   168  C    0.189883
   173  Ca   1.288119
   174  O    0.041438
 DipInt: DoE/N= T F RetVal/Mat= T F Init=T NMatP=  1 IDeriv=0 Min/MaxMlt=  0  4
 Entering OneElI...
 OneElI was handed  1333951383 working-precision words.
 Multipole integrals L=0 to 4 MinM= 0 MaxM= 0.
 Requested accuracy = 0.1000D-12
 ShPair: Thresh= 1.00D-13 NBox=     0 BxSize= 0.00D+00 RnKept= 2.55D+01
         NSMCal=               327645 NSMKep=              159534
 PrmmSu-InSpLW:  IPartL=    0 NPrtUS=    1 NPrtUL=    1 DoSpLW=F IThBeg=    0 IThEnd=    0 NThAct=    1.
 PrsmSu:  NPrtUS=   1 ThrOK=F IAlg=1 NPAlg=1 LenDen=           0 ISkipM=0 DoSpLW=F IThBeg=    0 IThEnd=    0.
 Prism:   IPart=     0 DynPar=F LinDyn=F Incr=         512.
 PRISM was handed  1323920797 working-precision words and159534 shell-pairs
 IPart=  0 NShTot=      159534 NBatch=         366 AvBLen=       435.9
 PrsmSu-ThDecC:  IPartSL=    0    0 NPrtUSL=    1    1 IThBeg=    0 IThEnd=    0 CPU=   -1 GPU=   -1 NThAct=    1.
 PrSmSu:  NxtVal=            513.
 Electronic moments (au):
       -716.00000000         14.63945817         -2.22465325         -6.31928447
     -52518.46652777     -32172.22302510     -11310.89814794         81.66971521
        -79.38955246          0.07686521     -43006.84631523     -30996.23211399
     -21554.40000053      19769.72750610     106742.64732340      45677.79442191
     -14317.97984412      -4568.56364848      28676.19997437       2627.28935649
   -7620076.92119788   -2984942.71014131    -529405.27337281    -171239.67090798
     119436.90348113    -491612.26974277      49514.35993631     -62893.43687627
      16956.53380612   -2344268.78470873    -646483.90585584    -395762.59735974
    -198588.10889907      -6492.56689929     -11668.72883404
 Electronic spatial extent (au):  <R**2>=          96001.5877
 DipInt: DoE/N= F T RetVal/Mat= T F Init=T NMatP=  1 IDeriv=0 Min/MaxMlt=  0  4
 Nuclear    moments (au):
        716.00000000          0.00000000          0.00000000          0.00000000
      52082.40922391      31795.64875218      10932.31873494          0.00000000
         -0.00000000          0.00000000      44264.71110305      31324.26055516
      21544.81202789     -17597.67024159    -106320.37776473     -46834.19158264
      14838.85575762       4591.61797057     -29207.92388482      -3157.41623079
    7424464.80550297    2875945.49405091     491844.11808676     181554.19174856
    -129481.74761187     501699.30974126     -52676.60304862      60122.24540514
     -16054.27251172    2305012.74574515     614017.41856030     372787.40857820
     195255.67692235      -1454.12871017      13314.75733858
 Total      moments (au):
          0.00000000         14.63945817         -2.22465325         -6.31928447
       -436.05730386       -376.57427292       -378.57941300         81.66971521
        -79.38955246          0.07686521       1257.86478781        328.02844117
         -9.58797263       2172.05726451        422.26955867      -1156.39716073
        520.87591349         23.05432209       -531.72391045       -530.12687430
    -195612.11569491    -108997.21609040     -37561.15528605      10314.52084057
     -10044.84413074      10087.03999849      -3162.24311231      -2771.19147113
        902.26129440     -39256.03896358     -32466.48729554     -22975.18878154
      -3332.43197672      -7946.69560946       1646.02850454
 Traceless Quadrup. (au):
        -38.98697393         20.49605701         18.49091693         81.66971521
        -79.38955246          0.07686521
 Charge=              0.0000 electrons
 Dipole moment (field-independent basis, Debye):
    X=             37.2098    Y=             -5.6545    Z=            -16.0620  Tot=             40.9210
 Quadrupole moment (field-independent basis, Debye-Ang):
   XX=           -586.5120   YY=           -506.5053   ZZ=           -509.2023
   XY=            109.8486   XZ=           -106.7817   YZ=              0.1034
 Traceless Quadrupole moment (field-independent basis, Debye-Ang):
   XX=            -52.4388   YY=             27.5679   ZZ=             24.8709
   XY=            109.8486   XZ=           -106.7817   YZ=              0.1034
 Octapole moment (field-independent basis, Debye-Ang**2):
  XXX=            895.2997  YYY=            233.4780  ZZZ=             -6.8243  XYY=           1545.9867
  XXY=            300.5552  XXZ=           -823.0789  XZZ=            370.7394  YZZ=             16.4092
  YYZ=           -378.4606  XYZ=           -377.3239
 Hexadecapole moment (field-independent basis, Debye-Ang**3):
 XXXX=         -73676.9027 YYYY=         -41053.5782 ZZZZ=         -14147.3322 XXXY=           3884.9431
 XXXZ=          -3783.3700 YYYX=           3799.2630 YYYZ=          -1191.0524 ZZZX=          -1043.7636
 ZZZY=            339.8349 XXYY=         -14785.7067 XXZZ=         -12228.4359 YYZZ=          -8653.5578
 XXYZ=          -1255.1537 YYXZ=          -2993.1066 ZZXY=            619.9733
 N-N= 2.165226287340D+04 E-N=-5.578499050382D+04  KE= 5.290663402582D+03
 Leave Link  601 at Wed Sep 18 16:09:30 2019, MaxMem=  1342177280 cpu:              41.2 elap:               1.1
 FitSet:  NAtFit=   176 NAtPot=   176 NAtFrz=     0 MDM=   180 TotChg=   0.00000
 Merz-Kollman atomic radii used.
 Read replacement radii for each type of atom:
 Rad(20) =   1.700000000000D+00
 Atom Element Radius
    1     6    1.50
    2     6    1.50
    3     8    1.40
    4     1    1.20
    5     1    1.20
    6     1    1.20
    7     7    1.50
    8     6    1.50
    9     6    1.50
   10     8    1.40
   11     6    1.50
   12     6    1.50
   13     8    1.40
   14     8    1.40
   15     1    1.20
   16     1    1.20
   17     1    1.20
   18     1    1.20
   19     7    1.50
   20     6    1.50
   21     6    1.50
   22     8    1.40
   23     6    1.50
   24     6    1.50
   25     6    1.50
   26     6    1.50
   27     7    1.50
   28     1    1.20
   29     1    1.20
   30     1    1.20
   31     1    1.20
   32     1    1.20
   33     1    1.20
   34     1    1.20
   35     1    1.20
   36     1    1.20
   37     1    1.20
   38     1    1.20
   39     1    1.20
   40     1    1.20
   41     7    1.50
   42     6    1.50
   43     6    1.50
   44     8    1.40
   45     6    1.50
   46     6    1.50
   47     8    1.40
   48     8    1.40
   49     1    1.20
   50     1    1.20
   51     1    1.20
   52     1    1.20
   53     7    1.50
   54     6    1.50
   55     6    1.50
   56     8    1.40
   57     1    1.20
   58     1    1.20
   59     1    1.20
   60     7    1.50
   61     6    1.50
   62     6    1.50
   63     8    1.40
   64     6    1.50
   65     6    1.50
   66     7    1.50
   67     8    1.40
   68     1    1.20
   69     1    1.20
   70     1    1.20
   71     1    1.20
   72     1    1.20
   73     1    1.20
   74     7    1.50
   75     6    1.50
   76     6    1.50
   77     8    1.40
   78     1    1.20
   79     1    1.20
   80     1    1.20
   81     7    1.50
   82     6    1.50
   83     6    1.50
   84     8    1.40
   85     6    1.50
   86     6    1.50
   87     6    1.50
   88     6    1.50
   89     6    1.50
   90     6    1.50
   91     6    1.50
   92     8    1.40
   93     1    1.20
   94     1    1.20
   95     1    1.20
   96     1    1.20
   97     1    1.20
   98     1    1.20
   99     1    1.20
  100     1    1.20
  101     1    1.20
  102     7    1.50
  103     6    1.50
  104     6    1.50
  105     8    1.40
  106     6    1.50
  107     6    1.50
  108     6    1.50
  109     6    1.50
  110     1    1.20
  111     1    1.20
  112     1    1.20
  113     1    1.20
  114     1    1.20
  115     1    1.20
  116     1    1.20
  117     1    1.20
  118     1    1.20
  119     1    1.20
  120     1    1.20
  121     7    1.50
  122     6    1.50
  123     6    1.50
  124     8    1.40
  125     6    1.50
  126     8    1.40
  127     1    1.20
  128     1    1.20
  129     1    1.20
  130     1    1.20
  131     1    1.20
  132     7    1.50
  133     6    1.50
  134     6    1.50
  135     8    1.40
  136     6    1.50
  137     1    1.20
  138     1    1.20
  139     1    1.20
  140     1    1.20
  141     1    1.20
  142     7    1.50
  143     6    1.50
  144     6    1.50
  145     8    1.40
  146     6    1.50
  147     1    1.20
  148     1    1.20
  149     1    1.20
  150     1    1.20
  151     1    1.20
  152     7    1.50
  153     6    1.50
  154     6    1.50
  155     8    1.40
  156     6    1.50
  157     6    1.50
  158     6    1.50
  159     8    1.40
  160     8    1.40
  161     1    1.20
  162     1    1.20
  163     1    1.20
  164     1    1.20
  165     1    1.20
  166     1    1.20
  167     7    1.50
  168     6    1.50
  169     1    1.20
  170     1    1.20
  171     1    1.20
  172     1    1.20
  173    20    1.70
  174     8    1.40
[...]
 **** Fit      -0.029301
 **** Fit      -0.030515
 **** Fit      -0.032441
 **** Fit      -0.035133
 **** Fit      -0.028775
 **** Fit      -0.029973
 **** Fit      -0.030358
 **** Fit      -0.030189
 **** Fit      -0.029650
 **** Fit      -0.028891
 **** Fit      -0.028047
 **** Fit      -0.027254
 **** Fit      -0.026649
 **** Fit      -0.026376
 **** Fit      -0.026593
 **** Fit      -0.027476
 **** Fit      -0.029231
 **** Fit      -0.032116
 **** Fit      -0.036421
 **** Fit      -0.029381
 **** Fit      -0.030283
 **** Fit      -0.030363
 **** Fit      -0.029861
 **** Fit      -0.028954
 **** Fit      -0.027791
 **** Fit      -0.026518
 **** Fit      -0.025280
 **** Fit      -0.024233
 **** Fit      -0.023548
 **** Fit      -0.023412
 **** Fit      -0.024041
 **** Fit      -0.025695
 **** Fit      -0.028708
 **** Fit      -0.033512
 **** Fit      -0.030548
 **** Fit      -0.031002
 **** Fit      -0.030670
 **** Fit      -0.029740
 **** Fit      -0.028372
 **** Fit      -0.026710
 **** Fit      -0.024900
 **** Fit      -0.023095
 **** Fit      -0.021465
 **** Fit      -0.020195
 **** Fit      -0.019490
 **** Fit      -0.019580
 **** Fit      -0.020727
 **** Fit      -0.023244
 **** Fit      -0.027508
 **** Fit      -0.032439
 **** Fit      -0.032330
 **** Fit      -0.031436
 **** Fit      -0.029907
 **** Fit      -0.027891
 **** Fit      -0.025537
 **** Fit      -0.023003
 **** Fit      -0.020459
 **** Fit      -0.018097
 **** Fit      -0.016130
 **** Fit      -0.014791
 **** Fit      -0.014328
 **** Fit      -0.015000
 **** Fit      -0.017072
 **** Fit      -0.020773
 **** Fit      -0.035374
 **** Fit      -0.034571
 **** Fit      -0.032904
 **** Fit      -0.030515
 **** Fit      -0.027568
 **** Fit      -0.024237
 **** Fit      -0.020706
 **** Fit      -0.017182
 **** Fit      -0.013895
 **** Fit      -0.011102
 **** Fit      -0.009075
 **** Fit      -0.008084
 **** Fit      -0.008369
 **** Fit      -0.010077
 **** Fit      -0.035227
 **** Fit      -0.035609
 **** Fit      -0.032061
 **** Fit      -0.027881
 **** Fit      -0.023289
 **** Fit      -0.018507
 **** Fit      -0.013773
 **** Fit      -0.009356
 **** Fit      -0.005552
 **** Fit      -0.002657
 **** Fit      -0.000938
 **** Fit      -0.028043
 **** Fit      -0.021437
 **** Fit      -0.014784
 **** Fit      -0.008396
 **** Fit      -0.002623
 **** Fit      -0.022621
 **** Fit       0.019908
 **** Fit       0.021606
 **** Fit       0.050176
 **** Fit       0.031569
 **** Fit       0.030298
 **** Fit       0.048887
 **** Fit       0.043507
 **** Fit       0.038879
 **** Fit       0.016316
 **** Fit       0.023006
 **** Fit       0.008231
 **** Fit       0.000024
 **** Fit      -0.010659
 **** Fit      -0.023038
 **** Fit       0.002790
 **** Fit      -0.006183
 **** Fit      -0.017800
 **** Fit      -0.031043
 **** Fit       0.005767
 **** Fit      -0.000834
 **** Fit      -0.010660
 **** Fit      -0.023254
 **** Fit       0.007626
 **** Fit       0.011005
 **** Fit       0.009884
 **** Fit      -0.002862
 **** Fit      -0.012950
 **** Fit      -0.024516
 **** Fit      -0.022888
 **** Fit      -0.008585
 **** Fit      -0.000469
 **** Fit      -0.012462
 **** Fit      -0.006090
 **** Fit       0.000620
 **** Fit       0.006390
 **** Fit       0.009328
 **** Fit       0.009310
 **** Fit       0.003824
 **** Fit       0.013119
 **** Fit       0.020125
 **** Fit       0.000842
 **** Fit       0.013512
 **** Fit       0.024409
 **** Fit       0.033121
 **** Fit       0.023547
 **** Fit       0.036525
 **** Fit       0.037131
 **** Fit       0.052655
 **** Fit       0.067887
 **** Fit      -0.024483
 **** Fit      -0.013411
 **** Fit      -0.010070
 **** Fit       0.002966
 **** Fit       0.069576
 **** Fit       0.060598
 **** Fit       0.072479
 **** Fit       0.054758
 **** Fit       0.062943
 **** Fit       0.072708
 **** Fit       0.081431
 **** Fit       0.085499
 **** Fit       0.082629
 **** Fit       0.055637
 **** Fit       0.062193
 **** Fit       0.069043
 **** Fit       0.073354
 **** Fit       0.072366
 **** Fit       0.065296
 **** Fit       0.053432
 **** Fit       0.038951
 **** Fit       0.024290
 **** Fit       0.011990
 **** Fit       0.054516
 **** Fit       0.059226
 **** Fit       0.062718
 **** Fit       0.062029
 **** Fit       0.055700
 **** Fit       0.044888
 **** Fit       0.032490
 **** Fit       0.021982
 **** Fit       0.016567
 **** Fit       0.050990
 **** Fit       0.051808
 **** Fit       0.054301
 **** Fit       0.053080
 **** Fit       0.046042
 **** Fit       0.035843
 **** Fit       0.028163
 **** Fit       0.027495
 **** Fit       0.049290
 **** Fit       0.047725
 **** Fit       0.046474
 **** Fit       0.039125
 **** Fit       0.035621
 **** Fit       0.040742
 **** Fit       0.045416
 **** Fit       0.042340
 **** Fit      -0.035359
 **** Fit      -0.003749
 **** Fit      -0.004017
 **** Fit      -0.005969
 **** Fit      -0.000332
 **** Fit      -0.001009
 **** Fit      -0.002279
 **** Fit      -0.004162
 **** Fit      -0.006147
 **** Fit      -0.008286
 **** Fit      -0.010189
 **** Fit       0.001020
 **** Fit       0.000730
 **** Fit       0.000037
 **** Fit      -0.001045
 **** Fit      -0.002456
 **** Fit      -0.004228
 **** Fit      -0.006219
 **** Fit      -0.008569
 **** Fit      -0.011158
 **** Fit      -0.013589
 **** Fit       0.002214
 **** Fit       0.002209
 **** Fit       0.001882
 **** Fit       0.001191
 **** Fit       0.000177
 **** Fit      -0.001083
 **** Fit      -0.002544
 **** Fit      -0.004253
 **** Fit      -0.014112
 **** Fit      -0.017218
 **** Fit      -0.019782
 **** Fit       0.003379
 **** Fit       0.003525
 **** Fit       0.003406
 **** Fit       0.002955
 **** Fit       0.002178
 **** Fit       0.001147
 **** Fit      -0.000046
 **** Fit      -0.001337
 **** Fit      -0.002718
 **** Fit      -0.022858
 **** Fit      -0.026450
 **** Fit       0.003886
 **** Fit       0.004329
 **** Fit       0.004733
 **** Fit       0.002393
 **** Fit       0.001118
 **** Fit      -0.000205
 **** Fit      -0.001522
 **** Fit      -0.002849
 **** Fit       0.004577
 **** Fit       0.005117
 **** Fit       0.005743
 **** Fit       0.002251
 **** Fit       0.000791
 **** Fit      -0.000596
 **** Fit      -0.001882
 **** Fit       0.006202
 **** Fit       0.000293
 **** Fit      -0.001151
 **** Fit      -0.000594
 **** Fit      -0.002049
 **** Fit      -0.001821
 **** Fit      -0.003303
 **** Fit      -0.003390
 **** Fit      -0.004984
 **** Fit      -0.005851
 **** Fit      -0.007491
 **** Fit      -0.009633
 **** Fit      -0.011173
 **** Fit      -0.017191
 **** Fit      -0.006454
 **** Fit      -0.008835
 **** Fit      -0.011522
 **** Fit      -0.006174
 **** Fit      -0.008254
 **** Fit      -0.010858
 **** Fit      -0.013887
 **** Fit      -0.016880
 **** Fit      -0.004531
 **** Fit      -0.006013
 **** Fit      -0.007912
 **** Fit      -0.010347
 **** Fit      -0.013411
 **** Fit      -0.017075
 **** Fit      -0.021043
 **** Fit      -0.003235
 **** Fit      -0.004506
 **** Fit      -0.006035
 **** Fit      -0.007816
 **** Fit      -0.010128
 **** Fit      -0.013128
 **** Fit      -0.016953
 **** Fit      -0.021652
 **** Fit      -0.027033
 **** Fit      -0.003436
 **** Fit      -0.004627
 **** Fit      -0.006307
 **** Fit      -0.007949
 **** Fit      -0.010087
 **** Fit      -0.012889
 **** Fit      -0.016553
 **** Fit      -0.021294
 **** Fit      -0.027298
 **** Fit      -0.002891
 **** Fit      -0.003916
 **** Fit      -0.005009
 **** Fit      -0.006902
 **** Fit      -0.008507
 **** Fit      -0.010628
 **** Fit      -0.013454
 **** Fit      -0.017232
 **** Fit      -0.022290
 **** Fit      -0.003648
 **** Fit      -0.004616
 **** Fit      -0.005653
 **** Fit      -0.007908
 **** Fit      -0.009451
 **** Fit      -0.011512
 **** Fit      -0.014282
 **** Fit      -0.018023
 **** Fit      -0.023116
 **** Fit      -0.004901
 **** Fit      -0.005774
 **** Fit      -0.006728
 **** Fit      -0.009433
 **** Fit      -0.010940
 **** Fit      -0.012992
 **** Fit      -0.015781
 **** Fit      -0.019583
 **** Fit      -0.024819
 **** Fit      -0.005906
 **** Fit      -0.006713
 **** Fit      -0.007461
 **** Fit      -0.008320
 **** Fit      -0.011617
 **** Fit      -0.013154
 **** Fit      -0.015336
 **** Fit      -0.018376
 **** Fit      -0.022594
 **** Fit      -0.028512
 **** Fit      -0.009276
 **** Fit      -0.009834
 **** Fit      -0.010560
 **** Fit      -0.014630
 **** Fit      -0.016214
 **** Fit      -0.018609
 **** Fit      -0.022044
 **** Fit      -0.026883
 **** Fit      -0.013056
 **** Fit      -0.013223
 **** Fit      -0.013686
 **** Fit      -0.018680
 **** Fit      -0.020248
 **** Fit      -0.022837
 **** Fit      -0.026642
 **** Fit      -0.031975
 **** Fit      -0.018034
 **** Fit      -0.017987
 **** Fit      -0.023969
 **** Fit      -0.025563
 **** Fit      -0.028627
 **** Fit      -0.033246
 **** Fit      -0.023773
 **** Fit      -0.030587
 **** Fit      -0.032031
 **** Fit      -0.003503
 **** Fit      -0.004087
 **** Fit      -0.005495
 **** Fit      -0.004836
 **** Fit      -0.002906
 **** Fit      -0.001851
 **** Fit      -0.002377
 **** Fit      -0.004643
 **** Fit      -0.006607
 **** Fit      -0.007940
 **** Fit      -0.007924
 **** Fit      -0.006480
 **** Fit      -0.004310
 **** Fit      -0.002303
 **** Fit      -0.000988
 **** Fit      -0.000449
 **** Fit      -0.000591
 **** Fit      -0.001369
 **** Fit      -0.002765
 **** Fit      -0.007350
 **** Fit      -0.009468
 **** Fit      -0.010997
 **** Fit      -0.011421
 **** Fit      -0.010529
 **** Fit      -0.008575
 **** Fit      -0.006108
 **** Fit      -0.003683
 **** Fit      -0.001697
 **** Fit      -0.000326
 **** Fit       0.000455
 **** Fit       0.000774
 **** Fit       0.000733
 **** Fit       0.000354
 **** Fit      -0.000400
 **** Fit      -0.013267
 **** Fit      -0.015136
 **** Fit      -0.015826
 **** Fit      -0.015087
 **** Fit      -0.013094
 **** Fit      -0.010334
 **** Fit      -0.007327
 **** Fit      -0.004480
 **** Fit      -0.002082
 **** Fit      -0.000290
 **** Fit       0.000883
 **** Fit       0.001539
 **** Fit       0.001834
 **** Fit       0.001897
 **** Fit       0.001767
 **** Fit      -0.020990
 **** Fit      -0.021795
 **** Fit      -0.020825
 **** Fit      -0.018331
 **** Fit      -0.014927
 **** Fit      -0.011221
 **** Fit      -0.007611
 **** Fit      -0.004367
 **** Fit      -0.001690
 **** Fit       0.000325
 **** Fit       0.001672
 **** Fit       0.002431
 **** Fit       0.002769
 **** Fit       0.002899
 **** Fit       0.002940
 **** Fit      -0.025639
 **** Fit      -0.021316
 **** Fit      -0.016708
 **** Fit      -0.012250
 **** Fit      -0.008133
 **** Fit      -0.004534
 **** Fit      -0.001570
 **** Fit       0.000729
 **** Fit       0.003793
 **** Fit       0.003879
 **** Fit      -0.020163
 **** Fit      -0.014639
 **** Fit      -0.009704
 **** Fit      -0.005480
 **** Fit      -0.002035
 **** Fit      -0.017255
 **** Fit      -0.011574
 **** Fit      -0.006830
 **** Fit      -0.016560
 **** Fit      -0.010767
 **** Fit       0.005088
 **** Fit       0.004819
 **** Fit       0.004059
 **** Fit       0.006015
 **** Fit       0.006482
 **** Fit       0.006513
 **** Fit       0.006075
 **** Fit       0.005212
 **** Fit       0.004023
 **** Fit       0.006890
 **** Fit       0.007684
 **** Fit       0.008099
 **** Fit       0.008052
 **** Fit       0.007530
 **** Fit       0.006582
 **** Fit       0.005301
 **** Fit       0.003803
 **** Fit       0.002211
 **** Fit       0.007584
 **** Fit       0.008717
 **** Fit       0.009518
 **** Fit       0.009870
 **** Fit       0.009721
 **** Fit       0.009082
 **** Fit       0.008014
 **** Fit       0.006611
 **** Fit       0.004981
 **** Fit       0.003235
 **** Fit       0.001482
 **** Fit       0.008358
 **** Fit       0.009952
 **** Fit       0.011134
 **** Fit       0.011767
 **** Fit       0.011790
 **** Fit       0.011210
 **** Fit       0.010094
 **** Fit       0.008550
 **** Fit       0.006705
 **** Fit       0.004687
 **** Fit       0.002615
 **** Fit       0.000600
 **** Fit       0.011228
 **** Fit       0.012913
 **** Fit       0.013916
 **** Fit       0.014166
 **** Fit       0.013664
 **** Fit       0.012488
 **** Fit       0.010771
 **** Fit       0.008665
 **** Fit       0.006323
 **** Fit       0.003886
 **** Fit       0.001475
 **** Fit      -0.000800
 **** Fit       0.011576
 **** Fit       0.014213
 **** Fit       0.016043
 **** Fit       0.016927
 **** Fit       0.016802
 **** Fit       0.015725
 **** Fit       0.013860
 **** Fit       0.011424
 **** Fit       0.008625
 **** Fit       0.005652
 **** Fit       0.002668
 **** Fit      -0.000192
 **** Fit      -0.002819
 **** Fit       0.015956
 **** Fit       0.018789
 **** Fit       0.018897
 **** Fit       0.016280
 **** Fit       0.012892
 **** Fit       0.009076
 **** Fit       0.005109
 **** Fit       0.001219
 **** Fit      -0.002411
 **** Fit      -0.005645
 **** Fit       0.009949
 **** Fit       0.004393
 **** Fit      -0.000958
 **** Fit      -0.005810
 **** Fit      -0.009960
 **** Fit       0.012596
 **** Fit      -0.000140
 **** Fit      -0.015181
 **** Fit       0.022207
 **** Fit       0.005515
 **** Fit      -0.008476
 **** Fit       0.020987
 **** Fit       0.015424
 **** Fit      -0.003495
 **** Fit       0.011327
 **** Fit       0.014201
 **** Fit       0.014942
 **** Fit       0.013257
 **** Fit       0.007601
 **** Fit      -0.005326
 **** Fit       0.001913
 **** Fit       0.003374
 **** Fit      -0.001242
 **** Fit       0.025510
 **** Fit       0.025784
 **** Fit       0.019771
 **** Fit       0.016204
 **** Fit       0.015946
 **** Fit       0.019111
 **** Fit       0.027186
 **** Fit       0.022013
 **** Fit       0.021025
 **** Fit       0.024733
 **** Fit       0.031377
 **** Fit       0.036031
 **** Fit       0.029682
 **** Fit       0.026971
 **** Fit       0.031568
 **** Fit       0.039303
 **** Fit       0.033177
 **** Fit       0.029692
 **** Fit       0.030753
 **** Fit       0.033510
 **** Fit       0.034851
 **** Fit       0.036929
 **** Fit       0.036604
 **** Fit       0.038119
 **** Fit       0.040436
 **** Fit       0.039699
 **** Fit       0.039353
 **** Fit       0.040393
 **** Fit       0.042440
 **** Fit       0.045575
 **** Fit       0.042970
 **** Fit       0.041906
 **** Fit       0.042631
 **** Fit       0.044645
 **** Fit       0.047860
 **** Fit       0.044821
 **** Fit       0.043568
 **** Fit       0.044013
 **** Fit       0.045821
 **** Fit       0.048759
 **** Fit       0.044018
 **** Fit       0.044138
 **** Fit       0.045451
 **** Fit       0.047795
 **** Fit       0.045943
 **** Fit       0.032530
 **** Fit       0.036288
 **** Fit       0.040372
 **** Fit       0.042482
 **** Fit       0.043750
 **** Fit       0.045556
 **** Fit       0.047588
 **** Fit       0.048228
 **** Fit       0.042825
 **** Fit       0.038230
 **** Fit       0.036664
 **** Fit       0.039668
 **** Fit       0.042518
 **** Fit       0.044264
 **** Fit       0.040615
 -----------------------------------------------------------------
 Leave Link  602 at Wed Sep 18 16:09:32 2019, MaxMem=  1342177280 cpu:             125.1 elap:               2.6

 Test job not archived.
 1\1\GINC-C490-032\SP\RB3LYP\SVP\C54H83Ca1N15O23\JAEBEOMH\18-Sep-2019\0
 \\#b3lyp/svp scf=(tight,noincore) Test #IOP(5/87=12) Density=Current P
 op=(MK,readradii) iop(6/33=2) iop(6/42=6)\\CaMKII_loop3_48.0\\0,1\C,0,
 69.53,50.1,22.95\C,0,68.07,49.67,23.04\O,0,67.77,48.51,23.29\H,0,70.14
 ,49.25,22.645\H,0,69.629,50.9,22.216\H,0,69.865,50.456,23.924\N,0,67.1
 7,50.65,23.07\C,0,65.84,50.45,23.6\C,0,64.99,49.78,22.53\O,0,64.42,50.
 45,21.67\C,0,65.31,51.79,24.12\C,0,63.95,51.69,24.81\O,0,63.45,50.55,2
 4.86\O,0,63.44,52.77,25.17\H,0,67.48,51.61,23.03\H,0,65.82,49.77,24.45
 \H,0,65.16,52.46,23.28\H,0,66.04,52.07,24.88\N,0,64.83,48.46,22.6\C,0,
 64.28,47.63,21.54\C,0,62.78,47.78,21.36\O,0,62.25,47.31,20.36\C,0,64.7
 1,46.17,21.65\C,0,64.84,45.58,20.25\C,0,65.46,44.19,20.32\C,0,64.46,43
 .1,20.71\N,0,65.17,41.87,21.08\H,0,65.24,47.98,23.39\H,0,64.74,48.03,2
 0.64\H,0,64.1,45.56,22.33\H,0,65.65,46.12,22.2\H,0,65.46,46.17,19.58\H
 ,0,63.86,45.51,19.76\H,0,66.29,44.14,21.03\H,0,65.87,43.98,19.33\H,0,6
 3.86,42.8,19.85\H,0,63.8,43.37,21.53\H,0,65.6,41.4,20.3\H,0,65.84,42.,
 21.83\H,0,64.64,41.11,21.47\N,0,62.1,48.42,22.32\C,0,60.69,48.73,22.2\
 C,0,60.33,50.18,22.51\O,0,59.2,50.63,22.38\C,0,59.89,47.83,23.14\C,0,6
 0.23,47.77,24.62\O,0,59.74,46.9,25.36\O,0,61.26,48.37,25.\H,0,62.55,48
 .6,23.2\H,0,60.34,48.46,21.21\H,0,59.85,46.78,22.83\H,0,58.86,48.13,22
 .93\N,0,61.31,51.02,22.87\C,0,61.11,52.43,23.1\C,0,60.26,52.8,24.31\O,
 0,59.41,53.68,24.34\H,0,62.23,50.6,22.94\H,0,60.67,52.79,22.17\H,0,62.
 02,53.03,23.18\N,0,60.45,51.98,25.35\C,0,59.79,52.26,26.62\C,0,60.37,5
 3.29,27.58\O,0,59.71,53.54,28.59\C,0,59.45,50.92,27.27\C,0,60.52,50.33
 ,28.17\N,0,60.2,49.87,29.38\O,0,61.73,50.37,27.95\H,0,61.28,51.41,25.4
 \H,0,58.85,52.78,26.4\H,0,59.23,50.18,26.5\H,0,58.54,51.12,27.82\H,0,5
 9.21,49.7,29.48\H,0,60.89,49.54,30.04\N,0,61.63,53.7,27.44\C,0,62.25,5
 4.64,28.36\C,0,63.19,54.08,29.42\O,0,63.62,54.77,30.33\H,0,62.12,53.49
 ,26.58\H,0,61.45,55.14,28.9\H,0,62.75,55.42,27.78\N,0,63.43,52.77,29.2
 5\C,0,64.17,51.91,30.16\C,0,65.02,51.,29.29\O,0,64.65,50.68,28.16\C,0,
 63.28,51.08,31.07\C,0,62.32,51.81,31.99\C,0,62.47,51.86,33.38\C,0,61.2
 ,52.37,31.37\C,0,61.53,52.54,34.17\C,0,60.3,53.09,32.16\C,0,60.47,53.2
 3,33.55\O,0,59.54,53.87,34.32\H,0,62.99,52.26,28.51\H,0,64.78,52.56,30
 .79\H,0,63.98,50.59,31.75\H,0,62.82,50.24,30.56\H,0,63.31,51.4,33.88\H
 ,0,60.96,52.36,30.31\H,0,61.59,52.5,35.25\H,0,59.46,53.55,31.67\H,0,59
 .02,54.38,33.7\N,0,66.12,50.43,29.79\C,0,66.91,49.31,29.32\C,0,66.81,4
 8.11,30.24\O,0,67.12,48.3,31.42\C,0,68.38,49.7,29.21\C,0,68.4,50.83,28
 .19\C,0,69.26,48.52,28.77\C,0,69.78,51.4,27.85\H,0,66.55,50.99,30.52\H
 ,0,66.64,48.96,28.32\H,0,68.79,50.16,30.11\H,0,67.79,51.65,28.58\H,0,6
 8.01,50.58,27.21\H,0,70.25,48.9,28.52\H,0,69.29,47.81,29.6\H,0,68.84,4
 8.13,27.85\H,0,70.37,51.54,28.76\H,0,70.36,50.75,27.21\H,0,69.73,52.36
 ,27.34\N,0,66.46,46.94,29.71\C,0,66.64,45.68,30.41\C,0,67.9,44.96,29.9
 4\O,0,68.43,45.27,28.88\C,0,65.39,44.8,30.33\O,0,64.87,45.01,29.04\H,0
 ,66.43,46.96,28.71\H,0,66.82,45.94,31.45\H,0,64.73,45.19,31.11\H,0,65.
 61,43.75,30.56\H,0,64.3,44.27,28.8\N,0,68.45,44.06,30.75\C,0,69.69,43.
 33,30.6\C,0,69.65,42.53,29.3\O,0,70.61,42.46,28.53\C,0,69.88,42.48,31.
 85\H,0,67.97,43.95,31.64\H,0,70.48,44.08,30.61\H,0,69.89,43.25,32.63\H
 ,0,69.09,41.74,31.96\H,0,70.85,42.,31.77\N,0,68.48,42.02,28.94\C,0,68.
 31,41.35,27.66\C,0,68.63,42.17,26.42\O,0,69.18,41.76,25.4\C,0,66.91,40
 .75,27.57\H,0,67.76,41.82,29.62\H,0,68.93,40.46,27.61\H,0,66.79,40.41,
 26.54\H,0,66.79,39.94,28.28\H,0,66.19,41.53,27.81\N,0,68.24,43.44,26.4
 9\C,0,68.49,44.41,25.44\C,0,69.97,44.77,25.41\O,0,70.6,44.97,24.38\C,0
 ,67.58,45.63,25.58\C,0,66.11,45.36,25.89\C,0,65.37,46.69,25.97\O,0,65.
 65,47.56,26.82\O,0,64.45,46.93,25.16\H,0,67.79,43.77,27.34\H,0,68.22,4
 3.99,24.47\H,0,67.67,46.09,24.6\H,0,67.97,46.33,26.32\H,0,66.07,44.95,
 26.9\H,0,65.64,44.7,25.16\N,0,70.59,44.87,26.59\C,0,71.98,45.27,26.64\
 H,0,72.572,44.602,26.014\H,0,72.078,46.292,26.274\H,0,72.338,45.216,27
 .668\H,0,70.12,44.83,27.48\Ca,0,63.24,48.71,26.62\O,0,63.82,47.96,29.0
 2\H,0,63.51,47.94,29.93\H,0,64.44,47.23,28.96\\Version=ES64L-G16RevA.0
 3\State=1-A\HF=-5333.5980562\RMSD=4.686e-09\Dipole=5.5929001,-14.99676
 97,1.7356673\Quadrupole=-107.3307887,72.31305,35.0177387,49.4342136,-2
 2.851472,46.4763662\PG=C01 [X(C54H83Ca1N15O23)]\\@


 HE THAT FOLLOWS NATURE IS NEVER LOST.

                             -- BACON
 Job cpu time:       0 days  8 hours 41 minutes 31.6 seconds.
 Elapsed time:       0 days  0 hours 10 minutes 59.4 seconds.
 File lengths (MBytes):  RWF=   1517 Int=      0 D2E=      0 Chk=    171 Scr=      1
 Normal termination of Gaussian 16 at Wed Sep 18 16:09:33 2019.
