 Entering Gaussian System, Link 0=g09
 Initial command:
 /home/pcieplak/g09/g09/l1.exe "/scratch1/pcieplak/fullloop_9.0/Gau-23515.inp" -scrdir="/scratch1/pcieplak/fullloop_9.0/"
 Entering Link 1 = /home/pcieplak/g09/g09/l1.exe PID=     23516.
  
 Copyright (c) 1988,1990,1992,1993,1995,1998,2003,2009,2013,
            Gaussian, Inc.  All Rights Reserved.
  
 This is part of the Gaussian(R) 09 program.  It is based on
 the Gaussian(R) 03 system (copyright 2003, Gaussian, Inc.),
 the Gaussian(R) 98 system (copyright 1998, Gaussian, Inc.),
 the Gaussian(R) 94 system (copyright 1995, Gaussian, Inc.),
 the Gaussian 92(TM) system (copyright 1992, Gaussian, Inc.),
 the Gaussian 90(TM) system (copyright 1990, Gaussian, Inc.),
 the Gaussian 88(TM) system (copyright 1988, Gaussian, Inc.),
 the Gaussian 86(TM) system (copyright 1986, Carnegie Mellon
 University), and the Gaussian 82(TM) system (copyright 1983,
 Carnegie Mellon University). Gaussian is a federally registered
 trademark of Gaussian, Inc.
  
 This software contains proprietary and confidential information,
 including trade secrets, belonging to Gaussian, Inc.
  
 This software is provided under written license and may be
 used, copied, transmitted, or stored only in accord with that
 written license.
  
 The following legend is applicable only to US Government
 contracts under FAR:
  
                    RESTRICTED RIGHTS LEGEND
  
 Use, reproduction and disclosure by the US Government is
 subject to restrictions as set forth in subparagraphs (a)
 and (c) of the Commercial Computer Software - Restricted
 Rights clause in FAR 52.227-19.
  
 Gaussian, Inc.
 340 Quinnipiac St., Bldg. 40, Wallingford CT 06492
  
  
 ---------------------------------------------------------------
 Warning -- This program may not be used in any manner that
 competes with the business of Gaussian, Inc. or will provide
 assistance to any competitor of Gaussian, Inc.  The licensee
 of this program is prohibited from giving any competitor of
 Gaussian, Inc. access to this program.  By using this program,
 the user acknowledges that Gaussian, Inc. is engaged in the
 business of creating and licensing software in the field of
 computational chemistry and represents and warrants to the
 licensee that it is not a competitor of Gaussian, Inc. and that
 it will not use this program in any manner prohibited above.
 ---------------------------------------------------------------
  

 Cite this work as:
 Gaussian 09, Revision D.01,
 M. J. Frisch, G. W. Trucks, H. B. Schlegel, G. E. Scuseria, 
 M. A. Robb, J. R. Cheeseman, G. Scalmani, V. Barone, B. Mennucci, 
 G. A. Petersson, H. Nakatsuji, M. Caricato, X. Li, H. P. Hratchian, 
 A. F. Izmaylov, J. Bloino, G. Zheng, J. L. Sonnenberg, M. Hada, 
 M. Ehara, K. Toyota, R. Fukuda, J. Hasegawa, M. Ishida, T. Nakajima, 
 Y. Honda, O. Kitao, H. Nakai, T. Vreven, J. A. Montgomery, Jr., 
 J. E. Peralta, F. Ogliaro, M. Bearpark, J. J. Heyd, E. Brothers, 
 K. N. Kudin, V. N. Staroverov, T. Keith, R. Kobayashi, J. Normand, 
 K. Raghavachari, A. Rendell, J. C. Burant, S. S. Iyengar, J. Tomasi, 
 M. Cossi, N. Rega, J. M. Millam, M. Klene, J. E. Knox, J. B. Cross, 
 V. Bakken, C. Adamo, J. Jaramillo, R. Gomperts, R. E. Stratmann, 
 O. Yazyev, A. J. Austin, R. Cammi, C. Pomelli, J. W. Ochterski, 
 R. L. Martin, K. Morokuma, V. G. Zakrzewski, G. A. Voth, 
 P. Salvador, J. J. Dannenberg, S. Dapprich, A. D. Daniels, 
 O. Farkas, J. B. Foresman, J. V. Ortiz, J. Cioslowski, 
 and D. J. Fox, Gaussian, Inc., Wallingford CT, 2013.
 
 ******************************************
 Gaussian 09:  ES64L-G09RevD.01 24-Apr-2013
                16-Sep-2019 
 ******************************************
 %Nproc=12
 Will use up to   12 processors via shared memory.
 %chk=chk1mol
 %mem=32GB
 ----------------------------------------------------------------------
 #maxdisk=50GB #B3LYP/SVP Density=Current scf=(tight) #IOP(5/87=12)Pop=
 (MK,readradii) iop(6/33=2) iop(6/42=6)
 ----------------------------------------------------------------------
 1/30=1,38=1/1;
 2/12=2,17=6,18=5,40=1/2;
 3/5=18,7=101,11=2,16=1,25=1,30=1,74=-5/1,2,3;
 4//1;
 5/5=2,32=2,38=5,87=12/2;
 6/7=2,8=2,9=2,10=2,15=8,20=101,22=-1,28=1,33=2,42=6/1,2;
 99/5=1,9=1/99;
 ------------
 SOL molecule
 ------------
 Symbolic Z-matrix:
 Charge =  0 Multiplicity = 1
 C                     76.89     55.22     16.47 
 C                     76.88     53.82     15.87 
 O                     77.95     53.35     15.49 
 H                     76.673    55.95     15.69 
 H                     76.132    55.287    17.251 
 H                     77.871    55.426    16.897 
 N                     75.72     53.16     15.83 
 C                     75.49     51.91     15.13 
 C                     75.27     52.22     13.66 
 O                     74.16     52.38     13.16 
 C                     74.36     51.18     15.84 
 C                     74.01     49.79     15.32 
 O                     72.97     49.27     15.78 
 O                     74.74     49.19     14.5 
 H                     74.89     53.55     16.24 
 H                     76.35     51.25     15.28 
 H                     73.46     51.8      15.73 
 H                     74.68     51.       16.87 
 N                     76.4      52.18     12.95 
 C                     76.51     52.59     11.57 
 C                     75.8      51.62     10.63 
 O                     75.23     52.08     9.65 
 C                     77.99     52.66     11.22 
 C                     78.31     53.       9.77 
 C                     79.81     53.25     9.66 
 C                     80.22     53.14     8.19 
 N                     81.46     53.91     7.95 
 H                     77.24     52.05     13.5 
 H                     76.08     53.59     11.5 
 H                     78.54     51.78     11.56 
 H                     78.36     53.52     11.78 
 H                     77.83     53.94     9.5 
 H                     77.94     52.24     9.08 
 H                     80.44     52.66     10.32 
 H                     80.02     54.28     9.95 
 H                     79.39     53.6      7.67 
 H                     80.41     52.08     8.03 
 H                     81.55     54.75     8.5 
 H                     82.19     53.21     8.03 
 H                     81.52     54.15     6.97 
 N                     75.84     50.31     10.89 
 C                     75.08     49.38     10.08 
 C                     73.72     48.95     10.62 
 O                     73.04     48.2      9.94 
 C                     76.01     48.23     9.7 
 C                     76.69     47.61     10.91 
 O                     77.9      47.34     10.72 
 O                     75.98     47.24     11.87 
 H                     76.36     50.02     11.71 
 H                     74.87     49.92     9.15 
 H                     76.78     48.58     9.02 
 H                     75.5      47.41     9.18 
 N                     73.33     49.22     11.87 
 C                     71.99     49.19     12.42 
 C                     71.59     47.77     12.77 
 O                     70.88     47.12     12. 
 H                     74.07     49.56     12.47 
 H                     71.18     49.52     11.76 
 H                     71.94     49.81     13.31 
 N                     72.01     47.29     13.94 
 C                     71.72     45.95     14.38 
 C                     71.67     45.73     15.89 
 O                     71.88     44.6      16.33 
 C                     72.72     44.98     13.75 
 C                     74.02     44.77     14.51 
 N                     74.57     43.55     14.43 
 O                     74.65     45.72     14.97 
 H                     72.59     47.91     14.5 
 H                     70.68     45.74     14.09 
 H                     72.86     45.28     12.72 
 H                     72.2      44.02     13.72 
 H                     74.08     42.82     13.94 
 H                     75.1      43.31     15.26 
 N                     71.63     46.82     16.66 
 C                     71.39     46.94     18.08 
 C                     72.66     46.82     18.9 
 O                     72.59     46.65     20.12 
 H                     71.54     47.7      16.16 
 H                     70.63     46.25     18.45 
 H                     70.93     47.9      18.29 
 N                     73.79     46.98     18.2 
 C                     75.15     47.04     18.68 
 C                     76.11     47.99     17.98 
 O                     75.99     48.19     16.77 
 C                     75.79     45.65     18.58 
 C                     75.34     44.59     19.54 
 C                     75.99     44.47     20.77 
 C                     74.33     43.69     19.17 
 C                     75.73     43.32     21.53 
 C                     74.03     42.61     20. 
 C                     74.68     42.43     21.24 
 O                     74.31     41.5      22.17 
 H                     73.72     47.34     17.26 
 H                     75.21     47.35     19.73 
 H                     76.87     45.72     18.75 
 H                     75.54     45.3      17.58 
 H                     76.87     45.03     21.06 
 H                     73.81     43.83     18.23 
 H                     76.32     43.18     22.42 
 H                     73.33     41.84     19.69 
 H                     73.56     40.98     21.9 
 N                     77.13     48.43     18.71 
 C                     78.11     49.42     18.34 
 C                     79.47     48.75     18.47 
 O                     79.64     47.91     19.35 
 C                     78.       50.67     19.2 
 C                     76.63     51.34     19.31 
 C                     78.98     51.72     18.69 
 C                     76.32     52.41     20.35 
 H                     77.1      48.28     19.71 
 H                     77.94     49.75     17.31 
 H                     78.38     50.44     20.2 
 H                     75.95     50.53     19.56 
 H                     76.44     51.77     18.32 
 H                     80.03     51.5      18.89 
 H                     78.94     52.       17.64 
 H                     78.85     52.62     19.29 
 H                     77.12     53.15     20.42 
 H                     75.42     52.95     20.06 
 H                     76.24     51.9      21.31 
 N                     80.42     49.07     17.58 
 C                     81.8      48.64     17.58 
 C                     82.76     49.77     17.26 
 O                     82.39     50.92     17.03 
 C                     81.93     47.5      16.57 
 O                     81.58     47.89     15.26 
 H                     80.17     49.87     17.02 
 H                     82.08     48.28     18.57 
 H                     81.39     46.62     16.93 
 H                     82.97     47.19     16.52 
 H                     80.63     47.97     15.13 
 N                     84.07     49.48     17.29 
 C                     85.15     50.41     17.05 
 C                     85.14     51.15     15.72 
 O                     85.26     52.37     15.7 
 C                     86.44     49.7      17.46 
 H                     84.38     48.56     17.54 
 H                     84.89     51.22     17.73 
 H                     87.29     50.37     17.52 
 H                     86.41     49.36     18.49 
 H                     86.72     49.02     16.65 
 N                     84.88     50.46     14.6 
 C                     84.78     51.13     13.32 
 C                     83.52     51.98     13.29 
 O                     83.45     53.02     12.63 
 C                     84.8      50.13     12.17 
 H                     84.97     49.47     14.47 
 H                     85.64     51.76     13.13 
 H                     83.92     49.49     12.15 
 H                     84.87     50.7      11.24 
 H                     85.69     49.5      12.17 
 N                     82.47     51.66     14.06 
 C                     81.17     52.3      13.98 
 C                     81.22     53.53     14.87 
 O                     80.74     54.6      14.48 
 C                     80.13     51.25     14.36 
 C                     80.16     50.05     13.42 
 C                     78.94     49.22     13.83 
 O                     79.03     48.51     14.85 
 O                     77.87     49.26     13.19 
 H                     82.6      51.       14.81 
 H                     80.98     52.67     12.98 
 H                     79.2      51.8      14.18 
 H                     80.26     51.       15.41 
 H                     81.09     49.48     13.34 
 H                     79.94     50.53     12.48 
 N                     82.13     53.57     15.85 
 C                     82.27     54.62     16.84 
 H                     82.959    55.379    16.469 
 H                     81.297    55.074    17.029 
 H                     82.66     54.198    17.766 
 H                     82.48     52.67     16.13 
 CA                    76.54     47.37     14.31 
 O                     77.76     45.27     13.31 
 H                     77.46     44.73     12.58 
 H                     78.54     44.82     13.64 
 
 Stoichiometry    C54H83CaN15O23
 Framework group  C1[X(C54H83CaN15O23)]
 Deg. of freedom   522
 Full point group                 C1      NOp   1
 Largest Abelian subgroup         C1      NOp   1
 Largest concise Abelian subgroup C1      NOp   1
                         Standard orientation:                         
 ---------------------------------------------------------------------
 Center     Atomic      Atomic             Coordinates (Angstroms)
 Number     Number       Type             X           Y           Z
 ---------------------------------------------------------------------
      1          6           0        2.523083    0.627929    5.555525
      2          6           0        1.895424    0.781914    4.176237
      3          8           0        2.570646    0.466385    3.199142
      4          1           0        2.980929    1.571595    5.852613
      5          1           0        1.753088    0.354754    6.277672
      6          1           0        3.284513   -0.150761    5.524048
      7          7           0        0.631892    1.207261    4.102985
      8          6           0       -0.055111    1.589077    2.883295
      9          6           0        0.356167    3.006832    2.528018
     10          8           0       -0.279846    4.001519    2.865341
     11          6           0       -1.543025    1.353006    3.093730
     12          6           0       -2.452209    1.606182    1.896113
     13          8           0       -3.682533    1.589645    2.118892
     14          8           0       -1.992665    1.790704    0.747170
     15          1           0        0.090381    1.361768    4.934846
     16          1           0        0.202447    0.881958    2.088722
     17          1           0       -1.865340    2.035712    3.891555
     18          1           0       -1.681069    0.289137    3.305451
     19          7           0        1.411447    3.048074    1.711143
     20          6           0        2.111021    4.256656    1.344367
     21          6           0        1.274042    5.141902    0.425452
     22          8           0        1.360723    6.355096    0.557917
     23          6           0        3.400765    3.855089    0.642154
     24          6           0        4.244084    5.003531    0.103271
     25          6           0        5.583851    4.436512   -0.352926
     26          6           0        6.250014    5.444519   -1.291676
     27          7           0        7.715495    5.243389   -1.294860
     28          1           0        1.840049    2.149090    1.529132
     29          1           0        2.357300    4.775548    2.271674
     30          1           0        3.240375    3.082223   -0.112467
     31          1           0        4.016629    3.424614    1.433041
     32          1           0        4.473274    5.699128    0.909817
     33          1           0        3.720533    5.568379   -0.669672
     34          1           0        5.559804    3.430005   -0.761539
     35          1           0        6.245600    4.352658    0.509718
     36          1           0        6.006281    6.397014   -0.839739
     37          1           0        5.846943    5.219027   -2.277570
     38          1           0        8.104738    4.951123   -0.412097
     39          1           0        7.868742    4.647502   -2.101541
     40          1           0        8.169435    6.097440   -1.588351
     41          7           0        0.496914    4.573028   -0.500698
     42          6           0       -0.392676    5.383409   -1.307242
     43          6           0       -1.843993    5.476670   -0.847807
     44          8           0       -2.606242    6.184989   -1.483858
     45          6           0       -0.208602    4.963261   -2.763742
     46          6           0       -0.363392    3.463624   -2.958746
     47          8           0        0.480483    2.971848   -3.745595
     48          8           0       -1.391266    2.906571   -2.516288
     49          1           0        0.511255    3.561175   -0.554068
     50          1           0        0.005555    6.401479   -1.232773
     51          1           0        0.776972    5.251428   -3.115032
     52          1           0       -0.922189    5.437736   -3.448261
     53          7           0       -2.343537    4.684095    0.106017
     54          6           0       -3.557305    4.860543    0.877142
     55          6           0       -4.764077    4.400277    0.082939
     56          8           0       -5.468504    5.223860   -0.504423
     57          1           0       -1.742670    3.910254    0.357670
     58          1           0       -3.819591    5.887971    1.153179
     59          1           0       -3.495240    4.294788    1.801841
     60          7           0       -5.031671    3.094868    0.083768
     61          6           0       -6.132798    2.526346   -0.649445
     62          6           0       -6.714996    1.227865   -0.096279
     63          8           0       -7.308554    0.471624   -0.864645
     64          6           0       -5.723572    2.327775   -2.109207
     65          6           0       -5.039867    1.010771   -2.440488
     66          7           0       -5.274573    0.504259   -3.659364
     67          8           0       -4.143065    0.561725   -1.729782
     68          1           0       -4.387031    2.502508    0.601407
     69          1           0       -6.980518    3.217502   -0.533366
     70          1           0       -5.159694    3.200421   -2.410920
     71          1           0       -6.659783    2.360530   -2.670754
     72          1           0       -5.930346    0.966702   -4.266989
     73          1           0       -5.227126   -0.508150   -3.672687
     74          7           0       -6.347716    0.876897    1.138438
     75          6           0       -6.861909   -0.168520    1.993487
     76          6           0       -6.167685   -1.498641    1.773190
     77          8           0       -6.656782   -2.531524    2.238094
     78          1           0       -5.784450    1.562417    1.633709
     79          1           0       -7.944574   -0.287441    1.927970
     80          1           0       -6.739291    0.119780    3.032308
     81          7           0       -5.002812   -1.415185    1.118510
     82          6           0       -4.042843   -2.457853    0.844827
     83          6           0       -2.566554   -2.092615    0.880523
     84          8           0       -2.211420   -0.969006    0.520132
     85          6           0       -4.297382   -3.033953   -0.553393
     86          6           0       -5.510361   -3.890837   -0.758652
     87          6           0       -5.413153   -5.266291   -0.538475
     88          6           0       -6.700160   -3.321601   -1.235463
     89          6           0       -6.473079   -6.069672   -0.984384
     90          6           0       -7.771376   -4.146731   -1.577451
     91          6           0       -7.710658   -5.545757   -1.399852
     92          8           0       -8.779925   -6.383115   -1.548846
     93          1           0       -4.593855   -0.501709    0.990383
     94          1           0       -4.113712   -3.289275    1.556103
     95          1           0       -3.463809   -3.679119   -0.851914
     96          1           0       -4.410922   -2.163077   -1.196576
     97          1           0       -4.493445   -5.791814   -0.314726
     98          1           0       -6.765432   -2.247021   -1.356367
     99          1           0       -6.339371   -7.136021   -0.914946
    100          1           0       -8.663268   -3.744272   -2.048146
    101          1           0       -9.581426   -5.926873   -1.783878
    102          7           0       -1.727465   -3.085103    1.159443
    103          6           0       -0.304826   -2.996251    1.372996
    104          6           0        0.342248   -3.929976    0.360646
    105          8           0       -0.241813   -4.962735    0.042555
    106          6           0        0.072800   -3.348527    2.803905
    107          6           0       -0.648763   -2.611347    3.932538
    108          6           0        1.568056   -3.127032    2.999221
    109          6           0       -0.578125   -3.063846    5.386104
    110          1           0       -2.113020   -3.947613    1.521139
    111          1           0        0.034370   -1.966685    1.219249
    112          1           0       -0.038251   -4.428780    2.938148
    113          1           0       -1.703172   -2.698487    3.684287
    114          1           0       -0.280079   -1.580404    3.884283
    115          1           0        2.206978   -3.856295    2.498368
    116          1           0        1.986008   -2.155959    2.744597
    117          1           0        1.805702   -3.340091    4.040869
    118          1           0        0.441524   -3.320706    5.680790
    119          1           0       -0.895367   -2.250361    6.036719
    120          1           0       -1.193792   -3.959800    5.465613
    121          7           0        1.509573   -3.559916   -0.184706
    122          6           0        2.343205   -4.333477   -1.076872
    123          6           0        3.815026   -4.241518   -0.721646
    124          8           0        4.236798   -3.579334    0.224885
    125          6           0        2.084652   -3.837152   -2.499339
    126          8           0        2.395125   -2.470774   -2.664619
    127          1           0        1.919899   -2.767224    0.283665
    128          1           0        2.083976   -5.390063   -1.009584
    129          1           0        1.069425   -4.101734   -2.807415
    130          1           0        2.734690   -4.374619   -3.184014
    131          1           0        1.736004   -1.883836   -2.281391
    132          7           0        4.664441   -4.971106   -1.461439
    133          6           0        6.095157   -5.054678   -1.274436
    134          6           0        6.872752   -3.746742   -1.309789
    135          8           0        7.657280   -3.479075   -0.406424
    136          6           0        6.587404   -6.199725   -2.159229
    137          1           0        4.319591   -5.562972   -2.193404
    138          1           0        6.158712   -5.295007   -0.214105
    139          1           0        7.609459   -6.489992   -1.944407
    140          1           0        6.086758   -7.135480   -1.933140
    141          1           0        6.648601   -5.827066   -3.186010
    142          7           0        6.593736   -2.856397   -2.272876
    143          6           0        7.247981   -1.564769   -2.303871
    144          6           0        6.752167   -0.717572   -1.143085
    145          8           0        7.465378    0.133039   -0.604670
    146          6           0        7.021288   -0.862571   -3.637448
    147          1           0        6.143743   -3.041176   -3.149496
    148          1           0        8.324829   -1.660223   -2.241513
    149          1           0        5.981598   -0.583823   -3.797898
    150          1           0        7.654539    0.028210   -3.651657
    151          1           0        7.360762   -1.450700   -4.490597
    152          7           0        5.540275   -0.938780   -0.613760
    153          6           0        4.909199   -0.083499    0.374287
    154          6           0        5.391915   -0.543079    1.739304
    155          8           0        5.727495    0.286092    2.592100
    156          6           0        3.403320   -0.167020    0.142223
    157          6           0        3.013687    0.303564   -1.254644
    158          6           0        1.482833    0.337246   -1.227210
    159          8           0        0.870575   -0.741544   -1.345335
    160          8           0        0.849469    1.399762   -1.065932
    161          1           0        5.062310   -1.797655   -0.834856
    162          1           0        5.246949    0.940652    0.274099
    163          1           0        3.037753    0.571156    0.864204
    164          1           0        3.072348   -1.173857    0.384376
    165          1           0        3.440271   -0.221531   -2.114005
    166          1           0        3.373194    1.319659   -1.228097
    167          7           0        5.851077   -1.793542    1.864260
    168          6           0        6.274992   -2.425921    3.098194
    169          1           0        7.341385   -2.254501    3.246065
    170          1           0        5.719437   -2.000915    3.934433
    171          1           0        6.084420   -3.497486    3.042592
    172          1           0        5.540293   -2.424786    1.146038
    173         20           0       -1.559976    0.622530   -1.497078
    174          8           0       -1.511417    0.342496   -4.108136
    175          1           0       -1.845702    0.962850   -4.754599
    176          1           0       -1.248223   -0.423973   -4.621025
 ---------------------------------------------------------------------
 Rotational constants (GHZ):      0.0239131      0.0154472      0.0119836
 Standard basis: SVP (5D, 7F)
 There are  1809 symmetry adapted cartesian basis functions of A   symmetry.
 There are  1717 symmetry adapted basis functions of A   symmetry.
  1717 basis functions,  2922 primitive gaussians,  1809 cartesian basis functions
   358 alpha electrons      358 beta electrons
       nuclear repulsion energy     21825.4182225820 Hartrees.
 NAtoms=  176 NActive=  176 NUniq=  176 SFac= 1.00D+00 NAtFMM=   60 NAOKFM=T Big=T
 Integral buffers will be    131072 words long.
 Raffenetti 2 integral format.
 Two-electron integral symmetry is turned on.
 One-electron integrals computed using PRISM.
 NBasis=  1717 RedAO= T EigKep=  3.38D-04  NBF=  1717
 NBsUse=  1717 1.00D-06 EigRej= -1.00D+00 NBFU=  1717
 ExpMin= 1.98D-02 ExpMax= 3.51D+04 ExpMxC= 5.28D+03 IAcc=3 IRadAn=         5 AccDes= 0.00D+00
 Harris functional with IExCor=  402 and IRadAn=       5 diagonalized for initial guess.
 HarFok:  IExCor=  402 AccDes= 0.00D+00 IRadAn=         5 IDoV= 1 UseB2=F ITyADJ=14
 ICtDFT=  3500011 ScaDFX=  1.000000  1.000000  1.000000  1.000000
 FoFCou: FMM=F IPFlag=           0 FMFlag=      100000 FMFlg1=        2001
         NFxFlg=           0 DoJE=T BraDBF=F KetDBF=T FulRan=T
         wScrn=  0.000000 ICntrl=     500 IOpCl=  0 I1Cent=   200000004 NGrid=           0
         NMat0=    1 NMatS0=      1 NMatT0=    0 NMatD0=    1 NMtDS0=    0 NMtDT0=    0
 Petite list used in FoFCou.
 Requested convergence on RMS density matrix=1.00D-08 within 128 cycles.
 Requested convergence on MAX density matrix=1.00D-06.
 Requested convergence on             energy=1.00D-06.
 No special actions if energy rises.
 EnCoef did     5 forward-backward iterations
 EnCoef did     4 forward-backward iterations
 EnCoef did     1 forward-backward iterations
 SCF Done:  E(RB3LYP) =  -5333.57652894     A.U. after   20 cycles
            NFock= 20  Conv=0.34D-08     -V/T= 2.0081

 **********************************************************************

            Population analysis using the SCF density.

 **********************************************************************

 Orbital symmetries:
 BldTbl:  Degeneracy threshold= 1.00D-02
       Occupied  (A) (A) (A) (A) (A) (A) (A) (A) (A) (A) (A) (A)
                 (A) (A) (A) (A) (A) (A) (A) (A) (A) (A) (A) (A)
                 (A) (A) (A) (A) (A) (A) (A) (A) (A) (A) (A) (A)
                 (A) (A) (A) (A) (A) (A) (A) (A) (A) (A) (A) (A)
                 (A) (A) (A) (A) (A) (A) (A) (A) (A) (A) (A) (A)
                 (A) (A) (A) (A) (A) (A) (A) (A) (A) (A) (A) (A)
                 (A) (A) (A) (A) (A) (A) (A) (A) (A) (A) (A) (A)
                 (A) (A) (A) (A) (A) (A) (A) (A) (A) (A) (A) (A)
                 (A) (A) (A) (A) (A) (A) (A) (A) (A) (A) (A) (A)
                 (A) (A) (A) (A) (A) (A) (A) (A) (A) (A) (A) (A)
                 (A) (A) (A) (A) (A) (A) (A) (A) (A) (A) (A) (A)
                 (A) (A) (A) (A) (A) (A) (A) (A) (A) (A) (A) (A)
                 (A) (A) (A) (A) (A) (A) (A) (A) (A) (A) (A) (A)
                 (A) (A) (A) (A) (A) (A) (A) (A) (A) (A) (A) (A)
                 (A) (A) (A) (A) (A) (A) (A) (A) (A) (A) (A) (A)
                 (A) (A) (A) (A) (A) (A) (A) (A) (A) (A) (A) (A)
                 (A) (A) (A) (A) (A) (A) (A) (A) (A) (A) (A) (A)
                 (A) (A) (A) (A) (A) (A) (A) (A) (A) (A) (A) (A)
                 (A) (A) (A) (A) (A) (A) (A) (A) (A) (A) (A) (A)
                 (A) (A) (A) (A) (A) (A) (A) (A) (A) (A) (A) (A)
                 (A) (A) (A) (A) (A) (A) (A) (A) (A) (A) (A) (A)
                 (A) (A) (A) (A) (A) (A) (A) (A) (A) (A) (A) (A)
                 (A) (A) (A) (A) (A) (A) (A) (A) (A) (A) (A) (A)
                 (A) (A) (A) (A) (A) (A) (A) (A) (A) (A) (A) (A)
                 (A) (A) (A) (A) (A) (A) (A) (A) (A) (A) (A) (A)
                 (A) (A) (A) (A) (A) (A) (A) (A) (A) (A) (A) (A)
                 (A) (A) (A) (A) (A) (A) (A) (A) (A) (A) (A) (A)
                 (A) (A) (A) (A) (A) (A) (A) (A) (A) (A) (A) (A)
                 (A) (A) (A) (A) (A) (A) (A) (A) (A) (A) (A) (A)
                 (A) (A) (A) (A) (A) (A) (A) (A) (A) (A)
       Virtual   (A) (A) (A) (A) (A) (A) (A) (A) (A) (A) (A) (A)
                 (A) (A) (A) (A) (A) (A) (A) (A) (A) (A) (A) (A)
                 (A) (A) (A) (A) (A) (A) (A) (A) (A) (A) (A) (A)
                 (A) (A) (A) (A) (A) (A) (A) (A) (A) (A) (A) (A)
                 (A) (A) (A) (A) (A) (A) (A) (A) (A) (A) (A) (A)
                 (A) (A) (A) (A) (A) (A) (A) (A) (A) (A) (A) (A)
                 (A) (A) (A) (A) (A) (A) (A) (A) (A) (A) (A) (A)
                 (A) (A) (A) (A) (A) (A) (A) (A) (A) (A) (A) (A)
                 (A) (A) (A) (A) (A) (A) (A) (A) (A) (A) (A) (A)
                 (A) (A) (A) (A) (A) (A) (A) (A) (A) (A) (A) (A)
                 (A) (A) (A) (A) (A) (A) (A) (A) (A) (A) (A) (A)
                 (A) (A) (A) (A) (A) (A) (A) (A) (A) (A) (A) (A)
                 (A) (A) (A) (A) (A) (A) (A) (A) (A) (A) (A) (A)
                 (A) (A) (A) (A) (A) (A) (A) (A) (A) (A) (A) (A)
                 (A) (A) (A) (A) (A) (A) (A) (A) (A) (A) (A) (A)
                 (A) (A) (A) (A) (A) (A) (A) (A) (A) (A) (A) (A)
                 (A) (A) (A) (A) (A) (A) (A) (A) (A) (A) (A) (A)
                 (A) (A) (A) (A) (A) (A) (A) (A) (A) (A) (A) (A)
                 (A) (A) (A) (A) (A) (A) (A) (A) (A) (A) (A) (A)
                 (A) (A) (A) (A) (A) (A) (A) (A) (A) (A) (A) (A)
                 (A) (A) (A) (A) (A) (A) (A) (A) (A) (A) (A) (A)
                 (A) (A) (A) (A) (A) (A) (A) (A) (A) (A) (A) (A)
                 (A) (A) (A) (A) (A) (A) (A) (A) (A) (A) (A) (A)
                 (A) (A) (A) (A) (A) (A) (A) (A) (A) (A) (A) (A)
                 (A) (A) (A) (A) (A) (A) (A) (A) (A) (A) (A) (A)
                 (A) (A) (A) (A) (A) (A) (A) (A) (A) (A) (A) (A)
                 (A) (A) (A) (A) (A) (A) (A) (A) (A) (A) (A) (A)
                 (A) (A) (A) (A) (A) (A) (A) (A) (A) (A) (A) (A)
                 (A) (A) (A) (A) (A) (A) (A) (A) (A) (A) (A) (A)
                 (A) (A) (A) (A) (A) (A) (A) (A) (A) (A) (A) (A)
                 (A) (A) (A) (A) (A) (A) (A) (A) (A) (A) (A) (A)
                 (A) (A) (A) (A) (A) (A) (A) (A) (A) (A) (A) (A)
                 (A) (A) (A) (A) (A) (A) (A) (A) (A) (A) (A) (A)
                 (A) (A) (A) (A) (A) (A) (A) (A) (A) (A) (A) (A)
                 (A) (A) (A) (A) (A) (A) (A) (A) (A) (A) (A) (A)
                 (A) (A) (A) (A) (A) (A) (A) (A) (A) (A) (A) (A)
                 (A) (A) (A) (A) (A) (A) (A) (A) (A) (A) (A) (A)
                 (A) (A) (A) (A) (A) (A) (A) (A) (A) (A) (A) (A)
                 (A) (A) (A) (A) (A) (A) (A) (A) (A) (A) (A) (A)
                 (A) (A) (A) (A) (A) (A) (A) (A) (A) (A) (A) (A)
                 (A) (A) (A) (A) (A) (A) (A) (A) (A) (A) (A) (A)
                 (A) (A) (A) (A) (A) (A) (A) (A) (A) (A) (A) (A)
                 (A) (A) (A) (A) (A) (A) (A) (A) (A) (A) (A) (A)
                 (A) (A) (A) (A) (A) (A) (A) (A) (A) (A) (A) (A)
                 (A) (A) (A) (A) (A) (A) (A) (A) (A) (A) (A) (A)
                 (A) (A) (A) (A) (A) (A) (A) (A) (A) (A) (A) (A)
                 (A) (A) (A) (A) (A) (A) (A) (A) (A) (A) (A) (A)
                 (A) (A) (A) (A) (A) (A) (A) (A) (A) (A) (A) (A)
                 (A) (A) (A) (A) (A) (A) (A) (A) (A) (A) (A) (A)
                 (A) (A) (A) (A) (A) (A) (A) (A) (A) (A) (A) (A)
                 (A) (A) (A) (A) (A) (A) (A) (A) (A) (A) (A) (A)
                 (A) (A) (A) (A) (A) (A) (A) (A) (A) (A) (A) (A)
                 (A) (A) (A) (A) (A) (A) (A) (A) (A) (A) (A) (A)
                 (A) (A) (A) (A) (A) (A) (A) (A) (A) (A) (A) (A)
                 (A) (A) (A) (A) (A) (A) (A) (A) (A) (A) (A) (A)
                 (A) (A) (A) (A) (A) (A) (A) (A) (A) (A) (A) (A)
                 (A) (A) (A) (A) (A) (A) (A) (A) (A) (A) (A) (A)
                 (A) (A) (A) (A) (A) (A) (A) (A) (A) (A) (A) (A)
                 (A) (A) (A) (A) (A) (A) (A) (A) (A) (A) (A) (A)
                 (A) (A) (A) (A) (A) (A) (A) (A) (A) (A) (A) (A)
                 (A) (A) (A) (A) (A) (A) (A) (A) (A) (A) (A) (A)
                 (A) (A) (A) (A) (A) (A) (A) (A) (A) (A) (A) (A)
                 (A) (A) (A) (A) (A) (A) (A) (A) (A) (A) (A) (A)
                 (A) (A) (A) (A) (A) (A) (A) (A) (A) (A) (A) (A)
                 (A) (A) (A) (A) (A) (A) (A) (A) (A) (A) (A) (A)
                 (A) (A) (A) (A) (A) (A) (A) (A) (A) (A) (A) (A)
                 (A) (A) (A) (A) (A) (A) (A) (A) (A) (A) (A) (A)
                 (A) (A) (A) (A) (A) (A) (A) (A) (A) (A) (A) (A)
                 (A) (A) (A) (A) (A) (A) (A) (A) (A) (A) (A) (A)
                 (A) (A) (A) (A) (A) (A) (A) (A) (A) (A) (A) (A)
                 (A) (A) (A) (A) (A) (A) (A) (A) (A) (A) (A) (A)
                 (A) (A) (A) (A) (A) (A) (A) (A) (A) (A) (A) (A)
                 (A) (A) (A) (A) (A) (A) (A) (A) (A) (A) (A) (A)
                 (A) (A) (A) (A) (A) (A) (A) (A) (A) (A) (A) (A)
                 (A) (A) (A) (A) (A) (A) (A) (A) (A) (A) (A) (A)
                 (A) (A) (A) (A) (A) (A) (A) (A) (A) (A) (A) (A)
                 (A) (A) (A) (A) (A) (A) (A) (A) (A) (A) (A) (A)
                 (A) (A) (A) (A) (A) (A) (A) (A) (A) (A) (A) (A)
                 (A) (A) (A) (A) (A) (A) (A) (A) (A) (A) (A) (A)
                 (A) (A) (A) (A) (A) (A) (A) (A) (A) (A) (A) (A)
                 (A) (A) (A) (A) (A) (A) (A) (A) (A) (A) (A) (A)
                 (A) (A) (A) (A) (A) (A) (A) (A) (A) (A) (A) (A)
                 (A) (A) (A) (A) (A) (A) (A) (A) (A) (A) (A) (A)
                 (A) (A) (A) (A) (A) (A) (A) (A) (A) (A) (A) (A)
                 (A) (A) (A) (A) (A) (A) (A) (A) (A) (A) (A) (A)
                 (A) (A) (A) (A) (A) (A) (A) (A) (A) (A) (A) (A)
                 (A) (A) (A) (A) (A) (A) (A) (A) (A) (A) (A) (A)
                 (A) (A) (A) (A) (A) (A) (A) (A) (A) (A) (A) (A)
                 (A) (A) (A) (A) (A) (A) (A) (A) (A) (A) (A) (A)
                 (A) (A) (A) (A) (A) (A) (A) (A) (A) (A) (A) (A)
                 (A) (A) (A) (A) (A) (A) (A) (A) (A) (A) (A) (A)
                 (A) (A) (A) (A) (A) (A) (A) (A) (A) (A) (A) (A)
                 (A) (A) (A) (A) (A) (A) (A) (A) (A) (A) (A) (A)
                 (A) (A) (A) (A) (A) (A) (A) (A) (A) (A) (A) (A)
                 (A) (A) (A) (A) (A) (A) (A) (A) (A) (A) (A) (A)
                 (A) (A) (A) (A) (A) (A) (A) (A) (A) (A) (A) (A)
                 (A) (A) (A) (A) (A) (A) (A) (A) (A) (A) (A) (A)
                 (A) (A) (A) (A) (A) (A) (A) (A) (A) (A) (A) (A)
                 (A) (A) (A) (A) (A) (A) (A) (A) (A) (A) (A) (A)
                 (A) (A) (A) (A) (A) (A) (A) (A) (A) (A) (A) (A)
                 (A) (A) (A) (A) (A) (A) (A) (A) (A) (A) (A) (A)
                 (A) (A) (A) (A) (A) (A) (A) (A) (A) (A) (A) (A)
                 (A) (A) (A) (A) (A) (A) (A) (A) (A) (A) (A) (A)
                 (A) (A) (A) (A) (A) (A) (A) (A) (A) (A) (A) (A)
                 (A) (A) (A) (A) (A) (A) (A) (A) (A) (A) (A) (A)
                 (A) (A) (A) (A) (A) (A) (A) (A) (A) (A) (A) (A)
                 (A) (A) (A) (A) (A) (A) (A) (A) (A) (A) (A) (A)
                 (A) (A) (A) (A) (A) (A) (A) (A) (A) (A) (A) (A)
                 (A) (A) (A) (A) (A) (A) (A) (A) (A) (A) (A) (A)
                 (A) (A) (A) (A) (A) (A) (A) (A) (A) (A) (A) (A)
                 (A) (A) (A) (A) (A) (A) (A) (A) (A) (A) (A) (A)
                 (A) (A) (A) (A) (A) (A) (A) (A) (A) (A) (A) (A)
                 (A) (A) (A) (A) (A) (A) (A) (A) (A) (A) (A) (A)
                 (A) (A) (A)
 The electronic state is 1-A.
 Alpha  occ. eigenvalues -- -145.35009 -19.15131 -19.15048 -19.14314 -19.12193
 Alpha  occ. eigenvalues --  -19.11854 -19.11562 -19.11415 -19.10461 -19.09106
 Alpha  occ. eigenvalues --  -19.08917 -19.07879 -19.07722 -19.07463 -19.06684
 Alpha  occ. eigenvalues --  -19.06532 -19.05708 -19.05471 -19.04703 -19.04079
 Alpha  occ. eigenvalues --  -19.03337 -19.01556 -19.01157 -18.98580 -15.40818
 Alpha  occ. eigenvalues --  -14.57780 -14.39353 -14.38259 -14.37046 -14.36299
 Alpha  occ. eigenvalues --  -14.35530 -14.35146 -14.34337 -14.33030 -14.32996
 Alpha  occ. eigenvalues --  -14.32977 -14.31430 -14.30453 -14.29333 -14.27737
 Alpha  occ. eigenvalues --  -12.54421 -12.54394 -12.54371 -10.33794 -10.32495
 Alpha  occ. eigenvalues --  -10.30982 -10.30218 -10.29738 -10.29065 -10.28068
 Alpha  occ. eigenvalues --  -10.27895 -10.26363 -10.26284 -10.26075 -10.25945
 Alpha  occ. eigenvalues --  -10.25838 -10.25651 -10.25513 -10.24997 -10.24800
 Alpha  occ. eigenvalues --  -10.24624 -10.24140 -10.24096 -10.24007 -10.23561
 Alpha  occ. eigenvalues --  -10.22940 -10.22864 -10.22151 -10.21780 -10.21748
 Alpha  occ. eigenvalues --  -10.21736 -10.21499 -10.20952 -10.20808 -10.20781
 Alpha  occ. eigenvalues --  -10.20579 -10.20096 -10.20008 -10.19836 -10.18993
 Alpha  occ. eigenvalues --  -10.18522 -10.18492 -10.18280 -10.18148 -10.18000
 Alpha  occ. eigenvalues --  -10.17408 -10.17368 -10.17363 -10.17240 -10.17237
 Alpha  occ. eigenvalues --  -10.17110 -10.17101 -10.16848 -10.16844 -10.16695
 Alpha  occ. eigenvalues --  -10.16349 -10.11332  -1.77735  -1.13072  -1.07386
 Alpha  occ. eigenvalues --   -1.05559  -1.05367  -1.05313  -1.05309  -1.04469
 Alpha  occ. eigenvalues --   -1.03614  -1.03525  -1.03356  -1.02317  -1.02189
 Alpha  occ. eigenvalues --   -1.01968  -1.01007  -1.00586  -1.00302  -1.00029
 Alpha  occ. eigenvalues --   -0.99125  -0.99044  -0.98710  -0.98672  -0.96539
 Alpha  occ. eigenvalues --   -0.96524  -0.95190  -0.94951  -0.94299  -0.94024
 Alpha  occ. eigenvalues --   -0.93089  -0.91881  -0.91803  -0.91295  -0.90972
 Alpha  occ. eigenvalues --   -0.90829  -0.90634  -0.89504  -0.89036  -0.87939
 Alpha  occ. eigenvalues --   -0.87602  -0.87239  -0.86835  -0.84636  -0.84056
 Alpha  occ. eigenvalues --   -0.83331  -0.82718  -0.81950  -0.80565  -0.79597
 Alpha  occ. eigenvalues --   -0.78325  -0.78148  -0.77482  -0.76958  -0.75455
 Alpha  occ. eigenvalues --   -0.75155  -0.74890  -0.73223  -0.72922  -0.72465
 Alpha  occ. eigenvalues --   -0.71957  -0.71595  -0.71437  -0.71324  -0.70683
 Alpha  occ. eigenvalues --   -0.70156  -0.69654  -0.67868  -0.67652  -0.67121
 Alpha  occ. eigenvalues --   -0.66881  -0.66192  -0.64934  -0.64791  -0.64236
 Alpha  occ. eigenvalues --   -0.63577  -0.63371  -0.63008  -0.62603  -0.60867
 Alpha  occ. eigenvalues --   -0.60619  -0.60495  -0.60317  -0.59788  -0.59107
 Alpha  occ. eigenvalues --   -0.58938  -0.58813  -0.58718  -0.58222  -0.57668
 Alpha  occ. eigenvalues --   -0.57488  -0.56720  -0.56440  -0.55818  -0.55400
 Alpha  occ. eigenvalues --   -0.55156  -0.55066  -0.54793  -0.54360  -0.54290
 Alpha  occ. eigenvalues --   -0.54142  -0.53503  -0.53381  -0.53198  -0.52730
 Alpha  occ. eigenvalues --   -0.52593  -0.52243  -0.52063  -0.51622  -0.51136
 Alpha  occ. eigenvalues --   -0.51061  -0.50666  -0.50387  -0.49391  -0.49175
 Alpha  occ. eigenvalues --   -0.49081  -0.48902  -0.48577  -0.48546  -0.48435
 Alpha  occ. eigenvalues --   -0.48278  -0.48193  -0.47776  -0.47561  -0.47509
 Alpha  occ. eigenvalues --   -0.46962  -0.46899  -0.46838  -0.46697  -0.46616
 Alpha  occ. eigenvalues --   -0.45976  -0.45563  -0.45517  -0.45202  -0.44799
 Alpha  occ. eigenvalues --   -0.44514  -0.44395  -0.44214  -0.44134  -0.44024
 Alpha  occ. eigenvalues --   -0.43887  -0.43791  -0.43710  -0.43640  -0.43343
 Alpha  occ. eigenvalues --   -0.43095  -0.42926  -0.42882  -0.42826  -0.42754
 Alpha  occ. eigenvalues --   -0.42488  -0.42319  -0.42037  -0.41998  -0.41922
 Alpha  occ. eigenvalues --   -0.41778  -0.41726  -0.41567  -0.41259  -0.40927
 Alpha  occ. eigenvalues --   -0.40916  -0.40833  -0.40792  -0.40684  -0.40545
 Alpha  occ. eigenvalues --   -0.40481  -0.40137  -0.39915  -0.39779  -0.39682
 Alpha  occ. eigenvalues --   -0.39496  -0.39435  -0.39410  -0.39261  -0.39202
 Alpha  occ. eigenvalues --   -0.38971  -0.38853  -0.38826  -0.38702  -0.38536
 Alpha  occ. eigenvalues --   -0.38186  -0.38139  -0.37943  -0.37811  -0.37676
 Alpha  occ. eigenvalues --   -0.37454  -0.37405  -0.37228  -0.36747  -0.36729
 Alpha  occ. eigenvalues --   -0.36581  -0.36281  -0.36256  -0.36163  -0.35902
 Alpha  occ. eigenvalues --   -0.35769  -0.35648  -0.35489  -0.35201  -0.35155
 Alpha  occ. eigenvalues --   -0.34854  -0.34585  -0.34458  -0.34217  -0.33836
 Alpha  occ. eigenvalues --   -0.33792  -0.33690  -0.33338  -0.33165  -0.33102
 Alpha  occ. eigenvalues --   -0.32928  -0.32732  -0.32631  -0.32448  -0.32337
 Alpha  occ. eigenvalues --   -0.32244  -0.32158  -0.31742  -0.31639  -0.31532
 Alpha  occ. eigenvalues --   -0.31234  -0.30696  -0.30197  -0.29663  -0.28869
 Alpha  occ. eigenvalues --   -0.28789  -0.28602  -0.28417  -0.28014  -0.27695
 Alpha  occ. eigenvalues --   -0.27518  -0.27011  -0.26898  -0.26591  -0.26506
 Alpha  occ. eigenvalues --   -0.26276  -0.25659  -0.25382  -0.25173  -0.24785
 Alpha  occ. eigenvalues --   -0.24598  -0.24302  -0.23994  -0.23950  -0.23717
 Alpha  occ. eigenvalues --   -0.23035  -0.22766  -0.22505  -0.22315  -0.22185
 Alpha  occ. eigenvalues --   -0.21986  -0.21701  -0.21122  -0.21029  -0.20735
 Alpha  occ. eigenvalues --   -0.20456  -0.20289  -0.19843  -0.18151  -0.17764
 Alpha  occ. eigenvalues --   -0.17506  -0.16435  -0.14607
 Alpha virt. eigenvalues --   -0.09979  -0.04673  -0.03628  -0.02437  -0.01131
 Alpha virt. eigenvalues --   -0.00720  -0.00098   0.00063   0.00141   0.00411
 Alpha virt. eigenvalues --    0.01020   0.01117   0.01322   0.02073   0.02143
 Alpha virt. eigenvalues --    0.02660   0.03084   0.03564   0.03779   0.04089
 Alpha virt. eigenvalues --    0.04178   0.04555   0.04635   0.05131   0.05190
 Alpha virt. eigenvalues --    0.05346   0.05506   0.05794   0.06095   0.06333
 Alpha virt. eigenvalues --    0.06357   0.06562   0.07158   0.07226   0.07415
 Alpha virt. eigenvalues --    0.07643   0.07843   0.08085   0.08278   0.08390
 Alpha virt. eigenvalues --    0.08618   0.08757   0.08865   0.09080   0.09175
 Alpha virt. eigenvalues --    0.09339   0.09584   0.09725   0.09931   0.10089
 Alpha virt. eigenvalues --    0.10403   0.10504   0.10891   0.11069   0.11128
 Alpha virt. eigenvalues --    0.11309   0.11341   0.11466   0.11624   0.11873
 Alpha virt. eigenvalues --    0.11960   0.12156   0.12321   0.12763   0.13007
 Alpha virt. eigenvalues --    0.13131   0.13335   0.13413   0.13528   0.13665
 Alpha virt. eigenvalues --    0.13761   0.13981   0.14211   0.14320   0.14725
 Alpha virt. eigenvalues --    0.14806   0.14886   0.15336   0.15475   0.15635
 Alpha virt. eigenvalues --    0.15708   0.15920   0.16207   0.16325   0.16580
 Alpha virt. eigenvalues --    0.16713   0.16953   0.17096   0.17208   0.17480
 Alpha virt. eigenvalues --    0.17570   0.17756   0.17797   0.17991   0.18068
 Alpha virt. eigenvalues --    0.18273   0.18580   0.18722   0.18880   0.19001
 Alpha virt. eigenvalues --    0.19321   0.19412   0.19562   0.19818   0.19966
 Alpha virt. eigenvalues --    0.20297   0.20392   0.20426   0.20718   0.21176
 Alpha virt. eigenvalues --    0.21256   0.21431   0.21522   0.21652   0.22016
 Alpha virt. eigenvalues --    0.22159   0.22535   0.22738   0.22934   0.23099
 Alpha virt. eigenvalues --    0.23388   0.23512   0.23822   0.24119   0.24576
 Alpha virt. eigenvalues --    0.24627   0.24695   0.25056   0.25113   0.25290
 Alpha virt. eigenvalues --    0.25338   0.25558   0.25852   0.25929   0.26146
 Alpha virt. eigenvalues --    0.26681   0.26901   0.26932   0.27123   0.27427
 Alpha virt. eigenvalues --    0.27591   0.27676   0.27983   0.28262   0.28423
 Alpha virt. eigenvalues --    0.28712   0.28879   0.29310   0.29449   0.29742
 Alpha virt. eigenvalues --    0.30036   0.30237   0.30355   0.30514   0.30923
 Alpha virt. eigenvalues --    0.31178   0.31387   0.31713   0.31896   0.32005
 Alpha virt. eigenvalues --    0.32593   0.32625   0.32829   0.33168   0.33280
 Alpha virt. eigenvalues --    0.33499   0.33609   0.33716   0.34042   0.34246
 Alpha virt. eigenvalues --    0.34958   0.35816   0.36066   0.36140   0.36309
 Alpha virt. eigenvalues --    0.36384   0.36702   0.37057   0.37150   0.37187
 Alpha virt. eigenvalues --    0.37564   0.37780   0.38221   0.38436   0.38746
 Alpha virt. eigenvalues --    0.39062   0.39258   0.39447   0.39552   0.39881
 Alpha virt. eigenvalues --    0.40185   0.40716   0.40809   0.41134   0.41350
 Alpha virt. eigenvalues --    0.41528   0.41741   0.41920   0.42208   0.42405
 Alpha virt. eigenvalues --    0.42916   0.43300   0.43483   0.43532   0.43723
 Alpha virt. eigenvalues --    0.43912   0.44304   0.44368   0.44592   0.44615
 Alpha virt. eigenvalues --    0.44752   0.44827   0.44970   0.45097   0.45292
 Alpha virt. eigenvalues --    0.45521   0.45669   0.45851   0.46183   0.46276
 Alpha virt. eigenvalues --    0.46539   0.46706   0.47071   0.47277   0.47403
 Alpha virt. eigenvalues --    0.47534   0.47877   0.47891   0.48216   0.48284
 Alpha virt. eigenvalues --    0.48738   0.48812   0.49091   0.49375   0.49508
 Alpha virt. eigenvalues --    0.49808   0.50091   0.50291   0.50447   0.50605
 Alpha virt. eigenvalues --    0.50665   0.50883   0.51031   0.51266   0.51413
 Alpha virt. eigenvalues --    0.51705   0.51887   0.51963   0.52440   0.52612
 Alpha virt. eigenvalues --    0.52820   0.53102   0.53487   0.53576   0.53752
 Alpha virt. eigenvalues --    0.53980   0.54089   0.54305   0.54432   0.54524
 Alpha virt. eigenvalues --    0.54666   0.54740   0.55023   0.55104   0.55413
 Alpha virt. eigenvalues --    0.55606   0.55747   0.55849   0.56059   0.56376
 Alpha virt. eigenvalues --    0.56532   0.56757   0.56882   0.57246   0.57345
 Alpha virt. eigenvalues --    0.57600   0.57767   0.57834   0.58095   0.58189
 Alpha virt. eigenvalues --    0.58355   0.58421   0.58689   0.58785   0.58924
 Alpha virt. eigenvalues --    0.59195   0.59417   0.59690   0.59775   0.59942
 Alpha virt. eigenvalues --    0.60158   0.60302   0.60370   0.60599   0.60674
 Alpha virt. eigenvalues --    0.60905   0.61129   0.61293   0.61430   0.61534
 Alpha virt. eigenvalues --    0.61580   0.61753   0.61802   0.61880   0.62031
 Alpha virt. eigenvalues --    0.62175   0.62351   0.62485   0.62614   0.62890
 Alpha virt. eigenvalues --    0.62976   0.63114   0.63188   0.63280   0.63343
 Alpha virt. eigenvalues --    0.63599   0.63746   0.63774   0.63898   0.64114
 Alpha virt. eigenvalues --    0.64145   0.64207   0.64328   0.64453   0.64601
 Alpha virt. eigenvalues --    0.64632   0.64820   0.64927   0.64998   0.65160
 Alpha virt. eigenvalues --    0.65263   0.65371   0.65475   0.65576   0.65743
 Alpha virt. eigenvalues --    0.65858   0.65875   0.66134   0.66244   0.66287
 Alpha virt. eigenvalues --    0.66390   0.66522   0.66562   0.66664   0.66767
 Alpha virt. eigenvalues --    0.66927   0.67158   0.67302   0.67366   0.67371
 Alpha virt. eigenvalues --    0.67471   0.67590   0.67741   0.67752   0.67919
 Alpha virt. eigenvalues --    0.68140   0.68150   0.68239   0.68359   0.68411
 Alpha virt. eigenvalues --    0.68551   0.68686   0.68852   0.68945   0.69101
 Alpha virt. eigenvalues --    0.69253   0.69329   0.69491   0.69689   0.69832
 Alpha virt. eigenvalues --    0.70027   0.70101   0.70236   0.70424   0.70517
 Alpha virt. eigenvalues --    0.70673   0.70848   0.70971   0.71319   0.71452
 Alpha virt. eigenvalues --    0.71578   0.71587   0.71826   0.71936   0.72087
 Alpha virt. eigenvalues --    0.72234   0.72495   0.72584   0.72658   0.72746
 Alpha virt. eigenvalues --    0.72815   0.73059   0.73233   0.73266   0.73494
 Alpha virt. eigenvalues --    0.73757   0.73835   0.74222   0.74340   0.74428
 Alpha virt. eigenvalues --    0.74555   0.74825   0.74957   0.75060   0.75434
 Alpha virt. eigenvalues --    0.75476   0.75573   0.75917   0.76109   0.76290
 Alpha virt. eigenvalues --    0.76413   0.76702   0.77021   0.77193   0.77463
 Alpha virt. eigenvalues --    0.77575   0.77804   0.78178   0.78337   0.78743
 Alpha virt. eigenvalues --    0.78880   0.79072   0.79208   0.79513   0.79860
 Alpha virt. eigenvalues --    0.80022   0.80032   0.80372   0.80655   0.80944
 Alpha virt. eigenvalues --    0.81060   0.81593   0.81913   0.82005   0.82210
 Alpha virt. eigenvalues --    0.82571   0.82583   0.82835   0.83089   0.83421
 Alpha virt. eigenvalues --    0.83552   0.83826   0.83961   0.84193   0.84721
 Alpha virt. eigenvalues --    0.85009   0.85250   0.85442   0.85971   0.86137
 Alpha virt. eigenvalues --    0.86648   0.86760   0.87119   0.87525   0.87602
 Alpha virt. eigenvalues --    0.87682   0.88170   0.88390   0.88677   0.88834
 Alpha virt. eigenvalues --    0.89053   0.89154   0.90114   0.90207   0.90619
 Alpha virt. eigenvalues --    0.90869   0.90970   0.91139   0.91330   0.92151
 Alpha virt. eigenvalues --    0.92224   0.92423   0.92951   0.93045   0.93364
 Alpha virt. eigenvalues --    0.93820   0.94090   0.94115   0.94281   0.94562
 Alpha virt. eigenvalues --    0.94967   0.95137   0.95315   0.95660   0.95884
 Alpha virt. eigenvalues --    0.96445   0.96602   0.96926   0.97210   0.97325
 Alpha virt. eigenvalues --    0.97599   0.97962   0.98184   0.98224   0.98657
 Alpha virt. eigenvalues --    0.99007   0.99331   0.99727   0.99783   0.99874
 Alpha virt. eigenvalues --    1.00259   1.00483   1.00656   1.01125   1.01237
 Alpha virt. eigenvalues --    1.01605   1.01765   1.02403   1.02481   1.03008
 Alpha virt. eigenvalues --    1.03334   1.03767   1.04135   1.04485   1.04690
 Alpha virt. eigenvalues --    1.05065   1.05571   1.05937   1.05965   1.06211
 Alpha virt. eigenvalues --    1.06694   1.06862   1.07318   1.07511   1.07835
 Alpha virt. eigenvalues --    1.07950   1.08531   1.08680   1.08759   1.09134
 Alpha virt. eigenvalues --    1.09192   1.09435   1.09674   1.09874   1.10145
 Alpha virt. eigenvalues --    1.10384   1.10594   1.11171   1.11304   1.11540
 Alpha virt. eigenvalues --    1.11699   1.12032   1.12414   1.12722   1.12908
 Alpha virt. eigenvalues --    1.13266   1.13808   1.13925   1.14504   1.14549
 Alpha virt. eigenvalues --    1.14765   1.14916   1.15086   1.15994   1.16199
 Alpha virt. eigenvalues --    1.16306   1.16347   1.16881   1.17238   1.17482
 Alpha virt. eigenvalues --    1.17684   1.17910   1.18249   1.18466   1.18803
 Alpha virt. eigenvalues --    1.19248   1.19819   1.19927   1.20413   1.20445
 Alpha virt. eigenvalues --    1.20931   1.21092   1.21164   1.21666   1.21906
 Alpha virt. eigenvalues --    1.22083   1.22161   1.22515   1.22754   1.22917
 Alpha virt. eigenvalues --    1.23323   1.23633   1.23867   1.24088   1.24149
 Alpha virt. eigenvalues --    1.24754   1.24849   1.25456   1.25738   1.25790
 Alpha virt. eigenvalues --    1.26071   1.26455   1.26672   1.26918   1.27201
 Alpha virt. eigenvalues --    1.27483   1.27716   1.27969   1.28233   1.28386
 Alpha virt. eigenvalues --    1.28652   1.28743   1.29045   1.29165   1.29516
 Alpha virt. eigenvalues --    1.29757   1.30187   1.30378   1.30677   1.30847
 Alpha virt. eigenvalues --    1.30982   1.31204   1.31317   1.31617   1.31950
 Alpha virt. eigenvalues --    1.32483   1.32538   1.32805   1.32840   1.33395
 Alpha virt. eigenvalues --    1.33511   1.33780   1.34050   1.34212   1.34661
 Alpha virt. eigenvalues --    1.34956   1.35456   1.35491   1.35869   1.36050
 Alpha virt. eigenvalues --    1.36156   1.36794   1.36893   1.37364   1.37565
 Alpha virt. eigenvalues --    1.37748   1.37919   1.37988   1.38304   1.38714
 Alpha virt. eigenvalues --    1.38817   1.39278   1.39390   1.39629   1.39946
 Alpha virt. eigenvalues --    1.40232   1.40409   1.40511   1.41016   1.41141
 Alpha virt. eigenvalues --    1.41282   1.41908   1.42452   1.42675   1.43044
 Alpha virt. eigenvalues --    1.43333   1.43606   1.43875   1.44314   1.44742
 Alpha virt. eigenvalues --    1.44885   1.44983   1.45077   1.45350   1.45724
 Alpha virt. eigenvalues --    1.46162   1.46283   1.46592   1.46792   1.47421
 Alpha virt. eigenvalues --    1.47490   1.47692   1.47991   1.48570   1.48699
 Alpha virt. eigenvalues --    1.49063   1.49332   1.49829   1.50045   1.50555
 Alpha virt. eigenvalues --    1.50762   1.50964   1.51491   1.51704   1.51766
 Alpha virt. eigenvalues --    1.52249   1.52472   1.52540   1.52671   1.52770
 Alpha virt. eigenvalues --    1.53254   1.53471   1.53758   1.54176   1.54333
 Alpha virt. eigenvalues --    1.54480   1.54904   1.54968   1.55290   1.55519
 Alpha virt. eigenvalues --    1.55917   1.56604   1.56736   1.58080   1.58178
 Alpha virt. eigenvalues --    1.58401   1.58680   1.58959   1.59582   1.59885
 Alpha virt. eigenvalues --    1.59994   1.60322   1.60580   1.60816   1.60997
 Alpha virt. eigenvalues --    1.61059   1.61275   1.61999   1.62185   1.62482
 Alpha virt. eigenvalues --    1.62627   1.63169   1.63411   1.63657   1.64675
 Alpha virt. eigenvalues --    1.65087   1.65512   1.65828   1.66002   1.66287
 Alpha virt. eigenvalues --    1.66696   1.67023   1.67388   1.67723   1.68084
 Alpha virt. eigenvalues --    1.68234   1.68618   1.68738   1.69037   1.69519
 Alpha virt. eigenvalues --    1.69974   1.70151   1.70413   1.70500   1.70643
 Alpha virt. eigenvalues --    1.70737   1.71104   1.71336   1.71658   1.71905
 Alpha virt. eigenvalues --    1.72042   1.72250   1.72282   1.72538   1.72799
 Alpha virt. eigenvalues --    1.72902   1.73306   1.73419   1.73906   1.73957
 Alpha virt. eigenvalues --    1.74231   1.74483   1.74657   1.74836   1.75069
 Alpha virt. eigenvalues --    1.75177   1.75486   1.75651   1.75677   1.75824
 Alpha virt. eigenvalues --    1.75912   1.76096   1.76310   1.76515   1.76675
 Alpha virt. eigenvalues --    1.76800   1.77082   1.77389   1.77462   1.78025
 Alpha virt. eigenvalues --    1.78066   1.78232   1.78517   1.78641   1.78752
 Alpha virt. eigenvalues --    1.78866   1.79079   1.79240   1.79498   1.79567
 Alpha virt. eigenvalues --    1.79658   1.79696   1.79881   1.79992   1.80046
 Alpha virt. eigenvalues --    1.80205   1.80508   1.80734   1.80853   1.81066
 Alpha virt. eigenvalues --    1.81092   1.81192   1.81324   1.81504   1.81668
 Alpha virt. eigenvalues --    1.81792   1.81876   1.82131   1.82364   1.82546
 Alpha virt. eigenvalues --    1.82707   1.82826   1.83227   1.83384   1.83564
 Alpha virt. eigenvalues --    1.83640   1.83702   1.83918   1.84268   1.84412
 Alpha virt. eigenvalues --    1.84588   1.84686   1.84973   1.85058   1.85146
 Alpha virt. eigenvalues --    1.85320   1.85701   1.85916   1.86056   1.86285
 Alpha virt. eigenvalues --    1.86453   1.86601   1.86728   1.86934   1.87078
 Alpha virt. eigenvalues --    1.87503   1.87908   1.88143   1.88281   1.88394
 Alpha virt. eigenvalues --    1.88446   1.88869   1.89109   1.89233   1.89431
 Alpha virt. eigenvalues --    1.89717   1.89852   1.89999   1.90268   1.90419
 Alpha virt. eigenvalues --    1.90503   1.90749   1.90900   1.91235   1.91400
 Alpha virt. eigenvalues --    1.91743   1.91821   1.91970   1.92058   1.92344
 Alpha virt. eigenvalues --    1.92668   1.92738   1.92837   1.93293   1.93319
 Alpha virt. eigenvalues --    1.93705   1.93812   1.93961   1.94226   1.94351
 Alpha virt. eigenvalues --    1.94407   1.94748   1.94912   1.95082   1.95568
 Alpha virt. eigenvalues --    1.95737   1.95831   1.96033   1.96439   1.96650
 Alpha virt. eigenvalues --    1.96901   1.97435   1.97488   1.97859   1.97968
 Alpha virt. eigenvalues --    1.98241   1.98575   1.98633   1.98918   1.99108
 Alpha virt. eigenvalues --    1.99212   1.99434   1.99545   1.99819   2.00025
 Alpha virt. eigenvalues --    2.00053   2.00311   2.00681   2.00876   2.00961
 Alpha virt. eigenvalues --    2.01082   2.01217   2.01462   2.01719   2.01848
 Alpha virt. eigenvalues --    2.02295   2.02421   2.02538   2.03097   2.03209
 Alpha virt. eigenvalues --    2.03590   2.03845   2.04096   2.04287   2.04918
 Alpha virt. eigenvalues --    2.04999   2.05266   2.05655   2.05722   2.05913
 Alpha virt. eigenvalues --    2.06345   2.07001   2.07182   2.07407   2.07455
 Alpha virt. eigenvalues --    2.07674   2.07795   2.08305   2.08502   2.08848
 Alpha virt. eigenvalues --    2.08913   2.09386   2.09672   2.09967   2.10205
 Alpha virt. eigenvalues --    2.10271   2.10834   2.11136   2.11202   2.11393
 Alpha virt. eigenvalues --    2.11703   2.11943   2.12289   2.12429   2.12711
 Alpha virt. eigenvalues --    2.12829   2.13202   2.13502   2.13714   2.14004
 Alpha virt. eigenvalues --    2.14248   2.14514   2.14699   2.15137   2.15366
 Alpha virt. eigenvalues --    2.15554   2.15906   2.16362   2.17003   2.17251
 Alpha virt. eigenvalues --    2.17585   2.17848   2.18047   2.18594   2.18832
 Alpha virt. eigenvalues --    2.18945   2.19302   2.19424   2.19749   2.20173
 Alpha virt. eigenvalues --    2.20252   2.20787   2.20853   2.21167   2.21549
 Alpha virt. eigenvalues --    2.21642   2.21690   2.22108   2.22522   2.22692
 Alpha virt. eigenvalues --    2.22780   2.23186   2.23430   2.23652   2.24042
 Alpha virt. eigenvalues --    2.24476   2.24728   2.25098   2.25375   2.25501
 Alpha virt. eigenvalues --    2.25869   2.26016   2.26237   2.26316   2.27184
 Alpha virt. eigenvalues --    2.27575   2.27991   2.28427   2.28571   2.28967
 Alpha virt. eigenvalues --    2.29287   2.29869   2.30348   2.30483   2.30716
 Alpha virt. eigenvalues --    2.31096   2.31394   2.31527   2.31988   2.32340
 Alpha virt. eigenvalues --    2.32741   2.32874   2.33126   2.33473   2.33790
 Alpha virt. eigenvalues --    2.34087   2.34483   2.34828   2.34904   2.35283
 Alpha virt. eigenvalues --    2.35526   2.35912   2.36019   2.36170   2.36554
 Alpha virt. eigenvalues --    2.37127   2.37304   2.37814   2.37858   2.38223
 Alpha virt. eigenvalues --    2.38722   2.38877   2.39022   2.39854   2.40058
 Alpha virt. eigenvalues --    2.40368   2.41042   2.41235   2.41438   2.41800
 Alpha virt. eigenvalues --    2.42237   2.42525   2.42798   2.43069   2.43208
 Alpha virt. eigenvalues --    2.43706   2.44334   2.44528   2.44677   2.44880
 Alpha virt. eigenvalues --    2.45346   2.45437   2.45907   2.46433   2.46996
 Alpha virt. eigenvalues --    2.47312   2.47763   2.47926   2.48212   2.48511
 Alpha virt. eigenvalues --    2.48700   2.49201   2.49416   2.50060   2.50213
 Alpha virt. eigenvalues --    2.50322   2.50806   2.51119   2.51593   2.51752
 Alpha virt. eigenvalues --    2.52432   2.53035   2.53198   2.53446   2.53639
 Alpha virt. eigenvalues --    2.54385   2.54620   2.55411   2.55575   2.55699
 Alpha virt. eigenvalues --    2.56342   2.56438   2.56708   2.56984   2.57682
 Alpha virt. eigenvalues --    2.58158   2.58291   2.58717   2.59192   2.59602
 Alpha virt. eigenvalues --    2.59885   2.60111   2.60463   2.60591   2.60738
 Alpha virt. eigenvalues --    2.60855   2.61527   2.61774   2.62034   2.62465
 Alpha virt. eigenvalues --    2.62799   2.63053   2.63462   2.63573   2.63716
 Alpha virt. eigenvalues --    2.64075   2.64407   2.64530   2.64782   2.65721
 Alpha virt. eigenvalues --    2.65795   2.65982   2.66107   2.66565   2.67045
 Alpha virt. eigenvalues --    2.67255   2.67460   2.67770   2.67848   2.67956
 Alpha virt. eigenvalues --    2.68776   2.69363   2.69571   2.69841   2.70121
 Alpha virt. eigenvalues --    2.70266   2.70756   2.70886   2.71132   2.71413
 Alpha virt. eigenvalues --    2.71553   2.71826   2.71976   2.72264   2.72411
 Alpha virt. eigenvalues --    2.72725   2.72828   2.72852   2.73386   2.73465
 Alpha virt. eigenvalues --    2.73962   2.74745   2.75323   2.75644   2.75793
 Alpha virt. eigenvalues --    2.76213   2.76543   2.76679   2.77097   2.77410
 Alpha virt. eigenvalues --    2.77566   2.77758   2.78091   2.78201   2.78464
 Alpha virt. eigenvalues --    2.78647   2.78777   2.78869   2.79185   2.79379
 Alpha virt. eigenvalues --    2.79525   2.79832   2.80069   2.80260   2.80665
 Alpha virt. eigenvalues --    2.81325   2.81397   2.81940   2.82424   2.82498
 Alpha virt. eigenvalues --    2.82899   2.83036   2.83188   2.83678   2.83737
 Alpha virt. eigenvalues --    2.84482   2.84749   2.85022   2.85155   2.85534
 Alpha virt. eigenvalues --    2.85677   2.86249   2.86526   2.86892   2.86995
 Alpha virt. eigenvalues --    2.87193   2.87231   2.87372   2.87499   2.88048
 Alpha virt. eigenvalues --    2.88374   2.88683   2.88838   2.89220   2.89661
 Alpha virt. eigenvalues --    2.89779   2.90202   2.90309   2.90772   2.90961
 Alpha virt. eigenvalues --    2.91293   2.91432   2.91769   2.92399   2.92489
 Alpha virt. eigenvalues --    2.92678   2.92727   2.93051   2.93123   2.93797
 Alpha virt. eigenvalues --    2.94343   2.94604   2.95083   2.95264   2.95536
 Alpha virt. eigenvalues --    2.95993   2.96035   2.96349   2.97358   2.97600
 Alpha virt. eigenvalues --    2.97753   2.97847   2.98102   2.98233   2.98313
 Alpha virt. eigenvalues --    2.98873   2.99156   2.99512   3.00011   3.00303
 Alpha virt. eigenvalues --    3.00485   3.01314   3.01364   3.01735   3.01999
 Alpha virt. eigenvalues --    3.02229   3.02724   3.03061   3.03270   3.03367
 Alpha virt. eigenvalues --    3.03611   3.04100   3.04279   3.05337   3.05598
 Alpha virt. eigenvalues --    3.05891   3.07196   3.07334   3.07694   3.08145
 Alpha virt. eigenvalues --    3.08491   3.08634   3.09135   3.09553   3.09919
 Alpha virt. eigenvalues --    3.10499   3.10903   3.11025   3.11149   3.11470
 Alpha virt. eigenvalues --    3.12233   3.12620   3.12831   3.13258   3.13597
 Alpha virt. eigenvalues --    3.13810   3.14199   3.14721   3.14873   3.15477
 Alpha virt. eigenvalues --    3.15837   3.16193   3.16649   3.16720   3.16786
 Alpha virt. eigenvalues --    3.17086   3.18302   3.18938   3.19147   3.19697
 Alpha virt. eigenvalues --    3.20043   3.20595   3.21087   3.21206   3.21737
 Alpha virt. eigenvalues --    3.21960   3.22711   3.23166   3.23717   3.23958
 Alpha virt. eigenvalues --    3.24010   3.24424   3.25385   3.25556   3.26233
 Alpha virt. eigenvalues --    3.26356   3.27309   3.27590   3.28050   3.28499
 Alpha virt. eigenvalues --    3.29793   3.30697   3.32050   3.32345   3.32385
 Alpha virt. eigenvalues --    3.33131   3.33212   3.34447   3.34573   3.35332
 Alpha virt. eigenvalues --    3.36200   3.37266   3.37434   3.40129   3.41071
 Alpha virt. eigenvalues --    3.41354   3.42558   3.49182   3.50221   3.50682
 Alpha virt. eigenvalues --    3.51366   3.52063   3.52720   3.53155   3.54043
 Alpha virt. eigenvalues --    3.56714   3.58337   3.59046   3.59736   3.61002
 Alpha virt. eigenvalues --    3.61521   3.61702   3.61772   3.62909   3.64512
 Alpha virt. eigenvalues --    3.65312   3.66827   3.67245   3.67738   3.68791
 Alpha virt. eigenvalues --    3.68984   3.69060   3.69567   3.69887   3.70683
 Alpha virt. eigenvalues --    3.70981   3.71330   3.72148   3.72798   3.73096
 Alpha virt. eigenvalues --    3.73293   3.74730   3.75387   3.75847   3.79103
 Alpha virt. eigenvalues --    3.80902   3.82593   3.82807   3.86366
          Condensed to atoms (all electrons):
 Mulliken charges:
               1
     1  C    0.061721
     2  C    0.033586
     3  O   -0.284606
     4  H    0.043125
     5  H   -0.000514
     6  H    0.038952
     7  N   -0.123136
     8  C    0.044576
     9  C    0.094543
    10  O   -0.264586
    11  C    0.078390
    12  C    0.192571
    13  O   -0.422152
    14  O   -0.462754
    15  H    0.117723
    16  H    0.018270
    17  H    0.014476
    18  H    0.008369
    19  N   -0.138348
    20  C    0.193187
    21  C    0.050239
    22  O   -0.292446
    23  C   -0.066230
    24  C    0.031080
    25  C   -0.062379
    26  C    0.010650
    27  N    0.087156
    28  H    0.148633
    29  H   -0.005976
    30  H    0.035868
    31  H    0.025007
    32  H    0.010330
    33  H    0.050421
    34  H    0.049540
    35  H    0.012989
    36  H    0.078249
    37  H    0.096673
    38  H    0.199238
    39  H    0.199784
    40  H    0.182301
    41  N   -0.169888
    42  C    0.105512
    43  C    0.073269
    44  O   -0.277294
    45  C    0.141232
    46  C    0.084294
    47  O   -0.389008
    48  O   -0.487416
    49  H    0.165474
    50  H    0.012442
    51  H   -0.054628
    52  H    0.009222
    53  N   -0.148468
    54  C    0.249498
    55  C    0.023275
    56  O   -0.292787
    57  H    0.138413
    58  H    0.008098
    59  H    0.005863
    60  N   -0.168385
    61  C    0.107394
    62  C    0.048723
    63  O   -0.295988
    64  C    0.116367
    65  C    0.091864
    66  N   -0.046120
    67  O   -0.363388
    68  H    0.140047
    69  H    0.030318
    70  H    0.072025
    71  H   -0.010573
    72  H    0.126805
    73  H    0.135014
    74  N   -0.145507
    75  C    0.201838
    76  C    0.048537
    77  O   -0.287216
    78  H    0.145456
    79  H    0.025510
    80  H    0.031960
    81  N   -0.127989
    82  C    0.125357
    83  C    0.114993
    84  O   -0.346679
    85  C    0.114340
    86  C   -0.037228
    87  C    0.015965
    88  C    0.028188
    89  C   -0.050453
    90  C   -0.049540
    91  C    0.170029
    92  O   -0.194594
    93  H    0.150828
    94  H   -0.016521
    95  H   -0.001694
    96  H   -0.016115
    97  H   -0.027316
    98  H   -0.016673
    99  H   -0.034019
   100  H   -0.043877
   101  H    0.169777
   102  N   -0.097205
   103  C    0.116777
   104  C    0.080193
   105  O   -0.288811
   106  C   -0.076802
   107  C   -0.002657
   108  C    0.012365
   109  C    0.046471
   110  H    0.133420
   111  H    0.025524
   112  H   -0.022522
   113  H   -0.006053
   114  H    0.016771
   115  H    0.001085
   116  H    0.032166
   117  H   -0.008152
   118  H    0.002059
   119  H    0.018143
   120  H    0.012516
   121  N   -0.119514
   122  C    0.086863
   123  C    0.106055
   124  O   -0.291659
   125  C    0.277714
   126  O   -0.361256
   127  H    0.156970
   128  H    0.022452
   129  H    0.009395
   130  H   -0.043961
   131  H    0.181988
   132  N   -0.122197
   133  C    0.094079
   134  C    0.063727
   135  O   -0.240218
   136  C    0.040017
   137  H    0.113923
   138  H    0.016333
   139  H    0.028423
   140  H    0.038487
   141  H    0.019980
   142  N   -0.139276
   143  C    0.103480
   144  C    0.063571
   145  O   -0.299807
   146  C    0.023703
   147  H    0.113186
   148  H    0.008693
   149  H    0.034142
   150  H    0.013843
   151  H    0.018586
   152  N   -0.168937
   153  C    0.120757
   154  C    0.095347
   155  O   -0.303585
   156  C   -0.041417
   157  C    0.137179
   158  C    0.160999
   159  O   -0.462227
   160  O   -0.387478
   161  H    0.135257
   162  H   -0.024299
   163  H    0.039950
   164  H   -0.008549
   165  H    0.012787
   166  H   -0.047733
   167  N   -0.156256
   168  C    0.143768
   169  H    0.020873
   170  H    0.018758
   171  H    0.005129
   172  H    0.121328
   173  Ca   1.284713
   174  O   -0.280287
   175  H    0.188419
   176  H    0.169405
 Sum of Mulliken charges =   0.00000
 Mulliken charges with hydrogens summed into heavy atoms:
               1
     1  C    0.143284
     2  C    0.033586
     3  O   -0.284606
     7  N   -0.005413
     8  C    0.062845
     9  C    0.094543
    10  O   -0.264586
    11  C    0.101235
    12  C    0.192571
    13  O   -0.422152
    14  O   -0.462754
    19  N    0.010285
    20  C    0.187211
    21  C    0.050239
    22  O   -0.292446
    23  C   -0.005355
    24  C    0.091831
    25  C    0.000150
    26  C    0.185572
    27  N    0.668478
    41  N   -0.004414
    42  C    0.117954
    43  C    0.073269
    44  O   -0.277294
    45  C    0.095827
    46  C    0.084294
    47  O   -0.389008
    48  O   -0.487416
    53  N   -0.010054
    54  C    0.263459
    55  C    0.023275
    56  O   -0.292787
    60  N   -0.028338
    61  C    0.137713
    62  C    0.048723
    63  O   -0.295988
    64  C    0.177820
    65  C    0.091864
    66  N    0.215700
    67  O   -0.363388
    74  N   -0.000052
    75  C    0.259307
    76  C    0.048537
    77  O   -0.287216
    81  N    0.022838
    82  C    0.108836
    83  C    0.114993
    84  O   -0.346679
    85  C    0.096531
    86  C   -0.037228
    87  C   -0.011351
    88  C    0.011515
    89  C   -0.084472
    90  C   -0.093417
    91  C    0.170029
    92  O   -0.024817
   102  N    0.036216
   103  C    0.142301
   104  C    0.080193
   105  O   -0.288811
   106  C   -0.099324
   107  C    0.008061
   108  C    0.037464
   109  C    0.079190
   121  N    0.037456
   122  C    0.109315
   123  C    0.106055
   124  O   -0.291659
   125  C    0.243148
   126  O   -0.179268
   132  N   -0.008274
   133  C    0.110412
   134  C    0.063727
   135  O   -0.240218
   136  C    0.126908
   142  N   -0.026089
   143  C    0.112174
   144  C    0.063571
   145  O   -0.299807
   146  C    0.090274
   152  N   -0.033679
   153  C    0.096458
   154  C    0.095347
   155  O   -0.303585
   156  C   -0.010016
   157  C    0.102234
   158  C    0.160999
   159  O   -0.462227
   160  O   -0.387478
   167  N   -0.034928
   168  C    0.188528
   173  Ca   1.284713
   174  O    0.077537
 DipInt: DoE/N= T F RetVal/Mat= T F Init=T NMatP=  1 IDeriv=0 Min/MaxMlt=  0  4
 Entering OneElI...
 OneElI was handed  4286741430 working-precision words.
 Multipole integrals L=0 to 4 MinM= 0 MaxM= 0.
 Requested accuracy = 0.1000D-12
 ShPair: Thresh= 1.00D-13 NBox=     0 BxSize= 0.00D+00 RnKept= 2.55D+01
         NSMCal=               327645 NSMKep=              163381
 PrsmSu:  NPrtUS=   1 ThrOK=F IAlg=1 NPAlg=1 LenDen=           0.
 Prism:   IPart=     0 DynPar=F LinDyn=F Incr=         512.
 PRISM was handed  4276564170 working-precision words and163381 shell-pairs
 IPart=  0 NShTot=      163381 NBatch=         458 AvBLen=       356.7
 PrSmSu:  NxtVal=            513.
 Electronic moments (au):
       -716.00000000         12.01510033         -2.15519676         -3.69978650
     -51670.84488258     -29691.24373467     -11967.19407626        105.17409828
        -38.57437665         12.62894708       6609.76298359     -11451.79454988
     -21559.21713973       4785.40668482      94604.15020960      48706.39770306
     -10656.61349191       4011.43649885      24414.48205939      -5325.61907335
   -7563260.33976173   -2555622.79803901    -586639.63396429    -568921.06185393
     126925.32883290    -322951.35825565     -69980.28001674     -62060.75192900
      66816.29584924   -2396804.67814140    -616036.55421900    -315696.90859534
    -228040.01627716      16282.08436072      42767.49082225
 Electronic spatial extent (au):  <R**2>=          93329.2827
 DipInt: DoE/N= F T RetVal/Mat= T F Init=T NMatP=  1 IDeriv=0 Min/MaxMlt=  0  4
 Nuclear    moments (au):
        716.00000000          0.00000000          0.00000000          0.00000000
      51361.68536451      29280.70196848      11589.40438101          0.00000000
          0.00000000          0.00000000      -4626.48500515      11134.39912190
      21430.74773506      -2664.30037018     -93118.53794126     -49889.15469802
      10696.16244328      -4129.26512254     -24657.60812039       5027.33808819
    7413435.73060318    2449077.97106168     549201.39208983     594769.17031336
    -134326.83899401     333831.17783127      70007.08039050      63260.78387192
     -65990.19342642    2366446.85453025     584176.65182071     291985.92446701
     227549.33343825     -21479.18004654     -43184.67125034
 Total      moments (au):
          0.00000000         12.01510033         -2.15519676         -3.69978650
       -309.15951806       -410.54176620       -377.78969525        105.17409828
        -38.57437665         12.62894708       1983.27797844       -317.39542798
       -128.46940467       2121.10631464       1485.61226833      -1182.75699496
         39.54895137       -117.82862369       -243.12606101       -298.28098516
    -149824.60915854    -106544.82697734     -37438.24187445      25848.10845943
      -7401.51016111      10879.81957562         26.80037375       1200.03194292
        826.10242281     -30357.82361115     -31859.90239829     -23710.98412833
       -490.68283891      -5197.09568582       -417.18042810
 Traceless Quadrup. (au):
         56.67080844        -44.71143969        -11.95936875        105.17409828
        -38.57437665         12.62894708
 Charge=              0.0000 electrons
 Dipole moment (field-independent basis, Debye):
    X=             30.5393    Y=             -5.4780    Z=             -9.4039  Tot=             32.4206
 Quadrupole moment (field-independent basis, Debye-Ang):
   XX=           -415.8301   YY=           -552.1927   ZZ=           -508.1401
   XY=            141.4628   XZ=            -51.8839   YZ=             16.9864
 Traceless Quadrupole moment (field-independent basis, Debye-Ang):
   XX=             76.2242   YY=            -60.1384   ZZ=            -16.0858
   XY=            141.4628   XZ=            -51.8839   YZ=             16.9864
 Octapole moment (field-independent basis, Debye-Ang**2):
  XXX=           1411.6208  YYY=           -225.9098  ZZZ=            -91.4396  XYY=           1509.7217
  XXY=           1057.4015  XXZ=           -841.8408  XZZ=             28.1494  YZZ=            -83.8659
  YYZ=           -173.0478  XYZ=           -212.3049
 Hexadecapole moment (field-independent basis, Debye-Ang**3):
 XXXX=         -56431.1284 YYYY=         -40129.8882 ZZZZ=         -14101.0362 XXXY=           9735.6365
 XXXZ=          -2787.7635 YYYX=           4097.8615 YYYZ=             10.0943 ZZZX=            451.9895
 ZZZY=            311.1498 XXYY=         -11434.2113 XXZZ=         -11999.9662 YYZZ=          -8930.6930
 XXYZ=           -184.8147 YYXZ=          -1957.4753 ZZXY=           -157.1301
 N-N= 2.182541822258D+04 E-N=-5.613645240008D+04  KE= 5.290528430633D+03
 Leave Link  601 at Mon Sep 16 17:31:30 2019, MaxMem=  4294967296 cpu:        22.0
 FitSet:  NAtFit=   176 NAtPot=   176 NAtFrz=     0 MDM=   180 TotChg=   0.00000
 Merz-Kollman atomic radii used.
 Read replacement radii for each type of atom:
 Rad(20) =   1.700000000000D+00
 Atom Element Radius
    1     6    1.50
    2     6    1.50
    3     8    1.40
    4     1    1.20
    5     1    1.20
    6     1    1.20
    7     7    1.50
    8     6    1.50
    9     6    1.50
   10     8    1.40
   11     6    1.50
   12     6    1.50
   13     8    1.40
   14     8    1.40
   15     1    1.20
   16     1    1.20
   17     1    1.20
   18     1    1.20
   19     7    1.50
   20     6    1.50
   21     6    1.50
   22     8    1.40
   23     6    1.50
   24     6    1.50
   25     6    1.50
   26     6    1.50
   27     7    1.50
   28     1    1.20
   29     1    1.20
   30     1    1.20
   31     1    1.20
   32     1    1.20
   33     1    1.20
   34     1    1.20
   35     1    1.20
   36     1    1.20
   37     1    1.20
   38     1    1.20
   39     1    1.20
   40     1    1.20
   41     7    1.50
   42     6    1.50
   43     6    1.50
   44     8    1.40
   45     6    1.50
   46     6    1.50
   47     8    1.40
   48     8    1.40
   49     1    1.20
   50     1    1.20
   51     1    1.20
   52     1    1.20
   53     7    1.50
   54     6    1.50
   55     6    1.50
   56     8    1.40
   57     1    1.20
   58     1    1.20
   59     1    1.20
   60     7    1.50
   61     6    1.50
   62     6    1.50
   63     8    1.40
   64     6    1.50
   65     6    1.50
   66     7    1.50
   67     8    1.40
   68     1    1.20
   69     1    1.20
   70     1    1.20
   71     1    1.20
   72     1    1.20
   73     1    1.20
   74     7    1.50
   75     6    1.50
   76     6    1.50
   77     8    1.40
   78     1    1.20
   79     1    1.20
   80     1    1.20
   81     7    1.50
   82     6    1.50
   83     6    1.50
   84     8    1.40
   85     6    1.50
   86     6    1.50
   87     6    1.50
   88     6    1.50
   89     6    1.50
   90     6    1.50
   91     6    1.50
   92     8    1.40
   93     1    1.20
   94     1    1.20
   95     1    1.20
   96     1    1.20
   97     1    1.20
   98     1    1.20
   99     1    1.20
  100     1    1.20
  101     1    1.20
  102     7    1.50
  103     6    1.50
  104     6    1.50
  105     8    1.40
  106     6    1.50
  107     6    1.50
  108     6    1.50
  109     6    1.50
  110     1    1.20
  111     1    1.20
  112     1    1.20
  113     1    1.20
  114     1    1.20
  115     1    1.20
  116     1    1.20
  117     1    1.20
  118     1    1.20
  119     1    1.20
  120     1    1.20
  121     7    1.50
  122     6    1.50
  123     6    1.50
  124     8    1.40
  125     6    1.50
  126     8    1.40
  127     1    1.20
  128     1    1.20
  129     1    1.20
  130     1    1.20
  131     1    1.20
  132     7    1.50
  133     6    1.50
  134     6    1.50
  135     8    1.40
  136     6    1.50
  137     1    1.20
  138     1    1.20
  139     1    1.20
  140     1    1.20
  141     1    1.20
  142     7    1.50
  143     6    1.50
  144     6    1.50
  145     8    1.40
  146     6    1.50
  147     1    1.20
  148     1    1.20
  149     1    1.20
  150     1    1.20
  151     1    1.20
  152     7    1.50
  153     6    1.50
  154     6    1.50
  155     8    1.40
  156     6    1.50
  157     6    1.50
  158     6    1.50
  159     8    1.40
  160     8    1.40
  161     1    1.20
  162     1    1.20
  163     1    1.20
  164     1    1.20
  165     1    1.20
  166     1    1.20
  167     7    1.50
  168     6    1.50
  169     1    1.20
  170     1    1.20
  171     1    1.20
  172     1    1.20
  173    20    1.70
  174     8    1.40
  175     1    1.20
  176     1    1.20
 Generate VDW surfaces: Layer= 4 Dens= 6 Start= 1.400 Inc= 0.200

 **********************************************************************

            Electrostatic Properties Using The SCF Density

 **********************************************************************

       Atomic Center    1 is at   2.523083  0.627929  5.555525
       Atomic Center    2 is at   1.895424  0.781914  4.176237
[...]
 **** Fit      -0.037101
 **** Fit      -0.036572
 **** Fit      -0.031386
 **** Fit      -0.025045
 **** Fit      -0.018052
 **** Fit      -0.011045
 **** Fit      -0.004724
 **** Fit      -0.010376
 **** Fit      -0.002376
 **** Fit       0.024836
 **** Fit       0.016226
 **** Fit       0.012600
 **** Fit       0.009007
 **** Fit       0.002862
 **** Fit      -0.006241
 **** Fit      -0.018999
 **** Fit      -0.001411
 **** Fit      -0.011353
 **** Fit      -0.024990
 **** Fit      -0.012929
 **** Fit      -0.025466
 **** Fit      -0.026887
 **** Fit      -0.036521
 **** Fit      -0.037874
 **** Fit      -0.031767
 **** Fit      -0.041861
 **** Fit      -0.037004
 **** Fit      -0.033074
 **** Fit      -0.031454
 **** Fit      -0.042008
 **** Fit       0.001082
 **** Fit       0.000138
 **** Fit      -0.009307
 **** Fit      -0.019229
 **** Fit      -0.028192
 **** Fit      -0.002047
 **** Fit      -0.011091
 **** Fit      -0.018533
 **** Fit      -0.021183
 **** Fit      -0.020185
 **** Fit      -0.004335
 **** Fit      -0.011984
 **** Fit      -0.014187
 **** Fit      -0.003834
 **** Fit      -0.007208
 **** Fit       0.027450
 **** Fit       0.013705
 **** Fit      -0.000490
 **** Fit      -0.018753
 **** Fit       0.018240
 **** Fit       0.014755
 **** Fit       0.006468
 **** Fit      -0.006874
 **** Fit      -0.024836
 **** Fit       0.006534
 **** Fit      -0.001515
 **** Fit      -0.014962
 **** Fit      -0.038559
 **** Fit      -0.005521
 **** Fit      -0.007168
 **** Fit      -0.002220
 **** Fit      -0.002903
 **** Fit      -0.004029
 **** Fit      -0.005868
 **** Fit      -0.007618
 **** Fit      -0.009514
 **** Fit      -0.001170
 **** Fit      -0.001253
 **** Fit      -0.001610
 **** Fit      -0.002269
 **** Fit      -0.003207
 **** Fit      -0.004400
 **** Fit      -0.006077
 **** Fit      -0.007884
 **** Fit      -0.010072
 **** Fit      -0.012493
 **** Fit      -0.000521
 **** Fit      -0.000433
 **** Fit      -0.000554
 **** Fit      -0.000941
 **** Fit      -0.001586
 **** Fit      -0.002435
 **** Fit      -0.003445
 **** Fit      -0.004631
 **** Fit      -0.012655
 **** Fit      -0.015655
 **** Fit      -0.018749
 **** Fit      -0.000192
 **** Fit       0.000104
 **** Fit       0.000298
 **** Fit       0.000302
 **** Fit       0.000058
 **** Fit      -0.000435
 **** Fit      -0.001126
 **** Fit      -0.001944
 **** Fit      -0.002833
 **** Fit      -0.003784
 **** Fit      -0.020464
 **** Fit      -0.024848
 **** Fit      -0.000019
 **** Fit       0.000454
 **** Fit       0.000864
 **** Fit       0.000861
 **** Fit       0.000293
 **** Fit      -0.000478
 **** Fit      -0.001355
 **** Fit      -0.002255
 **** Fit      -0.003133
 **** Fit      -0.026644
 **** Fit      -0.000077
 **** Fit       0.000589
 **** Fit       0.000141
 **** Fit      -0.000864
 **** Fit      -0.001859
 **** Fit      -0.002771
 **** Fit       0.000098
 **** Fit      -0.001439
 **** Fit      -0.002530
 **** Fit      -0.002413
 **** Fit      -0.003567
 **** Fit      -0.003702
 **** Fit      -0.004971
 **** Fit      -0.005210
 **** Fit      -0.006772
 **** Fit      -0.007510
 **** Fit      -0.009449
 **** Fit      -0.011008
 **** Fit      -0.013421
 **** Fit      -0.006679
 **** Fit      -0.008584
 **** Fit      -0.006425
 **** Fit      -0.008061
 **** Fit      -0.010259
 **** Fit      -0.012943
 **** Fit      -0.004373
 **** Fit      -0.005248
 **** Fit      -0.006275
 **** Fit      -0.007731
 **** Fit      -0.009740
 **** Fit      -0.012421
 **** Fit      -0.015782
 **** Fit      -0.003764
 **** Fit      -0.004432
 **** Fit      -0.005224
 **** Fit      -0.006318
 **** Fit      -0.007643
 **** Fit      -0.009496
 **** Fit      -0.012053
 **** Fit      -0.015490
 **** Fit      -0.019918
 **** Fit      -0.003440
 **** Fit      -0.004045
 **** Fit      -0.004651
 **** Fit      -0.005367
 **** Fit      -0.006649
 **** Fit      -0.007830
 **** Fit      -0.009487
 **** Fit      -0.011796
 **** Fit      -0.014975
 **** Fit      -0.019291
 **** Fit      -0.025020
 **** Fit      -0.003463
 **** Fit      -0.004089
 **** Fit      -0.004625
 **** Fit      -0.005162
 **** Fit      -0.005800
 **** Fit      -0.007367
 **** Fit      -0.008488
 **** Fit      -0.010088
 **** Fit      -0.012355
 **** Fit      -0.015545
 **** Fit      -0.020013
 **** Fit      -0.026250
 **** Fit      -0.004376
 **** Fit      -0.004995
 **** Fit      -0.005500
 **** Fit      -0.005992
 **** Fit      -0.006577
 **** Fit      -0.008592
 **** Fit      -0.009644
 **** Fit      -0.011166
 **** Fit      -0.013342
 **** Fit      -0.016424
 **** Fit      -0.020782
 **** Fit      -0.026987
 **** Fit      -0.005857
 **** Fit      -0.006448
 **** Fit      -0.006907
 **** Fit      -0.007343
 **** Fit      -0.007867
 **** Fit      -0.010471
 **** Fit      -0.011485
 **** Fit      -0.012992
 **** Fit      -0.015174
 **** Fit      -0.018278
 **** Fit      -0.022675
 **** Fit      -0.028957
 **** Fit      -0.008001
 **** Fit      -0.008572
 **** Fit      -0.008978
 **** Fit      -0.009346
 **** Fit      -0.009802
 **** Fit      -0.013189
 **** Fit      -0.014227
 **** Fit      -0.015860
 **** Fit      -0.018294
 **** Fit      -0.021799
 **** Fit      -0.026777
 **** Fit      -0.011021
 **** Fit      -0.011614
 **** Fit      -0.011952
 **** Fit      -0.012214
 **** Fit      -0.012572
 **** Fit      -0.016982
 **** Fit      -0.018062
 **** Fit      -0.019930
 **** Fit      -0.022825
 **** Fit      -0.027033
 **** Fit      -0.032941
 **** Fit      -0.016094
 **** Fit      -0.016274
 **** Fit      -0.016313
 **** Fit      -0.016472
 **** Fit      -0.022145
 **** Fit      -0.023203
 **** Fit      -0.025327
 **** Fit      -0.028770
 **** Fit      -0.033762
 **** Fit      -0.022579
 **** Fit      -0.022140
 **** Fit      -0.021886
 **** Fit      -0.028999
 **** Fit      -0.029983
 **** Fit      -0.032640
 **** Fit      -0.004382
 **** Fit      -0.005343
 **** Fit      -0.006347
 **** Fit      -0.005150
 **** Fit      -0.003355
 **** Fit      -0.002939
 **** Fit      -0.003752
 **** Fit      -0.006261
 **** Fit      -0.007965
 **** Fit      -0.008967
 **** Fit      -0.008391
 **** Fit      -0.006081
 **** Fit      -0.002255
 **** Fit      -0.001854
 **** Fit      -0.001903
 **** Fit      -0.002343
 **** Fit      -0.003220
 **** Fit      -0.004562
 **** Fit      -0.007149
 **** Fit      -0.009136
 **** Fit      -0.011052
 **** Fit      -0.012400
 **** Fit      -0.012498
 **** Fit      -0.001092
 **** Fit      -0.001069
 **** Fit      -0.001171
 **** Fit      -0.001443
 **** Fit      -0.001939
 **** Fit      -0.012770
 **** Fit      -0.015209
 **** Fit      -0.017109
 **** Fit      -0.017785
 **** Fit      -0.000672
 **** Fit      -0.000619
 **** Fit      -0.000634
 **** Fit      -0.000746
 **** Fit      -0.021166
 **** Fit      -0.023896
 **** Fit      -0.025188
 **** Fit      -0.000803
 **** Fit      -0.000531
 **** Fit      -0.000373
 **** Fit      -0.000312
 **** Fit      -0.029529
 **** Fit      -0.000497
 **** Fit       0.001240
 **** Fit       0.001349
 **** Fit       0.001067
 **** Fit       0.001356
 **** Fit       0.001925
 **** Fit       0.002197
 **** Fit       0.002137
 **** Fit       0.001736
 **** Fit       0.001025
 **** Fit       0.001525
 **** Fit       0.002297
 **** Fit       0.002809
 **** Fit       0.003032
 **** Fit       0.002927
 **** Fit       0.002482
 **** Fit       0.001719
 **** Fit       0.000706
 **** Fit       0.001433
 **** Fit       0.002407
 **** Fit       0.003143
 **** Fit       0.003627
 **** Fit       0.003820
 **** Fit       0.003682
 **** Fit       0.003196
 **** Fit       0.002380
 **** Fit       0.001289
 **** Fit       0.000008
 **** Fit       0.001217
 **** Fit       0.002422
 **** Fit       0.003383
 **** Fit       0.004092
 **** Fit       0.004496
 **** Fit       0.004538
 **** Fit       0.004178
 **** Fit       0.003414
 **** Fit       0.002283
 **** Fit       0.000861
 **** Fit      -0.000741
 **** Fit       0.002093
 **** Fit       0.003307
 **** Fit       0.004302
 **** Fit       0.004988
 **** Fit       0.005280
 **** Fit       0.005114
 **** Fit       0.004465
 **** Fit       0.003351
 **** Fit       0.001833
 **** Fit       0.000015
 **** Fit      -0.001967
 **** Fit       0.002115
 **** Fit       0.003631
 **** Fit       0.004875
 **** Fit       0.005694
 **** Fit       0.005984
 **** Fit       0.005677
 **** Fit       0.004757
 **** Fit       0.003258
 **** Fit       0.001270
 **** Fit      -0.001070
 **** Fit      -0.003587
 **** Fit       0.002207
 **** Fit       0.004322
 **** Fit       0.005840
 **** Fit       0.006609
 **** Fit       0.006531
 **** Fit       0.005562
 **** Fit       0.003736
 **** Fit       0.001173
 **** Fit      -0.001931
 **** Fit      -0.005323
 **** Fit       0.004470
 **** Fit       0.006586
 **** Fit       0.007420
 **** Fit       0.006864
 **** Fit       0.004902
 **** Fit       0.001680
 **** Fit      -0.002506
 **** Fit      -0.007260
 **** Fit       0.008300
 **** Fit       0.014466
 **** Fit       0.012723
 **** Fit       0.018141
 **** Fit       0.017514
 **** Fit       0.015463
 **** Fit       0.019696
 **** Fit       0.021163
 **** Fit       0.021713
 **** Fit       0.020924
 **** Fit       0.018427
 **** Fit       0.018722
 **** Fit       0.020170
 **** Fit       0.019685
 **** Fit      -0.043235
 **** Fit       0.020425
 **** Fit      -0.021003
 **** Fit      -0.030496
 **** Fit      -0.037770
 **** Fit       0.021324
 **** Fit      -0.025432
 **** Fit      -0.030726
 **** Fit       0.021707
 **** Fit      -0.022946
 **** Fit      -0.034894
 **** Fit      -0.015067
 **** Fit      -0.025332
 **** Fit       0.020122
 **** Fit       0.022222
 **** Fit      -0.016044
 **** Fit      -0.023526
 **** Fit       0.022200
 **** Fit      -0.007595
 **** Fit       0.023229
 **** Fit      -0.025328
 **** Fit      -0.030533
 **** Fit      -0.022965
 **** Fit      -0.015549
 **** Fit      -0.031204
 **** Fit      -0.024569
 **** Fit      -0.018031
 **** Fit      -0.011590
 **** Fit      -0.005579
 **** Fit      -0.031675
 **** Fit      -0.025315
 **** Fit      -0.019405
 **** Fit      -0.013698
 **** Fit      -0.008108
 **** Fit      -0.002772
 **** Fit       0.002017
 **** Fit      -0.021980
 **** Fit      -0.028447
 **** Fit      -0.031417
 **** Fit      -0.030656
 **** Fit      -0.027111
 **** Fit      -0.022225
 **** Fit      -0.016993
 **** Fit      -0.011768
 **** Fit      -0.006604
 **** Fit      -0.001573
 **** Fit       0.003131
 **** Fit       0.007263
 **** Fit       0.010698
 **** Fit       0.013577
 **** Fit       0.016229
 **** Fit       0.018927
 **** Fit       0.021907
 **** Fit      -0.005119
 **** Fit      -0.012176
 **** Fit      -0.016757
 **** Fit      -0.018303
 **** Fit      -0.017039
 **** Fit      -0.013875
 **** Fit      -0.009756
 **** Fit      -0.005254
 **** Fit      -0.000659
 **** Fit       0.003804
 **** Fit       0.007897
 **** Fit       0.011450
 **** Fit       0.014489
 **** Fit       0.017222
 **** Fit       0.019915
 **** Fit       0.022789
 **** Fit       0.000854
 **** Fit      -0.004811
 **** Fit      -0.007878
 **** Fit      -0.008073
 **** Fit      -0.005974
 **** Fit      -0.002504
 **** Fit       0.001594
 **** Fit       0.005811
 **** Fit       0.009769
 **** Fit       0.013248
 **** Fit       0.016260
 **** Fit       0.018970
 **** Fit       0.021451
 **** Fit       0.008083
 **** Fit       0.005281
 **** Fit       0.000723
 **** Fit      -0.000539
 **** Fit       0.001275
 **** Fit       0.004896
 **** Fit       0.009076
 **** Fit       0.012968
 **** Fit       0.016186
 **** Fit       0.018505
 **** Fit       0.019171
 **** Fit       0.016894
 **** Fit       0.011570
 **** Fit       0.008481
 **** Fit       0.005617
 **** Fit       0.007874
 **** Fit       0.012155
 **** Fit       0.014953
 **** Fit       0.013615
 **** Fit       0.010707
 **** Fit       0.021885
 **** Fit       0.020951
 **** Fit       0.019147
 **** Fit       0.016068
 **** Fit       0.020815
 **** Fit       0.021095
 **** Fit       0.021017
 **** Fit       0.020406
 **** Fit       0.018922
 **** Fit       0.020534
 **** Fit       0.020825
 **** Fit       0.021172
 **** Fit       0.021407
 **** Fit       0.021339
 **** Fit       0.020703
 **** Fit       0.019044
 **** Fit       0.015740
 **** Fit      -0.018650
 **** Fit       0.021311
 **** Fit       0.021387
 **** Fit       0.021626
 **** Fit       0.021931
 **** Fit       0.022129
 **** Fit       0.022012
 **** Fit       0.021290
 **** Fit       0.019556
 **** Fit       0.016356
 **** Fit       0.011486
 **** Fit      -0.011809
 **** Fit      -0.013370
 **** Fit       0.022021
 **** Fit       0.022158
 **** Fit       0.022356
 **** Fit       0.022628
 **** Fit       0.022838
 **** Fit       0.022792
 **** Fit       0.022236
 **** Fit       0.020850
 **** Fit       0.018306
 **** Fit       0.014445
 **** Fit       0.009517
 **** Fit       0.004163
 **** Fit      -0.001123
 **** Fit      -0.006642
 **** Fit      -0.007777
 **** Fit      -0.015804
 **** Fit       0.022243
 **** Fit       0.022679
 **** Fit       0.022926
 **** Fit       0.023172
 **** Fit       0.023392
 **** Fit       0.023441
 **** Fit       0.023110
 **** Fit       0.022146
 **** Fit       0.020289
 **** Fit       0.017378
 **** Fit       0.013488
 **** Fit       0.008939
 **** Fit       0.004027
 **** Fit      -0.001365
 **** Fit      -0.002403
 **** Fit      -0.009128
 **** Fit       0.022902
 **** Fit       0.023276
 **** Fit       0.023546
 **** Fit       0.023759
 **** Fit       0.023844
 **** Fit       0.023649
 **** Fit       0.022976
 **** Fit       0.021617
 **** Fit       0.019423
 **** Fit       0.016374
 **** Fit       0.012601
 **** Fit       0.008259
 **** Fit       0.003331
 **** Fit       0.002504
 **** Fit      -0.003163
 **** Fit      -0.008772
 **** Fit       0.023157
 **** Fit       0.023483
 **** Fit       0.023758
 **** Fit       0.023949
 **** Fit       0.023977
 **** Fit       0.023691
 **** Fit       0.022896
 **** Fit       0.021400
 **** Fit       0.019090
 **** Fit       0.015970
 **** Fit       0.012133
 **** Fit       0.007644
 **** Fit       0.006870
 **** Fit       0.002421
 **** Fit      -0.001208
 **** Fit       0.023572
 **** Fit       0.023570
 **** Fit       0.023738
 **** Fit       0.023871
 **** Fit       0.023828
 **** Fit       0.023437
 **** Fit       0.022502
 **** Fit       0.020846
 **** Fit       0.018383
 **** Fit       0.015146
 **** Fit       0.011247
 **** Fit       0.010702
 **** Fit       0.007398
 **** Fit       0.005734
 **** Fit       0.023586
 **** Fit       0.023463
 **** Fit       0.023506
 **** Fit       0.023457
 **** Fit       0.023071
 **** Fit       0.022101
 **** Fit       0.020343
 **** Fit       0.017729
 **** Fit       0.014393
 **** Fit       0.014033
 **** Fit       0.011909
 **** Fit       0.012623
 **** Fit       0.022714
 **** Fit       0.022801
 **** Fit       0.022613
 **** Fit       0.021795
 **** Fit       0.019999
 **** Fit       0.017206
 **** Fit       0.016897
 **** Fit       0.016529
 **** Fit       0.019415
 **** Fit       0.021262
 **** Fit       0.021271
 **** Fit       0.019594
 **** Fit       0.019309
 -----------------------------------------------------------------
 Leave Link  602 at Mon Sep 16 17:31:43 2019, MaxMem=  4294967296 cpu:       156.5

 Test job not archived.
 1\1\GINC-N006\SP\RB3LYP\SVP\C54H83Ca1N15O23\PCIEPLAK\16-Sep-2019\0\\#m
 axdisk=50GB #B3LYP/SVP Density=Current scf=(tight) #IOP(5/87=12)Pop=(M
 K,readradii) iop(6/33=2) iop(6/42=6)\\SOL molecule\\0,1\C,0,76.89,55.2
 2,16.47\C,0,76.88,53.82,15.87\O,0,77.95,53.35,15.49\H,0,76.673,55.95,1
 5.69\H,0,76.132,55.287,17.251\H,0,77.871,55.426,16.897\N,0,75.72,53.16
 ,15.83\C,0,75.49,51.91,15.13\C,0,75.27,52.22,13.66\O,0,74.16,52.38,13.
 16\C,0,74.36,51.18,15.84\C,0,74.01,49.79,15.32\O,0,72.97,49.27,15.78\O
 ,0,74.74,49.19,14.5\H,0,74.89,53.55,16.24\H,0,76.35,51.25,15.28\H,0,73
 .46,51.8,15.73\H,0,74.68,51.,16.87\N,0,76.4,52.18,12.95\C,0,76.51,52.5
 9,11.57\C,0,75.8,51.62,10.63\O,0,75.23,52.08,9.65\C,0,77.99,52.66,11.2
 2\C,0,78.31,53.,9.77\C,0,79.81,53.25,9.66\C,0,80.22,53.14,8.19\N,0,81.
 46,53.91,7.95\H,0,77.24,52.05,13.5\H,0,76.08,53.59,11.5\H,0,78.54,51.7
 8,11.56\H,0,78.36,53.52,11.78\H,0,77.83,53.94,9.5\H,0,77.94,52.24,9.08
 \H,0,80.44,52.66,10.32\H,0,80.02,54.28,9.95\H,0,79.39,53.6,7.67\H,0,80
 .41,52.08,8.03\H,0,81.55,54.75,8.5\H,0,82.19,53.21,8.03\H,0,81.52,54.1
 5,6.97\N,0,75.84,50.31,10.89\C,0,75.08,49.38,10.08\C,0,73.72,48.95,10.
 62\O,0,73.04,48.2,9.94\C,0,76.01,48.23,9.7\C,0,76.69,47.61,10.91\O,0,7
 7.9,47.34,10.72\O,0,75.98,47.24,11.87\H,0,76.36,50.02,11.71\H,0,74.87,
 49.92,9.15\H,0,76.78,48.58,9.02\H,0,75.5,47.41,9.18\N,0,73.33,49.22,11
 .87\C,0,71.99,49.19,12.42\C,0,71.59,47.77,12.77\O,0,70.88,47.12,12.\H,
 0,74.07,49.56,12.47\H,0,71.18,49.52,11.76\H,0,71.94,49.81,13.31\N,0,72
 .01,47.29,13.94\C,0,71.72,45.95,14.38\C,0,71.67,45.73,15.89\O,0,71.88,
 44.6,16.33\C,0,72.72,44.98,13.75\C,0,74.02,44.77,14.51\N,0,74.57,43.55
 ,14.43\O,0,74.65,45.72,14.97\H,0,72.59,47.91,14.5\H,0,70.68,45.74,14.0
 9\H,0,72.86,45.28,12.72\H,0,72.2,44.02,13.72\H,0,74.08,42.82,13.94\H,0
 ,75.1,43.31,15.26\N,0,71.63,46.82,16.66\C,0,71.39,46.94,18.08\C,0,72.6
 6,46.82,18.9\O,0,72.59,46.65,20.12\H,0,71.54,47.7,16.16\H,0,70.63,46.2
 5,18.45\H,0,70.93,47.9,18.29\N,0,73.79,46.98,18.2\C,0,75.15,47.04,18.6
 8\C,0,76.11,47.99,17.98\O,0,75.99,48.19,16.77\C,0,75.79,45.65,18.58\C,
 0,75.34,44.59,19.54\C,0,75.99,44.47,20.77\C,0,74.33,43.69,19.17\C,0,75
 .73,43.32,21.53\C,0,74.03,42.61,20.\C,0,74.68,42.43,21.24\O,0,74.31,41
 .5,22.17\H,0,73.72,47.34,17.26\H,0,75.21,47.35,19.73\H,0,76.87,45.72,1
 8.75\H,0,75.54,45.3,17.58\H,0,76.87,45.03,21.06\H,0,73.81,43.83,18.23\
 H,0,76.32,43.18,22.42\H,0,73.33,41.84,19.69\H,0,73.56,40.98,21.9\N,0,7
 7.13,48.43,18.71\C,0,78.11,49.42,18.34\C,0,79.47,48.75,18.47\O,0,79.64
 ,47.91,19.35\C,0,78.,50.67,19.2\C,0,76.63,51.34,19.31\C,0,78.98,51.72,
 18.69\C,0,76.32,52.41,20.35\H,0,77.1,48.28,19.71\H,0,77.94,49.75,17.31
 \H,0,78.38,50.44,20.2\H,0,75.95,50.53,19.56\H,0,76.44,51.77,18.32\H,0,
 80.03,51.5,18.89\H,0,78.94,52.,17.64\H,0,78.85,52.62,19.29\H,0,77.12,5
 3.15,20.42\H,0,75.42,52.95,20.06\H,0,76.24,51.9,21.31\N,0,80.42,49.07,
 17.58\C,0,81.8,48.64,17.58\C,0,82.76,49.77,17.26\O,0,82.39,50.92,17.03
 \C,0,81.93,47.5,16.57\O,0,81.58,47.89,15.26\H,0,80.17,49.87,17.02\H,0,
 82.08,48.28,18.57\H,0,81.39,46.62,16.93\H,0,82.97,47.19,16.52\H,0,80.6
 3,47.97,15.13\N,0,84.07,49.48,17.29\C,0,85.15,50.41,17.05\C,0,85.14,51
 .15,15.72\O,0,85.26,52.37,15.7\C,0,86.44,49.7,17.46\H,0,84.38,48.56,17
 .54\H,0,84.89,51.22,17.73\H,0,87.29,50.37,17.52\H,0,86.41,49.36,18.49\
 H,0,86.72,49.02,16.65\N,0,84.88,50.46,14.6\C,0,84.78,51.13,13.32\C,0,8
 3.52,51.98,13.29\O,0,83.45,53.02,12.63\C,0,84.8,50.13,12.17\H,0,84.97,
 49.47,14.47\H,0,85.64,51.76,13.13\H,0,83.92,49.49,12.15\H,0,84.87,50.7
 ,11.24\H,0,85.69,49.5,12.17\N,0,82.47,51.66,14.06\C,0,81.17,52.3,13.98
 \C,0,81.22,53.53,14.87\O,0,80.74,54.6,14.48\C,0,80.13,51.25,14.36\C,0,
 80.16,50.05,13.42\C,0,78.94,49.22,13.83\O,0,79.03,48.51,14.85\O,0,77.8
 7,49.26,13.19\H,0,82.6,51.,14.81\H,0,80.98,52.67,12.98\H,0,79.2,51.8,1
 4.18\H,0,80.26,51.,15.41\H,0,81.09,49.48,13.34\H,0,79.94,50.53,12.48\N
 ,0,82.13,53.57,15.85\C,0,82.27,54.62,16.84\H,0,82.959,55.379,16.469\H,
 0,81.297,55.074,17.029\H,0,82.66,54.198,17.766\H,0,82.48,52.67,16.13\C
 a,0,76.54,47.37,14.31\O,0,77.76,45.27,13.31\H,0,77.46,44.73,12.58\H,0,
 78.54,44.82,13.64\\Version=ES64L-G09RevD.01\State=1-A\HF=-5333.5765289
 \RMSD=3.411e-09\Dipole=11.8837477,3.2916211,-3.2615486\Quadrupole=-27.
 8545872,8.4078936,19.4466935,5.2544935,-99.7275276,-69.2846445\PG=C01 
 [X(C54H83Ca1N15O23)]\\@


 A SCIENTIST IS SOMEONE WHOSE CURIOSITY SURVIVES
 EDUCATION'S ASSAULTS ON IT.
                          - SIR HERMANN BONDI
 Job cpu time:       0 days 17 hours 58 minutes 39.8 seconds.
 File lengths (MBytes):  RWF=   1513 Int=      0 D2E=      0 Chk=    103 Scr=      1
 Normal termination of Gaussian 09 at Mon Sep 16 17:31:43 2019.
