 Entering Gaussian System, Link 0=g09
 Initial command:
 /home/pcieplak/g09/g09/l1.exe "/scratch1/pcieplak/fullloop_21.0/Gau-19255.inp" -scrdir="/scratch1/pcieplak/fullloop_21.0/"
 Entering Link 1 = /home/pcieplak/g09/g09/l1.exe PID=     19256.
  
 Copyright (c) 1988,1990,1992,1993,1995,1998,2003,2009,2013,
            Gaussian, Inc.  All Rights Reserved.
  
 This is part of the Gaussian(R) 09 program.  It is based on
 the Gaussian(R) 03 system (copyright 2003, Gaussian, Inc.),
 the Gaussian(R) 98 system (copyright 1998, Gaussian, Inc.),
 the Gaussian(R) 94 system (copyright 1995, Gaussian, Inc.),
 the Gaussian 92(TM) system (copyright 1992, Gaussian, Inc.),
 the Gaussian 90(TM) system (copyright 1990, Gaussian, Inc.),
 the Gaussian 88(TM) system (copyright 1988, Gaussian, Inc.),
 the Gaussian 86(TM) system (copyright 1986, Carnegie Mellon
 University), and the Gaussian 82(TM) system (copyright 1983,
 Carnegie Mellon University). Gaussian is a federally registered
 trademark of Gaussian, Inc.
  
 This software contains proprietary and confidential information,
 including trade secrets, belonging to Gaussian, Inc.
  
 This software is provided under written license and may be
 used, copied, transmitted, or stored only in accord with that
 written license.
  
 The following legend is applicable only to US Government
 contracts under FAR:
  
                    RESTRICTED RIGHTS LEGEND
  
 Use, reproduction and disclosure by the US Government is
 subject to restrictions as set forth in subparagraphs (a)
 and (c) of the Commercial Computer Software - Restricted
 Rights clause in FAR 52.227-19.
  
 Gaussian, Inc.
 340 Quinnipiac St., Bldg. 40, Wallingford CT 06492
  
  
 ---------------------------------------------------------------
 Warning -- This program may not be used in any manner that
 competes with the business of Gaussian, Inc. or will provide
 assistance to any competitor of Gaussian, Inc.  The licensee
 of this program is prohibited from giving any competitor of
 Gaussian, Inc. access to this program.  By using this program,
 the user acknowledges that Gaussian, Inc. is engaged in the
 business of creating and licensing software in the field of
 computational chemistry and represents and warrants to the
 licensee that it is not a competitor of Gaussian, Inc. and that
 it will not use this program in any manner prohibited above.
 ---------------------------------------------------------------
  

 Cite this work as:
 Gaussian 09, Revision D.01,
 M. J. Frisch, G. W. Trucks, H. B. Schlegel, G. E. Scuseria, 
 M. A. Robb, J. R. Cheeseman, G. Scalmani, V. Barone, B. Mennucci, 
 G. A. Petersson, H. Nakatsuji, M. Caricato, X. Li, H. P. Hratchian, 
 A. F. Izmaylov, J. Bloino, G. Zheng, J. L. Sonnenberg, M. Hada, 
 M. Ehara, K. Toyota, R. Fukuda, J. Hasegawa, M. Ishida, T. Nakajima, 
 Y. Honda, O. Kitao, H. Nakai, T. Vreven, J. A. Montgomery, Jr., 
 J. E. Peralta, F. Ogliaro, M. Bearpark, J. J. Heyd, E. Brothers, 
 K. N. Kudin, V. N. Staroverov, T. Keith, R. Kobayashi, J. Normand, 
 K. Raghavachari, A. Rendell, J. C. Burant, S. S. Iyengar, J. Tomasi, 
 M. Cossi, N. Rega, J. M. Millam, M. Klene, J. E. Knox, J. B. Cross, 
 V. Bakken, C. Adamo, J. Jaramillo, R. Gomperts, R. E. Stratmann, 
 O. Yazyev, A. J. Austin, R. Cammi, C. Pomelli, J. W. Ochterski, 
 R. L. Martin, K. Morokuma, V. G. Zakrzewski, G. A. Voth, 
 P. Salvador, J. J. Dannenberg, S. Dapprich, A. D. Daniels, 
 O. Farkas, J. B. Foresman, J. V. Ortiz, J. Cioslowski, 
 and D. J. Fox, Gaussian, Inc., Wallingford CT, 2013.
 
 ******************************************
 Gaussian 09:  ES64L-G09RevD.01 24-Apr-2013
                16-Sep-2019 
 ******************************************
 %Nproc=12
 Will use up to   12 processors via shared memory.
 %chk=chk1mol
 %mem=32GB
 ----------------------------------------------------------------------
 #maxdisk=50GB #B3LYP/SVP Density=Current scf=(tight) #IOP(5/87=12)Pop=
 (MK,readradii) iop(6/33=2) iop(6/42=6)
 ----------------------------------------------------------------------
 1/30=1,38=1/1;
 2/12=2,17=6,18=5,40=1/2;
 3/5=18,7=101,11=2,16=1,25=1,30=1,74=-5/1,2,3;
 4//1;
 5/5=2,32=2,38=5,87=12/2;
 6/7=2,8=2,9=2,10=2,15=8,20=101,22=-1,28=1,33=2,42=6/1,2;
 99/5=1,9=1/99;
 ------------
 SOL molecule
 ------------
 Symbolic Z-matrix:
 Charge =  0 Multiplicity = 1
 C                     81.64     55.58     19.31 
 C                     81.77     54.21     18.66 
 O                     82.77     53.98     17.99 
 H                     80.621    55.715    19.672 
 H                     82.335    55.653    20.147 
 H                     81.87     56.354    18.577 
 N                     80.76     53.35     18.84 
 C                     80.73     52.08     18.15 
 C                     80.36     52.25     16.68 
 O                     79.52     53.1      16.36 
 C                     79.84     51.16     18.97 
 C                     79.73     49.74     18.43 
 O                     78.7      49.06     18.65 
 O                     80.65     49.29     17.72 
 H                     79.94     53.72     19.29 
 H                     81.74     51.69     18.23 
 H                     78.91     51.72     19.04 
 H                     80.34     51.08     19.94 
 N                     81.14     51.54     15.87 
 C                     81.12     51.71     14.43 
 C                     80.25     50.65     13.77 
 O                     79.89     50.89     12.62 
 C                     82.5      51.81     13.8 
 C                     83.25     53.11     14.07 
 C                     84.63     53.3      13.46 
 C                     84.68     53.58     11.96 
 N                     86.05     53.78     11.45 
 H                     81.79     50.9      16.31 
 H                     80.6      52.66     14.33 
 H                     82.35     51.73     12.73 
 H                     83.1      50.92     14.02 
 H                     83.3      53.24     15.15 
 H                     82.59     53.89     13.68 
 H                     85.35     52.51     13.66 
 H                     84.97     54.2      13.97 
 H                     84.17     54.54     11.87 
 H                     84.07     52.87     11.4 
 H                     86.02     53.86     10.45 
 H                     86.59     54.46     11.97 
 H                     86.54     52.92     11.65 
 N                     80.02     49.57     14.52 
 C                     79.53     48.32     13.98 
 C                     78.32     47.71     14.66 
 O                     77.51     47.05     14.01 
 C                     80.69     47.33     13.84 
 C                     81.54     47.16     15.09 
 O                     82.71     47.59     15.08 
 O                     81.       46.8      16.16 
 H                     80.47     49.59     15.43 
 H                     79.14     48.65     13.01 
 H                     81.34     47.58     13.01 
 H                     80.27     46.35     13.62 
 N                     78.11     48.07     15.93 
 C                     76.83     47.75     16.54 
 C                     76.88     46.43     17.29 
 O                     75.83     45.82     17.46 
 H                     78.76     48.63     16.44 
 H                     76.01     47.68     15.83 
 H                     76.6      48.48     17.32 
 N                     78.07     46.05     17.78 
 C                     78.31     44.84     18.54 
 C                     78.18     45.12     20.03 
 O                     78.21     44.21     20.86 
 C                     79.54     44.09     18.06 
 C                     80.92     44.53     18.54 
 N                     81.88     43.61     18.64 
 O                     81.14     45.68     18.9 
 H                     78.86     46.65     17.62 
 H                     77.49     44.14     18.41 
 H                     79.44     43.96     16.98 
 H                     79.42     43.07     18.44 
 H                     81.7      42.63     18.44 
 H                     82.77     43.92     19. 
 N                     78.07     46.39     20.43 
 C                     77.81     46.82     21.79 
 C                     79.06     47.06     22.64 
 O                     78.91     47.41     23.81 
 H                     78.01     47.15     19.77 
 H                     77.1      46.1      22.18 
 H                     77.3      47.78     21.69 
 N                     80.24     47.03     22.02 
 C                     81.59     47.25     22.51 
 C                     82.45     48.26     21.77 
 O                     82.6      48.02     20.57 
 C                     82.3      45.9      22.46 
 C                     81.59     44.72     23.08 
 C                     81.8      44.49     24.44 
 C                     80.82     43.83     22.32 
 C                     81.3      43.34     25.06 
 C                     80.35     42.66     22.94 
 C                     80.62     42.37     24.3 
 O                     80.19     41.23     24.9 
 H                     80.21     46.72     21.07 
 H                     81.54     47.44     23.58 
 H                     83.29     46.09     22.87 
 H                     82.45     45.72     21.4 
 H                     82.48     45.1      25.02 
 H                     80.66     44.02     21.27 
 H                     81.49     43.04     26.08 
 H                     79.72     42.03     22.33 
 H                     79.77     40.67     24.25 
 N                     83.03     49.28     22.4 
 C                     83.98     50.16     21.77 
 C                     85.44     49.8      22.03 
 O                     85.8      49.47     23.16 
 C                     83.81     51.6      22.26 
 C                     82.35     51.95     22.51 
 C                     84.5      52.71     21.47 
 C                     82.31     53.02     23.6 
 H                     83.01     49.24     23.41 
 H                     83.82     50.21     20.69 
 H                     84.28     51.62     23.25 
 H                     81.66     51.16     22.8 
 H                     81.99     52.42     21.59 
 H                     85.56     52.5      21.42 
 H                     84.03     52.82     20.49 
 H                     84.56     53.69     21.93 
 H                     82.66     52.6      24.55 
 H                     82.98     53.88     23.54 
 H                     81.27     53.35     23.64 
 N                     86.26     49.9      20.99 
 C                     87.66     49.52     20.9 
 C                     88.57     50.73     20.7 
 O                     88.09     51.79     20.32 
 C                     87.81     48.56     19.72 
 O                     87.57     49.24     18.51 
 H                     85.89     50.36     20.17 
 H                     88.06     49.08     21.81 
 H                     87.12     47.74     19.88 
 H                     88.82     48.16     19.86 
 H                     86.62     49.17     18.38 
 N                     89.83     50.68     21.14 
 C                     90.68     51.85     21.1 
 C                     90.74     52.54     19.75 
 O                     90.68     53.77     19.82 
 C                     92.04     51.47     21.69 
 H                     90.26     49.77     21.24 
 H                     90.2      52.59     21.74 
 H                     92.67     52.32     21.96 
 H                     91.88     50.85     22.57 
 H                     92.68     50.96     20.97 
 N                     90.85     51.82     18.63 
 C                     90.77     52.38     17.3 
 C                     89.45     53.08     16.98 
 O                     89.39     54.02     16.19 
 C                     91.19     51.38     16.23 
 H                     90.71     50.82     18.73 
 H                     91.54     53.14     17.34 
 H                     91.18     51.86     15.25 
 H                     92.14     50.85     16.36 
 H                     90.47     50.57     16.16 
 N                     88.35     52.72     17.63 
 C                     87.03     53.31     17.53 
 C                     86.85     54.6      18.32 
 O                     86.45     55.6      17.73 
 C                     85.94     52.32     17.94 
 C                     85.55     51.35     16.83 
 C                     84.63     50.23     17.29 
 O                     83.49     50.09     16.79 
 O                     84.95     49.46     18.23 
 H                     88.5      52.07     18.39 
 H                     86.83     53.63     16.51 
 H                     85.02     52.89     18.06 
 H                     86.06     51.9      18.94 
 H                     86.48     50.92     16.46 
 H                     85.14     51.74     15.9 
 N                     87.28     54.73     19.58 
 C                     87.34     55.97     20.32 
 H                     87.824    56.733    19.711 
 H                     86.33     56.293    20.571 
 H                     87.912    55.82     21.236 
 H                     87.73     53.96     20.06 
 CA                    82.7      47.74     17.81 
 O                     84.2      45.9      19.13 
 H                     84.69     45.9      19.95 
 H                     84.43     45.08     18.71 
 
 Stoichiometry    C54H83CaN15O23
 Framework group  C1[X(C54H83CaN15O23)]
 Deg. of freedom   522
 Full point group                 C1      NOp   1
 Largest Abelian subgroup         C1      NOp   1
 Largest concise Abelian subgroup C1      NOp   1
                         Standard orientation:                         
 ---------------------------------------------------------------------
 Center     Atomic      Atomic             Coordinates (Angstroms)
 Number     Number       Type             X           Y           Z
 ---------------------------------------------------------------------
      1          6           0        2.653509    1.989152    5.299598
      2          6           0        1.978442    2.065061    3.937679
      3          8           0        2.689878    2.137770    2.942504
      4          1           0        1.913412    2.157294    6.081655
      5          1           0        3.100935    1.003315    5.429439
      6          1           0        3.429429    2.752709    5.364355
      7          7           0        0.639941    2.078019    3.919074
      8          6           0       -0.086744    2.286947    2.686931
      9          6           0       -0.038805    3.747389    2.249312
     10          8           0       -0.086746    4.639303    3.105287
     11          6           0       -1.468326    1.685898    2.889098
     12          6           0       -2.373402    1.755198    1.665932
     13          8           0       -3.618622    1.798045    1.804824
     14          8           0       -1.856406    1.828352    0.534400
     15          1           0        0.186753    2.158760    4.813446
     16          1           0        0.418271    1.668222    1.951581
     17          1           0       -1.827154    2.195230    3.780851
     18          1           0       -1.285745    0.623007    3.074103
     19          7           0        0.221869    3.885300    0.952536
     20          6           0        0.530379    5.170980    0.356928
     21          6           0       -0.703462    5.777193   -0.295943
     22          8           0       -0.651365    6.982722   -0.527644
     23          6           0        1.733372    5.149167   -0.572391
     24          6           0        3.087280    4.999697    0.113168
     25          6           0        4.344487    4.988565   -0.742349
     26          6           0        4.784913    6.329277   -1.324942
     27          7           0        6.025931    6.240427   -2.118025
     28          1           0        0.241438    3.036950    0.399707
     29          1           0        0.755408    5.770081    1.236325
     30          1           0        1.729121    6.098640   -1.094197
     31          1           0        1.589101    4.432343   -1.388388
     32          1           0        3.046083    4.099743    0.724875
     33          1           0        3.141643    5.852859    0.795267
     34          1           0        4.357653    4.268353   -1.556978
     35          1           0        5.097701    4.686708   -0.016229
     36          1           0        5.022375    6.918685   -0.438370
     37          1           0        3.955480    6.847256   -1.808200
     38          1           0        6.203783    7.128421   -2.550617
     39          1           0        6.789271    5.777089   -1.641548
     40          1           0        5.820418    5.596752   -2.868456
     41          7           0       -1.676435    4.905022   -0.568782
     42          6           0       -2.761233    5.188666   -1.483637
     43          6           0       -4.167147    4.938537   -0.974283
     44          8           0       -5.102787    5.633737   -1.368585
     45          6           0       -2.491069    4.508493   -2.828879
     46          6           0       -2.142555    3.030501   -2.739566
     47          8           0       -0.981663    2.672410   -3.018851
     48          8           0       -2.940542    2.239868   -2.188007
     49          1           0       -1.459172    3.945256   -0.318490
     50          1           0       -2.701597    6.281575   -1.546046
     51          1           0       -1.715631    5.014233   -3.391748
     52          1           0       -3.399141    4.573178   -3.425890
     53          7           0       -4.287495    4.058609    0.024638
     54          6           0       -5.551604    3.987100    0.738653
     55          6           0       -6.465082    2.921686    0.157402
     56          8           0       -7.673467    3.037129    0.330543
     57          1           0       -3.515631    3.519948    0.356707
     58          1           0       -6.110802    4.919137    0.736778
     59          1           0       -5.378547    3.646333    1.762434
     60          7           0       -5.878777    1.880543   -0.453227
     61          6           0       -6.579939    0.759451   -1.045531
     62          6           0       -6.723492   -0.366334   -0.031924
     63          8           0       -7.403479   -1.365113   -0.272673
     64          6           0       -6.053303    0.412474   -2.426857
     65          6           0       -4.800379   -0.448874   -2.555934
     66          7           0       -4.673117   -1.226367   -3.631717
     67          8           0       -3.956673   -0.495050   -1.669070
     68          1           0       -4.875149    1.864385   -0.499811
     69          1           0       -7.626433    1.004303   -1.201091
     70          1           0       -6.049972    1.333749   -3.013834
     71          1           0       -6.849435   -0.173424   -2.898128
     72          1           0       -5.402426   -1.281033   -4.337352
     73          1           0       -3.855949   -1.816702   -3.670967
     74          7           0       -6.059414   -0.268895    1.123284
     75          6           0       -6.186608   -1.182517    2.241861
     76          6           0       -5.214661   -2.364686    2.221988
     77          8           0       -5.280955   -3.188218    3.133745
     78          1           0       -5.522946    0.551923    1.358361
     79          1           0       -7.240363   -1.433029    2.279851
     80          1           0       -5.947649   -0.584603    3.123393
     81          7           0       -4.247265   -2.349722    1.304589
     82          6           0       -3.158400   -3.274476    1.039629
     83          6           0       -1.754307   -2.700990    0.956347
     84          8           0       -1.613600   -1.818095    0.107349
     85          6           0       -3.471339   -3.950085   -0.292558
     86          6           0       -4.851927   -4.537771   -0.464316
     87          6           0       -5.042707   -5.854884   -0.045489
     88          6           0       -5.887004   -3.836832   -1.096693
     89          6           0       -6.245189   -6.522886   -0.299875
     90          6           0       -7.079479   -4.523781   -1.380077
     91          6           0       -7.262958   -5.884940   -1.033407
     92          8           0       -8.403076   -6.562702   -1.325416
     93          1           0       -4.324801   -1.624258    0.621077
     94          1           0       -3.235693   -4.104821    1.738237
     95          1           0       -2.662202   -4.662514   -0.441026
     96          1           0       -3.313454   -3.167811   -1.028505
     97          1           0       -4.226821   -6.450494    0.342426
     98          1           0       -5.730197   -2.817029   -1.412309
     99          1           0       -6.444705   -7.563810   -0.092100
    100          1           0       -7.865721   -3.930128   -1.822005
    101          1           0       -8.979796   -6.003035   -1.841813
    102          7           0       -0.761023   -3.170334    1.709211
    103          6           0        0.612126   -2.768789    1.544820
    104          6           0        1.450056   -3.723275    0.698872
    105          8           0        1.343745   -4.939485    0.856770
    106          6           0        1.325350   -2.670010    2.895433
    107          6           0        0.404706   -2.152399    3.991377
    108          6           0        2.671749   -1.950734    2.941831
    109          6           0        0.891362   -2.733251    5.318170
    110          1           0       -0.952812   -4.033205    2.199894
    111          1           0        0.684433   -1.766545    1.114961
    112          1           0        1.545782   -3.706351    3.176159
    113          1           0       -0.663426   -2.347920    3.919507
    114          1           0        0.568567   -1.071736    4.038455
    115          1           0        3.348511   -2.424819    2.243663
    116          1           0        2.532454   -0.882899    2.758187
    117          1           0        3.271252   -2.066051    3.837877
    118          1           0        0.747219   -3.819784    5.326561
    119          1           0        1.954407   -2.703299    5.565429
    120          1           0        0.307521   -2.222266    6.086365
    121          7           0        2.290333   -3.157556   -0.160137
    122          6           0        3.122513   -3.794906   -1.166994
    123          6           0        4.610753   -3.640518   -0.861207
    124          8           0        4.977918   -2.786464   -0.064853
    125          6           0        2.802559   -3.150561   -2.515679
    126          8           0        3.234202   -1.809782   -2.525452
    127          1           0        2.425291   -2.160764   -0.064786
    128          1           0        3.009512   -4.874889   -1.217657
    129          1           0        1.734821   -3.244736   -2.674318
    130          1           0        3.292235   -3.823398   -3.227864
    131          1           0        2.489715   -1.315650   -2.170667
    132          7           0        5.467320   -4.567443   -1.298019
    133          6           0        6.860739   -4.535872   -0.910224
    134          6           0        7.546897   -3.200858   -1.131869
    135          8           0        8.272823   -2.856353   -0.196055
    136          6           0        7.560817   -5.734564   -1.554529
    137          1           0        5.199557   -5.115859   -2.104581
    138          1           0        6.871783   -4.647876    0.173719
    139          1           0        8.537806   -5.971325   -1.128223
    140          1           0        6.913791   -6.605622   -1.470776
    141          1           0        7.829121   -5.551970   -2.595093
    142          7           0        7.340222   -2.516645   -2.260602
    143          6           0        7.834726   -1.178945   -2.494962
    144          6           0        7.327924   -0.128507   -1.507779
    145          8           0        7.998271    0.858272   -1.210789
    146          6           0        7.677354   -0.755604   -3.950062
    147          1           0        6.583578   -2.849698   -2.848960
    148          1           0        8.894967   -1.307462   -2.317557
    149          1           0        8.121616    0.229927   -4.099260
    150          1           0        8.040453   -1.434350   -4.729653
    151          1           0        6.627688   -0.638275   -4.202720
    152          7           0        6.168719   -0.323101   -0.890951
    153          6           0        5.559057    0.506362    0.129247
    154          6           0        6.124446    0.308076    1.529825
    155          8           0        6.545499    1.288180    2.138275
    156          6           0        4.042901    0.317798    0.174105
    157          6           0        3.297156    1.129789   -0.879287
    158          6           0        1.819624    0.786206   -0.985349
    159          8           0        0.942146    1.654534   -0.772656
    160          8           0        1.431782   -0.386720   -1.214964
    161          1           0        5.755360   -1.233508   -1.042254
    162          1           0        5.763714    1.557704   -0.059421
    163          1           0        3.690517    0.783413    1.093197
    164          1           0        3.717088   -0.713188    0.321459
    165          1           0        3.783534    0.915634   -1.830220
    166          1           0        3.373796    2.215664   -0.869161
    167          7           0        6.344082   -0.907020    2.044315
    168          6           0        7.066931   -1.180501    3.265584
    169          1           0        8.009653   -0.634110    3.259428
    170          1           0        6.469770   -0.863935    4.120344
    171          1           0        7.267629   -2.249701    3.338197
    172          1           0        6.123563   -1.744111    1.518529
    173         20           0       -1.302623    0.400728   -1.531590
    174          8           0       -1.533861   -1.927820   -2.910863
    175          1           0       -1.285543   -2.834244   -2.739881
    176          1           0       -1.818025   -1.920957   -3.816900
 ---------------------------------------------------------------------
 Rotational constants (GHZ):      0.0241756      0.0146373      0.0113771
 Standard basis: SVP (5D, 7F)
 There are  1809 symmetry adapted cartesian basis functions of A   symmetry.
 There are  1717 symmetry adapted basis functions of A   symmetry.
  1717 basis functions,  2922 primitive gaussians,  1809 cartesian basis functions
   358 alpha electrons      358 beta electrons
       nuclear repulsion energy     21611.6944842433 Hartrees.
 NAtoms=  176 NActive=  176 NUniq=  176 SFac= 1.00D+00 NAtFMM=   60 NAOKFM=T Big=T
 Integral buffers will be    131072 words long.
 Raffenetti 2 integral format.
 Two-electron integral symmetry is turned on.
 One-electron integrals computed using PRISM.
 NBasis=  1717 RedAO= T EigKep=  2.73D-04  NBF=  1717
 NBsUse=  1717 1.00D-06 EigRej= -1.00D+00 NBFU=  1717
 ExpMin= 1.98D-02 ExpMax= 3.51D+04 ExpMxC= 5.28D+03 IAcc=3 IRadAn=         5 AccDes= 0.00D+00
 Harris functional with IExCor=  402 and IRadAn=       5 diagonalized for initial guess.
 HarFok:  IExCor=  402 AccDes= 0.00D+00 IRadAn=         5 IDoV= 1 UseB2=F ITyADJ=14
 ICtDFT=  3500011 ScaDFX=  1.000000  1.000000  1.000000  1.000000
 FoFCou: FMM=F IPFlag=           0 FMFlag=      100000 FMFlg1=        2001
         NFxFlg=           0 DoJE=T BraDBF=F KetDBF=T FulRan=T
         wScrn=  0.000000 ICntrl=     500 IOpCl=  0 I1Cent=   200000004 NGrid=           0
         NMat0=    1 NMatS0=      1 NMatT0=    0 NMatD0=    1 NMtDS0=    0 NMtDT0=    0
 Petite list used in FoFCou.
 Requested convergence on RMS density matrix=1.00D-08 within 128 cycles.
 Requested convergence on MAX density matrix=1.00D-06.
 Requested convergence on             energy=1.00D-06.
 No special actions if energy rises.
 EnCoef did     2 forward-backward iterations
 SCF Done:  E(RB3LYP) =  -5333.61629874     A.U. after   15 cycles
            NFock= 15  Conv=0.48D-08     -V/T= 2.0082

 **********************************************************************

            Population analysis using the SCF density.

 **********************************************************************

 Orbital symmetries:
 BldTbl:  Degeneracy threshold= 1.00D-02
       Occupied  (A) (A) (A) (A) (A) (A) (A) (A) (A) (A) (A) (A)
                 (A) (A) (A) (A) (A) (A) (A) (A) (A) (A) (A) (A)
                 (A) (A) (A) (A) (A) (A) (A) (A) (A) (A) (A) (A)
                 (A) (A) (A) (A) (A) (A) (A) (A) (A) (A) (A) (A)
                 (A) (A) (A) (A) (A) (A) (A) (A) (A) (A) (A) (A)
                 (A) (A) (A) (A) (A) (A) (A) (A) (A) (A) (A) (A)
                 (A) (A) (A) (A) (A) (A) (A) (A) (A) (A) (A) (A)
                 (A) (A) (A) (A) (A) (A) (A) (A) (A) (A) (A) (A)
                 (A) (A) (A) (A) (A) (A) (A) (A) (A) (A) (A) (A)
                 (A) (A) (A) (A) (A) (A) (A) (A) (A) (A) (A) (A)
                 (A) (A) (A) (A) (A) (A) (A) (A) (A) (A) (A) (A)
                 (A) (A) (A) (A) (A) (A) (A) (A) (A) (A) (A) (A)
                 (A) (A) (A) (A) (A) (A) (A) (A) (A) (A) (A) (A)
                 (A) (A) (A) (A) (A) (A) (A) (A) (A) (A) (A) (A)
                 (A) (A) (A) (A) (A) (A) (A) (A) (A) (A) (A) (A)
                 (A) (A) (A) (A) (A) (A) (A) (A) (A) (A) (A) (A)
                 (A) (A) (A) (A) (A) (A) (A) (A) (A) (A) (A) (A)
                 (A) (A) (A) (A) (A) (A) (A) (A) (A) (A) (A) (A)
                 (A) (A) (A) (A) (A) (A) (A) (A) (A) (A) (A) (A)
                 (A) (A) (A) (A) (A) (A) (A) (A) (A) (A) (A) (A)
                 (A) (A) (A) (A) (A) (A) (A) (A) (A) (A) (A) (A)
                 (A) (A) (A) (A) (A) (A) (A) (A) (A) (A) (A) (A)
                 (A) (A) (A) (A) (A) (A) (A) (A) (A) (A) (A) (A)
                 (A) (A) (A) (A) (A) (A) (A) (A) (A) (A) (A) (A)
                 (A) (A) (A) (A) (A) (A) (A) (A) (A) (A) (A) (A)
                 (A) (A) (A) (A) (A) (A) (A) (A) (A) (A) (A) (A)
                 (A) (A) (A) (A) (A) (A) (A) (A) (A) (A) (A) (A)
                 (A) (A) (A) (A) (A) (A) (A) (A) (A) (A) (A) (A)
                 (A) (A) (A) (A) (A) (A) (A) (A) (A) (A) (A) (A)
                 (A) (A) (A) (A) (A) (A) (A) (A) (A) (A)
       Virtual   (A) (A) (A) (A) (A) (A) (A) (A) (A) (A) (A) (A)
                 (A) (A) (A) (A) (A) (A) (A) (A) (A) (A) (A) (A)
                 (A) (A) (A) (A) (A) (A) (A) (A) (A) (A) (A) (A)
                 (A) (A) (A) (A) (A) (A) (A) (A) (A) (A) (A) (A)
                 (A) (A) (A) (A) (A) (A) (A) (A) (A) (A) (A) (A)
                 (A) (A) (A) (A) (A) (A) (A) (A) (A) (A) (A) (A)
                 (A) (A) (A) (A) (A) (A) (A) (A) (A) (A) (A) (A)
                 (A) (A) (A) (A) (A) (A) (A) (A) (A) (A) (A) (A)
                 (A) (A) (A) (A) (A) (A) (A) (A) (A) (A) (A) (A)
                 (A) (A) (A) (A) (A) (A) (A) (A) (A) (A) (A) (A)
                 (A) (A) (A) (A) (A) (A) (A) (A) (A) (A) (A) (A)
                 (A) (A) (A) (A) (A) (A) (A) (A) (A) (A) (A) (A)
                 (A) (A) (A) (A) (A) (A) (A) (A) (A) (A) (A) (A)
                 (A) (A) (A) (A) (A) (A) (A) (A) (A) (A) (A) (A)
                 (A) (A) (A) (A) (A) (A) (A) (A) (A) (A) (A) (A)
                 (A) (A) (A) (A) (A) (A) (A) (A) (A) (A) (A) (A)
                 (A) (A) (A) (A) (A) (A) (A) (A) (A) (A) (A) (A)
                 (A) (A) (A) (A) (A) (A) (A) (A) (A) (A) (A) (A)
                 (A) (A) (A) (A) (A) (A) (A) (A) (A) (A) (A) (A)
                 (A) (A) (A) (A) (A) (A) (A) (A) (A) (A) (A) (A)
                 (A) (A) (A) (A) (A) (A) (A) (A) (A) (A) (A) (A)
                 (A) (A) (A) (A) (A) (A) (A) (A) (A) (A) (A) (A)
                 (A) (A) (A) (A) (A) (A) (A) (A) (A) (A) (A) (A)
                 (A) (A) (A) (A) (A) (A) (A) (A) (A) (A) (A) (A)
                 (A) (A) (A) (A) (A) (A) (A) (A) (A) (A) (A) (A)
                 (A) (A) (A) (A) (A) (A) (A) (A) (A) (A) (A) (A)
                 (A) (A) (A) (A) (A) (A) (A) (A) (A) (A) (A) (A)
                 (A) (A) (A) (A) (A) (A) (A) (A) (A) (A) (A) (A)
                 (A) (A) (A) (A) (A) (A) (A) (A) (A) (A) (A) (A)
                 (A) (A) (A) (A) (A) (A) (A) (A) (A) (A) (A) (A)
                 (A) (A) (A) (A) (A) (A) (A) (A) (A) (A) (A) (A)
                 (A) (A) (A) (A) (A) (A) (A) (A) (A) (A) (A) (A)
                 (A) (A) (A) (A) (A) (A) (A) (A) (A) (A) (A) (A)
                 (A) (A) (A) (A) (A) (A) (A) (A) (A) (A) (A) (A)
                 (A) (A) (A) (A) (A) (A) (A) (A) (A) (A) (A) (A)
                 (A) (A) (A) (A) (A) (A) (A) (A) (A) (A) (A) (A)
                 (A) (A) (A) (A) (A) (A) (A) (A) (A) (A) (A) (A)
                 (A) (A) (A) (A) (A) (A) (A) (A) (A) (A) (A) (A)
                 (A) (A) (A) (A) (A) (A) (A) (A) (A) (A) (A) (A)
                 (A) (A) (A) (A) (A) (A) (A) (A) (A) (A) (A) (A)
                 (A) (A) (A) (A) (A) (A) (A) (A) (A) (A) (A) (A)
                 (A) (A) (A) (A) (A) (A) (A) (A) (A) (A) (A) (A)
                 (A) (A) (A) (A) (A) (A) (A) (A) (A) (A) (A) (A)
                 (A) (A) (A) (A) (A) (A) (A) (A) (A) (A) (A) (A)
                 (A) (A) (A) (A) (A) (A) (A) (A) (A) (A) (A) (A)
                 (A) (A) (A) (A) (A) (A) (A) (A) (A) (A) (A) (A)
                 (A) (A) (A) (A) (A) (A) (A) (A) (A) (A) (A) (A)
                 (A) (A) (A) (A) (A) (A) (A) (A) (A) (A) (A) (A)
                 (A) (A) (A) (A) (A) (A) (A) (A) (A) (A) (A) (A)
                 (A) (A) (A) (A) (A) (A) (A) (A) (A) (A) (A) (A)
                 (A) (A) (A) (A) (A) (A) (A) (A) (A) (A) (A) (A)
                 (A) (A) (A) (A) (A) (A) (A) (A) (A) (A) (A) (A)
                 (A) (A) (A) (A) (A) (A) (A) (A) (A) (A) (A) (A)
                 (A) (A) (A) (A) (A) (A) (A) (A) (A) (A) (A) (A)
                 (A) (A) (A) (A) (A) (A) (A) (A) (A) (A) (A) (A)
                 (A) (A) (A) (A) (A) (A) (A) (A) (A) (A) (A) (A)
                 (A) (A) (A) (A) (A) (A) (A) (A) (A) (A) (A) (A)
                 (A) (A) (A) (A) (A) (A) (A) (A) (A) (A) (A) (A)
                 (A) (A) (A) (A) (A) (A) (A) (A) (A) (A) (A) (A)
                 (A) (A) (A) (A) (A) (A) (A) (A) (A) (A) (A) (A)
                 (A) (A) (A) (A) (A) (A) (A) (A) (A) (A) (A) (A)
                 (A) (A) (A) (A) (A) (A) (A) (A) (A) (A) (A) (A)
                 (A) (A) (A) (A) (A) (A) (A) (A) (A) (A) (A) (A)
                 (A) (A) (A) (A) (A) (A) (A) (A) (A) (A) (A) (A)
                 (A) (A) (A) (A) (A) (A) (A) (A) (A) (A) (A) (A)
                 (A) (A) (A) (A) (A) (A) (A) (A) (A) (A) (A) (A)
                 (A) (A) (A) (A) (A) (A) (A) (A) (A) (A) (A) (A)
                 (A) (A) (A) (A) (A) (A) (A) (A) (A) (A) (A) (A)
                 (A) (A) (A) (A) (A) (A) (A) (A) (A) (A) (A) (A)
                 (A) (A) (A) (A) (A) (A) (A) (A) (A) (A) (A) (A)
                 (A) (A) (A) (A) (A) (A) (A) (A) (A) (A) (A) (A)
                 (A) (A) (A) (A) (A) (A) (A) (A) (A) (A) (A) (A)
                 (A) (A) (A) (A) (A) (A) (A) (A) (A) (A) (A) (A)
                 (A) (A) (A) (A) (A) (A) (A) (A) (A) (A) (A) (A)
                 (A) (A) (A) (A) (A) (A) (A) (A) (A) (A) (A) (A)
                 (A) (A) (A) (A) (A) (A) (A) (A) (A) (A) (A) (A)
                 (A) (A) (A) (A) (A) (A) (A) (A) (A) (A) (A) (A)
                 (A) (A) (A) (A) (A) (A) (A) (A) (A) (A) (A) (A)
                 (A) (A) (A) (A) (A) (A) (A) (A) (A) (A) (A) (A)
                 (A) (A) (A) (A) (A) (A) (A) (A) (A) (A) (A) (A)
                 (A) (A) (A) (A) (A) (A) (A) (A) (A) (A) (A) (A)
                 (A) (A) (A) (A) (A) (A) (A) (A) (A) (A) (A) (A)
                 (A) (A) (A) (A) (A) (A) (A) (A) (A) (A) (A) (A)
                 (A) (A) (A) (A) (A) (A) (A) (A) (A) (A) (A) (A)
                 (A) (A) (A) (A) (A) (A) (A) (A) (A) (A) (A) (A)
                 (A) (A) (A) (A) (A) (A) (A) (A) (A) (A) (A) (A)
                 (A) (A) (A) (A) (A) (A) (A) (A) (A) (A) (A) (A)
                 (A) (A) (A) (A) (A) (A) (A) (A) (A) (A) (A) (A)
                 (A) (A) (A) (A) (A) (A) (A) (A) (A) (A) (A) (A)
                 (A) (A) (A) (A) (A) (A) (A) (A) (A) (A) (A) (A)
                 (A) (A) (A) (A) (A) (A) (A) (A) (A) (A) (A) (A)
                 (A) (A) (A) (A) (A) (A) (A) (A) (A) (A) (A) (A)
                 (A) (A) (A) (A) (A) (A) (A) (A) (A) (A) (A) (A)
                 (A) (A) (A) (A) (A) (A) (A) (A) (A) (A) (A) (A)
                 (A) (A) (A) (A) (A) (A) (A) (A) (A) (A) (A) (A)
                 (A) (A) (A) (A) (A) (A) (A) (A) (A) (A) (A) (A)
                 (A) (A) (A) (A) (A) (A) (A) (A) (A) (A) (A) (A)
                 (A) (A) (A) (A) (A) (A) (A) (A) (A) (A) (A) (A)
                 (A) (A) (A) (A) (A) (A) (A) (A) (A) (A) (A) (A)
                 (A) (A) (A) (A) (A) (A) (A) (A) (A) (A) (A) (A)
                 (A) (A) (A) (A) (A) (A) (A) (A) (A) (A) (A) (A)
                 (A) (A) (A) (A) (A) (A) (A) (A) (A) (A) (A) (A)
                 (A) (A) (A) (A) (A) (A) (A) (A) (A) (A) (A) (A)
                 (A) (A) (A) (A) (A) (A) (A) (A) (A) (A) (A) (A)
                 (A) (A) (A) (A) (A) (A) (A) (A) (A) (A) (A) (A)
                 (A) (A) (A) (A) (A) (A) (A) (A) (A) (A) (A) (A)
                 (A) (A) (A) (A) (A) (A) (A) (A) (A) (A) (A) (A)
                 (A) (A) (A) (A) (A) (A) (A) (A) (A) (A) (A) (A)
                 (A) (A) (A) (A) (A) (A) (A) (A) (A) (A) (A) (A)
                 (A) (A) (A) (A) (A) (A) (A) (A) (A) (A) (A) (A)
                 (A) (A) (A) (A) (A) (A) (A) (A) (A) (A) (A) (A)
                 (A) (A) (A) (A) (A) (A) (A) (A) (A) (A) (A) (A)
                 (A) (A) (A) (A) (A) (A) (A) (A) (A) (A) (A) (A)
                 (A) (A) (A)
 The electronic state is 1-A.
 Alpha  occ. eigenvalues -- -145.37635 -19.21051 -19.15404 -19.14244 -19.13614
 Alpha  occ. eigenvalues --  -19.12563 -19.12050 -19.11362 -19.10490 -19.09788
 Alpha  occ. eigenvalues --  -19.08890 -19.08307 -19.07924 -19.07210 -19.06761
 Alpha  occ. eigenvalues --  -19.06609 -19.06595 -19.06439 -19.05498 -19.04824
 Alpha  occ. eigenvalues --  -19.04810 -19.04696 -19.04668 -19.03997 -15.43364
 Alpha  occ. eigenvalues --  -14.58128 -14.40040 -14.38469 -14.38240 -14.38037
 Alpha  occ. eigenvalues --  -14.36685 -14.34580 -14.33877 -14.33448 -14.32817
 Alpha  occ. eigenvalues --  -14.32459 -14.32026 -14.31706 -14.30899 -14.30014
 Alpha  occ. eigenvalues --  -12.56984 -12.56945 -12.56924 -10.33585 -10.32263
 Alpha  occ. eigenvalues --  -10.31045 -10.30846 -10.30310 -10.29220 -10.28047
 Alpha  occ. eigenvalues --  -10.27997 -10.26666 -10.26325 -10.26131 -10.26001
 Alpha  occ. eigenvalues --  -10.25872 -10.25859 -10.25842 -10.25555 -10.25200
 Alpha  occ. eigenvalues --  -10.25014 -10.24983 -10.24522 -10.23947 -10.23794
 Alpha  occ. eigenvalues --  -10.23725 -10.23388 -10.23366 -10.23272 -10.22359
 Alpha  occ. eigenvalues --  -10.22330 -10.21640 -10.21439 -10.21244 -10.20433
 Alpha  occ. eigenvalues --  -10.20290 -10.20270 -10.20252 -10.20000 -10.19413
 Alpha  occ. eigenvalues --  -10.19300 -10.18878 -10.18681 -10.18516 -10.18213
 Alpha  occ. eigenvalues --  -10.17917 -10.17800 -10.17792 -10.17750 -10.17745
 Alpha  occ. eigenvalues --  -10.17723 -10.17449 -10.17284 -10.17284 -10.17277
 Alpha  occ. eigenvalues --  -10.16489 -10.15009  -1.80137  -1.13306  -1.08046
 Alpha  occ. eigenvalues --   -1.08002  -1.07646  -1.07520  -1.06841  -1.05359
 Alpha  occ. eigenvalues --   -1.05075  -1.04367  -1.04283  -1.04076  -1.03393
 Alpha  occ. eigenvalues --   -1.02319  -1.02230  -1.01033  -1.00446  -0.99993
 Alpha  occ. eigenvalues --   -0.99888  -0.99744  -0.99483  -0.99308  -0.98611
 Alpha  occ. eigenvalues --   -0.97980  -0.97188  -0.96831  -0.95076  -0.94776
 Alpha  occ. eigenvalues --   -0.93476  -0.93106  -0.92527  -0.91258  -0.90869
 Alpha  occ. eigenvalues --   -0.90777  -0.90505  -0.89641  -0.89363  -0.89207
 Alpha  occ. eigenvalues --   -0.88680  -0.88635  -0.88010  -0.87217  -0.86293
 Alpha  occ. eigenvalues --   -0.83486  -0.82655  -0.81722  -0.79760  -0.79663
 Alpha  occ. eigenvalues --   -0.78670  -0.78371  -0.77892  -0.77377  -0.76724
 Alpha  occ. eigenvalues --   -0.75244  -0.74638  -0.74344  -0.72950  -0.72566
 Alpha  occ. eigenvalues --   -0.72507  -0.72466  -0.71226  -0.70966  -0.70819
 Alpha  occ. eigenvalues --   -0.70276  -0.69766  -0.68668  -0.68389  -0.67534
 Alpha  occ. eigenvalues --   -0.67307  -0.66479  -0.66022  -0.64848  -0.64338
 Alpha  occ. eigenvalues --   -0.63422  -0.62667  -0.62557  -0.62421  -0.61625
 Alpha  occ. eigenvalues --   -0.61487  -0.61173  -0.60996  -0.60663  -0.60426
 Alpha  occ. eigenvalues --   -0.60184  -0.59977  -0.58962  -0.58850  -0.58009
 Alpha  occ. eigenvalues --   -0.57931  -0.57715  -0.57248  -0.56732  -0.56457
 Alpha  occ. eigenvalues --   -0.56236  -0.56214  -0.56132  -0.55789  -0.55427
 Alpha  occ. eigenvalues --   -0.54982  -0.54358  -0.54301  -0.54172  -0.53621
 Alpha  occ. eigenvalues --   -0.53382  -0.53110  -0.53023  -0.52035  -0.51746
 Alpha  occ. eigenvalues --   -0.51094  -0.50761  -0.50591  -0.49991  -0.49707
 Alpha  occ. eigenvalues --   -0.49431  -0.49144  -0.48989  -0.48890  -0.48465
 Alpha  occ. eigenvalues --   -0.48183  -0.48067  -0.48024  -0.47640  -0.47477
 Alpha  occ. eigenvalues --   -0.47294  -0.47162  -0.46999  -0.46720  -0.46361
 Alpha  occ. eigenvalues --   -0.46153  -0.45910  -0.45762  -0.45604  -0.45335
 Alpha  occ. eigenvalues --   -0.45250  -0.45173  -0.44942  -0.44826  -0.44637
 Alpha  occ. eigenvalues --   -0.44567  -0.44366  -0.44315  -0.44100  -0.43774
 Alpha  occ. eigenvalues --   -0.43642  -0.43633  -0.43595  -0.43344  -0.43100
 Alpha  occ. eigenvalues --   -0.42966  -0.42735  -0.42565  -0.42389  -0.42252
 Alpha  occ. eigenvalues --   -0.42118  -0.42027  -0.41949  -0.41802  -0.41472
 Alpha  occ. eigenvalues --   -0.41454  -0.41290  -0.41187  -0.41141  -0.40784
 Alpha  occ. eigenvalues --   -0.40709  -0.40501  -0.40386  -0.40302  -0.40252
 Alpha  occ. eigenvalues --   -0.40143  -0.40008  -0.39952  -0.39678  -0.39612
 Alpha  occ. eigenvalues --   -0.39418  -0.39313  -0.39165  -0.39084  -0.38943
 Alpha  occ. eigenvalues --   -0.38861  -0.38761  -0.38614  -0.38495  -0.38483
 Alpha  occ. eigenvalues --   -0.38375  -0.38199  -0.38171  -0.37934  -0.37633
 Alpha  occ. eigenvalues --   -0.37438  -0.37323  -0.37062  -0.37020  -0.36452
 Alpha  occ. eigenvalues --   -0.36356  -0.36263  -0.35956  -0.35780  -0.35762
 Alpha  occ. eigenvalues --   -0.35658  -0.35483  -0.35280  -0.35115  -0.35026
 Alpha  occ. eigenvalues --   -0.34783  -0.34541  -0.34305  -0.34170  -0.34082
 Alpha  occ. eigenvalues --   -0.33754  -0.33626  -0.33460  -0.32859  -0.32701
 Alpha  occ. eigenvalues --   -0.32657  -0.32333  -0.32181  -0.32121  -0.32011
 Alpha  occ. eigenvalues --   -0.31873  -0.31717  -0.31424  -0.31375  -0.30377
 Alpha  occ. eigenvalues --   -0.30150  -0.29724  -0.29579  -0.29171  -0.28482
 Alpha  occ. eigenvalues --   -0.27834  -0.27538  -0.27063  -0.26702  -0.26565
 Alpha  occ. eigenvalues --   -0.26287  -0.25949  -0.25780  -0.25486  -0.25092
 Alpha  occ. eigenvalues --   -0.24923  -0.24600  -0.24342  -0.24170  -0.24108
 Alpha  occ. eigenvalues --   -0.23914  -0.23605  -0.23512  -0.23237  -0.23108
 Alpha  occ. eigenvalues --   -0.22947  -0.22663  -0.22234  -0.21959  -0.21765
 Alpha  occ. eigenvalues --   -0.21557  -0.21169  -0.21061  -0.21049  -0.20575
 Alpha  occ. eigenvalues --   -0.19942  -0.19609  -0.19066
 Alpha virt. eigenvalues --   -0.09750  -0.03959  -0.03700  -0.03340  -0.02748
 Alpha virt. eigenvalues --   -0.01118  -0.00553  -0.00313  -0.00276   0.00006
 Alpha virt. eigenvalues --    0.00078   0.01184   0.01399   0.01632   0.02491
 Alpha virt. eigenvalues --    0.02890   0.03007   0.03334   0.03686   0.03913
 Alpha virt. eigenvalues --    0.04093   0.04259   0.04400   0.04622   0.04788
 Alpha virt. eigenvalues --    0.04854   0.05050   0.05145   0.05323   0.05474
 Alpha virt. eigenvalues --    0.06113   0.06342   0.06351   0.06729   0.06942
 Alpha virt. eigenvalues --    0.07038   0.07238   0.07535   0.07623   0.08020
 Alpha virt. eigenvalues --    0.08029   0.08241   0.08488   0.08606   0.08933
 Alpha virt. eigenvalues --    0.09015   0.09287   0.09609   0.09748   0.10078
 Alpha virt. eigenvalues --    0.10119   0.10278   0.10431   0.10834   0.10964
 Alpha virt. eigenvalues --    0.11119   0.11236   0.11518   0.11660   0.11760
 Alpha virt. eigenvalues --    0.11944   0.12085   0.12363   0.12406   0.12628
 Alpha virt. eigenvalues --    0.12918   0.12953   0.13055   0.13303   0.13479
 Alpha virt. eigenvalues --    0.13547   0.13835   0.14270   0.14316   0.14441
 Alpha virt. eigenvalues --    0.14549   0.14709   0.14921   0.14980   0.15300
 Alpha virt. eigenvalues --    0.15487   0.15639   0.15726   0.15996   0.16190
 Alpha virt. eigenvalues --    0.16368   0.16421   0.16544   0.16744   0.16887
 Alpha virt. eigenvalues --    0.17033   0.17474   0.17636   0.17665   0.17749
 Alpha virt. eigenvalues --    0.17792   0.17963   0.18151   0.18253   0.18376
 Alpha virt. eigenvalues --    0.18605   0.18699   0.18956   0.18990   0.19258
 Alpha virt. eigenvalues --    0.19563   0.19609   0.19854   0.20053   0.20343
 Alpha virt. eigenvalues --    0.20710   0.20782   0.20858   0.21083   0.21560
 Alpha virt. eigenvalues --    0.21667   0.21910   0.21918   0.22129   0.22348
 Alpha virt. eigenvalues --    0.22630   0.22799   0.23027   0.23267   0.23651
 Alpha virt. eigenvalues --    0.23781   0.23899   0.24047   0.24264   0.24457
 Alpha virt. eigenvalues --    0.24589   0.24804   0.24996   0.25040   0.25248
 Alpha virt. eigenvalues --    0.25528   0.25787   0.25901   0.26248   0.26275
 Alpha virt. eigenvalues --    0.26724   0.26914   0.27118   0.27461   0.27596
 Alpha virt. eigenvalues --    0.27892   0.28244   0.28280   0.28361   0.28546
 Alpha virt. eigenvalues --    0.28849   0.29026   0.29400   0.29677   0.29931
 Alpha virt. eigenvalues --    0.30153   0.30450   0.30652   0.31074   0.31352
 Alpha virt. eigenvalues --    0.31786   0.31812   0.32175   0.32352   0.32507
 Alpha virt. eigenvalues --    0.32739   0.32901   0.33021   0.33297   0.33742
 Alpha virt. eigenvalues --    0.33800   0.33963   0.34441   0.35107   0.35922
 Alpha virt. eigenvalues --    0.35964   0.36363   0.36479   0.36714   0.36931
 Alpha virt. eigenvalues --    0.37170   0.37308   0.37771   0.38043   0.38222
 Alpha virt. eigenvalues --    0.38437   0.38605   0.39093   0.39388   0.39794
 Alpha virt. eigenvalues --    0.39838   0.40022   0.40286   0.40612   0.40644
 Alpha virt. eigenvalues --    0.40748   0.41058   0.41291   0.41566   0.41883
 Alpha virt. eigenvalues --    0.42045   0.42347   0.42692   0.42833   0.43052
 Alpha virt. eigenvalues --    0.43161   0.43571   0.43841   0.44055   0.44201
 Alpha virt. eigenvalues --    0.44483   0.44621   0.44851   0.45192   0.45397
 Alpha virt. eigenvalues --    0.45498   0.45619   0.45759   0.45816   0.46013
 Alpha virt. eigenvalues --    0.46133   0.46634   0.46732   0.46854   0.47009
 Alpha virt. eigenvalues --    0.47222   0.47392   0.47678   0.47753   0.47931
 Alpha virt. eigenvalues --    0.48095   0.48217   0.48585   0.48681   0.48998
 Alpha virt. eigenvalues --    0.49211   0.49306   0.49425   0.49617   0.49793
 Alpha virt. eigenvalues --    0.49854   0.50127   0.50258   0.50738   0.50872
 Alpha virt. eigenvalues --    0.51147   0.51421   0.51628   0.51879   0.52090
 Alpha virt. eigenvalues --    0.52344   0.52658   0.52716   0.53115   0.53187
 Alpha virt. eigenvalues --    0.53468   0.53537   0.53765   0.53944   0.54208
 Alpha virt. eigenvalues --    0.54380   0.54558   0.54830   0.54902   0.55034
 Alpha virt. eigenvalues --    0.55205   0.55395   0.55477   0.55543   0.55722
 Alpha virt. eigenvalues --    0.55920   0.56019   0.56250   0.56383   0.56589
 Alpha virt. eigenvalues --    0.56644   0.56831   0.57003   0.57229   0.57454
 Alpha virt. eigenvalues --    0.57700   0.57918   0.58120   0.58159   0.58370
 Alpha virt. eigenvalues --    0.58460   0.58581   0.58724   0.59299   0.59415
 Alpha virt. eigenvalues --    0.59466   0.59696   0.59881   0.60008   0.60239
 Alpha virt. eigenvalues --    0.60318   0.60347   0.60641   0.60839   0.60882
 Alpha virt. eigenvalues --    0.60997   0.61102   0.61234   0.61253   0.61368
 Alpha virt. eigenvalues --    0.61553   0.61958   0.62029   0.62128   0.62248
 Alpha virt. eigenvalues --    0.62427   0.62709   0.62850   0.62935   0.63071
 Alpha virt. eigenvalues --    0.63186   0.63260   0.63437   0.63493   0.63560
 Alpha virt. eigenvalues --    0.63706   0.63843   0.63918   0.64218   0.64391
 Alpha virt. eigenvalues --    0.64578   0.64646   0.64717   0.64844   0.64931
 Alpha virt. eigenvalues --    0.64978   0.65092   0.65167   0.65423   0.65476
 Alpha virt. eigenvalues --    0.65599   0.65681   0.65790   0.65921   0.66111
 Alpha virt. eigenvalues --    0.66157   0.66441   0.66584   0.66636   0.66747
 Alpha virt. eigenvalues --    0.66759   0.66855   0.67001   0.67198   0.67231
 Alpha virt. eigenvalues --    0.67336   0.67419   0.67483   0.67576   0.67725
 Alpha virt. eigenvalues --    0.67789   0.67851   0.68004   0.68069   0.68310
 Alpha virt. eigenvalues --    0.68328   0.68594   0.68681   0.68736   0.68870
 Alpha virt. eigenvalues --    0.68914   0.69106   0.69206   0.69397   0.69539
 Alpha virt. eigenvalues --    0.69687   0.69698   0.70015   0.70050   0.70346
 Alpha virt. eigenvalues --    0.70456   0.70598   0.70680   0.70792   0.70884
 Alpha virt. eigenvalues --    0.70992   0.71076   0.71124   0.71214   0.71262
 Alpha virt. eigenvalues --    0.71485   0.71605   0.71755   0.71948   0.71995
 Alpha virt. eigenvalues --    0.72094   0.72235   0.72423   0.72467   0.72494
 Alpha virt. eigenvalues --    0.72742   0.72973   0.73127   0.73258   0.73463
 Alpha virt. eigenvalues --    0.73666   0.73763   0.74182   0.74317   0.74390
 Alpha virt. eigenvalues --    0.74492   0.74774   0.74979   0.75100   0.75216
 Alpha virt. eigenvalues --    0.75367   0.75778   0.75877   0.75987   0.76451
 Alpha virt. eigenvalues --    0.76610   0.76924   0.77148   0.77522   0.77675
 Alpha virt. eigenvalues --    0.77764   0.77916   0.78197   0.78314   0.78854
 Alpha virt. eigenvalues --    0.79041   0.79290   0.79688   0.79859   0.80177
 Alpha virt. eigenvalues --    0.80507   0.80798   0.81226   0.81264   0.81546
 Alpha virt. eigenvalues --    0.81707   0.81981   0.82182   0.82464   0.82733
 Alpha virt. eigenvalues --    0.83229   0.83351   0.83423   0.83748   0.84066
 Alpha virt. eigenvalues --    0.84242   0.84506   0.85046   0.85253   0.85361
 Alpha virt. eigenvalues --    0.85710   0.86061   0.86219   0.86256   0.86413
 Alpha virt. eigenvalues --    0.86913   0.87477   0.87836   0.88287   0.88347
 Alpha virt. eigenvalues --    0.88659   0.89082   0.89402   0.89624   0.89808
 Alpha virt. eigenvalues --    0.89831   0.90246   0.90336   0.90563   0.91136
 Alpha virt. eigenvalues --    0.91338   0.91368   0.92058   0.92655   0.92901
 Alpha virt. eigenvalues --    0.93134   0.93593   0.93604   0.93824   0.94357
 Alpha virt. eigenvalues --    0.94598   0.94945   0.95136   0.95424   0.95813
 Alpha virt. eigenvalues --    0.95979   0.96333   0.96388   0.96620   0.97017
 Alpha virt. eigenvalues --    0.97342   0.97624   0.97918   0.98016   0.98206
 Alpha virt. eigenvalues --    0.98599   0.99082   0.99103   0.99461   0.99679
 Alpha virt. eigenvalues --    1.00044   1.00197   1.00423   1.00599   1.00937
 Alpha virt. eigenvalues --    1.01613   1.01714   1.01916   1.02232   1.02698
 Alpha virt. eigenvalues --    1.02801   1.03182   1.03447   1.03755   1.04001
 Alpha virt. eigenvalues --    1.04204   1.04465   1.04652   1.05067   1.05103
 Alpha virt. eigenvalues --    1.05385   1.05833   1.06230   1.06702   1.07088
 Alpha virt. eigenvalues --    1.07341   1.07606   1.07741   1.08054   1.08750
 Alpha virt. eigenvalues --    1.09263   1.09325   1.09500   1.09850   1.10407
 Alpha virt. eigenvalues --    1.10482   1.10881   1.11133   1.11435   1.11894
 Alpha virt. eigenvalues --    1.12181   1.12345   1.12515   1.13228   1.13497
 Alpha virt. eigenvalues --    1.13922   1.13963   1.14180   1.14433   1.14477
 Alpha virt. eigenvalues --    1.14612   1.14739   1.15038   1.15268   1.15691
 Alpha virt. eigenvalues --    1.15770   1.16424   1.16568   1.16622   1.17076
 Alpha virt. eigenvalues --    1.17148   1.17640   1.17769   1.18278   1.18356
 Alpha virt. eigenvalues --    1.18904   1.19079   1.19283   1.19548   1.19643
 Alpha virt. eigenvalues --    1.19731   1.19918   1.20109   1.20420   1.20564
 Alpha virt. eigenvalues --    1.20943   1.21322   1.21660   1.22136   1.22408
 Alpha virt. eigenvalues --    1.22532   1.22594   1.22928   1.23067   1.23462
 Alpha virt. eigenvalues --    1.23658   1.24115   1.24404   1.24551   1.24741
 Alpha virt. eigenvalues --    1.25380   1.25659   1.25974   1.26365   1.26616
 Alpha virt. eigenvalues --    1.27019   1.27273   1.27504   1.27626   1.27922
 Alpha virt. eigenvalues --    1.28044   1.28141   1.28565   1.28905   1.29085
 Alpha virt. eigenvalues --    1.29327   1.29757   1.29839   1.30047   1.30220
 Alpha virt. eigenvalues --    1.30558   1.30971   1.31240   1.31352   1.31587
 Alpha virt. eigenvalues --    1.32364   1.32623   1.32894   1.33073   1.33337
 Alpha virt. eigenvalues --    1.33581   1.33764   1.33915   1.34052   1.34360
 Alpha virt. eigenvalues --    1.34569   1.34705   1.34996   1.35149   1.35351
 Alpha virt. eigenvalues --    1.35562   1.36183   1.36528   1.36561   1.36873
 Alpha virt. eigenvalues --    1.37201   1.37573   1.37712   1.37912   1.38149
 Alpha virt. eigenvalues --    1.38285   1.38474   1.38637   1.38742   1.39115
 Alpha virt. eigenvalues --    1.39385   1.40024   1.40177   1.40293   1.40364
 Alpha virt. eigenvalues --    1.40804   1.41110   1.41424   1.41590   1.41633
 Alpha virt. eigenvalues --    1.42081   1.42454   1.42679   1.42860   1.43284
 Alpha virt. eigenvalues --    1.43711   1.44050   1.44441   1.44524   1.44860
 Alpha virt. eigenvalues --    1.45187   1.45330   1.45869   1.46043   1.46364
 Alpha virt. eigenvalues --    1.46525   1.47351   1.47613   1.47798   1.48096
 Alpha virt. eigenvalues --    1.48377   1.48702   1.49266   1.49579   1.49686
 Alpha virt. eigenvalues --    1.50340   1.50568   1.50761   1.50847   1.51268
 Alpha virt. eigenvalues --    1.51497   1.51751   1.51840   1.52127   1.52232
 Alpha virt. eigenvalues --    1.52662   1.52882   1.53202   1.53353   1.53655
 Alpha virt. eigenvalues --    1.53759   1.54047   1.54150   1.54448   1.54574
 Alpha virt. eigenvalues --    1.54705   1.54938   1.55205   1.55474   1.55539
 Alpha virt. eigenvalues --    1.56021   1.56424   1.56745   1.56975   1.57215
 Alpha virt. eigenvalues --    1.57432   1.58213   1.58379   1.58658   1.59356
 Alpha virt. eigenvalues --    1.59982   1.60164   1.60570   1.60862   1.61209
 Alpha virt. eigenvalues --    1.61392   1.61930   1.62036   1.62399   1.63038
 Alpha virt. eigenvalues --    1.63259   1.63514   1.63971   1.64782   1.64875
 Alpha virt. eigenvalues --    1.65258   1.65543   1.66399   1.66749   1.66850
 Alpha virt. eigenvalues --    1.67332   1.67442   1.67653   1.68086   1.68593
 Alpha virt. eigenvalues --    1.68658   1.68894   1.69009   1.69146   1.69561
 Alpha virt. eigenvalues --    1.69870   1.70462   1.70740   1.71086   1.71149
 Alpha virt. eigenvalues --    1.71562   1.71878   1.71987   1.72368   1.72517
 Alpha virt. eigenvalues --    1.72816   1.72908   1.73105   1.73220   1.73598
 Alpha virt. eigenvalues --    1.73711   1.73923   1.74116   1.74277   1.74371
 Alpha virt. eigenvalues --    1.74585   1.74961   1.75102   1.75259   1.75367
 Alpha virt. eigenvalues --    1.75724   1.75832   1.75952   1.76033   1.76406
 Alpha virt. eigenvalues --    1.76625   1.76724   1.76917   1.77300   1.77374
 Alpha virt. eigenvalues --    1.77457   1.77562   1.77812   1.77950   1.78022
 Alpha virt. eigenvalues --    1.78237   1.78408   1.78665   1.78824   1.79176
 Alpha virt. eigenvalues --    1.79284   1.79620   1.79739   1.79823   1.79990
 Alpha virt. eigenvalues --    1.80062   1.80245   1.80348   1.80498   1.80633
 Alpha virt. eigenvalues --    1.80788   1.80945   1.81170   1.81256   1.81340
 Alpha virt. eigenvalues --    1.81398   1.81606   1.81755   1.81999   1.82191
 Alpha virt. eigenvalues --    1.82254   1.82316   1.82532   1.82721   1.82822
 Alpha virt. eigenvalues --    1.83220   1.83322   1.83395   1.83868   1.83977
 Alpha virt. eigenvalues --    1.84150   1.84230   1.84417   1.84619   1.84749
 Alpha virt. eigenvalues --    1.84872   1.85138   1.85265   1.85306   1.85640
 Alpha virt. eigenvalues --    1.85914   1.86345   1.86411   1.86673   1.86986
 Alpha virt. eigenvalues --    1.87122   1.87235   1.87352   1.87489   1.87552
 Alpha virt. eigenvalues --    1.87838   1.88013   1.88107   1.88441   1.88577
 Alpha virt. eigenvalues --    1.88686   1.89249   1.89632   1.89761   1.90038
 Alpha virt. eigenvalues --    1.90208   1.90299   1.90429   1.90753   1.90888
 Alpha virt. eigenvalues --    1.91192   1.91366   1.91729   1.91820   1.92020
 Alpha virt. eigenvalues --    1.92115   1.92537   1.92620   1.92709   1.93012
 Alpha virt. eigenvalues --    1.93320   1.93637   1.93685   1.93863   1.94131
 Alpha virt. eigenvalues --    1.94269   1.94369   1.94677   1.94807   1.95074
 Alpha virt. eigenvalues --    1.95427   1.95555   1.95732   1.96041   1.96138
 Alpha virt. eigenvalues --    1.96303   1.96366   1.96724   1.96741   1.97138
 Alpha virt. eigenvalues --    1.97249   1.97320   1.97582   1.97870   1.98267
 Alpha virt. eigenvalues --    1.98320   1.98534   1.98728   1.98902   1.98996
 Alpha virt. eigenvalues --    1.99253   1.99638   1.99867   2.00136   2.00194
 Alpha virt. eigenvalues --    2.00463   2.00579   2.00760   2.00971   2.01345
 Alpha virt. eigenvalues --    2.01726   2.01885   2.02094   2.02337   2.02415
 Alpha virt. eigenvalues --    2.02907   2.02963   2.03260   2.03428   2.03711
 Alpha virt. eigenvalues --    2.04121   2.04233   2.04527   2.04899   2.05314
 Alpha virt. eigenvalues --    2.05794   2.06125   2.06763   2.07044   2.07136
 Alpha virt. eigenvalues --    2.07227   2.07260   2.08002   2.08130   2.08394
 Alpha virt. eigenvalues --    2.08608   2.08659   2.09278   2.09584   2.09667
 Alpha virt. eigenvalues --    2.09771   2.10465   2.10859   2.10963   2.11291
 Alpha virt. eigenvalues --    2.11593   2.11814   2.12070   2.12128   2.12533
 Alpha virt. eigenvalues --    2.12930   2.13082   2.13326   2.13775   2.14076
 Alpha virt. eigenvalues --    2.14394   2.14551   2.14687   2.14867   2.14966
 Alpha virt. eigenvalues --    2.15417   2.15853   2.16131   2.16781   2.16899
 Alpha virt. eigenvalues --    2.17213   2.17588   2.17777   2.17922   2.18206
 Alpha virt. eigenvalues --    2.18468   2.18730   2.18849   2.18918   2.19374
 Alpha virt. eigenvalues --    2.19569   2.19840   2.20008   2.20222   2.20466
 Alpha virt. eigenvalues --    2.20854   2.21025   2.21223   2.21692   2.21794
 Alpha virt. eigenvalues --    2.22247   2.22919   2.23244   2.23655   2.23757
 Alpha virt. eigenvalues --    2.24282   2.24430   2.25059   2.25159   2.25359
 Alpha virt. eigenvalues --    2.25444   2.25788   2.26209   2.26929   2.27303
 Alpha virt. eigenvalues --    2.27560   2.27991   2.28019   2.28185   2.28550
 Alpha virt. eigenvalues --    2.28878   2.29710   2.30050   2.30545   2.30701
 Alpha virt. eigenvalues --    2.31024   2.31265   2.31633   2.31730   2.32132
 Alpha virt. eigenvalues --    2.32717   2.32887   2.33576   2.33709   2.34086
 Alpha virt. eigenvalues --    2.34405   2.34695   2.34836   2.35465   2.35709
 Alpha virt. eigenvalues --    2.36148   2.36289   2.36624   2.37112   2.37499
 Alpha virt. eigenvalues --    2.37619   2.37901   2.38091   2.38468   2.38758
 Alpha virt. eigenvalues --    2.39108   2.39289   2.39565   2.40106   2.40456
 Alpha virt. eigenvalues --    2.41056   2.41431   2.41641   2.41706   2.42062
 Alpha virt. eigenvalues --    2.42314   2.42739   2.42971   2.43303   2.43564
 Alpha virt. eigenvalues --    2.44088   2.44560   2.44885   2.44958   2.45513
 Alpha virt. eigenvalues --    2.45559   2.45986   2.46333   2.46477   2.46607
 Alpha virt. eigenvalues --    2.46987   2.47142   2.47776   2.47988   2.48187
 Alpha virt. eigenvalues --    2.48831   2.49138   2.49408   2.49548   2.49907
 Alpha virt. eigenvalues --    2.50125   2.50442   2.50742   2.51068   2.51317
 Alpha virt. eigenvalues --    2.51455   2.51940   2.52015   2.52818   2.53525
 Alpha virt. eigenvalues --    2.53693   2.54131   2.55144   2.55331   2.55477
 Alpha virt. eigenvalues --    2.55594   2.56023   2.56487   2.56775   2.56870
 Alpha virt. eigenvalues --    2.57056   2.58116   2.58273   2.58304   2.58593
 Alpha virt. eigenvalues --    2.59379   2.59485   2.59538   2.59783   2.60730
 Alpha virt. eigenvalues --    2.60755   2.61195   2.61326   2.61677   2.61963
 Alpha virt. eigenvalues --    2.62259   2.62429   2.62636   2.62878   2.62973
 Alpha virt. eigenvalues --    2.63233   2.63569   2.63688   2.63830   2.64545
 Alpha virt. eigenvalues --    2.64695   2.65304   2.65422   2.65656   2.65792
 Alpha virt. eigenvalues --    2.66214   2.66597   2.67170   2.67582   2.68223
 Alpha virt. eigenvalues --    2.68312   2.68532   2.68634   2.69171   2.69346
 Alpha virt. eigenvalues --    2.69477   2.69938   2.70136   2.70304   2.70440
 Alpha virt. eigenvalues --    2.70797   2.71068   2.71297   2.71433   2.71652
 Alpha virt. eigenvalues --    2.72037   2.72526   2.72890   2.73131   2.73240
 Alpha virt. eigenvalues --    2.73493   2.73598   2.74078   2.74406   2.74570
 Alpha virt. eigenvalues --    2.74990   2.75111   2.75379   2.75554   2.75697
 Alpha virt. eigenvalues --    2.76117   2.76281   2.76318   2.76707   2.77054
 Alpha virt. eigenvalues --    2.77263   2.77437   2.77745   2.77886   2.78056
 Alpha virt. eigenvalues --    2.78613   2.78734   2.78996   2.79266   2.79731
 Alpha virt. eigenvalues --    2.80035   2.80295   2.80474   2.80854   2.81001
 Alpha virt. eigenvalues --    2.81355   2.81561   2.81892   2.82143   2.82223
 Alpha virt. eigenvalues --    2.82538   2.82965   2.83264   2.83529   2.83992
 Alpha virt. eigenvalues --    2.84518   2.84834   2.85233   2.85759   2.86260
 Alpha virt. eigenvalues --    2.86806   2.87088   2.87225   2.87240   2.87451
 Alpha virt. eigenvalues --    2.87662   2.88116   2.88625   2.88729   2.89339
 Alpha virt. eigenvalues --    2.89599   2.90325   2.91011   2.91585   2.91791
 Alpha virt. eigenvalues --    2.91914   2.92236   2.92362   2.92410   2.92796
 Alpha virt. eigenvalues --    2.93025   2.93285   2.93318   2.93495   2.93826
 Alpha virt. eigenvalues --    2.94157   2.94238   2.94506   2.94954   2.95278
 Alpha virt. eigenvalues --    2.95804   2.96081   2.96433   2.96459   2.96849
 Alpha virt. eigenvalues --    2.97403   2.97450   2.97636   2.98334   2.98488
 Alpha virt. eigenvalues --    2.98770   2.99095   2.99341   2.99624   2.99943
 Alpha virt. eigenvalues --    3.00440   3.00861   3.00991   3.01345   3.01438
 Alpha virt. eigenvalues --    3.01489   3.01603   3.01713   3.02091   3.02626
 Alpha virt. eigenvalues --    3.02846   3.03089   3.03477   3.03652   3.03883
 Alpha virt. eigenvalues --    3.04590   3.04824   3.05461   3.05861   3.06563
 Alpha virt. eigenvalues --    3.06581   3.07204   3.07971   3.09212   3.09782
 Alpha virt. eigenvalues --    3.10182   3.10829   3.11407   3.11623   3.11693
 Alpha virt. eigenvalues --    3.11971   3.13318   3.13500   3.13777   3.14333
 Alpha virt. eigenvalues --    3.15023   3.15046   3.15465   3.15913   3.16044
 Alpha virt. eigenvalues --    3.16173   3.16457   3.17107   3.17330   3.17590
 Alpha virt. eigenvalues --    3.17929   3.18474   3.19097   3.19166   3.19243
 Alpha virt. eigenvalues --    3.20165   3.20512   3.20593   3.20780   3.21654
 Alpha virt. eigenvalues --    3.21808   3.21978   3.22623   3.22747   3.22978
 Alpha virt. eigenvalues --    3.23540   3.23694   3.24217   3.24318   3.24628
 Alpha virt. eigenvalues --    3.25212   3.25458   3.25580   3.26432   3.27172
 Alpha virt. eigenvalues --    3.28135   3.28198   3.28986   3.29236   3.29532
 Alpha virt. eigenvalues --    3.29901   3.31382   3.31707   3.32228   3.34060
 Alpha virt. eigenvalues --    3.37057   3.38474   3.38743   3.39533   3.40838
 Alpha virt. eigenvalues --    3.43534   3.43734   3.45676   3.47189   3.49405
 Alpha virt. eigenvalues --    3.51020   3.51447   3.53490   3.53640   3.54820
 Alpha virt. eigenvalues --    3.57336   3.58666   3.59147   3.59316   3.59540
 Alpha virt. eigenvalues --    3.59657   3.60466   3.61311   3.61476   3.61793
 Alpha virt. eigenvalues --    3.62343   3.66595   3.67308   3.67487   3.67842
 Alpha virt. eigenvalues --    3.68448   3.68997   3.69378   3.69688   3.69791
 Alpha virt. eigenvalues --    3.70638   3.71623   3.71724   3.71802   3.72181
 Alpha virt. eigenvalues --    3.72322   3.72487   3.73317   3.74039   3.75239
 Alpha virt. eigenvalues --    3.77153   3.77921   3.83037   3.85813
          Condensed to atoms (all electrons):
 Mulliken charges:
               1
     1  C    0.073149
     2  C    0.028458
     3  O   -0.291549
     4  H   -0.011119
     5  H    0.033047
     6  H    0.041960
     7  N   -0.127552
     8  C    0.104305
     9  C    0.088527
    10  O   -0.293109
    11  C    0.069393
    12  C    0.141660
    13  O   -0.378314
    14  O   -0.471958
    15  H    0.119079
    16  H   -0.008633
    17  H    0.004038
    18  H    0.012833
    19  N   -0.191112
    20  C    0.126117
    21  C    0.075325
    22  O   -0.296259
    23  C    0.055153
    24  C    0.010184
    25  C   -0.023585
    26  C   -0.005743
    27  N    0.093001
    28  H    0.182276
    29  H    0.002825
    30  H   -0.027933
    31  H    0.014799
    32  H    0.064058
    33  H   -0.000636
    34  H    0.014484
    35  H    0.048550
    36  H    0.064004
    37  H    0.094404
    38  H    0.196423
    39  H    0.203767
    40  H    0.182085
    41  N   -0.168238
    42  C    0.095565
    43  C    0.088343
    44  O   -0.289524
    45  C    0.178078
    46  C    0.044691
    47  O   -0.405783
    48  O   -0.436267
    49  H    0.173826
    50  H    0.019125
    51  H   -0.022262
    52  H   -0.001946
    53  N   -0.168540
    54  C    0.254945
    55  C   -0.004298
    56  O   -0.285764
    57  H    0.132092
    58  H    0.024836
    59  H    0.028591
    60  N   -0.168851
    61  C    0.170904
    62  C    0.035645
    63  O   -0.294351
    64  C    0.067021
    65  C    0.097730
    66  N   -0.052485
    67  O   -0.318410
    68  H    0.144868
    69  H    0.023031
    70  H    0.060169
    71  H    0.000687
    72  H    0.132789
    73  H    0.092269
    74  N   -0.175434
    75  C    0.199103
    76  C    0.047135
    77  O   -0.291706
    78  H    0.146007
    79  H    0.038793
    80  H    0.038064
    81  N   -0.128459
    82  C    0.161079
    83  C    0.130946
    84  O   -0.354382
    85  C    0.067495
    86  C    0.015004
    87  C    0.007979
    88  C    0.028936
    89  C   -0.020151
    90  C   -0.051395
    91  C    0.158025
    92  O   -0.183767
    93  H    0.133142
    94  H   -0.018780
    95  H   -0.025507
    96  H   -0.016355
    97  H   -0.034543
    98  H   -0.058859
    99  H   -0.030314
   100  H   -0.039928
   101  H    0.170518
   102  N   -0.082665
   103  C    0.146024
   104  C    0.047681
   105  O   -0.287426
   106  C   -0.133811
   107  C    0.046754
   108  C    0.034131
   109  C    0.006891
   110  H    0.139914
   111  H    0.011928
   112  H   -0.018454
   113  H    0.010629
   114  H   -0.003380
   115  H    0.003573
   116  H    0.043648
   117  H    0.003868
   118  H   -0.001510
   119  H    0.001199
   120  H    0.012485
   121  N   -0.120013
   122  C    0.074697
   123  C    0.088857
   124  O   -0.293733
   125  C    0.291801
   126  O   -0.338174
   127  H    0.154028
   128  H    0.009748
   129  H   -0.013627
   130  H   -0.032430
   131  H    0.172393
   132  N   -0.122303
   133  C    0.105765
   134  C    0.043820
   135  O   -0.261594
   136  C    0.038182
   137  H    0.118828
   138  H    0.023702
   139  H    0.041164
   140  H    0.029026
   141  H    0.007337
   142  N   -0.146977
   143  C    0.128921
   144  C    0.043785
   145  O   -0.294405
   146  C    0.035059
   147  H    0.111359
   148  H    0.023333
   149  H    0.026415
   150  H    0.021264
   151  H    0.005393
   152  N   -0.113259
   153  C    0.186340
   154  C    0.049074
   155  O   -0.284289
   156  C   -0.039842
   157  C    0.113998
   158  C    0.150780
   159  O   -0.378175
   160  O   -0.452339
   161  H    0.124645
   162  H   -0.036832
   163  H    0.051572
   164  H   -0.001750
   165  H   -0.019735
   166  H   -0.023488
   167  N   -0.168250
   168  C    0.142537
   169  H    0.026868
   170  H    0.016390
   171  H    0.007970
   172  H    0.129877
   173  Ca   1.281801
   174  O   -0.257989
   175  H    0.191634
   176  H    0.171830
 Sum of Mulliken charges =   0.00000
 Mulliken charges with hydrogens summed into heavy atoms:
               1
     1  C    0.137037
     2  C    0.028458
     3  O   -0.291549
     7  N   -0.008474
     8  C    0.095671
     9  C    0.088527
    10  O   -0.293109
    11  C    0.086264
    12  C    0.141660
    13  O   -0.378314
    14  O   -0.471958
    19  N   -0.008836
    20  C    0.128942
    21  C    0.075325
    22  O   -0.296259
    23  C    0.042019
    24  C    0.073605
    25  C    0.039449
    26  C    0.152665
    27  N    0.675276
    41  N    0.005587
    42  C    0.114690
    43  C    0.088343
    44  O   -0.289524
    45  C    0.153871
    46  C    0.044691
    47  O   -0.405783
    48  O   -0.436267
    53  N   -0.036449
    54  C    0.308372
    55  C   -0.004298
    56  O   -0.285764
    60  N   -0.023984
    61  C    0.193934
    62  C    0.035645
    63  O   -0.294351
    64  C    0.127877
    65  C    0.097730
    66  N    0.172574
    67  O   -0.318410
    74  N   -0.029427
    75  C    0.275960
    76  C    0.047135
    77  O   -0.291706
    81  N    0.004683
    82  C    0.142299
    83  C    0.130946
    84  O   -0.354382
    85  C    0.025634
    86  C    0.015004
    87  C   -0.026564
    88  C   -0.029923
    89  C   -0.050464
    90  C   -0.091323
    91  C    0.158025
    92  O   -0.013249
   102  N    0.057249
   103  C    0.157952
   104  C    0.047681
   105  O   -0.287426
   106  C   -0.152265
   107  C    0.054003
   108  C    0.085220
   109  C    0.019065
   121  N    0.034015
   122  C    0.084446
   123  C    0.088857
   124  O   -0.293733
   125  C    0.245744
   126  O   -0.165782
   132  N   -0.003475
   133  C    0.129467
   134  C    0.043820
   135  O   -0.261594
   136  C    0.115709
   142  N   -0.035618
   143  C    0.152255
   144  C    0.043785
   145  O   -0.294405
   146  C    0.088132
   152  N    0.011386
   153  C    0.149508
   154  C    0.049074
   155  O   -0.284289
   156  C    0.009981
   157  C    0.070774
   158  C    0.150780
   159  O   -0.378175
   160  O   -0.452339
   167  N   -0.038373
   168  C    0.193765
   173  Ca   1.281801
   174  O    0.105475
 DipInt: DoE/N= T F RetVal/Mat= T F Init=T NMatP=  1 IDeriv=0 Min/MaxMlt=  0  4
 Entering OneElI...
 OneElI was handed  4286741430 working-precision words.
 Multipole integrals L=0 to 4 MinM= 0 MaxM= 0.
 Requested accuracy = 0.1000D-12
 ShPair: Thresh= 1.00D-13 NBox=     0 BxSize= 0.00D+00 RnKept= 2.55D+01
         NSMCal=               327645 NSMKep=              160512
 PrsmSu:  NPrtUS=   1 ThrOK=F IAlg=1 NPAlg=1 LenDen=           0.
 Prism:   IPart=     0 DynPar=F LinDyn=F Incr=         512.
 PRISM was handed  4276674996 working-precision words and160512 shell-pairs
 IPart=  0 NShTot=      160512 NBatch=         452 AvBLen=       355.1
 PrSmSu:  NxtVal=            513.
 Electronic moments (au):
       -716.00000000         11.16495273         -1.01396439         -7.75901573
     -55665.75502997     -29888.95805533     -11328.30310297         98.26313536
        -29.38614665         -4.64588198     -46718.81803332     -24506.11882480
     -23488.13189173      29165.02740129     103125.57185726      51866.56144910
     -16729.43789146        396.72004370      19016.11397013      -6976.53278770
   -8425042.68024490   -2734170.14080680    -521348.82139519     -69157.33540820
     291235.06931869    -465374.86202275      53621.43791665     -67498.85632456
       3136.16182163   -2404544.28339844    -694947.36581398    -308536.45844290
    -177387.26788270      31082.19854642       1967.28259406
 Electronic spatial extent (au):  <R**2>=          96883.0162
 DipInt: DoE/N= F T RetVal/Mat= T F Init=T NMatP=  1 IDeriv=0 Min/MaxMlt=  0  4
 Nuclear    moments (au):
        716.00000000          0.00000000          0.00000000          0.00000000
      55228.08449806      29510.33792788      10958.25915335          0.00000000
          0.00000000          0.00000000      47913.46842773      25012.20278296
      23199.59751327     -26985.18417383    -102648.19669854     -53018.20132360
      16905.71224933       -417.80830123     -19702.29244011       6390.15027381
    8217530.01948607    2634080.60806039     484863.69729441      82635.05052638
    -295025.67541706     481021.40896407     -57391.10930466      68501.54202723
      -2329.92933020    2366294.30822508     661482.76865787     286402.80453669
     176264.50236549     -37898.42437035       -680.89958425
 Total      moments (au):
          0.00000000         11.16495273         -1.01396439         -7.75901573
       -437.67053192       -378.62012745       -370.04394962         98.26313536
        -29.38614665         -4.64588198       1194.65039441        506.08395816
       -288.53437846       2179.84322746        477.37515871      -1151.63987450
        176.27435787        -21.08825753       -686.17846999       -586.38251389
    -207512.66075883    -100089.53274641     -36485.12410078      13477.71511818
      -3790.60609836      15646.54694132      -3769.67138801       1002.68570267
        806.23249143     -38249.97517336     -33464.59715611     -22133.65390621
      -1122.76551721      -6816.22582393       1286.38300982
 Traceless Quadrup. (au):
        -42.22566225         16.82474221         25.40092004         98.26313536
        -29.38614665         -4.64588198
 Charge=              0.0000 electrons
 Dipole moment (field-independent basis, Debye):
    X=             28.3785    Y=             -2.5772    Z=            -19.7214  Tot=             34.6542
 Quadrupole moment (field-independent basis, Debye-Ang):
   XX=           -588.6818   YY=           -509.2570   ZZ=           -497.7218
   XY=            132.1673   XZ=            -39.5254   YZ=             -6.2489
 Traceless Quadrupole moment (field-independent basis, Debye-Ang):
   XX=            -56.7950   YY=             22.6299   ZZ=             34.1651
   XY=            132.1673   XZ=            -39.5254   YZ=             -6.2489
 Octapole moment (field-independent basis, Debye-Ang**2):
  XXX=            850.3061  YYY=            360.2110  ZZZ=           -205.3676  XYY=           1551.5283
  XXY=            339.7772  XXZ=           -819.6928  XZZ=            125.4653  YZZ=            -15.0098
  YYZ=           -488.3954  XYZ=           -417.3645
 Hexadecapole moment (field-independent basis, Debye-Ang**3):
 XXXX=         -78159.2134 YYYY=         -37698.5150 ZZZZ=         -13742.0463 XXXY=           5076.3535
 XXXZ=          -1427.7239 YYYX=           5893.2395 YYYZ=          -1419.8389 ZZZX=            377.6595
 ZZZY=            303.6658 XXYY=         -14406.7738 XXZZ=         -12604.3711 YYZZ=          -8336.5949
 XXYZ=           -422.8873 YYXZ=          -2567.3173 ZZXY=            484.5135
 N-N= 2.161169448424D+04 E-N=-5.570396404985D+04  KE= 5.290443902969D+03
 Leave Link  601 at Mon Sep 16 14:25:34 2019, MaxMem=  4294967296 cpu:        21.9
 FitSet:  NAtFit=   176 NAtPot=   176 NAtFrz=     0 MDM=   180 TotChg=   0.00000
 Merz-Kollman atomic radii used.
 Read replacement radii for each type of atom:
 Rad(20) =   1.700000000000D+00
 Atom Element Radius
    1     6    1.50
    2     6    1.50
    3     8    1.40
    4     1    1.20
    5     1    1.20
    6     1    1.20
    7     7    1.50
    8     6    1.50
    9     6    1.50
   10     8    1.40
   11     6    1.50
   12     6    1.50
   13     8    1.40
   14     8    1.40
   15     1    1.20
   16     1    1.20
   17     1    1.20
   18     1    1.20
   19     7    1.50
   20     6    1.50
   21     6    1.50
   22     8    1.40
   23     6    1.50
   24     6    1.50
   25     6    1.50
   26     6    1.50
   27     7    1.50
   28     1    1.20
   29     1    1.20
   30     1    1.20
   31     1    1.20
   32     1    1.20
   33     1    1.20
   34     1    1.20
   35     1    1.20
   36     1    1.20
   37     1    1.20
   38     1    1.20
   39     1    1.20
   40     1    1.20
   41     7    1.50
   42     6    1.50
   43     6    1.50
   44     8    1.40
   45     6    1.50
   46     6    1.50
   47     8    1.40
   48     8    1.40
   49     1    1.20
   50     1    1.20
   51     1    1.20
   52     1    1.20
   53     7    1.50
   54     6    1.50
   55     6    1.50
   56     8    1.40
   57     1    1.20
   58     1    1.20
   59     1    1.20
   60     7    1.50
   61     6    1.50
   62     6    1.50
   63     8    1.40
   64     6    1.50
   65     6    1.50
   66     7    1.50
   67     8    1.40
   68     1    1.20
   69     1    1.20
   70     1    1.20
   71     1    1.20
   72     1    1.20
   73     1    1.20
   74     7    1.50
   75     6    1.50
   76     6    1.50
   77     8    1.40
   78     1    1.20
   79     1    1.20
   80     1    1.20
   81     7    1.50
   82     6    1.50
   83     6    1.50
   84     8    1.40
   85     6    1.50
   86     6    1.50
   87     6    1.50
   88     6    1.50
   89     6    1.50
   90     6    1.50
   91     6    1.50
   92     8    1.40
   93     1    1.20
   94     1    1.20
   95     1    1.20
   96     1    1.20
   97     1    1.20
   98     1    1.20
   99     1    1.20
  100     1    1.20
  101     1    1.20
  102     7    1.50
  103     6    1.50
  104     6    1.50
  105     8    1.40
  106     6    1.50
  107     6    1.50
  108     6    1.50
  109     6    1.50
  110     1    1.20
  111     1    1.20
  112     1    1.20
  113     1    1.20
  114     1    1.20
  115     1    1.20
  116     1    1.20
  117     1    1.20
  118     1    1.20
  119     1    1.20
  120     1    1.20
  121     7    1.50
  122     6    1.50
  123     6    1.50
  124     8    1.40
  125     6    1.50
  126     8    1.40
  127     1    1.20
  128     1    1.20
  129     1    1.20
  130     1    1.20
  131     1    1.20
  132     7    1.50
  133     6    1.50
  134     6    1.50
  135     8    1.40
  136     6    1.50
  137     1    1.20
  138     1    1.20
  139     1    1.20
  140     1    1.20
  141     1    1.20
  142     7    1.50
  143     6    1.50
  144     6    1.50
  145     8    1.40
  146     6    1.50
  147     1    1.20
  148     1    1.20
  149     1    1.20
  150     1    1.20
  151     1    1.20
  152     7    1.50
  153     6    1.50
  154     6    1.50
  155     8    1.40
  156     6    1.50
  157     6    1.50
  158     6    1.50
  159     8    1.40
  160     8    1.40
  161     1    1.20
  162     1    1.20
  163     1    1.20
  164     1    1.20
  165     1    1.20
  166     1    1.20
  167     7    1.50
  168     6    1.50
  169     1    1.20
  170     1    1.20
  171     1    1.20
  172     1    1.20
  173    20    1.70
  174     8    1.40
  175     1    1.20
  176     1    1.20
 Generate VDW surfaces: Layer= 4 Dens= 6 Start= 1.400 Inc= 0.200

 **********************************************************************

            Electrostatic Properties Using The SCF Density

 **********************************************************************

       Atomic Center    1 is at   2.653509  1.989152  5.299598
       Atomic Center    2 is at   1.978442  2.065061  3.937679
       Atomic Center    3 is at   2.689878  2.137770  2.942504
[...]
 **** Fit      -0.024453
 **** Fit      -0.020588
 **** Fit      -0.016670
 **** Fit      -0.012998
 **** Fit      -0.009911
 **** Fit      -0.007758
 **** Fit      -0.039317
 **** Fit      -0.037942
 **** Fit      -0.035465
 **** Fit      -0.032017
 **** Fit      -0.027770
 **** Fit      -0.022926
 **** Fit      -0.017723
 **** Fit      -0.012463
 **** Fit      -0.007509
 **** Fit      -0.003257
 **** Fit      -0.039554
 **** Fit      -0.038950
 **** Fit      -0.034126
 **** Fit      -0.028387
 **** Fit      -0.021993
 **** Fit      -0.015233
 **** Fit      -0.008469
 **** Fit      -0.002137
 **** Fit      -0.019985
 **** Fit      -0.011053
 **** Fit      -0.002500
 **** Fit      -0.005392
 **** Fit       0.020882
 **** Fit       0.009239
 **** Fit       0.021500
 **** Fit       0.011633
 **** Fit       0.007779
 **** Fit      -0.000001
 **** Fit      -0.012324
 **** Fit      -0.004747
 **** Fit       0.002238
 **** Fit      -0.005592
 **** Fit       0.003789
 **** Fit       0.000198
 **** Fit      -0.006583
 **** Fit      -0.012294
 **** Fit       0.001921
 **** Fit      -0.000482
 **** Fit      -0.004337
 **** Fit      -0.001260
 **** Fit       0.002182
 **** Fit       0.001862
 **** Fit       0.000209
 **** Fit       0.008270
 **** Fit       0.013757
 **** Fit       0.003195
 **** Fit       0.012419
 **** Fit       0.035772
 **** Fit       0.032917
 **** Fit       0.035320
 **** Fit       0.042537
 **** Fit       0.030392
 **** Fit       0.036014
 **** Fit       0.040432
 **** Fit       0.041740
 **** Fit       0.026008
 **** Fit       0.030060
 **** Fit       0.033588
 **** Fit       0.034891
 **** Fit       0.032739
 **** Fit       0.027181
 **** Fit       0.019479
 **** Fit       0.011454
 **** Fit       0.024893
 **** Fit       0.027745
 **** Fit       0.028710
 **** Fit       0.026553
 **** Fit       0.021399
 **** Fit       0.014830
 **** Fit       0.008996
 **** Fit       0.005423
 **** Fit       0.003850
 **** Fit       0.019249
 **** Fit       0.022411
 **** Fit       0.023151
 **** Fit       0.020342
 **** Fit       0.015009
 **** Fit       0.009981
 **** Fit       0.006811
 **** Fit       0.014380
 **** Fit       0.016348
 **** Fit       0.018076
 **** Fit       0.014481
 **** Fit       0.009941
 **** Fit       0.007951
 **** Fit       0.010972
 **** Fit       0.013166
 **** Fit      -0.040103
 **** Fit      -0.003792
 **** Fit      -0.005099
 **** Fit      -0.000844
 **** Fit      -0.001504
 **** Fit      -0.002523
 **** Fit      -0.004120
 **** Fit      -0.005491
 **** Fit      -0.006880
 **** Fit       0.000175
 **** Fit      -0.000219
 **** Fit      -0.000867
 **** Fit      -0.001767
 **** Fit      -0.002867
 **** Fit      -0.004413
 **** Fit      -0.005810
 **** Fit      -0.007375
 **** Fit      -0.009025
 **** Fit      -0.010504
 **** Fit       0.001172
 **** Fit       0.000955
 **** Fit       0.000555
 **** Fit      -0.000095
 **** Fit      -0.000976
 **** Fit      -0.002016
 **** Fit      -0.003162
 **** Fit      -0.004722
 **** Fit      -0.006007
 **** Fit      -0.007512
 **** Fit      -0.009276
 **** Fit      -0.011225
 **** Fit      -0.013146
 **** Fit       0.002209
 **** Fit       0.002101
 **** Fit       0.001985
 **** Fit       0.001744
 **** Fit       0.000552
 **** Fit      -0.000371
 **** Fit      -0.001404
 **** Fit      -0.002477
 **** Fit      -0.003571
 **** Fit      -0.005085
 **** Fit      -0.014432
 **** Fit      -0.017014
 **** Fit      -0.019236
 **** Fit       0.003276
 **** Fit       0.003104
 **** Fit      -0.000669
 **** Fit      -0.001831
 **** Fit      -0.002942
 **** Fit      -0.004007
 **** Fit      -0.021981
 **** Fit      -0.025129
 **** Fit      -0.027390
 **** Fit       0.004552
 **** Fit       0.004158
 **** Fit      -0.001301
 **** Fit      -0.002528
 **** Fit      -0.003617
 **** Fit      -0.004596
 **** Fit      -0.029422
 **** Fit       0.005063
 **** Fit      -0.002177
 **** Fit      -0.003444
 **** Fit      -0.004491
 **** Fit       0.005842
 **** Fit      -0.003502
 **** Fit      -0.004736
 **** Fit      -0.005685
 **** Fit       0.006471
 **** Fit      -0.005243
 **** Fit      -0.006420
 **** Fit       0.006851
 **** Fit      -0.008595
 **** Fit      -0.010623
 **** Fit      -0.011623
 **** Fit      -0.015161
 **** Fit      -0.015819
 **** Fit      -0.021669
 **** Fit      -0.021248
 **** Fit      -0.006696
 **** Fit      -0.008232
 **** Fit      -0.010109
 **** Fit      -0.012278
 **** Fit      -0.006872
 **** Fit      -0.008228
 **** Fit      -0.009954
 **** Fit      -0.012138
 **** Fit      -0.014761
 **** Fit      -0.017599
 **** Fit      -0.005743
 **** Fit      -0.007216
 **** Fit      -0.008437
 **** Fit      -0.010042
 **** Fit      -0.012162
 **** Fit      -0.014894
 **** Fit      -0.018255
 **** Fit      -0.022086
 **** Fit      -0.005313
 **** Fit      -0.006229
 **** Fit      -0.007796
 **** Fit      -0.008874
 **** Fit      -0.010325
 **** Fit      -0.012288
 **** Fit      -0.014904
 **** Fit      -0.018308
 **** Fit      -0.022594
 **** Fit      -0.027709
 **** Fit      -0.006208
 **** Fit      -0.006956
 **** Fit      -0.008691
 **** Fit      -0.009695
 **** Fit      -0.011109
 **** Fit      -0.013085
 **** Fit      -0.015802
 **** Fit      -0.019478
 **** Fit      -0.024360
 **** Fit      -0.006678
 **** Fit      -0.007340
 **** Fit      -0.007955
 **** Fit      -0.009986
 **** Fit      -0.010902
 **** Fit      -0.012255
 **** Fit      -0.014200
 **** Fit      -0.016931
 **** Fit      -0.020714
 **** Fit      -0.025911
 **** Fit      -0.008458
 **** Fit      -0.008915
 **** Fit      -0.009371
 **** Fit      -0.011787
 **** Fit      -0.012631
 **** Fit      -0.013968
 **** Fit      -0.015953
 **** Fit      -0.018803
 **** Fit      -0.022829
 **** Fit      -0.028506
 **** Fit      -0.010820
 **** Fit      -0.011030
 **** Fit      -0.011298
 **** Fit      -0.014210
 **** Fit      -0.015023
 **** Fit      -0.016458
 **** Fit      -0.018697
 **** Fit      -0.022004
 **** Fit      -0.026805
 **** Fit      -0.014009
 **** Fit      -0.013866
 **** Fit      -0.013873
 **** Fit      -0.017386
 **** Fit      -0.018176
 **** Fit      -0.019799
 **** Fit      -0.022465
 **** Fit      -0.026514
 **** Fit      -0.018433
 **** Fit      -0.017695
 **** Fit      -0.017277
 **** Fit      -0.021437
 **** Fit      -0.022172
 **** Fit      -0.024010
 **** Fit      -0.027157
 **** Fit      -0.031994
 **** Fit      -0.022749
 **** Fit      -0.021674
 **** Fit      -0.026415
 **** Fit      -0.027148
 **** Fit      -0.029519
 **** Fit      -0.033718
 **** Fit      -0.027236
 **** Fit      -0.032156
 **** Fit      -0.032864
 **** Fit      -0.035864
 **** Fit      -0.038742
 **** Fit      -0.003045
 **** Fit      -0.003616
 **** Fit      -0.004568
 **** Fit      -0.003952
 **** Fit      -0.002426
 **** Fit      -0.001751
 **** Fit      -0.002314
 **** Fit      -0.004153
 **** Fit      -0.005512
 **** Fit      -0.006394
 **** Fit      -0.006314
 **** Fit      -0.005130
 **** Fit      -0.003323
 **** Fit      -0.001730
 **** Fit      -0.000824
 **** Fit      -0.000617
 **** Fit      -0.000942
 **** Fit      -0.001678
 **** Fit      -0.002782
 **** Fit      -0.004654
 **** Fit      -0.006180
 **** Fit      -0.007600
 **** Fit      -0.008617
 **** Fit      -0.008912
 **** Fit      -0.008270
 **** Fit      -0.006713
 **** Fit      -0.004573
 **** Fit      -0.002476
 **** Fit      -0.000922
 **** Fit       0.000026
 **** Fit       0.000438
 **** Fit       0.000422
 **** Fit       0.000127
 **** Fit      -0.000364
 **** Fit      -0.001063
 **** Fit      -0.008629
 **** Fit      -0.010286
 **** Fit      -0.011534
 **** Fit      -0.012080
 **** Fit      -0.011704
 **** Fit      -0.010336
 **** Fit      -0.008068
 **** Fit      -0.005234
 **** Fit      -0.000670
 **** Fit       0.000558
 **** Fit       0.001320
 **** Fit       0.001611
 **** Fit       0.001512
 **** Fit       0.001211
 **** Fit       0.000828
 **** Fit      -0.013963
 **** Fit      -0.015535
 **** Fit      -0.016284
 **** Fit      -0.015983
 **** Fit      -0.014561
 **** Fit      -0.012056
 **** Fit       0.001554
 **** Fit       0.002531
 **** Fit       0.002966
 **** Fit       0.002833
 **** Fit       0.002440
 **** Fit       0.002034
 **** Fit      -0.020959
 **** Fit      -0.022020
 **** Fit      -0.021849
 **** Fit      -0.020407
 **** Fit      -0.017777
 **** Fit       0.003911
 **** Fit      -0.029379
 **** Fit      -0.030264
 **** Fit      -0.029404
 **** Fit      -0.026987
 **** Fit       0.001661
 **** Fit       0.002702
 **** Fit       0.002595
 **** Fit       0.002212
 **** Fit       0.001555
 **** Fit       0.000695
 **** Fit       0.003563
 **** Fit       0.003517
 **** Fit       0.003275
 **** Fit       0.002793
 **** Fit       0.002073
 **** Fit       0.001168
 **** Fit       0.000162
 **** Fit       0.004398
 **** Fit       0.004392
 **** Fit       0.004279
 **** Fit       0.003978
 **** Fit       0.003437
 **** Fit       0.002655
 **** Fit       0.001678
 **** Fit       0.000581
 **** Fit      -0.000552
 **** Fit       0.005228
 **** Fit       0.005194
 **** Fit       0.005150
 **** Fit       0.004991
 **** Fit       0.004627
 **** Fit       0.004010
 **** Fit       0.003145
 **** Fit       0.002078
 **** Fit       0.000880
 **** Fit      -0.000370
 **** Fit      -0.001593
 **** Fit       0.005980
 **** Fit       0.005923
 **** Fit       0.005914
 **** Fit       0.005815
 **** Fit       0.005498
 **** Fit       0.004885
 **** Fit       0.003963
 **** Fit       0.002776
 **** Fit       0.001403
 **** Fit      -0.000058
 **** Fit      -0.001518
 **** Fit      -0.002895
 **** Fit       0.006580
 **** Fit       0.006568
 **** Fit       0.006636
 **** Fit       0.006629
 **** Fit       0.006384
 **** Fit       0.005787
 **** Fit       0.004802
 **** Fit       0.003469
 **** Fit       0.001884
 **** Fit       0.000162
 **** Fit      -0.001581
 **** Fit      -0.003244
 **** Fit      -0.004752
 **** Fit       0.007047
 **** Fit       0.007235
 **** Fit       0.007422
 **** Fit       0.007395
 **** Fit       0.006959
 **** Fit       0.006009
 **** Fit       0.004552
 **** Fit       0.002693
 **** Fit       0.000589
 **** Fit      -0.001593
 **** Fit      -0.003704
 **** Fit      -0.005631
 **** Fit      -0.007300
 **** Fit       0.007297
 **** Fit       0.007690
 **** Fit       0.008143
 **** Fit       0.008333
 **** Fit       0.007934
 **** Fit       0.006745
 **** Fit       0.004766
 **** Fit       0.002182
 **** Fit      -0.000728
 **** Fit      -0.003678
 **** Fit      -0.006430
 **** Fit      -0.008824
 **** Fit      -0.010776
 **** Fit       0.008294
 **** Fit       0.009080
 **** Fit       0.005635
 **** Fit       0.002019
 **** Fit      -0.002196
 **** Fit      -0.006446
 **** Fit      -0.010286
 **** Fit      -0.013433
 **** Fit      -0.015781
 **** Fit       0.008200
 **** Fit       0.005953
 **** Fit      -0.002020
 **** Fit       0.017373
 **** Fit       0.011979
 **** Fit       0.008230
 **** Fit       0.022536
 **** Fit       0.015870
 **** Fit       0.010388
 **** Fit       0.019427
 **** Fit       0.012672
 **** Fit       0.023363
 **** Fit       0.015227
 **** Fit       0.023034
 **** Fit       0.027563
 **** Fit       0.017984
 **** Fit       0.022503
 **** Fit       0.020600
 **** Fit       0.025898
 **** Fit       0.023750
 **** Fit       0.023312
 **** Fit       0.033254
 **** Fit       0.029918
 **** Fit       0.027990
 **** Fit       0.027332
 **** Fit       0.027482
 **** Fit       0.051322
 **** Fit       0.047235
 **** Fit       0.037682
 **** Fit       0.037232
 **** Fit       0.034326
 **** Fit       0.032588
 **** Fit       0.031896
 **** Fit       0.049547
 **** Fit       0.045360
 **** Fit       0.041078
 **** Fit       0.034086
 **** Fit       0.034590
 **** Fit       0.036913
 **** Fit       0.037979
 **** Fit       0.039273
 **** Fit       0.035089
 **** Fit       0.037228
 **** Fit       0.038937
 **** Fit       0.040345
 **** Fit       0.041704
 **** Fit       0.043325
 **** Fit       0.036883
 **** Fit       0.038433
 **** Fit       0.040081
 **** Fit       0.041608
 **** Fit       0.043000
 **** Fit       0.044368
 **** Fit       0.045882
 **** Fit       0.044022
 **** Fit       0.042468
 **** Fit       0.042417
 **** Fit       0.043121
 **** Fit       0.044132
 **** Fit       0.045235
 **** Fit       0.046374
 **** Fit       0.047575
 **** Fit       0.050827
 **** Fit       0.048277
 **** Fit       0.047353
 **** Fit       0.047327
 **** Fit       0.047761
 **** Fit       0.048418
 **** Fit       0.049173
 **** Fit       0.049927
 **** Fit       0.055448
 **** Fit       0.052598
 **** Fit       0.051325
 **** Fit       0.050935
 **** Fit       0.050998
 **** Fit       0.051228
 **** Fit       0.051373
 **** Fit       0.051129
 **** Fit       0.055847
 **** Fit       0.054372
 **** Fit       0.053663
 **** Fit       0.053244
 **** Fit       0.052711
 **** Fit       0.051699
 **** Fit       0.056978
 **** Fit       0.055777
 **** Fit       0.055017
 **** Fit       0.056078
 **** Fit       0.055822
 **** Fit       0.056757
 **** Fit       0.032582
 **** Fit       0.031689
 **** Fit       0.030811
 **** Fit       0.030010
 **** Fit       0.029657
 **** Fit       0.029976
 **** Fit       0.030871
 **** Fit       0.056272
 **** Fit       0.055818
 **** Fit       0.056066
 **** Fit       0.056414
 **** Fit       0.056330
 **** Fit       0.055413
 **** Fit       0.053455
 **** Fit       0.050476
 **** Fit       0.040938
 **** Fit       0.038226
 **** Fit       0.036205
 **** Fit       0.034745
 **** Fit       0.033639
 **** Fit       0.032889
 **** Fit       0.032736
 **** Fit       0.033394
 **** Fit       0.034876
 **** Fit       0.056590
 **** Fit       0.055504
 **** Fit       0.055073
 **** Fit       0.054767
 **** Fit       0.054098
 **** Fit       0.052718
 **** Fit       0.050491
 **** Fit       0.047530
 **** Fit       0.044183
 **** Fit       0.042747
 **** Fit       0.040340
 **** Fit       0.038475
 **** Fit       0.037150
 **** Fit       0.036381
 **** Fit       0.036331
 **** Fit       0.037196
 **** Fit       0.039075
 **** Fit       0.058249
 **** Fit       0.056385
 **** Fit       0.055065
 **** Fit       0.054206
 **** Fit       0.053430
 **** Fit       0.052324
 **** Fit       0.050616
 **** Fit       0.048272
 **** Fit       0.045517
 **** Fit       0.044328
 **** Fit       0.042176
 **** Fit       0.040616
 **** Fit       0.039814
 **** Fit       0.039964
 **** Fit       0.041267
 **** Fit       0.043814
 **** Fit       0.056365
 **** Fit       0.055800
 **** Fit       0.054649
 **** Fit       0.053547
 **** Fit       0.052459
 **** Fit       0.051071
 **** Fit       0.049159
 **** Fit       0.046796
 **** Fit       0.045765
 **** Fit       0.043856
 **** Fit       0.043004
 **** Fit       0.043645
 **** Fit       0.045931
 **** Fit       0.049343
 **** Fit       0.052342
 **** Fit       0.053456
 **** Fit       0.052986
 **** Fit       0.051853
 **** Fit       0.050258
 **** Fit       0.048123
 **** Fit       0.047151
 **** Fit       0.045944
 **** Fit       0.047467
 **** Fit       0.050259
 **** Fit       0.050955
 **** Fit       0.049483
 **** Fit       0.048600
 -----------------------------------------------------------------
 Leave Link  602 at Mon Sep 16 14:25:47 2019, MaxMem=  4294967296 cpu:       157.5

 Test job not archived.
 1\1\GINC-N005\SP\RB3LYP\SVP\C54H83Ca1N15O23\PCIEPLAK\16-Sep-2019\0\\#m
 axdisk=50GB #B3LYP/SVP Density=Current scf=(tight) #IOP(5/87=12)Pop=(M
 K,readradii) iop(6/33=2) iop(6/42=6)\\SOL molecule\\0,1\C,0,81.64,55.5
 8,19.31\C,0,81.77,54.21,18.66\O,0,82.77,53.98,17.99\H,0,80.621,55.715,
 19.672\H,0,82.335,55.653,20.147\H,0,81.87,56.354,18.577\N,0,80.76,53.3
 5,18.84\C,0,80.73,52.08,18.15\C,0,80.36,52.25,16.68\O,0,79.52,53.1,16.
 36\C,0,79.84,51.16,18.97\C,0,79.73,49.74,18.43\O,0,78.7,49.06,18.65\O,
 0,80.65,49.29,17.72\H,0,79.94,53.72,19.29\H,0,81.74,51.69,18.23\H,0,78
 .91,51.72,19.04\H,0,80.34,51.08,19.94\N,0,81.14,51.54,15.87\C,0,81.12,
 51.71,14.43\C,0,80.25,50.65,13.77\O,0,79.89,50.89,12.62\C,0,82.5,51.81
 ,13.8\C,0,83.25,53.11,14.07\C,0,84.63,53.3,13.46\C,0,84.68,53.58,11.96
 \N,0,86.05,53.78,11.45\H,0,81.79,50.9,16.31\H,0,80.6,52.66,14.33\H,0,8
 2.35,51.73,12.73\H,0,83.1,50.92,14.02\H,0,83.3,53.24,15.15\H,0,82.59,5
 3.89,13.68\H,0,85.35,52.51,13.66\H,0,84.97,54.2,13.97\H,0,84.17,54.54,
 11.87\H,0,84.07,52.87,11.4\H,0,86.02,53.86,10.45\H,0,86.59,54.46,11.97
 \H,0,86.54,52.92,11.65\N,0,80.02,49.57,14.52\C,0,79.53,48.32,13.98\C,0
 ,78.32,47.71,14.66\O,0,77.51,47.05,14.01\C,0,80.69,47.33,13.84\C,0,81.
 54,47.16,15.09\O,0,82.71,47.59,15.08\O,0,81.,46.8,16.16\H,0,80.47,49.5
 9,15.43\H,0,79.14,48.65,13.01\H,0,81.34,47.58,13.01\H,0,80.27,46.35,13
 .62\N,0,78.11,48.07,15.93\C,0,76.83,47.75,16.54\C,0,76.88,46.43,17.29\
 O,0,75.83,45.82,17.46\H,0,78.76,48.63,16.44\H,0,76.01,47.68,15.83\H,0,
 76.6,48.48,17.32\N,0,78.07,46.05,17.78\C,0,78.31,44.84,18.54\C,0,78.18
 ,45.12,20.03\O,0,78.21,44.21,20.86\C,0,79.54,44.09,18.06\C,0,80.92,44.
 53,18.54\N,0,81.88,43.61,18.64\O,0,81.14,45.68,18.9\H,0,78.86,46.65,17
 .62\H,0,77.49,44.14,18.41\H,0,79.44,43.96,16.98\H,0,79.42,43.07,18.44\
 H,0,81.7,42.63,18.44\H,0,82.77,43.92,19.\N,0,78.07,46.39,20.43\C,0,77.
 81,46.82,21.79\C,0,79.06,47.06,22.64\O,0,78.91,47.41,23.81\H,0,78.01,4
 7.15,19.77\H,0,77.1,46.1,22.18\H,0,77.3,47.78,21.69\N,0,80.24,47.03,22
 .02\C,0,81.59,47.25,22.51\C,0,82.45,48.26,21.77\O,0,82.6,48.02,20.57\C
 ,0,82.3,45.9,22.46\C,0,81.59,44.72,23.08\C,0,81.8,44.49,24.44\C,0,80.8
 2,43.83,22.32\C,0,81.3,43.34,25.06\C,0,80.35,42.66,22.94\C,0,80.62,42.
 37,24.3\O,0,80.19,41.23,24.9\H,0,80.21,46.72,21.07\H,0,81.54,47.44,23.
 58\H,0,83.29,46.09,22.87\H,0,82.45,45.72,21.4\H,0,82.48,45.1,25.02\H,0
 ,80.66,44.02,21.27\H,0,81.49,43.04,26.08\H,0,79.72,42.03,22.33\H,0,79.
 77,40.67,24.25\N,0,83.03,49.28,22.4\C,0,83.98,50.16,21.77\C,0,85.44,49
 .8,22.03\O,0,85.8,49.47,23.16\C,0,83.81,51.6,22.26\C,0,82.35,51.95,22.
 51\C,0,84.5,52.71,21.47\C,0,82.31,53.02,23.6\H,0,83.01,49.24,23.41\H,0
 ,83.82,50.21,20.69\H,0,84.28,51.62,23.25\H,0,81.66,51.16,22.8\H,0,81.9
 9,52.42,21.59\H,0,85.56,52.5,21.42\H,0,84.03,52.82,20.49\H,0,84.56,53.
 69,21.93\H,0,82.66,52.6,24.55\H,0,82.98,53.88,23.54\H,0,81.27,53.35,23
 .64\N,0,86.26,49.9,20.99\C,0,87.66,49.52,20.9\C,0,88.57,50.73,20.7\O,0
 ,88.09,51.79,20.32\C,0,87.81,48.56,19.72\O,0,87.57,49.24,18.51\H,0,85.
 89,50.36,20.17\H,0,88.06,49.08,21.81\H,0,87.12,47.74,19.88\H,0,88.82,4
 8.16,19.86\H,0,86.62,49.17,18.38\N,0,89.83,50.68,21.14\C,0,90.68,51.85
 ,21.1\C,0,90.74,52.54,19.75\O,0,90.68,53.77,19.82\C,0,92.04,51.47,21.6
 9\H,0,90.26,49.77,21.24\H,0,90.2,52.59,21.74\H,0,92.67,52.32,21.96\H,0
 ,91.88,50.85,22.57\H,0,92.68,50.96,20.97\N,0,90.85,51.82,18.63\C,0,90.
 77,52.38,17.3\C,0,89.45,53.08,16.98\O,0,89.39,54.02,16.19\C,0,91.19,51
 .38,16.23\H,0,90.71,50.82,18.73\H,0,91.54,53.14,17.34\H,0,91.18,51.86,
 15.25\H,0,92.14,50.85,16.36\H,0,90.47,50.57,16.16\N,0,88.35,52.72,17.6
 3\C,0,87.03,53.31,17.53\C,0,86.85,54.6,18.32\O,0,86.45,55.6,17.73\C,0,
 85.94,52.32,17.94\C,0,85.55,51.35,16.83\C,0,84.63,50.23,17.29\O,0,83.4
 9,50.09,16.79\O,0,84.95,49.46,18.23\H,0,88.5,52.07,18.39\H,0,86.83,53.
 63,16.51\H,0,85.02,52.89,18.06\H,0,86.06,51.9,18.94\H,0,86.48,50.92,16
 .46\H,0,85.14,51.74,15.9\N,0,87.28,54.73,19.58\C,0,87.34,55.97,20.32\H
 ,0,87.824,56.733,19.711\H,0,86.33,56.293,20.571\H,0,87.912,55.82,21.23
 6\H,0,87.73,53.96,20.06\Ca,0,82.7,47.74,17.81\O,0,84.2,45.9,19.13\H,0,
 84.69,45.9,19.95\H,0,84.43,45.08,18.71\\Version=ES64L-G09RevD.01\State
 =1-A\HF=-5333.6162987\RMSD=4.794e-09\Dipole=12.7254832,1.2915193,-4.72
 02408\Quadrupole=-58.3546342,7.2275673,51.1270669,-39.5742804,-66.8172
 896,-53.1977759\PG=C01 [X(C54H83Ca1N15O23)]\\@


 A people that values its privileges above its principles soon loses both.
 -- Dwight D. Eisenhower
 Job cpu time:       0 days 12 hours 47 minutes 22.5 seconds.
 File lengths (MBytes):  RWF=   1513 Int=      0 D2E=      0 Chk=    103 Scr=      1
 Normal termination of Gaussian 09 at Mon Sep 16 14:25:47 2019.
