 Entering Gaussian System, Link 0=g09
 Initial command:
 /home/pcieplak/g09/g09/l1.exe "/scratch1/pcieplak/fullloop_27.0/Gau-17829.inp" -scrdir="/scratch1/pcieplak/fullloop_27.0/"
 Entering Link 1 = /home/pcieplak/g09/g09/l1.exe PID=     17830.
  
 Copyright (c) 1988,1990,1992,1993,1995,1998,2003,2009,2013,
            Gaussian, Inc.  All Rights Reserved.
  
 This is part of the Gaussian(R) 09 program.  It is based on
 the Gaussian(R) 03 system (copyright 2003, Gaussian, Inc.),
 the Gaussian(R) 98 system (copyright 1998, Gaussian, Inc.),
 the Gaussian(R) 94 system (copyright 1995, Gaussian, Inc.),
 the Gaussian 92(TM) system (copyright 1992, Gaussian, Inc.),
 the Gaussian 90(TM) system (copyright 1990, Gaussian, Inc.),
 the Gaussian 88(TM) system (copyright 1988, Gaussian, Inc.),
 the Gaussian 86(TM) system (copyright 1986, Carnegie Mellon
 University), and the Gaussian 82(TM) system (copyright 1983,
 Carnegie Mellon University). Gaussian is a federally registered
 trademark of Gaussian, Inc.
  
 This software contains proprietary and confidential information,
 including trade secrets, belonging to Gaussian, Inc.
  
 This software is provided under written license and may be
 used, copied, transmitted, or stored only in accord with that
 written license.
  
 The following legend is applicable only to US Government
 contracts under FAR:
  
                    RESTRICTED RIGHTS LEGEND
  
 Use, reproduction and disclosure by the US Government is
 subject to restrictions as set forth in subparagraphs (a)
 and (c) of the Commercial Computer Software - Restricted
 Rights clause in FAR 52.227-19.
  
 Gaussian, Inc.
 340 Quinnipiac St., Bldg. 40, Wallingford CT 06492
  
  
 ---------------------------------------------------------------
 Warning -- This program may not be used in any manner that
 competes with the business of Gaussian, Inc. or will provide
 assistance to any competitor of Gaussian, Inc.  The licensee
 of this program is prohibited from giving any competitor of
 Gaussian, Inc. access to this program.  By using this program,
 the user acknowledges that Gaussian, Inc. is engaged in the
 business of creating and licensing software in the field of
 computational chemistry and represents and warrants to the
 licensee that it is not a competitor of Gaussian, Inc. and that
 it will not use this program in any manner prohibited above.
 ---------------------------------------------------------------
  

 Cite this work as:
 Gaussian 09, Revision D.01,
 M. J. Frisch, G. W. Trucks, H. B. Schlegel, G. E. Scuseria, 
 M. A. Robb, J. R. Cheeseman, G. Scalmani, V. Barone, B. Mennucci, 
 G. A. Petersson, H. Nakatsuji, M. Caricato, X. Li, H. P. Hratchian, 
 A. F. Izmaylov, J. Bloino, G. Zheng, J. L. Sonnenberg, M. Hada, 
 M. Ehara, K. Toyota, R. Fukuda, J. Hasegawa, M. Ishida, T. Nakajima, 
 Y. Honda, O. Kitao, H. Nakai, T. Vreven, J. A. Montgomery, Jr., 
 J. E. Peralta, F. Ogliaro, M. Bearpark, J. J. Heyd, E. Brothers, 
 K. N. Kudin, V. N. Staroverov, T. Keith, R. Kobayashi, J. Normand, 
 K. Raghavachari, A. Rendell, J. C. Burant, S. S. Iyengar, J. Tomasi, 
 M. Cossi, N. Rega, J. M. Millam, M. Klene, J. E. Knox, J. B. Cross, 
 V. Bakken, C. Adamo, J. Jaramillo, R. Gomperts, R. E. Stratmann, 
 O. Yazyev, A. J. Austin, R. Cammi, C. Pomelli, J. W. Ochterski, 
 R. L. Martin, K. Morokuma, V. G. Zakrzewski, G. A. Voth, 
 P. Salvador, J. J. Dannenberg, S. Dapprich, A. D. Daniels, 
 O. Farkas, J. B. Foresman, J. V. Ortiz, J. Cioslowski, 
 and D. J. Fox, Gaussian, Inc., Wallingford CT, 2013.
 
 ******************************************
 Gaussian 09:  ES64L-G09RevD.01 24-Apr-2013
                16-Sep-2019 
 ******************************************
 %Nproc=12
 Will use up to   12 processors via shared memory.
 %chk=chk1mol
 %mem=32GB
 ----------------------------------------------------------------------
 #maxdisk=50GB #B3LYP/SVP Density=Current scf=(tight) #IOP(5/87=12)Pop=
 (MK,readradii) iop(6/33=2) iop(6/42=6)
 ----------------------------------------------------------------------
 1/30=1,38=1/1;
 2/12=2,17=6,18=5,40=1/2;
 3/5=18,7=101,11=2,16=1,25=1,30=1,74=-5/1,2,3;
 4//1;
 5/5=2,32=2,38=5,87=12/2;
 6/7=2,8=2,9=2,10=2,15=8,20=101,22=-1,28=1,33=2,42=6/1,2;
 99/5=1,9=1/99;
 ------------
 SOL molecule
 ------------
 Symbolic Z-matrix:
 Charge =  0 Multiplicity = 1
 C                     50.76     47.62     44.65 
 C                     50.25     48.03     46.02 
 O                     51.09     48.03     46.91 
 H                     51.783    47.254    44.738 
 H                     50.126    46.831    44.247 
 H                     50.74     48.481    43.981 
 N                     48.98     48.44     46.08 
 C                     48.17     48.59     47.28 
 C                     47.7      47.25     47.82 
 O                     46.51     46.94     47.84 
 C                     46.99     49.52     47.02 
 C                     46.22     49.85     48.29 
 O                     45.12     50.43     48.18 
 O                     46.69     49.75     49.44 
 H                     48.46     48.42     45.22 
 H                     48.75     49.1      48.05 
 H                     46.38     49.08     46.23 
 H                     47.39     50.43     46.58 
 N                     48.6      46.37     48.26 
 C                     48.32     45.       48.63 
 C                     47.21     44.86     49.67 
 O                     46.25     44.12     49.48 
 C                     49.57     44.43     49.3 
 C                     50.73     44.54     48.31 
 C                     51.88     43.61     48.68 
 C                     52.39     43.66     50.12 
 N                     52.69     42.3      50.59 
 H                     49.56     46.67     48.33 
 H                     48.       44.43     47.76 
 H                     49.39     43.39     49.57 
 H                     49.87     45.06     50.14 
 H                     51.03     45.58     48.2 
 H                     50.49     44.34     47.27 
 H                     52.78     43.71     48.07 
 H                     51.44     42.65     48.42 
 H                     51.64     44.06     50.81 
 H                     53.31     44.23     50.21 
 H                     52.65     42.25     51.59 
 H                     52.09     41.56     50.24 
 H                     53.65     42.09     50.33 
 N                     47.16     45.64     50.76 
 C                     46.1      45.59     51.74 
 C                     44.81     46.32     51.41 
 O                     43.78     45.99     51.98 
 C                     46.64     45.93     53.13 
 C                     47.43     47.23     53.2 
 O                     47.16     48.27     52.57 
 O                     48.36     47.26     54.04 
 H                     47.93     46.28     50.87 
 H                     45.76     44.56     51.8 
 H                     47.33     45.15     53.46 
 H                     45.81     46.03     53.82 
 N                     44.83     47.22     50.42 
 C                     43.6      47.82     49.94 
 C                     43.12     49.09     50.63 
 O                     41.96     49.47     50.53 
 H                     45.68     47.53     49.98 
 H                     42.78     47.1      49.96 
 H                     43.81     48.08     48.91 
 N                     43.94     49.78     51.43 
 C                     43.47     50.91     52.21 
 C                     43.53     52.18     51.38 
 O                     43.05     53.23     51.81 
 C                     44.17     50.99     53.56 
 C                     45.56     51.61     53.44 
 N                     45.87     52.63     54.24 
 O                     46.29     51.3      52.5 
 H                     44.81     49.3      51.63 
 H                     42.41     50.78     52.39 
 H                     44.23     49.97     53.94 
 H                     43.51     51.58     54.19 
 H                     45.27     52.85     55.02 
 H                     46.85     52.84     54.18 
 N                     44.17     52.24     50.21 
 C                     44.17     53.35     49.28 
 C                     45.49     54.04     49.01 
 O                     45.39     55.08     48.36 
 H                     44.68     51.4      49.96 
 H                     43.47     54.13     49.57 
 H                     43.83     52.95     48.32 
 N                     46.63     53.49     49.44 
 C                     47.9      54.15     49.19 
 C                     48.96     53.08     48.97 
 O                     48.81     51.95     49.44 
 C                     48.4      54.88     50.43 
 C                     47.37     55.79     51.04 
 C                     47.57     57.18     51.02 
 C                     46.35     55.27     51.85 
 C                     46.74     58.05     51.73 
 C                     45.53     56.14     52.57 
 C                     45.66     57.54     52.48 
 O                     44.79     58.3      53.22 
 H                     46.54     52.52     49.7 
 H                     47.78     54.69     48.25 
 H                     49.32     55.44     50.23 
 H                     48.66     54.17     51.21 
 H                     48.31     57.54     50.31 
 H                     46.32     54.2      52.01 
 H                     46.83     59.11     51.57 
 H                     44.82     55.71     53.27 
 H                     44.09     57.74     53.56 
 N                     50.1      53.37     48.33 
 C                     51.27     52.53     48.18 
 C                     52.38     53.07     49.08 
 O                     52.75     54.24     49. 
 C                     51.72     52.46     46.72 
 C                     50.57     52.03     45.81 
 C                     52.85     51.44     46.73 
 C                     50.97     52.29     44.35 
 H                     50.25     54.18     47.76 
 H                     51.08     51.56     48.64 
 H                     52.12     53.42     46.42 
 H                     49.75     52.68     46.11 
 H                     50.3      50.98     45.89 
 H                     53.62     51.65     47.48 
 H                     52.54     50.4      46.67 
 H                     53.4      51.61     45.8 
 H                     50.09     52.28     43.71 
 H                     51.34     53.31     44.33 
 H                     51.71     51.67     43.85 
 N                     52.99     52.18     49.87 
 C                     53.96     52.4      50.92 
 C                     55.24     51.63     50.68 
 O                     55.25     50.76     49.81 
 C                     53.27     52.07     52.25 
 O                     52.83     50.74     52.35 
 H                     52.72     51.21     49.78 
 H                     54.26     53.45     50.95 
 H                     52.42     52.74     52.34 
 H                     53.98     52.38     53.02 
 H                     51.97     50.6      51.95 
 N                     56.34     52.03     51.33 
 C                     57.61     51.33     51.24 
 C                     57.54     49.86     51.63 
 O                     57.95     48.96     50.91 
 C                     58.7      52.06     52.03 
 H                     56.19     52.75     52.02 
 H                     57.94     51.4      50.2 
 H                     58.65     53.11     51.75 
 H                     58.31     52.1      53.04 
 H                     59.66     51.58     51.8 
 N                     56.81     49.53     52.7 
 C                     56.55     48.19     53.19 
 C                     55.81     47.3      52.21 
 O                     56.13     46.11     52.17 
 C                     55.84     48.42     54.52 
 H                     56.5      50.26     53.33 
 H                     57.54     47.73     53.2 
 H                     54.91     48.95     54.36 
 H                     55.65     47.49     55.06 
 H                     56.43     49.09     55.15 
 N                     55.04     47.91     51.3 
 C                     54.36     47.15     50.27 
 C                     55.24     47.05     49.03 
 O                     55.4      45.95     48.51 
 C                     53.08     47.85     49.84 
 C                     51.94     47.8      50.86 
 C                     50.77     48.75     50.65 
 O                     49.63     48.25     50.53 
 O                     50.87     49.99     50.75 
 H                     54.9      48.89     51.46 
 H                     54.22     46.13     50.64 
 H                     52.7      47.29     48.99 
 H                     53.24     48.91     49.64 
 H                     52.44     47.99     51.81 
 H                     51.62     46.76     50.81 
 N                     55.76     48.17     48.52 
 C                     56.54     48.32     47.31 
 H                     57.528    47.886    47.459 
 H                     56.039    47.808    46.488 
 H                     56.641    49.379    47.071 
 H                     55.66     49.01     49.06 
 CA                    48.39     50.23     51.42 
 O                     49.82     49.41     53.63 
 H                     49.29     48.62     53.75 
 H                     50.52     49.32     54.27 
 
 Stoichiometry    C54H83CaN15O23
 Framework group  C1[X(C54H83CaN15O23)]
 Deg. of freedom   522
 Full point group                 C1      NOp   1
 Largest Abelian subgroup         C1      NOp   1
 Largest concise Abelian subgroup C1      NOp   1
                         Standard orientation:                         
 ---------------------------------------------------------------------
 Center     Atomic      Atomic             Coordinates (Angstroms)
 Number     Number       Type             X           Y           Z
 ---------------------------------------------------------------------
      1          6           0        2.183464    2.184484    5.289103
      2          6           0        1.475237    1.869725    3.983560
      3          8           0        2.202300    1.492473    3.074297
      4          1           0        3.261963    2.150064    5.134563
      5          1           0        1.897208    3.179701    5.627461
      6          1           0        1.902244    1.448347    6.042960
      7          7           0        0.141295    1.939281    4.002586
      8          6           0       -0.743865    1.988330    2.848166
      9          6           0       -0.741839    3.356527    2.187761
     10          8           0       -1.743456    4.070017    2.170599
     11          6           0       -2.157760    1.569507    3.235964
     12          6           0       -3.073842    1.430930    2.029195
     13          8           0       -4.298613    1.295945    2.229728
     14          8           0       -2.673066    1.257263    0.861882
     15          1           0       -0.282048    2.217731    4.870714
     16          1           0       -0.432462    1.240562    2.117913
     17          1           0       -2.520686    2.264680    3.994133
     18          1           0       -2.079074    0.617597    3.754978
     19          7           0        0.381666    3.814026    1.634200
     20          6           0        0.582394    5.156403    1.134265
     21          6           0       -0.469706    5.596293    0.117957
     22          8           0       -1.091011    6.644813    0.258966
     23          6           0        1.907945    5.180566    0.373588
     24          6           0        3.014143    4.746358    1.335665
     25          6           0        4.393053    5.166578    0.839359
     26          6           0        4.759546    4.814432   -0.602125
     27          7           0        5.491476    5.930854   -1.217253
     28          1           0        1.166526    3.184704    1.567504
     29          1           0        0.541177    5.875153    1.950292
     30          1           0        2.091386    6.188839    0.003948
     31          1           0        1.911149    4.415778   -0.405892
     32          1           0        2.932478    3.681393    1.542739
     33          1           0        2.927258    5.106966    2.356260
     34          1           0        5.236061    4.802605    1.430089
     35          1           0        4.339290    6.238940    1.012422
     36          1           0        3.874208    4.653014   -1.225599
     37          1           0        5.410138    3.946798   -0.659933
     38          1           0        5.408274    5.906509   -2.215544
     39          1           0        5.216205    6.863810   -0.927567
     40          1           0        6.478053    5.803681   -1.007985
     41          7           0       -0.862087    4.796391   -0.884637
     42          6           0       -1.895616    5.139793   -1.833527
     43          6           0       -3.336809    4.952307   -1.393400
     44          8           0       -4.217050    5.580123   -1.964121
     45          6           0       -1.600722    4.511586   -3.196499
     46          6           0       -1.328829    3.013777   -3.155989
     47          8           0       -1.909196    2.197655   -2.415367
     48          8           0       -0.525252    2.580601   -4.015071
     49          1           0       -0.377515    3.915818   -0.950831
     50          1           0       -1.851633    6.214077   -1.988704
     51          1           0       -0.701574    4.960867   -3.624378
     52          1           0       -2.454385    4.657726   -3.848344
     53          7           0       -3.574115    4.192906   -0.317530
     54          6           0       -4.903723    4.117498    0.256714
     55          6           0       -5.845468    3.050525   -0.285584
     56          8           0       -7.055979    3.122119   -0.113716
     57          1           0       -2.862984    3.637203    0.127091
     58          1           0       -5.414861    5.079301    0.186908
     59          1           0       -4.734430    3.888196    1.301396
     60          7           0       -5.375853    2.046765   -1.034200
     61          6           0       -6.264382    1.098667   -1.680597
     62          6           0       -6.605662   -0.032629   -0.727132
     63          8           0       -7.452910   -0.872968   -1.033405
     64          6           0       -5.725537    0.658117   -3.035020
     65          6           0       -4.640825   -0.406773   -2.892503
     66          7           0       -4.763952   -1.534245   -3.592608
     67          8           0       -3.790138   -0.300538   -2.010661
     68          1           0       -4.406819    2.163674   -1.307339
     69          1           0       -7.218679    1.584568   -1.842202
     70          1           0       -5.332274    1.552304   -3.518935
     71          1           0       -6.590424    0.292907   -3.582003
     72          1           0       -5.451287   -1.589849   -4.328323
     73          1           0       -3.920271   -2.076017   -3.539824
     74          7           0       -5.955427   -0.218420    0.423858
     75          6           0       -6.289625   -1.170948    1.462127
     76          6           0       -5.285485   -2.263006    1.762979
     77          8           0       -5.705980   -3.138431    2.518568
     78          1           0       -5.166058    0.400627    0.571763
     79          1           0       -7.237535   -1.669448    1.273808
     80          1           0       -6.404019   -0.595369    2.385611
     81          7           0       -4.054380   -2.197515    1.246171
     82          6           0       -3.087528   -3.245448    1.525516
     83          6           0       -1.705444   -2.612549    1.604150
     84          8           0       -1.474842   -1.548421    1.025570
     85          6           0       -2.958614   -4.209028    0.352743
     86          6           0       -4.280815   -4.737192   -0.130916
     87          6           0       -4.585527   -6.099260    0.025362
     88          6           0       -5.099661   -3.956802   -0.960001
     89          6           0       -5.713326   -6.670534   -0.567609
     90          6           0       -6.218767   -4.532517   -1.563205
     91          6           0       -6.587876   -5.872797   -1.334275
     92          8           0       -7.715920   -6.330028   -1.967170
     93          1           0       -3.811144   -1.285753    0.891030
     94          1           0       -3.331052   -3.624249    2.518897
     95          1           0       -2.286034   -5.042667    0.582269
     96          1           0       -2.514058   -3.708827   -0.502985
     97          1           0       -3.977565   -6.638965    0.746750
     98          1           0       -4.758652   -2.965104   -1.227674
     99          1           0       -5.994815   -7.674469   -0.302696
    100          1           0       -6.773298   -3.937661   -2.282678
    101          1           0       -8.192157   -5.587264   -2.342269
    102          7           0       -0.703953   -3.236699    2.237200
    103          6           0        0.694797   -2.863020    2.266575
    104          6           0        1.481760   -3.839945    1.394790
    105          8           0        1.417425   -5.053420    1.583306
    106          6           0        1.232286   -2.835092    3.698121
    107          6           0        0.369662   -1.945205    4.592258
    108          6           0        2.647329   -2.293378    3.551148
    109          6           0        0.743563   -2.206067    6.059006
    110          1           0       -0.814796   -3.994870    2.882483
    111          1           0        0.832018   -1.932406    1.715461
    112          1           0        1.284350   -3.845401    4.083042
    113          1           0       -0.644769   -2.280659    4.384172
    114          1           0        0.484766   -0.879156    4.413123
    115          1           0        3.243573   -2.828779    2.804597
    116          1           0        2.730476   -1.210344    3.513400
    117          1           0        3.159354   -2.569557    4.477353
    118          1           0       -0.033175   -1.826459    6.719820
    119          1           0        0.728567   -3.285229    6.172519
    120          1           0        1.685448   -1.852754    6.471343
    121          7           0        2.315995   -3.298890    0.500580
    122          6           0        3.076203   -3.940911   -0.549035
    123          6           0        4.558495   -3.664107   -0.426194
    124          8           0        4.931459   -2.784934    0.349598
    125          6           0        2.464824   -3.499841   -1.885288
    126          8           0        2.519279   -2.114229   -2.108031
    127          1           0        2.413562   -2.292721    0.498665
    128          1           0        2.982090   -5.027096   -0.480145
    129          1           0        1.428673   -3.825232   -1.881651
    130          1           0        2.968383   -4.108363   -2.639761
    131          1           0        1.792003   -1.641406   -1.699733
    132          7           0        5.401640   -4.486020   -1.063425
    133          6           0        6.840256   -4.283468   -1.082284
    134          6           0        7.271067   -2.925208   -1.618411
    135          8           0        8.018298   -2.174473   -1.006412
    136          6           0        7.548226   -5.420451   -1.824679
    137          1           0        4.962668   -5.160197   -1.671529
    138          1           0        7.189468   -4.378378   -0.050566
    139          1           0        7.147302   -6.354628   -1.437417
    140          1           0        7.105966   -5.403698   -2.813580
    141          1           0        8.628575   -5.299215   -1.672858
    142          7           0        6.638907   -2.447638   -2.694980
    143          6           0        6.840030   -1.150545   -3.311744
    144          6           0        6.527373    0.025736   -2.406920
    145          8           0        7.250156    1.020405   -2.498127
    146          6           0        6.011546   -1.222815   -4.590138
    147          1           0        6.050936   -3.068580   -3.237771
    148          1           0        7.926014   -1.079107   -3.397386
    149          1           0        4.966272   -1.368074   -4.349922
    150          1           0        6.129504   -0.336194   -5.216707
    151          1           0        6.284484   -2.110967   -5.165109
    152          7           0        5.650722   -0.187421   -1.417400
    153          6           0        5.351154    0.850753   -0.451298
    154          6           0        6.286446    0.733516    0.745984
    155          8           0        6.858595    1.742832    1.145893
    156          6           0        3.936282    0.696080    0.084904
    157          6           0        2.825573    1.064785   -0.901444
    158          6           0        1.410739    0.619525   -0.561606
    159          8           0        0.532004    1.503600   -0.460443
    160          8           0        1.058257   -0.577453   -0.537098
    161          1           0        5.162654   -1.061712   -1.472202
    162          1           0        5.558465    1.817565   -0.919483
    163          1           0        3.834273    1.425364    0.883803
    164          1           0        3.722642   -0.329569    0.387565
    165          1           0        3.164290    0.627833   -1.841095
    166          1           0        2.898755    2.150555   -0.948846
    167          7           0        6.407120   -0.450690    1.352609
    168          6           0        7.158618   -0.766970    2.548526
    169          1           0        8.224682   -0.730820    2.327390
    170          1           0        6.924933   -0.041264    3.327995
    171          1           0        6.892770   -1.767194    2.891571
    172          1           0        5.981811   -1.241573    0.904483
    173         20           0       -1.383098    0.032390   -1.106992
    174          8           0        0.101026    0.093163   -3.429724
    175          1           0       -0.121114    1.007443   -3.614514
    176          1           0        0.745272   -0.128899   -4.095558
 ---------------------------------------------------------------------
 Rotational constants (GHZ):      0.0239507      0.0156540      0.0124618
 Standard basis: SVP (5D, 7F)
 There are  1809 symmetry adapted cartesian basis functions of A   symmetry.
 There are  1717 symmetry adapted basis functions of A   symmetry.
  1717 basis functions,  2922 primitive gaussians,  1809 cartesian basis functions
   358 alpha electrons      358 beta electrons
       nuclear repulsion energy     21923.0548912949 Hartrees.
 NAtoms=  176 NActive=  176 NUniq=  176 SFac= 1.00D+00 NAtFMM=   60 NAOKFM=T Big=T
 Integral buffers will be    131072 words long.
 Raffenetti 2 integral format.
 Two-electron integral symmetry is turned on.
 One-electron integrals computed using PRISM.
 NBasis=  1717 RedAO= T EigKep=  2.70D-04  NBF=  1717
 NBsUse=  1717 1.00D-06 EigRej= -1.00D+00 NBFU=  1717
 ExpMin= 1.98D-02 ExpMax= 3.51D+04 ExpMxC= 5.28D+03 IAcc=3 IRadAn=         5 AccDes= 0.00D+00
 Harris functional with IExCor=  402 and IRadAn=       5 diagonalized for initial guess.
 HarFok:  IExCor=  402 AccDes= 0.00D+00 IRadAn=         5 IDoV= 1 UseB2=F ITyADJ=14
 ICtDFT=  3500011 ScaDFX=  1.000000  1.000000  1.000000  1.000000
 FoFCou: FMM=F IPFlag=           0 FMFlag=      100000 FMFlg1=        2001
         NFxFlg=           0 DoJE=T BraDBF=F KetDBF=T FulRan=T
         wScrn=  0.000000 ICntrl=     500 IOpCl=  0 I1Cent=   200000004 NGrid=           0
         NMat0=    1 NMatS0=      1 NMatT0=    0 NMatD0=    1 NMtDS0=    0 NMtDT0=    0
 Petite list used in FoFCou.
 Requested convergence on RMS density matrix=1.00D-08 within 128 cycles.
 Requested convergence on MAX density matrix=1.00D-06.
 Requested convergence on             energy=1.00D-06.
 No special actions if energy rises.
 EnCoef did     4 forward-backward iterations
 SCF Done:  E(RB3LYP) =  -5333.60511706     A.U. after   18 cycles
            NFock= 18  Conv=0.59D-08     -V/T= 2.0081

 **********************************************************************

            Population analysis using the SCF density.

 **********************************************************************

 Orbital symmetries:
 BldTbl:  Degeneracy threshold= 1.00D-02
       Occupied  (A) (A) (A) (A) (A) (A) (A) (A) (A) (A) (A) (A)
                 (A) (A) (A) (A) (A) (A) (A) (A) (A) (A) (A) (A)
                 (A) (A) (A) (A) (A) (A) (A) (A) (A) (A) (A) (A)
                 (A) (A) (A) (A) (A) (A) (A) (A) (A) (A) (A) (A)
                 (A) (A) (A) (A) (A) (A) (A) (A) (A) (A) (A) (A)
                 (A) (A) (A) (A) (A) (A) (A) (A) (A) (A) (A) (A)
                 (A) (A) (A) (A) (A) (A) (A) (A) (A) (A) (A) (A)
                 (A) (A) (A) (A) (A) (A) (A) (A) (A) (A) (A) (A)
                 (A) (A) (A) (A) (A) (A) (A) (A) (A) (A) (A) (A)
                 (A) (A) (A) (A) (A) (A) (A) (A) (A) (A) (A) (A)
                 (A) (A) (A) (A) (A) (A) (A) (A) (A) (A) (A) (A)
                 (A) (A) (A) (A) (A) (A) (A) (A) (A) (A) (A) (A)
                 (A) (A) (A) (A) (A) (A) (A) (A) (A) (A) (A) (A)
                 (A) (A) (A) (A) (A) (A) (A) (A) (A) (A) (A) (A)
                 (A) (A) (A) (A) (A) (A) (A) (A) (A) (A) (A) (A)
                 (A) (A) (A) (A) (A) (A) (A) (A) (A) (A) (A) (A)
                 (A) (A) (A) (A) (A) (A) (A) (A) (A) (A) (A) (A)
                 (A) (A) (A) (A) (A) (A) (A) (A) (A) (A) (A) (A)
                 (A) (A) (A) (A) (A) (A) (A) (A) (A) (A) (A) (A)
                 (A) (A) (A) (A) (A) (A) (A) (A) (A) (A) (A) (A)
                 (A) (A) (A) (A) (A) (A) (A) (A) (A) (A) (A) (A)
                 (A) (A) (A) (A) (A) (A) (A) (A) (A) (A) (A) (A)
                 (A) (A) (A) (A) (A) (A) (A) (A) (A) (A) (A) (A)
                 (A) (A) (A) (A) (A) (A) (A) (A) (A) (A) (A) (A)
                 (A) (A) (A) (A) (A) (A) (A) (A) (A) (A) (A) (A)
                 (A) (A) (A) (A) (A) (A) (A) (A) (A) (A) (A) (A)
                 (A) (A) (A) (A) (A) (A) (A) (A) (A) (A) (A) (A)
                 (A) (A) (A) (A) (A) (A) (A) (A) (A) (A) (A) (A)
                 (A) (A) (A) (A) (A) (A) (A) (A) (A) (A) (A) (A)
                 (A) (A) (A) (A) (A) (A) (A) (A) (A) (A)
       Virtual   (A) (A) (A) (A) (A) (A) (A) (A) (A) (A) (A) (A)
                 (A) (A) (A) (A) (A) (A) (A) (A) (A) (A) (A) (A)
                 (A) (A) (A) (A) (A) (A) (A) (A) (A) (A) (A) (A)
                 (A) (A) (A) (A) (A) (A) (A) (A) (A) (A) (A) (A)
                 (A) (A) (A) (A) (A) (A) (A) (A) (A) (A) (A) (A)
                 (A) (A) (A) (A) (A) (A) (A) (A) (A) (A) (A) (A)
                 (A) (A) (A) (A) (A) (A) (A) (A) (A) (A) (A) (A)
                 (A) (A) (A) (A) (A) (A) (A) (A) (A) (A) (A) (A)
                 (A) (A) (A) (A) (A) (A) (A) (A) (A) (A) (A) (A)
                 (A) (A) (A) (A) (A) (A) (A) (A) (A) (A) (A) (A)
                 (A) (A) (A) (A) (A) (A) (A) (A) (A) (A) (A) (A)
                 (A) (A) (A) (A) (A) (A) (A) (A) (A) (A) (A) (A)
                 (A) (A) (A) (A) (A) (A) (A) (A) (A) (A) (A) (A)
                 (A) (A) (A) (A) (A) (A) (A) (A) (A) (A) (A) (A)
                 (A) (A) (A) (A) (A) (A) (A) (A) (A) (A) (A) (A)
                 (A) (A) (A) (A) (A) (A) (A) (A) (A) (A) (A) (A)
                 (A) (A) (A) (A) (A) (A) (A) (A) (A) (A) (A) (A)
                 (A) (A) (A) (A) (A) (A) (A) (A) (A) (A) (A) (A)
                 (A) (A) (A) (A) (A) (A) (A) (A) (A) (A) (A) (A)
                 (A) (A) (A) (A) (A) (A) (A) (A) (A) (A) (A) (A)
                 (A) (A) (A) (A) (A) (A) (A) (A) (A) (A) (A) (A)
                 (A) (A) (A) (A) (A) (A) (A) (A) (A) (A) (A) (A)
                 (A) (A) (A) (A) (A) (A) (A) (A) (A) (A) (A) (A)
                 (A) (A) (A) (A) (A) (A) (A) (A) (A) (A) (A) (A)
                 (A) (A) (A) (A) (A) (A) (A) (A) (A) (A) (A) (A)
                 (A) (A) (A) (A) (A) (A) (A) (A) (A) (A) (A) (A)
                 (A) (A) (A) (A) (A) (A) (A) (A) (A) (A) (A) (A)
                 (A) (A) (A) (A) (A) (A) (A) (A) (A) (A) (A) (A)
                 (A) (A) (A) (A) (A) (A) (A) (A) (A) (A) (A) (A)
                 (A) (A) (A) (A) (A) (A) (A) (A) (A) (A) (A) (A)
                 (A) (A) (A) (A) (A) (A) (A) (A) (A) (A) (A) (A)
                 (A) (A) (A) (A) (A) (A) (A) (A) (A) (A) (A) (A)
                 (A) (A) (A) (A) (A) (A) (A) (A) (A) (A) (A) (A)
                 (A) (A) (A) (A) (A) (A) (A) (A) (A) (A) (A) (A)
                 (A) (A) (A) (A) (A) (A) (A) (A) (A) (A) (A) (A)
                 (A) (A) (A) (A) (A) (A) (A) (A) (A) (A) (A) (A)
                 (A) (A) (A) (A) (A) (A) (A) (A) (A) (A) (A) (A)
                 (A) (A) (A) (A) (A) (A) (A) (A) (A) (A) (A) (A)
                 (A) (A) (A) (A) (A) (A) (A) (A) (A) (A) (A) (A)
                 (A) (A) (A) (A) (A) (A) (A) (A) (A) (A) (A) (A)
                 (A) (A) (A) (A) (A) (A) (A) (A) (A) (A) (A) (A)
                 (A) (A) (A) (A) (A) (A) (A) (A) (A) (A) (A) (A)
                 (A) (A) (A) (A) (A) (A) (A) (A) (A) (A) (A) (A)
                 (A) (A) (A) (A) (A) (A) (A) (A) (A) (A) (A) (A)
                 (A) (A) (A) (A) (A) (A) (A) (A) (A) (A) (A) (A)
                 (A) (A) (A) (A) (A) (A) (A) (A) (A) (A) (A) (A)
                 (A) (A) (A) (A) (A) (A) (A) (A) (A) (A) (A) (A)
                 (A) (A) (A) (A) (A) (A) (A) (A) (A) (A) (A) (A)
                 (A) (A) (A) (A) (A) (A) (A) (A) (A) (A) (A) (A)
                 (A) (A) (A) (A) (A) (A) (A) (A) (A) (A) (A) (A)
                 (A) (A) (A) (A) (A) (A) (A) (A) (A) (A) (A) (A)
                 (A) (A) (A) (A) (A) (A) (A) (A) (A) (A) (A) (A)
                 (A) (A) (A) (A) (A) (A) (A) (A) (A) (A) (A) (A)
                 (A) (A) (A) (A) (A) (A) (A) (A) (A) (A) (A) (A)
                 (A) (A) (A) (A) (A) (A) (A) (A) (A) (A) (A) (A)
                 (A) (A) (A) (A) (A) (A) (A) (A) (A) (A) (A) (A)
                 (A) (A) (A) (A) (A) (A) (A) (A) (A) (A) (A) (A)
                 (A) (A) (A) (A) (A) (A) (A) (A) (A) (A) (A) (A)
                 (A) (A) (A) (A) (A) (A) (A) (A) (A) (A) (A) (A)
                 (A) (A) (A) (A) (A) (A) (A) (A) (A) (A) (A) (A)
                 (A) (A) (A) (A) (A) (A) (A) (A) (A) (A) (A) (A)
                 (A) (A) (A) (A) (A) (A) (A) (A) (A) (A) (A) (A)
                 (A) (A) (A) (A) (A) (A) (A) (A) (A) (A) (A) (A)
                 (A) (A) (A) (A) (A) (A) (A) (A) (A) (A) (A) (A)
                 (A) (A) (A) (A) (A) (A) (A) (A) (A) (A) (A) (A)
                 (A) (A) (A) (A) (A) (A) (A) (A) (A) (A) (A) (A)
                 (A) (A) (A) (A) (A) (A) (A) (A) (A) (A) (A) (A)
                 (A) (A) (A) (A) (A) (A) (A) (A) (A) (A) (A) (A)
                 (A) (A) (A) (A) (A) (A) (A) (A) (A) (A) (A) (A)
                 (A) (A) (A) (A) (A) (A) (A) (A) (A) (A) (A) (A)
                 (A) (A) (A) (A) (A) (A) (A) (A) (A) (A) (A) (A)
                 (A) (A) (A) (A) (A) (A) (A) (A) (A) (A) (A) (A)
                 (A) (A) (A) (A) (A) (A) (A) (A) (A) (A) (A) (A)
                 (A) (A) (A) (A) (A) (A) (A) (A) (A) (A) (A) (A)
                 (A) (A) (A) (A) (A) (A) (A) (A) (A) (A) (A) (A)
                 (A) (A) (A) (A) (A) (A) (A) (A) (A) (A) (A) (A)
                 (A) (A) (A) (A) (A) (A) (A) (A) (A) (A) (A) (A)
                 (A) (A) (A) (A) (A) (A) (A) (A) (A) (A) (A) (A)
                 (A) (A) (A) (A) (A) (A) (A) (A) (A) (A) (A) (A)
                 (A) (A) (A) (A) (A) (A) (A) (A) (A) (A) (A) (A)
                 (A) (A) (A) (A) (A) (A) (A) (A) (A) (A) (A) (A)
                 (A) (A) (A) (A) (A) (A) (A) (A) (A) (A) (A) (A)
                 (A) (A) (A) (A) (A) (A) (A) (A) (A) (A) (A) (A)
                 (A) (A) (A) (A) (A) (A) (A) (A) (A) (A) (A) (A)
                 (A) (A) (A) (A) (A) (A) (A) (A) (A) (A) (A) (A)
                 (A) (A) (A) (A) (A) (A) (A) (A) (A) (A) (A) (A)
                 (A) (A) (A) (A) (A) (A) (A) (A) (A) (A) (A) (A)
                 (A) (A) (A) (A) (A) (A) (A) (A) (A) (A) (A) (A)
                 (A) (A) (A) (A) (A) (A) (A) (A) (A) (A) (A) (A)
                 (A) (A) (A) (A) (A) (A) (A) (A) (A) (A) (A) (A)
                 (A) (A) (A) (A) (A) (A) (A) (A) (A) (A) (A) (A)
                 (A) (A) (A) (A) (A) (A) (A) (A) (A) (A) (A) (A)
                 (A) (A) (A) (A) (A) (A) (A) (A) (A) (A) (A) (A)
                 (A) (A) (A) (A) (A) (A) (A) (A) (A) (A) (A) (A)
                 (A) (A) (A) (A) (A) (A) (A) (A) (A) (A) (A) (A)
                 (A) (A) (A) (A) (A) (A) (A) (A) (A) (A) (A) (A)
                 (A) (A) (A) (A) (A) (A) (A) (A) (A) (A) (A) (A)
                 (A) (A) (A) (A) (A) (A) (A) (A) (A) (A) (A) (A)
                 (A) (A) (A) (A) (A) (A) (A) (A) (A) (A) (A) (A)
                 (A) (A) (A) (A) (A) (A) (A) (A) (A) (A) (A) (A)
                 (A) (A) (A) (A) (A) (A) (A) (A) (A) (A) (A) (A)
                 (A) (A) (A) (A) (A) (A) (A) (A) (A) (A) (A) (A)
                 (A) (A) (A) (A) (A) (A) (A) (A) (A) (A) (A) (A)
                 (A) (A) (A) (A) (A) (A) (A) (A) (A) (A) (A) (A)
                 (A) (A) (A) (A) (A) (A) (A) (A) (A) (A) (A) (A)
                 (A) (A) (A) (A) (A) (A) (A) (A) (A) (A) (A) (A)
                 (A) (A) (A) (A) (A) (A) (A) (A) (A) (A) (A) (A)
                 (A) (A) (A) (A) (A) (A) (A) (A) (A) (A) (A) (A)
                 (A) (A) (A) (A) (A) (A) (A) (A) (A) (A) (A) (A)
                 (A) (A) (A) (A) (A) (A) (A) (A) (A) (A) (A) (A)
                 (A) (A) (A) (A) (A) (A) (A) (A) (A) (A) (A) (A)
                 (A) (A) (A) (A) (A) (A) (A) (A) (A) (A) (A) (A)
                 (A) (A) (A) (A) (A) (A) (A) (A) (A) (A) (A) (A)
                 (A) (A) (A)
 The electronic state is 1-A.
 Alpha  occ. eigenvalues -- -145.37538 -19.14903 -19.14678 -19.14129 -19.13183
 Alpha  occ. eigenvalues --  -19.12638 -19.12039 -19.11134 -19.10896 -19.10667
 Alpha  occ. eigenvalues --  -19.10405 -19.10315 -19.08906 -19.08755 -19.08701
 Alpha  occ. eigenvalues --  -19.06618 -19.06097 -19.05078 -19.04478 -19.04296
 Alpha  occ. eigenvalues --  -19.03970 -19.03602 -19.03564 -19.01483 -15.43274
 Alpha  occ. eigenvalues --  -14.57461 -14.40778 -14.38254 -14.37888 -14.37399
 Alpha  occ. eigenvalues --  -14.36796 -14.36505 -14.36485 -14.34970 -14.33785
 Alpha  occ. eigenvalues --  -14.33262 -14.32540 -14.29957 -14.29844 -14.29513
 Alpha  occ. eigenvalues --  -12.56888 -12.56857 -12.56833 -10.33563 -10.32832
 Alpha  occ. eigenvalues --  -10.31285 -10.30936 -10.30811 -10.29644 -10.29170
 Alpha  occ. eigenvalues --  -10.29039 -10.28724 -10.27310 -10.27279 -10.27190
 Alpha  occ. eigenvalues --  -10.26694 -10.26616 -10.25990 -10.25809 -10.25336
 Alpha  occ. eigenvalues --  -10.24892 -10.24164 -10.24134 -10.23906 -10.23889
 Alpha  occ. eigenvalues --  -10.23715 -10.23386 -10.23361 -10.23326 -10.23305
 Alpha  occ. eigenvalues --  -10.23058 -10.23024 -10.22841 -10.22473 -10.22049
 Alpha  occ. eigenvalues --  -10.21976 -10.21601 -10.20553 -10.19937 -10.19903
 Alpha  occ. eigenvalues --  -10.19850 -10.19810 -10.19806 -10.19318 -10.19298
 Alpha  occ. eigenvalues --  -10.18842 -10.18106 -10.17915 -10.17892 -10.17693
 Alpha  occ. eigenvalues --  -10.17597 -10.17588 -10.17505 -10.17393 -10.16886
 Alpha  occ. eigenvalues --  -10.16587 -10.15748  -1.80152  -1.12853  -1.08206
 Alpha  occ. eigenvalues --   -1.07753  -1.07593  -1.07513  -1.05679  -1.05633
 Alpha  occ. eigenvalues --   -1.05483  -1.04497  -1.03879  -1.03421  -1.03378
 Alpha  occ. eigenvalues --   -1.03376  -1.02422  -1.02270  -1.01602  -1.00217
 Alpha  occ. eigenvalues --   -0.99694  -0.99352  -0.98257  -0.98067  -0.97657
 Alpha  occ. eigenvalues --   -0.97484  -0.97314  -0.96928  -0.95127  -0.94140
 Alpha  occ. eigenvalues --   -0.94015  -0.93732  -0.93416  -0.93368  -0.92944
 Alpha  occ. eigenvalues --   -0.92330  -0.90576  -0.90351  -0.89000  -0.88601
 Alpha  occ. eigenvalues --   -0.87950  -0.87478  -0.86920  -0.86153  -0.85513
 Alpha  occ. eigenvalues --   -0.83656  -0.83274  -0.82445  -0.81888  -0.80986
 Alpha  occ. eigenvalues --   -0.79238  -0.78691  -0.78361  -0.78202  -0.76829
 Alpha  occ. eigenvalues --   -0.76634  -0.74882  -0.74356  -0.73952  -0.72993
 Alpha  occ. eigenvalues --   -0.72802  -0.72623  -0.72044  -0.71803  -0.70451
 Alpha  occ. eigenvalues --   -0.70250  -0.69620  -0.69414  -0.68391  -0.68236
 Alpha  occ. eigenvalues --   -0.67968  -0.67138  -0.65535  -0.65343  -0.65200
 Alpha  occ. eigenvalues --   -0.64520  -0.63317  -0.63037  -0.62940  -0.62531
 Alpha  occ. eigenvalues --   -0.62131  -0.61688  -0.61050  -0.60553  -0.60321
 Alpha  occ. eigenvalues --   -0.60265  -0.59973  -0.59929  -0.59151  -0.58225
 Alpha  occ. eigenvalues --   -0.58112  -0.57998  -0.57527  -0.57501  -0.56714
 Alpha  occ. eigenvalues --   -0.56519  -0.56041  -0.55248  -0.55169  -0.54899
 Alpha  occ. eigenvalues --   -0.54640  -0.54085  -0.53527  -0.53416  -0.53368
 Alpha  occ. eigenvalues --   -0.53081  -0.52820  -0.52589  -0.52413  -0.51576
 Alpha  occ. eigenvalues --   -0.51395  -0.51163  -0.50889  -0.50752  -0.50237
 Alpha  occ. eigenvalues --   -0.50109  -0.50001  -0.49858  -0.49508  -0.49172
 Alpha  occ. eigenvalues --   -0.48996  -0.48848  -0.48800  -0.48582  -0.48470
 Alpha  occ. eigenvalues --   -0.48134  -0.47779  -0.47581  -0.47213  -0.46994
 Alpha  occ. eigenvalues --   -0.46887  -0.46474  -0.46338  -0.46263  -0.46136
 Alpha  occ. eigenvalues --   -0.45906  -0.45805  -0.45767  -0.45574  -0.45491
 Alpha  occ. eigenvalues --   -0.45455  -0.45143  -0.45033  -0.44900  -0.44782
 Alpha  occ. eigenvalues --   -0.44450  -0.44099  -0.43935  -0.43741  -0.43581
 Alpha  occ. eigenvalues --   -0.43514  -0.43369  -0.42887  -0.42661  -0.42461
 Alpha  occ. eigenvalues --   -0.42423  -0.42362  -0.42144  -0.42049  -0.41927
 Alpha  occ. eigenvalues --   -0.41824  -0.41582  -0.41530  -0.41313  -0.41295
 Alpha  occ. eigenvalues --   -0.41218  -0.41004  -0.40960  -0.40715  -0.40602
 Alpha  occ. eigenvalues --   -0.40569  -0.40434  -0.40263  -0.40154  -0.39956
 Alpha  occ. eigenvalues --   -0.39907  -0.39562  -0.39514  -0.39382  -0.39331
 Alpha  occ. eigenvalues --   -0.39213  -0.39011  -0.38926  -0.38883  -0.38681
 Alpha  occ. eigenvalues --   -0.38485  -0.38357  -0.38279  -0.38139  -0.37894
 Alpha  occ. eigenvalues --   -0.37787  -0.37461  -0.37333  -0.37212  -0.37102
 Alpha  occ. eigenvalues --   -0.36927  -0.36684  -0.36413  -0.36080  -0.36050
 Alpha  occ. eigenvalues --   -0.35978  -0.35807  -0.35662  -0.35249  -0.35171
 Alpha  occ. eigenvalues --   -0.34866  -0.34828  -0.34663  -0.34367  -0.34055
 Alpha  occ. eigenvalues --   -0.33757  -0.33675  -0.33536  -0.32990  -0.32948
 Alpha  occ. eigenvalues --   -0.32835  -0.32510  -0.32384  -0.32125  -0.32028
 Alpha  occ. eigenvalues --   -0.31772  -0.31439  -0.31164  -0.30747  -0.30515
 Alpha  occ. eigenvalues --   -0.29753  -0.29487  -0.29366  -0.28941  -0.28863
 Alpha  occ. eigenvalues --   -0.28833  -0.28643  -0.28567  -0.28088  -0.27586
 Alpha  occ. eigenvalues --   -0.27500  -0.26742  -0.26323  -0.26200  -0.26068
 Alpha  occ. eigenvalues --   -0.25591  -0.24993  -0.24626  -0.24623  -0.24595
 Alpha  occ. eigenvalues --   -0.23928  -0.23855  -0.23814  -0.23454  -0.22955
 Alpha  occ. eigenvalues --   -0.22830  -0.22535  -0.22172  -0.22155  -0.21413
 Alpha  occ. eigenvalues --   -0.20920  -0.20391  -0.20099  -0.19730  -0.19507
 Alpha  occ. eigenvalues --   -0.19382  -0.18671  -0.17305
 Alpha virt. eigenvalues --   -0.09458  -0.04239  -0.03712  -0.03382  -0.02225
 Alpha virt. eigenvalues --   -0.01325  -0.01286  -0.00781  -0.00655  -0.00178
 Alpha virt. eigenvalues --    0.00000   0.00154   0.00219   0.01229   0.01488
 Alpha virt. eigenvalues --    0.01791   0.02175   0.02924   0.02970   0.03236
 Alpha virt. eigenvalues --    0.03686   0.03749   0.03943   0.04095   0.04356
 Alpha virt. eigenvalues --    0.04566   0.05152   0.05557   0.05584   0.05911
 Alpha virt. eigenvalues --    0.05981   0.06219   0.06413   0.06515   0.06647
 Alpha virt. eigenvalues --    0.06812   0.07006   0.07353   0.07542   0.07682
 Alpha virt. eigenvalues --    0.07904   0.08061   0.08085   0.08309   0.08324
 Alpha virt. eigenvalues --    0.08518   0.08965   0.09175   0.09326   0.09457
 Alpha virt. eigenvalues --    0.09776   0.10035   0.10342   0.10586   0.10797
 Alpha virt. eigenvalues --    0.10887   0.11019   0.11138   0.11360   0.11435
 Alpha virt. eigenvalues --    0.11701   0.11914   0.11951   0.12073   0.12329
 Alpha virt. eigenvalues --    0.12416   0.12665   0.12716   0.12778   0.13021
 Alpha virt. eigenvalues --    0.13220   0.13358   0.13582   0.13646   0.13837
 Alpha virt. eigenvalues --    0.14246   0.14347   0.14606   0.14637   0.14789
 Alpha virt. eigenvalues --    0.14982   0.15188   0.15236   0.15498   0.15600
 Alpha virt. eigenvalues --    0.15824   0.15910   0.16164   0.16413   0.16479
 Alpha virt. eigenvalues --    0.16633   0.16858   0.17084   0.17260   0.17414
 Alpha virt. eigenvalues --    0.17528   0.17732   0.18014   0.18142   0.18322
 Alpha virt. eigenvalues --    0.18494   0.18503   0.18761   0.18878   0.19128
 Alpha virt. eigenvalues --    0.19240   0.19286   0.19384   0.19711   0.19916
 Alpha virt. eigenvalues --    0.20226   0.20354   0.20433   0.20662   0.20943
 Alpha virt. eigenvalues --    0.21217   0.21470   0.21622   0.21828   0.22049
 Alpha virt. eigenvalues --    0.22207   0.22384   0.22775   0.22935   0.23115
 Alpha virt. eigenvalues --    0.23340   0.23537   0.23644   0.24027   0.24273
 Alpha virt. eigenvalues --    0.24446   0.24609   0.24835   0.25268   0.25401
 Alpha virt. eigenvalues --    0.25651   0.25746   0.25855   0.26333   0.26367
 Alpha virt. eigenvalues --    0.26461   0.26601   0.26698   0.26889   0.27239
 Alpha virt. eigenvalues --    0.27363   0.27680   0.28099   0.28365   0.28791
 Alpha virt. eigenvalues --    0.28995   0.29451   0.29573   0.30063   0.30288
 Alpha virt. eigenvalues --    0.30350   0.30650   0.30774   0.31033   0.31420
 Alpha virt. eigenvalues --    0.31602   0.31674   0.31833   0.32188   0.32303
 Alpha virt. eigenvalues --    0.32342   0.32660   0.33042   0.33193   0.33341
 Alpha virt. eigenvalues --    0.33560   0.34272   0.34528   0.34736   0.34910
 Alpha virt. eigenvalues --    0.35143   0.35321   0.35851   0.36103   0.36249
 Alpha virt. eigenvalues --    0.36661   0.36806   0.37195   0.37718   0.37837
 Alpha virt. eigenvalues --    0.38026   0.38080   0.38299   0.38502   0.38666
 Alpha virt. eigenvalues --    0.39239   0.39498   0.39614   0.39914   0.40124
 Alpha virt. eigenvalues --    0.40372   0.40541   0.40894   0.40981   0.41471
 Alpha virt. eigenvalues --    0.41685   0.41739   0.42141   0.42407   0.42731
 Alpha virt. eigenvalues --    0.42896   0.43393   0.43438   0.43682   0.43787
 Alpha virt. eigenvalues --    0.43872   0.44256   0.44409   0.44683   0.44982
 Alpha virt. eigenvalues --    0.45145   0.45413   0.45507   0.45699   0.45827
 Alpha virt. eigenvalues --    0.46014   0.46145   0.46340   0.46677   0.46888
 Alpha virt. eigenvalues --    0.46969   0.47146   0.47358   0.47582   0.47685
 Alpha virt. eigenvalues --    0.47868   0.48142   0.48383   0.48501   0.48717
 Alpha virt. eigenvalues --    0.48909   0.49157   0.49323   0.49531   0.49789
 Alpha virt. eigenvalues --    0.49942   0.50011   0.50153   0.50330   0.50672
 Alpha virt. eigenvalues --    0.50840   0.51088   0.51587   0.51681   0.51824
 Alpha virt. eigenvalues --    0.52204   0.52381   0.52512   0.52645   0.52811
 Alpha virt. eigenvalues --    0.52927   0.53129   0.53462   0.53637   0.53835
 Alpha virt. eigenvalues --    0.53960   0.54278   0.54556   0.54588   0.54737
 Alpha virt. eigenvalues --    0.54869   0.55069   0.55111   0.55515   0.55876
 Alpha virt. eigenvalues --    0.55997   0.56243   0.56261   0.56515   0.56605
 Alpha virt. eigenvalues --    0.56926   0.56987   0.57060   0.57667   0.57790
 Alpha virt. eigenvalues --    0.57854   0.57985   0.58217   0.58253   0.58426
 Alpha virt. eigenvalues --    0.58540   0.58661   0.58883   0.59029   0.59221
 Alpha virt. eigenvalues --    0.59239   0.59633   0.59674   0.59768   0.60180
 Alpha virt. eigenvalues --    0.60282   0.60386   0.60469   0.60594   0.61037
 Alpha virt. eigenvalues --    0.61056   0.61096   0.61409   0.61478   0.61601
 Alpha virt. eigenvalues --    0.61659   0.61874   0.61888   0.61997   0.62062
 Alpha virt. eigenvalues --    0.62168   0.62508   0.62539   0.62613   0.62733
 Alpha virt. eigenvalues --    0.62902   0.63090   0.63194   0.63391   0.63480
 Alpha virt. eigenvalues --    0.63534   0.63675   0.63856   0.63882   0.64045
 Alpha virt. eigenvalues --    0.64096   0.64229   0.64359   0.64381   0.64672
 Alpha virt. eigenvalues --    0.64824   0.64940   0.64976   0.65154   0.65175
 Alpha virt. eigenvalues --    0.65305   0.65424   0.65479   0.65677   0.65789
 Alpha virt. eigenvalues --    0.65951   0.66010   0.66188   0.66353   0.66465
 Alpha virt. eigenvalues --    0.66543   0.66735   0.66806   0.66889   0.66983
 Alpha virt. eigenvalues --    0.67093   0.67201   0.67332   0.67401   0.67479
 Alpha virt. eigenvalues --    0.67603   0.67740   0.67841   0.67940   0.68038
 Alpha virt. eigenvalues --    0.68199   0.68291   0.68421   0.68486   0.68566
 Alpha virt. eigenvalues --    0.68676   0.68758   0.68925   0.69088   0.69176
 Alpha virt. eigenvalues --    0.69246   0.69441   0.69554   0.69598   0.69838
 Alpha virt. eigenvalues --    0.69962   0.70016   0.70137   0.70199   0.70243
 Alpha virt. eigenvalues --    0.70439   0.70570   0.70954   0.71021   0.71213
 Alpha virt. eigenvalues --    0.71230   0.71520   0.71625   0.71671   0.71989
 Alpha virt. eigenvalues --    0.72058   0.72124   0.72269   0.72510   0.72738
 Alpha virt. eigenvalues --    0.72924   0.73009   0.73306   0.73432   0.73460
 Alpha virt. eigenvalues --    0.73620   0.73863   0.73944   0.74146   0.74411
 Alpha virt. eigenvalues --    0.74697   0.74734   0.74819   0.75273   0.75423
 Alpha virt. eigenvalues --    0.75683   0.75805   0.75861   0.76194   0.76238
 Alpha virt. eigenvalues --    0.76569   0.76828   0.77058   0.77299   0.77321
 Alpha virt. eigenvalues --    0.77637   0.77815   0.78089   0.78427   0.78507
 Alpha virt. eigenvalues --    0.78919   0.79450   0.79456   0.79679   0.79885
 Alpha virt. eigenvalues --    0.80024   0.80199   0.80571   0.80903   0.81305
 Alpha virt. eigenvalues --    0.81409   0.81528   0.81987   0.82058   0.82392
 Alpha virt. eigenvalues --    0.82560   0.82960   0.83152   0.83302   0.83922
 Alpha virt. eigenvalues --    0.84116   0.84443   0.84638   0.84798   0.84975
 Alpha virt. eigenvalues --    0.85117   0.85365   0.85895   0.85994   0.86310
 Alpha virt. eigenvalues --    0.86510   0.86742   0.87303   0.87478   0.87556
 Alpha virt. eigenvalues --    0.88063   0.88397   0.88901   0.89207   0.89388
 Alpha virt. eigenvalues --    0.89982   0.90175   0.90408   0.90738   0.91089
 Alpha virt. eigenvalues --    0.91234   0.91697   0.91879   0.92310   0.92674
 Alpha virt. eigenvalues --    0.92941   0.93318   0.93766   0.93772   0.94105
 Alpha virt. eigenvalues --    0.94330   0.94661   0.94884   0.95256   0.95418
 Alpha virt. eigenvalues --    0.95536   0.96023   0.96064   0.96479   0.96711
 Alpha virt. eigenvalues --    0.96910   0.97303   0.97447   0.97807   0.98145
 Alpha virt. eigenvalues --    0.98346   0.98573   0.98988   0.99211   0.99470
 Alpha virt. eigenvalues --    0.99770   0.99979   1.00248   1.00745   1.00930
 Alpha virt. eigenvalues --    1.01287   1.01790   1.02006   1.02156   1.02638
 Alpha virt. eigenvalues --    1.02712   1.02787   1.03125   1.03341   1.03985
 Alpha virt. eigenvalues --    1.04229   1.04668   1.04888   1.05102   1.05408
 Alpha virt. eigenvalues --    1.06394   1.06523   1.06538   1.06718   1.07040
 Alpha virt. eigenvalues --    1.07427   1.07697   1.07850   1.08059   1.08290
 Alpha virt. eigenvalues --    1.08664   1.08892   1.08963   1.09266   1.09685
 Alpha virt. eigenvalues --    1.09838   1.09975   1.10303   1.10756   1.11059
 Alpha virt. eigenvalues --    1.11456   1.11628   1.11866   1.11938   1.12306
 Alpha virt. eigenvalues --    1.12617   1.13055   1.13134   1.13733   1.13759
 Alpha virt. eigenvalues --    1.14041   1.14252   1.14434   1.14904   1.15280
 Alpha virt. eigenvalues --    1.15661   1.15888   1.16191   1.16420   1.16744
 Alpha virt. eigenvalues --    1.16937   1.17056   1.17448   1.17570   1.17994
 Alpha virt. eigenvalues --    1.18442   1.18532   1.18930   1.19305   1.19614
 Alpha virt. eigenvalues --    1.19936   1.20159   1.20475   1.20699   1.20940
 Alpha virt. eigenvalues --    1.21206   1.21679   1.21858   1.22206   1.22541
 Alpha virt. eigenvalues --    1.22756   1.23155   1.23201   1.23523   1.23804
 Alpha virt. eigenvalues --    1.24118   1.24396   1.24607   1.24919   1.25326
 Alpha virt. eigenvalues --    1.25401   1.25585   1.25998   1.26128   1.26240
 Alpha virt. eigenvalues --    1.26481   1.26861   1.27105   1.27330   1.27557
 Alpha virt. eigenvalues --    1.27883   1.27983   1.28259   1.28444   1.28837
 Alpha virt. eigenvalues --    1.29028   1.29379   1.29508   1.29846   1.29978
 Alpha virt. eigenvalues --    1.30215   1.30477   1.30929   1.31164   1.31214
 Alpha virt. eigenvalues --    1.31380   1.31887   1.31933   1.32263   1.32826
 Alpha virt. eigenvalues --    1.33025   1.33281   1.33618   1.33910   1.34405
 Alpha virt. eigenvalues --    1.34823   1.34914   1.35074   1.35406   1.35581
 Alpha virt. eigenvalues --    1.35785   1.36022   1.36287   1.36335   1.36715
 Alpha virt. eigenvalues --    1.37343   1.37613   1.37821   1.37940   1.38389
 Alpha virt. eigenvalues --    1.38628   1.38843   1.38852   1.39324   1.39466
 Alpha virt. eigenvalues --    1.39781   1.40094   1.40418   1.40728   1.41033
 Alpha virt. eigenvalues --    1.41548   1.41729   1.41926   1.42196   1.42332
 Alpha virt. eigenvalues --    1.42685   1.42873   1.43077   1.43161   1.43790
 Alpha virt. eigenvalues --    1.44166   1.44405   1.44832   1.44984   1.45247
 Alpha virt. eigenvalues --    1.45488   1.45925   1.46514   1.46776   1.46979
 Alpha virt. eigenvalues --    1.47341   1.47454   1.47650   1.47968   1.48320
 Alpha virt. eigenvalues --    1.48612   1.49059   1.49210   1.49415   1.49738
 Alpha virt. eigenvalues --    1.49981   1.50133   1.50438   1.50659   1.51067
 Alpha virt. eigenvalues --    1.51129   1.51704   1.51805   1.51897   1.52080
 Alpha virt. eigenvalues --    1.52685   1.52856   1.53076   1.53316   1.53452
 Alpha virt. eigenvalues --    1.53766   1.53978   1.54271   1.54795   1.55262
 Alpha virt. eigenvalues --    1.55460   1.55930   1.55997   1.56514   1.56724
 Alpha virt. eigenvalues --    1.57088   1.57267   1.57755   1.58140   1.58539
 Alpha virt. eigenvalues --    1.59181   1.59558   1.59601   1.60451   1.60659
 Alpha virt. eigenvalues --    1.60928   1.61015   1.61280   1.61762   1.61891
 Alpha virt. eigenvalues --    1.62400   1.62579   1.62912   1.63211   1.63416
 Alpha virt. eigenvalues --    1.63491   1.64345   1.64438   1.64740   1.64856
 Alpha virt. eigenvalues --    1.65019   1.65259   1.65709   1.66069   1.66238
 Alpha virt. eigenvalues --    1.66321   1.66629   1.66968   1.67210   1.67382
 Alpha virt. eigenvalues --    1.67829   1.68084   1.68151   1.68638   1.68840
 Alpha virt. eigenvalues --    1.69002   1.69438   1.69585   1.69873   1.70111
 Alpha virt. eigenvalues --    1.70301   1.70474   1.70556   1.70667   1.71210
 Alpha virt. eigenvalues --    1.71829   1.72031   1.72242   1.72493   1.72727
 Alpha virt. eigenvalues --    1.72985   1.73057   1.73443   1.73614   1.73972
 Alpha virt. eigenvalues --    1.74092   1.74342   1.74541   1.74646   1.74880
 Alpha virt. eigenvalues --    1.75000   1.75308   1.75570   1.75697   1.75960
 Alpha virt. eigenvalues --    1.76156   1.76414   1.76627   1.76708   1.76902
 Alpha virt. eigenvalues --    1.77028   1.77234   1.77265   1.77396   1.77447
 Alpha virt. eigenvalues --    1.77684   1.77791   1.77915   1.78274   1.78464
 Alpha virt. eigenvalues --    1.78588   1.78731   1.78918   1.79101   1.79425
 Alpha virt. eigenvalues --    1.79577   1.79656   1.79695   1.79890   1.80065
 Alpha virt. eigenvalues --    1.80213   1.80324   1.80374   1.80510   1.80632
 Alpha virt. eigenvalues --    1.80727   1.80853   1.81023   1.81290   1.81568
 Alpha virt. eigenvalues --    1.81668   1.81780   1.81972   1.82224   1.82592
 Alpha virt. eigenvalues --    1.82683   1.82982   1.83246   1.83399   1.83460
 Alpha virt. eigenvalues --    1.83943   1.83959   1.84157   1.84332   1.84477
 Alpha virt. eigenvalues --    1.84523   1.84664   1.84983   1.85115   1.85310
 Alpha virt. eigenvalues --    1.85525   1.85740   1.85760   1.85959   1.86072
 Alpha virt. eigenvalues --    1.86214   1.86338   1.86891   1.86953   1.87226
 Alpha virt. eigenvalues --    1.87400   1.87597   1.88020   1.88241   1.88293
 Alpha virt. eigenvalues --    1.88543   1.89019   1.89151   1.89247   1.89364
 Alpha virt. eigenvalues --    1.89432   1.89514   1.89729   1.89930   1.89996
 Alpha virt. eigenvalues --    1.90400   1.90576   1.90769   1.91015   1.91331
 Alpha virt. eigenvalues --    1.91562   1.91960   1.92073   1.92127   1.92565
 Alpha virt. eigenvalues --    1.92765   1.92879   1.93378   1.93442   1.93620
 Alpha virt. eigenvalues --    1.93688   1.93885   1.94187   1.94432   1.94544
 Alpha virt. eigenvalues --    1.94946   1.95145   1.95170   1.95517   1.95927
 Alpha virt. eigenvalues --    1.96107   1.96277   1.96525   1.96851   1.96991
 Alpha virt. eigenvalues --    1.97257   1.97443   1.97572   1.97936   1.98314
 Alpha virt. eigenvalues --    1.98485   1.98589   1.98951   1.99081   1.99130
 Alpha virt. eigenvalues --    1.99283   1.99628   1.99940   2.00277   2.00617
 Alpha virt. eigenvalues --    2.00814   2.00851   2.00969   2.01241   2.01480
 Alpha virt. eigenvalues --    2.01646   2.01924   2.02245   2.02283   2.02515
 Alpha virt. eigenvalues --    2.02652   2.02816   2.03233   2.03453   2.03556
 Alpha virt. eigenvalues --    2.03976   2.04395   2.04561   2.04782   2.05180
 Alpha virt. eigenvalues --    2.05399   2.05513   2.06130   2.06403   2.06540
 Alpha virt. eigenvalues --    2.06820   2.06997   2.07356   2.07822   2.08229
 Alpha virt. eigenvalues --    2.08385   2.08534   2.08594   2.09078   2.09279
 Alpha virt. eigenvalues --    2.09412   2.09505   2.10069   2.10163   2.10473
 Alpha virt. eigenvalues --    2.10653   2.10700   2.11392   2.11641   2.11896
 Alpha virt. eigenvalues --    2.11996   2.12509   2.12611   2.13016   2.13161
 Alpha virt. eigenvalues --    2.13229   2.13823   2.14179   2.14341   2.14896
 Alpha virt. eigenvalues --    2.14959   2.15112   2.15386   2.15702   2.15947
 Alpha virt. eigenvalues --    2.16152   2.16405   2.16753   2.17201   2.17503
 Alpha virt. eigenvalues --    2.17996   2.18071   2.18595   2.18763   2.19189
 Alpha virt. eigenvalues --    2.19364   2.19822   2.19934   2.20139   2.20391
 Alpha virt. eigenvalues --    2.20887   2.21359   2.21613   2.21813   2.22040
 Alpha virt. eigenvalues --    2.22393   2.22613   2.23381   2.23918   2.24612
 Alpha virt. eigenvalues --    2.24836   2.25172   2.25372   2.25666   2.25937
 Alpha virt. eigenvalues --    2.26487   2.26850   2.27083   2.27161   2.27343
 Alpha virt. eigenvalues --    2.27600   2.27948   2.28541   2.28840   2.29349
 Alpha virt. eigenvalues --    2.30091   2.30297   2.30661   2.30721   2.30930
 Alpha virt. eigenvalues --    2.31258   2.31418   2.31905   2.32219   2.32469
 Alpha virt. eigenvalues --    2.32876   2.32910   2.33042   2.33288   2.33666
 Alpha virt. eigenvalues --    2.34232   2.34359   2.34596   2.35042   2.35423
 Alpha virt. eigenvalues --    2.35740   2.36033   2.36511   2.37011   2.37180
 Alpha virt. eigenvalues --    2.37503   2.37844   2.38012   2.38367   2.38532
 Alpha virt. eigenvalues --    2.38929   2.39191   2.39712   2.39734   2.40083
 Alpha virt. eigenvalues --    2.40317   2.40564   2.40963   2.41045   2.41295
 Alpha virt. eigenvalues --    2.41527   2.41680   2.42122   2.42512   2.42854
 Alpha virt. eigenvalues --    2.43215   2.43506   2.43713   2.43926   2.44234
 Alpha virt. eigenvalues --    2.44436   2.44780   2.44935   2.45368   2.45481
 Alpha virt. eigenvalues --    2.45839   2.46147   2.46672   2.47036   2.47152
 Alpha virt. eigenvalues --    2.47204   2.47711   2.48258   2.48466   2.48913
 Alpha virt. eigenvalues --    2.49403   2.49587   2.49896   2.50634   2.50745
 Alpha virt. eigenvalues --    2.51108   2.51480   2.51605   2.52458   2.52831
 Alpha virt. eigenvalues --    2.52984   2.53760   2.54015   2.54611   2.54990
 Alpha virt. eigenvalues --    2.55645   2.55739   2.55820   2.56407   2.56806
 Alpha virt. eigenvalues --    2.57108   2.57460   2.57695   2.58531   2.58687
 Alpha virt. eigenvalues --    2.58935   2.59506   2.59782   2.60069   2.60281
 Alpha virt. eigenvalues --    2.60488   2.60559   2.60959   2.61255   2.61629
 Alpha virt. eigenvalues --    2.61783   2.61979   2.62182   2.62214   2.62409
 Alpha virt. eigenvalues --    2.62894   2.62924   2.63416   2.63599   2.64113
 Alpha virt. eigenvalues --    2.64785   2.65119   2.65205   2.65563   2.66320
 Alpha virt. eigenvalues --    2.67353   2.67423   2.67591   2.67764   2.67888
 Alpha virt. eigenvalues --    2.68182   2.68304   2.68814   2.69047   2.69073
 Alpha virt. eigenvalues --    2.69408   2.69710   2.69928   2.70092   2.70438
 Alpha virt. eigenvalues --    2.70544   2.70788   2.71017   2.71395   2.71480
 Alpha virt. eigenvalues --    2.71712   2.72011   2.72189   2.72633   2.72731
 Alpha virt. eigenvalues --    2.73089   2.73253   2.73336   2.73411   2.73798
 Alpha virt. eigenvalues --    2.74458   2.74657   2.75195   2.75273   2.75508
 Alpha virt. eigenvalues --    2.75608   2.75892   2.76199   2.76411   2.76791
 Alpha virt. eigenvalues --    2.77107   2.77382   2.77548   2.78007   2.78412
 Alpha virt. eigenvalues --    2.78623   2.78871   2.78983   2.79359   2.79532
 Alpha virt. eigenvalues --    2.79899   2.80161   2.80717   2.80796   2.81870
 Alpha virt. eigenvalues --    2.81943   2.82362   2.82404   2.82843   2.82913
 Alpha virt. eigenvalues --    2.83046   2.83189   2.83409   2.83667   2.84037
 Alpha virt. eigenvalues --    2.84564   2.85141   2.85214   2.85768   2.85902
 Alpha virt. eigenvalues --    2.86157   2.86313   2.86484   2.87384   2.87423
 Alpha virt. eigenvalues --    2.87524   2.87772   2.88195   2.88527   2.89349
 Alpha virt. eigenvalues --    2.89650   2.89820   2.90124   2.90549   2.90832
 Alpha virt. eigenvalues --    2.91215   2.91311   2.91441   2.91706   2.91732
 Alpha virt. eigenvalues --    2.92098   2.92381   2.93091   2.93171   2.93280
 Alpha virt. eigenvalues --    2.93540   2.93858   2.94410   2.94775   2.95367
 Alpha virt. eigenvalues --    2.95669   2.95734   2.96045   2.96164   2.96835
 Alpha virt. eigenvalues --    2.96971   2.97177   2.97283   2.97448   2.97929
 Alpha virt. eigenvalues --    2.98206   2.98507   2.98539   2.98989   2.99379
 Alpha virt. eigenvalues --    2.99722   3.00032   3.00205   3.00655   3.01176
 Alpha virt. eigenvalues --    3.01427   3.01694   3.02671   3.02996   3.03168
 Alpha virt. eigenvalues --    3.03403   3.03452   3.03726   3.03956   3.04272
 Alpha virt. eigenvalues --    3.04502   3.04930   3.05968   3.06216   3.06574
 Alpha virt. eigenvalues --    3.06817   3.07429   3.07785   3.08253   3.09180
 Alpha virt. eigenvalues --    3.10035   3.11024   3.11159   3.11623   3.12403
 Alpha virt. eigenvalues --    3.12494   3.12915   3.13250   3.14144   3.14229
 Alpha virt. eigenvalues --    3.14629   3.15043   3.15547   3.15690   3.16046
 Alpha virt. eigenvalues --    3.16211   3.16364   3.16836   3.17011   3.17329
 Alpha virt. eigenvalues --    3.17633   3.18375   3.18441   3.18950   3.19284
 Alpha virt. eigenvalues --    3.19524   3.19843   3.19913   3.20159   3.20514
 Alpha virt. eigenvalues --    3.21137   3.21596   3.21788   3.22201   3.23185
 Alpha virt. eigenvalues --    3.23568   3.23657   3.24095   3.24496   3.24838
 Alpha virt. eigenvalues --    3.25580   3.25693   3.26583   3.28363   3.28412
 Alpha virt. eigenvalues --    3.28836   3.29311   3.29681   3.30145   3.30362
 Alpha virt. eigenvalues --    3.30503   3.31054   3.32018   3.32295   3.32814
 Alpha virt. eigenvalues --    3.33463   3.33711   3.35963   3.37937   3.38341
 Alpha virt. eigenvalues --    3.38431   3.43389   3.48461   3.50263   3.50999
 Alpha virt. eigenvalues --    3.51713   3.52020   3.53677   3.55523   3.55929
 Alpha virt. eigenvalues --    3.57349   3.58363   3.58771   3.59304   3.60186
 Alpha virt. eigenvalues --    3.61672   3.61683   3.62860   3.63295   3.64580
 Alpha virt. eigenvalues --    3.65090   3.65269   3.66289   3.67337   3.67802
 Alpha virt. eigenvalues --    3.68487   3.68727   3.69106   3.69351   3.69505
 Alpha virt. eigenvalues --    3.69936   3.70223   3.70921   3.71536   3.71574
 Alpha virt. eigenvalues --    3.71918   3.72748   3.73374   3.74026   3.74823
 Alpha virt. eigenvalues --    3.76694   3.81799   3.82272   3.93001
          Condensed to atoms (all electrons):
 Mulliken charges:
               1
     1  C    0.038683
     2  C    0.033582
     3  O   -0.292298
     4  H    0.029493
     5  H    0.020707
     6  H    0.032529
     7  N   -0.114649
     8  C    0.053810
     9  C    0.072013
    10  O   -0.265037
    11  C    0.107592
    12  C    0.141122
    13  O   -0.375951
    14  O   -0.460874
    15  H    0.119249
    16  H    0.043572
    17  H   -0.002007
    18  H   -0.001998
    19  N   -0.121454
    20  C    0.173907
    21  C    0.040128
    22  O   -0.257643
    23  C   -0.043725
    24  C    0.011476
    25  C   -0.035662
    26  C    0.024376
    27  N    0.067320
    28  H    0.135307
    29  H    0.000653
    30  H   -0.004743
    31  H    0.036598
    32  H    0.035302
    33  H    0.014101
    34  H    0.046976
    35  H    0.011101
    36  H    0.074487
    37  H    0.096740
    38  H    0.184757
    39  H    0.184434
    40  H    0.199482
    41  N   -0.155261
    42  C    0.144806
    43  C    0.068503
    44  O   -0.285619
    45  C    0.111343
    46  C    0.088783
    47  O   -0.443821
    48  O   -0.405536
    49  H    0.139466
    50  H    0.006968
    51  H   -0.018168
    52  H    0.026988
    53  N   -0.175480
    54  C    0.243622
    55  C    0.029645
    56  O   -0.296255
    57  H    0.152153
    58  H    0.026259
    59  H    0.036179
    60  N   -0.174835
    61  C    0.146348
    62  C    0.026262
    63  O   -0.319340
    64  C    0.103822
    65  C    0.082723
    66  N   -0.022496
    67  O   -0.366941
    68  H    0.137538
    69  H    0.027455
    70  H    0.054672
    71  H    0.008340
    72  H    0.140291
    73  H    0.128822
    74  N   -0.165111
    75  C    0.249382
    76  C    0.026899
    77  O   -0.301262
    78  H    0.153058
    79  H    0.036809
    80  H    0.043878
    81  N   -0.160198
    82  C    0.143804
    83  C    0.102008
    84  O   -0.355186
    85  C    0.156442
    86  C   -0.025972
    87  C    0.000709
    88  C    0.025276
    89  C   -0.032845
    90  C   -0.043247
    91  C    0.196305
    92  O   -0.200832
    93  H    0.143777
    94  H    0.016837
    95  H   -0.000279
    96  H   -0.033051
    97  H   -0.031580
    98  H   -0.052570
    99  H   -0.027643
   100  H   -0.043044
   101  H    0.176136
   102  N   -0.110291
   103  C    0.121974
   104  C    0.047266
   105  O   -0.286362
   106  C   -0.099953
   107  C    0.053479
   108  C    0.032660
   109  C    0.023402
   110  H    0.126525
   111  H    0.018109
   112  H   -0.008549
   113  H   -0.013313
   114  H    0.016974
   115  H    0.016854
   116  H    0.031047
   117  H   -0.016459
   118  H    0.004872
   119  H   -0.008296
   120  H    0.015841
   121  N   -0.137543
   122  C    0.064080
   123  C    0.102584
   124  O   -0.283267
   125  C    0.274953
   126  O   -0.343715
   127  H    0.157026
   128  H    0.017814
   129  H    0.005687
   130  H   -0.035020
   131  H    0.181918
   132  N   -0.116094
   133  C    0.073119
   134  C    0.058410
   135  O   -0.241694
   136  C    0.058357
   137  H    0.117167
   138  H    0.025235
   139  H    0.022723
   140  H   -0.007348
   141  H    0.063854
   142  N   -0.157327
   143  C    0.096469
   144  C    0.069105
   145  O   -0.292746
   146  C    0.033526
   147  H    0.098640
   148  H    0.026826
   149  H    0.022493
   150  H    0.038387
   151  H    0.015908
   152  N   -0.140347
   153  C    0.122471
   154  C    0.078901
   155  O   -0.302543
   156  C   -0.015898
   157  C    0.109078
   158  C    0.188760
   159  O   -0.417276
   160  O   -0.455927
   161  H    0.125107
   162  H   -0.031887
   163  H    0.027556
   164  H    0.014414
   165  H   -0.003713
   166  H   -0.055996
   167  N   -0.156929
   168  C    0.144043
   169  H    0.027146
   170  H    0.018982
   171  H    0.017747
   172  H    0.128497
   173  Ca   1.307105
   174  O   -0.331383
   175  H    0.146148
   176  H    0.161443
 Sum of Mulliken charges =   0.00000
 Mulliken charges with hydrogens summed into heavy atoms:
               1
     1  C    0.121412
     2  C    0.033582
     3  O   -0.292298
     7  N    0.004599
     8  C    0.097382
     9  C    0.072013
    10  O   -0.265037
    11  C    0.103588
    12  C    0.141122
    13  O   -0.375951
    14  O   -0.460874
    19  N    0.013852
    20  C    0.174560
    21  C    0.040128
    22  O   -0.257643
    23  C   -0.011870
    24  C    0.060879
    25  C    0.022415
    26  C    0.195603
    27  N    0.635993
    41  N   -0.015796
    42  C    0.151774
    43  C    0.068503
    44  O   -0.285619
    45  C    0.120163
    46  C    0.088783
    47  O   -0.443821
    48  O   -0.405536
    53  N   -0.023327
    54  C    0.306059
    55  C    0.029645
    56  O   -0.296255
    60  N   -0.037297
    61  C    0.173804
    62  C    0.026262
    63  O   -0.319340
    64  C    0.166833
    65  C    0.082723
    66  N    0.246616
    67  O   -0.366941
    74  N   -0.012053
    75  C    0.330069
    76  C    0.026899
    77  O   -0.301262
    81  N   -0.016421
    82  C    0.160642
    83  C    0.102008
    84  O   -0.355186
    85  C    0.123112
    86  C   -0.025972
    87  C   -0.030871
    88  C   -0.027294
    89  C   -0.060488
    90  C   -0.086291
    91  C    0.196305
    92  O   -0.024696
   102  N    0.016234
   103  C    0.140082
   104  C    0.047266
   105  O   -0.286362
   106  C   -0.108502
   107  C    0.057140
   108  C    0.064101
   109  C    0.035819
   121  N    0.019483
   122  C    0.081894
   123  C    0.102584
   124  O   -0.283267
   125  C    0.245620
   126  O   -0.161796
   132  N    0.001073
   133  C    0.098353
   134  C    0.058410
   135  O   -0.241694
   136  C    0.137586
   142  N   -0.058687
   143  C    0.123295
   144  C    0.069105
   145  O   -0.292746
   146  C    0.110315
   152  N   -0.015240
   153  C    0.090584
   154  C    0.078901
   155  O   -0.302543
   156  C    0.026072
   157  C    0.049369
   158  C    0.188760
   159  O   -0.417276
   160  O   -0.455927
   167  N   -0.028432
   168  C    0.207918
   173  Ca   1.307105
   174  O   -0.023792
 DipInt: DoE/N= T F RetVal/Mat= T F Init=T NMatP=  1 IDeriv=0 Min/MaxMlt=  0  4
 Entering OneElI...
 OneElI was handed  4286741430 working-precision words.
 Multipole integrals L=0 to 4 MinM= 0 MaxM= 0.
 Requested accuracy = 0.1000D-12
 ShPair: Thresh= 1.00D-13 NBox=     0 BxSize= 0.00D+00 RnKept= 2.55D+01
         NSMCal=               327645 NSMKep=              165025
 PrsmSu:  NPrtUS=   1 ThrOK=F IAlg=1 NPAlg=1 LenDen=           0.
 Prism:   IPart=     0 DynPar=F LinDyn=F Incr=         512.
 PRISM was handed  4276503142 working-precision words and165025 shell-pairs
 IPart=  0 NShTot=      165025 NBatch=         462 AvBLen=       357.2
 PrSmSu:  NxtVal=            513.
 Electronic moments (au):
       -716.00000000         12.97178468         -0.07646739         -3.05860702
     -49625.44817367     -28520.58404657     -13117.11977932         81.28263491
         -0.87540095         18.57951479     -44944.43176824      -9173.12096830
     -21049.48704371      28134.52177048      86238.65754006      64006.47765829
     -13590.61095225       2495.30604707      10453.95621145     -11882.80375011
   -6737958.57629789   -2488041.21765066    -705737.14588526     -56311.60891242
     201000.15601021    -386904.57082033     -32728.02511563     -28414.23877968
      41895.91533842   -1984541.26388677    -677941.22574408    -329053.40028182
    -252078.98793301     -67253.19778613      41092.56631881
 Electronic spatial extent (au):  <R**2>=          91263.1520
 DipInt: DoE/N= F T RetVal/Mat= T F Init=T NMatP=  1 IDeriv=0 Min/MaxMlt=  0  4
 Nuclear    moments (au):
        716.00000000          0.00000000          0.00000000          0.00000000
      49157.13028598      28152.98094621      12737.81130788          0.00000000
          0.00000000          0.00000000      46174.89539473       9768.33701650
      21056.81012527     -26133.87431467     -85998.08867762     -64682.54176592
      13675.30387398      -2563.79905243     -10743.67238254      11711.52205519
    6546013.58978916    2392265.22289193     663119.55597680      61087.16292078
    -199290.69385254     398955.71565517      31467.02629613      29616.46469714
     -39931.13750114    1947707.96517256     644654.97986929     305665.33908669
     252985.05705288      62796.17784290     -40820.25381669
 Total      moments (au):
          0.00000000         12.97178468         -0.07646739         -3.05860702
       -468.31788769       -367.60310035       -379.30847144         81.28263491
         -0.87540095         18.57951479       1230.46362649        595.21604820
          7.32308157       2000.64745581        240.56886244       -676.06410763
         84.69292173        -68.49300536       -289.71617109       -171.28169492
    -191944.98650873     -95775.99475873     -42617.58990846       4775.55400835
       1709.46215767      12051.14483485      -1260.99881950       1202.22591746
       1964.77783728     -36833.29871421     -33286.24587479     -23388.06119513
        906.06911987      -4457.01994323        272.31250212
 Traceless Quadrup. (au):
        -63.24140120         37.47338614         25.76801505         81.28263491
         -0.87540095         18.57951479
 Charge=              0.0000 electrons
 Dipole moment (field-independent basis, Debye):
    X=             32.9710    Y=             -0.1944    Z=             -7.7742  Tot=             33.8757
 Quadrupole moment (field-independent basis, Debye-Ang):
   XX=           -629.9036   YY=           -494.4387   ZZ=           -510.1829
   XY=            109.3279   XZ=             -1.1774   YZ=             24.9901
 Traceless Quadrupole moment (field-independent basis, Debye-Ang):
   XX=            -85.0618   YY=             50.4030   ZZ=             34.6589
   XY=            109.3279   XZ=             -1.1774   YZ=             24.9901
 Octapole moment (field-independent basis, Debye-Ang**2):
  XXX=            875.7966  YYY=            423.6518  ZZZ=              5.2123  XYY=           1423.9837
  XXY=            171.2276  XXZ=           -481.1964  XZZ=             60.2812  YZZ=            -48.7507
  YYZ=           -206.2088  XYZ=           -121.9117
 Hexadecapole moment (field-independent basis, Debye-Ang**3):
 XXXX=         -72295.6812 YYYY=         -36073.8298 ZZZZ=         -16051.8269 XXXY=           1798.7025
 XXXZ=            643.8654 YYYX=           4539.0387 YYYZ=           -474.9526 ZZZX=            452.8159
 ZZZY=            740.0295 XXYY=         -13873.1856 XXZZ=         -12537.1955 YYZZ=          -8809.0648
 XXYZ=            341.2691 YYXZ=          -1678.7273 ZZXY=            102.5659
 N-N= 2.192305489129D+04 E-N=-5.632495707114D+04  KE= 5.290628767676D+03
 Leave Link  601 at Mon Sep 16 15:04:12 2019, MaxMem=  4294967296 cpu:        22.0
 FitSet:  NAtFit=   176 NAtPot=   176 NAtFrz=     0 MDM=   180 TotChg=   0.00000
 Merz-Kollman atomic radii used.
 Read replacement radii for each type of atom:
 Rad(20) =   1.700000000000D+00
 Atom Element Radius
    1     6    1.50
    2     6    1.50
    3     8    1.40
    4     1    1.20
    5     1    1.20
    6     1    1.20
    7     7    1.50
    8     6    1.50
    9     6    1.50
   10     8    1.40
   11     6    1.50
   12     6    1.50
   13     8    1.40
   14     8    1.40
   15     1    1.20
   16     1    1.20
   17     1    1.20
   18     1    1.20
   19     7    1.50
   20     6    1.50
   21     6    1.50
   22     8    1.40
   23     6    1.50
   24     6    1.50
   25     6    1.50
   26     6    1.50
   27     7    1.50
   28     1    1.20
   29     1    1.20
   30     1    1.20
   31     1    1.20
   32     1    1.20
   33     1    1.20
   34     1    1.20
   35     1    1.20
   36     1    1.20
   37     1    1.20
   38     1    1.20
   39     1    1.20
   40     1    1.20
   41     7    1.50
   42     6    1.50
   43     6    1.50
   44     8    1.40
   45     6    1.50
   46     6    1.50
   47     8    1.40
   48     8    1.40
   49     1    1.20
   50     1    1.20
   51     1    1.20
   52     1    1.20
   53     7    1.50
   54     6    1.50
   55     6    1.50
   56     8    1.40
   57     1    1.20
   58     1    1.20
   59     1    1.20
   60     7    1.50
   61     6    1.50
   62     6    1.50
   63     8    1.40
   64     6    1.50
   65     6    1.50
   66     7    1.50
   67     8    1.40
   68     1    1.20
   69     1    1.20
   70     1    1.20
   71     1    1.20
   72     1    1.20
   73     1    1.20
   74     7    1.50
   75     6    1.50
   76     6    1.50
   77     8    1.40
   78     1    1.20
   79     1    1.20
   80     1    1.20
   81     7    1.50
   82     6    1.50
   83     6    1.50
   84     8    1.40
   85     6    1.50
   86     6    1.50
   87     6    1.50
   88     6    1.50
   89     6    1.50
   90     6    1.50
   91     6    1.50
   92     8    1.40
   93     1    1.20
   94     1    1.20
   95     1    1.20
   96     1    1.20
   97     1    1.20
   98     1    1.20
   99     1    1.20
  100     1    1.20
  101     1    1.20
  102     7    1.50
  103     6    1.50
  104     6    1.50
  105     8    1.40
  106     6    1.50
  107     6    1.50
  108     6    1.50
  109     6    1.50
  110     1    1.20
  111     1    1.20
  112     1    1.20
  113     1    1.20
  114     1    1.20
  115     1    1.20
  116     1    1.20
  117     1    1.20
  118     1    1.20
  119     1    1.20
  120     1    1.20
  121     7    1.50
  122     6    1.50
  123     6    1.50
  124     8    1.40
  125     6    1.50
  126     8    1.40
  127     1    1.20
  128     1    1.20
  129     1    1.20
  130     1    1.20
  131     1    1.20
  132     7    1.50
  133     6    1.50
  134     6    1.50
  135     8    1.40
  136     6    1.50
  137     1    1.20
  138     1    1.20
  139     1    1.20
  140     1    1.20
  141     1    1.20
  142     7    1.50
  143     6    1.50
  144     6    1.50
  145     8    1.40
  146     6    1.50
  147     1    1.20
  148     1    1.20
  149     1    1.20
  150     1    1.20
  151     1    1.20
  152     7    1.50
  153     6    1.50
  154     6    1.50
  155     8    1.40
  156     6    1.50
  157     6    1.50
  158     6    1.50
  159     8    1.40
  160     8    1.40
  161     1    1.20
  162     1    1.20
  163     1    1.20
  164     1    1.20
  165     1    1.20
  166     1    1.20
  167     7    1.50
  168     6    1.50
  169     1    1.20
  170     1    1.20
  171     1    1.20
  172     1    1.20
  173    20    1.70
  174     8    1.40
  175     1    1.20
  176     1    1.20
 Generate VDW surfaces: Layer= 4 Dens= 6 Start= 1.400 Inc= 0.200

 **********************************************************************

            Electrostatic Properties Using The SCF Density

 **********************************************************************

       Atomic Center    1 is at   2.183464  2.184484  5.289103
       Atomic Center    2 is at   1.475237  1.869725  3.983560
       Atomic Center    3 is at   2.202300  1.492473  3.074297
[...]
 **** Fit      -0.017180
 **** Fit      -0.015717
 **** Fit      -0.013318
 **** Fit      -0.010012
 **** Fit      -0.005799
 **** Fit      -0.000669
 **** Fit       0.005365
 **** Fit       0.012241
 **** Fit       0.019819
 **** Fit      -0.017608
 **** Fit      -0.017992
 **** Fit      -0.016073
 **** Fit      -0.013242
 **** Fit      -0.009467
 **** Fit      -0.004693
 **** Fit       0.001151
 **** Fit       0.008122
 **** Fit       0.016221
 **** Fit       0.025323
 **** Fit      -0.018986
 **** Fit      -0.018941
 **** Fit      -0.016489
 **** Fit      -0.013121
 **** Fit      -0.008738
 **** Fit      -0.003217
 **** Fit       0.003586
 **** Fit       0.011818
 **** Fit       0.021571
 **** Fit       0.032755
 **** Fit      -0.021390
 **** Fit      -0.020553
 **** Fit      -0.020140
 **** Fit      -0.017075
 **** Fit      -0.013043
 **** Fit      -0.007872
 **** Fit      -0.001360
 **** Fit       0.006732
 **** Fit       0.016671
 **** Fit       0.028669
 **** Fit       0.042679
 **** Fit      -0.025363
 **** Fit      -0.024055
 **** Fit      -0.022402
 **** Fit      -0.021790
 **** Fit      -0.018113
 **** Fit      -0.013406
 **** Fit      -0.007440
 **** Fit       0.000054
 **** Fit       0.009404
 **** Fit       0.020991
 **** Fit       0.035148
 **** Fit      -0.027010
 **** Fit      -0.024664
 **** Fit      -0.024247
 **** Fit      -0.019710
 **** Fit      -0.013934
 **** Fit      -0.006625
 **** Fit       0.002578
 **** Fit       0.014119
 **** Fit       0.028485
 **** Fit      -0.030768
 **** Fit      -0.027824
 **** Fit      -0.022410
 **** Fit      -0.015099
 **** Fit      -0.005867
 **** Fit       0.005720
 **** Fit       0.020162
 **** Fit       0.007764
 **** Fit       0.024685
 **** Fit       0.038721
 **** Fit       0.042573
 **** Fit       0.029912
 **** Fit       0.032632
 **** Fit       0.032617
 **** Fit       0.028872
 **** Fit       0.021230
 **** Fit       0.010221
 **** Fit       0.024266
 **** Fit       0.019145
 **** Fit       0.010197
 **** Fit      -0.001642
 **** Fit       0.013359
 **** Fit       0.004849
 **** Fit      -0.004813
 **** Fit       0.044637
 **** Fit       0.038792
 **** Fit       0.027487
 **** Fit       0.023463
 **** Fit       0.022866
 **** Fit       0.019587
 **** Fit       0.021297
 **** Fit       0.019800
 **** Fit       0.016280
 **** Fit       0.010687
 **** Fit       0.004915
 **** Fit       0.019969
 **** Fit       0.017766
 **** Fit       0.013935
 **** Fit       0.010108
 **** Fit       0.018923
 **** Fit       0.016906
 **** Fit       0.014305
 **** Fit       0.017035
 **** Fit       0.023876
 **** Fit       0.007834
 **** Fit       0.024022
 **** Fit       0.009732
 **** Fit       0.008017
 **** Fit       0.007977
 **** Fit       0.007392
 **** Fit       0.007821
 **** Fit       0.008145
 **** Fit       0.008319
 **** Fit       0.008155
 **** Fit       0.007771
 **** Fit       0.006957
 **** Fit       0.006632
 **** Fit       0.007320
 **** Fit       0.007795
 **** Fit       0.008360
 **** Fit       0.008723
 **** Fit       0.008727
 **** Fit       0.008418
 **** Fit       0.007942
 **** Fit       0.007426
 **** Fit       0.006449
 **** Fit       0.005964
 **** Fit       0.006306
 **** Fit       0.006754
 **** Fit       0.007539
 **** Fit       0.008808
 **** Fit       0.008221
 **** Fit       0.007606
 **** Fit       0.007009
 **** Fit       0.005890
 **** Fit       0.005298
 **** Fit       0.004755
 **** Fit       0.004925
 **** Fit       0.005481
 **** Fit       0.006419
 **** Fit       0.008416
 **** Fit       0.007738
 **** Fit       0.007100
 **** Fit       0.006491
 **** Fit       0.005308
 **** Fit       0.004600
 **** Fit       0.003853
 **** Fit       0.003125
 **** Fit       0.008783
 **** Fit       0.007973
 **** Fit       0.007248
 **** Fit       0.006593
 **** Fit       0.005963
 **** Fit       0.003936
 **** Fit       0.003011
 **** Fit       0.001993
 **** Fit       0.000947
 **** Fit       0.008180
 **** Fit       0.007348
 **** Fit       0.006642
 **** Fit       0.006020
 **** Fit       0.005409
 **** Fit      -0.000619
 **** Fit      -0.002205
 **** Fit       0.008483
 **** Fit       0.007472
 **** Fit       0.006647
 **** Fit       0.005987
 **** Fit      -0.004287
 **** Fit      -0.006728
 **** Fit      -0.009385
 **** Fit       0.007540
 **** Fit       0.006535
 **** Fit      -0.009982
 **** Fit       0.007727
 **** Fit       0.006422
 **** Fit       0.005402
 **** Fit      -0.014590
 **** Fit       0.006714
 **** Fit       0.005159
 **** Fit       0.005084
 **** Fit       0.003189
 **** Fit       0.005313
 **** Fit       0.002366
 **** Fit       0.000026
 **** Fit      -0.001186
 **** Fit      -0.004515
 **** Fit       0.004367
 **** Fit       0.003582
 **** Fit       0.002683
 **** Fit       0.005080
 **** Fit       0.003712
 **** Fit       0.002922
 **** Fit       0.001945
 **** Fit       0.000729
 **** Fit       0.005697
 **** Fit       0.005017
 **** Fit       0.004384
 **** Fit       0.002966
 **** Fit       0.002198
 **** Fit       0.001211
 **** Fit      -0.000081
 **** Fit      -0.001764
 **** Fit       0.005397
 **** Fit       0.004730
 **** Fit       0.004156
 **** Fit       0.003593
 **** Fit       0.002030
 **** Fit       0.001252
 **** Fit       0.000208
 **** Fit      -0.001216
 **** Fit      -0.003171
 **** Fit      -0.005842
 **** Fit       0.005047
 **** Fit       0.004281
 **** Fit       0.003681
 **** Fit       0.003161
 **** Fit       0.002638
 **** Fit       0.000793
 **** Fit       0.000032
 **** Fit      -0.001027
 **** Fit      -0.002519
 **** Fit      -0.004635
 **** Fit      -0.007651
 **** Fit      -0.011960
 **** Fit       0.003445
 **** Fit       0.002778
 **** Fit       0.002266
 **** Fit       0.001822
 **** Fit       0.001360
 **** Fit      -0.000871
 **** Fit      -0.001605
 **** Fit      -0.002684
 **** Fit      -0.004264
 **** Fit      -0.006577
 **** Fit      -0.009986
 **** Fit      -0.015073
 **** Fit       0.002105
 **** Fit       0.001286
 **** Fit       0.000732
 **** Fit       0.000339
 **** Fit       0.000006
 **** Fit      -0.000367
 **** Fit      -0.003116
 **** Fit      -0.003821
 **** Fit      -0.004970
 **** Fit      -0.006765
 **** Fit      -0.009519
 **** Fit      -0.013765
 **** Fit      -0.001073
 **** Fit      -0.001800
 **** Fit      -0.002179
 **** Fit      -0.002365
 **** Fit      -0.002502
 **** Fit      -0.002715
 **** Fit      -0.006133
 **** Fit      -0.006752
 **** Fit      -0.007975
 **** Fit      -0.010061
 **** Fit      -0.013441
 **** Fit      -0.006350
 **** Fit      -0.006742
 **** Fit      -0.006652
 **** Fit      -0.006356
 **** Fit      -0.006068
 **** Fit      -0.005949
 **** Fit      -0.010167
 **** Fit      -0.010559
 **** Fit      -0.011762
 **** Fit      -0.014062
 **** Fit      -0.017971
 **** Fit      -0.012355
 **** Fit      -0.011182
 **** Fit      -0.010414
 **** Fit      -0.015516
 **** Fit      -0.015487
 **** Fit      -0.016702
 **** Fit      -0.019484
 **** Fit      -0.016644
 **** Fit      -0.021626
 **** Fit      -0.022615
 **** Fit      -0.025598
 **** Fit       0.007710
 **** Fit       0.007452
 **** Fit       0.007452
 **** Fit       0.007721
 **** Fit       0.007792
 **** Fit       0.007794
 **** Fit       0.007712
 **** Fit       0.007051
 **** Fit       0.006846
 **** Fit       0.006952
 **** Fit       0.007307
 **** Fit       0.007664
 **** Fit       0.007755
 **** Fit       0.007634
 **** Fit       0.007606
 **** Fit       0.007765
 **** Fit       0.007907
 **** Fit       0.007801
 **** Fit       0.007446
 **** Fit       0.006518
 **** Fit       0.006140
 **** Fit       0.005998
 **** Fit       0.006129
 **** Fit       0.006505
 **** Fit       0.007009
 **** Fit       0.007439
 **** Fit       0.007578
 **** Fit       0.007384
 **** Fit       0.007115
 **** Fit       0.007053
 **** Fit       0.007275
 **** Fit       0.007049
 **** Fit       0.005855
 **** Fit       0.005283
 **** Fit       0.004907
 **** Fit       0.004774
 **** Fit       0.004914
 **** Fit       0.005320
 **** Fit       0.005916
 **** Fit       0.006552
 **** Fit       0.007013
 **** Fit       0.007069
 **** Fit       0.006681
 **** Fit       0.006192
 **** Fit       0.005978
 **** Fit       0.006137
 **** Fit       0.004250
 **** Fit       0.003601
 **** Fit       0.003165
 **** Fit       0.002992
 **** Fit       0.003128
 **** Fit       0.003581
 **** Fit       0.004287
 **** Fit       0.005092
 **** Fit       0.005772
 **** Fit       0.006051
 **** Fit       0.005693
 **** Fit       0.004871
 **** Fit       0.004243
 **** Fit       0.004171
 **** Fit       0.004551
 **** Fit       0.002080
 **** Fit       0.001260
 **** Fit       0.000657
 **** Fit       0.000343
 **** Fit       0.000396
 **** Fit       0.000850
 **** Fit       0.001651
 **** Fit       0.002623
 **** Fit       0.003496
 **** Fit       0.003956
 **** Fit       0.001032
 **** Fit       0.001474
 **** Fit      -0.001179
 **** Fit      -0.002366
 **** Fit      -0.003284
 **** Fit      -0.003788
 **** Fit      -0.003732
 **** Fit      -0.003057
 **** Fit      -0.001894
 **** Fit      -0.000590
 **** Fit       0.000362
 **** Fit       0.000460
 **** Fit      -0.003527
 **** Fit      -0.006189
 **** Fit      -0.008070
 **** Fit      -0.009582
 **** Fit      -0.004248
 **** Fit      -0.004579
 **** Fit       0.008733
 **** Fit       0.008938
 **** Fit       0.008277
 **** Fit       0.008835
 **** Fit       0.009192
 **** Fit       0.009233
 **** Fit       0.006946
 **** Fit       0.007527
 **** Fit       0.008238
 **** Fit       0.008888
 **** Fit       0.009358
 **** Fit       0.009569
 **** Fit       0.009507
 **** Fit       0.009249
 **** Fit       0.007772
 **** Fit       0.008601
 **** Fit       0.009277
 **** Fit       0.009729
 **** Fit       0.009904
 **** Fit       0.009799
 **** Fit       0.009481
 **** Fit       0.009068
 **** Fit       0.007702
 **** Fit       0.008678
 **** Fit       0.009471
 **** Fit       0.010011
 **** Fit       0.010240
 **** Fit       0.010145
 **** Fit       0.009783
 **** Fit       0.009266
 **** Fit       0.007596
 **** Fit       0.008720
 **** Fit       0.009649
 **** Fit       0.010299
 **** Fit       0.010594
 **** Fit       0.010519
 **** Fit       0.010123
 **** Fit       0.009510
 **** Fit       0.008815
 **** Fit       0.006435
 **** Fit       0.007871
 **** Fit       0.009186
 **** Fit       0.010228
 **** Fit       0.010859
 **** Fit       0.011012
 **** Fit       0.010704
 **** Fit       0.010035
 **** Fit       0.009156
 **** Fit       0.006487
 **** Fit       0.008264
 **** Fit       0.009830
 **** Fit       0.010944
 **** Fit       0.011466
 **** Fit       0.011367
 **** Fit       0.010726
 **** Fit       0.009702
 **** Fit       0.008504
 **** Fit       0.005705
 **** Fit       0.008186
 **** Fit       0.010237
 **** Fit       0.011579
 **** Fit       0.012071
 **** Fit       0.011720
 **** Fit       0.010679
 **** Fit       0.009202
 **** Fit       0.007575
 **** Fit       0.009307
 **** Fit       0.011660
 **** Fit       0.012690
 **** Fit       0.012367
 **** Fit       0.010932
 **** Fit       0.008817
 **** Fit       0.008509
 **** Fit       0.039252
 **** Fit       0.041496
 **** Fit       0.038857
 **** Fit       0.036331
 **** Fit       0.040539
 **** Fit       0.036217
 **** Fit       0.032092
 **** Fit       0.031695
 **** Fit       0.026606
 **** Fit       0.028156
 **** Fit       0.024305
 **** Fit       0.021506
 **** Fit       0.019490
 **** Fit       0.022739
 **** Fit       0.020035
 **** Fit       0.018162
 **** Fit       0.017014
 **** Fit       0.016136
 **** Fit       0.017398
 **** Fit       0.016122
 **** Fit       0.015294
 **** Fit       0.015049
 **** Fit       0.015195
 **** Fit      -0.016706
 **** Fit      -0.007610
 **** Fit       0.009718
 **** Fit       0.011641
 **** Fit       0.012233
 **** Fit       0.012432
 **** Fit       0.012860
 **** Fit       0.013728
 **** Fit      -0.018077
 **** Fit      -0.009862
 **** Fit      -0.003202
 **** Fit       0.001912
 **** Fit       0.005450
 **** Fit       0.007690
 **** Fit       0.009265
 **** Fit       0.010801
 **** Fit       0.012651
 **** Fit      -0.018377
 **** Fit      -0.010904
 **** Fit      -0.004859
 **** Fit      -0.000143
 **** Fit       0.003422
 **** Fit       0.006236
 **** Fit       0.008822
 **** Fit      -0.021492
 **** Fit      -0.013862
 **** Fit      -0.007503
 **** Fit      -0.002310
 **** Fit       0.001938
 **** Fit       0.005642
 **** Fit      -0.019057
 **** Fit      -0.011953
 **** Fit      -0.005646
 **** Fit      -0.000224
 **** Fit      -0.014880
 **** Fit      -0.008786
 **** Fit      -0.002340
 **** Fit       0.007576
 **** Fit       0.018953
 **** Fit       0.016841
 **** Fit       0.013263
 **** Fit       0.007774
 **** Fit      -0.000409
 **** Fit       0.015629
 **** Fit       0.015308
 **** Fit       0.019785
 **** Fit       0.017041
 **** Fit       0.012839
 **** Fit       0.006634
 **** Fit      -0.002405
 **** Fit       0.015900
 **** Fit       0.016999
 **** Fit       0.017433
 **** Fit       0.017433
 **** Fit       0.017514
 **** Fit       0.018240
 **** Fit       0.021655
 **** Fit       0.019646
 **** Fit       0.016480
 **** Fit       0.011841
 **** Fit       0.005235
 **** Fit      -0.003997
 **** Fit       0.012582
 **** Fit       0.015081
 **** Fit       0.017006
 **** Fit       0.018409
 **** Fit       0.019403
 **** Fit       0.020205
 **** Fit       0.021055
 **** Fit       0.021985
 **** Fit       0.022675
 **** Fit       0.022648
 **** Fit       0.020955
 **** Fit       0.018514
 **** Fit       0.014728
 **** Fit       0.009267
 **** Fit       0.001709
 **** Fit       0.011590
 **** Fit       0.014572
 **** Fit       0.016948
 **** Fit       0.018799
 **** Fit       0.020222
 **** Fit       0.021332
 **** Fit       0.022169
 **** Fit       0.022579
 **** Fit       0.022258
 **** Fit       0.019509
 **** Fit       0.016708
 **** Fit       0.012405
 **** Fit       0.006368
 **** Fit      -0.001481
 **** Fit       0.006156
 **** Fit       0.010276
 **** Fit       0.013655
 **** Fit       0.016366
 **** Fit       0.018476
 **** Fit       0.020037
 **** Fit       0.021064
 **** Fit       0.021465
 **** Fit       0.021026
 **** Fit       0.017464
 **** Fit       0.014210
 **** Fit       0.009234
 **** Fit       0.002669
 **** Fit      -0.004649
 **** Fit      -0.010822
 **** Fit      -0.013609
 **** Fit      -0.012298
 **** Fit      -0.003019
 **** Fit       0.002255
 **** Fit       0.007083
 **** Fit       0.011198
 **** Fit       0.014511
 **** Fit       0.017013
 **** Fit       0.018689
 **** Fit       0.019460
 **** Fit       0.019137
 **** Fit       0.014925
 **** Fit       0.010928
 **** Fit       0.005061
 **** Fit      -0.000909
 **** Fit      -0.004083
 **** Fit      -0.002975
 **** Fit       0.001096
 **** Fit       0.006088
 **** Fit       0.010668
 **** Fit       0.014171
 **** Fit       0.016260
 **** Fit       0.016632
 **** Fit       0.011966
 **** Fit       0.007057
 **** Fit       0.003100
 **** Fit       0.005001
 **** Fit       0.009833
 **** Fit       0.012949
 **** Fit       0.008641
 -----------------------------------------------------------------
 Leave Link  602 at Mon Sep 16 15:04:25 2019, MaxMem=  4294967296 cpu:       154.1

 Test job not archived.
 1\1\GINC-N009\SP\RB3LYP\SVP\C54H83Ca1N15O23\PCIEPLAK\16-Sep-2019\0\\#m
 axdisk=50GB #B3LYP/SVP Density=Current scf=(tight) #IOP(5/87=12)Pop=(M
 K,readradii) iop(6/33=2) iop(6/42=6)\\SOL molecule\\0,1\C,0,50.76,47.6
 2,44.65\C,0,50.25,48.03,46.02\O,0,51.09,48.03,46.91\H,0,51.783,47.254,
 44.738\H,0,50.126,46.831,44.247\H,0,50.74,48.481,43.981\N,0,48.98,48.4
 4,46.08\C,0,48.17,48.59,47.28\C,0,47.7,47.25,47.82\O,0,46.51,46.94,47.
 84\C,0,46.99,49.52,47.02\C,0,46.22,49.85,48.29\O,0,45.12,50.43,48.18\O
 ,0,46.69,49.75,49.44\H,0,48.46,48.42,45.22\H,0,48.75,49.1,48.05\H,0,46
 .38,49.08,46.23\H,0,47.39,50.43,46.58\N,0,48.6,46.37,48.26\C,0,48.32,4
 5.,48.63\C,0,47.21,44.86,49.67\O,0,46.25,44.12,49.48\C,0,49.57,44.43,4
 9.3\C,0,50.73,44.54,48.31\C,0,51.88,43.61,48.68\C,0,52.39,43.66,50.12\
 N,0,52.69,42.3,50.59\H,0,49.56,46.67,48.33\H,0,48.,44.43,47.76\H,0,49.
 39,43.39,49.57\H,0,49.87,45.06,50.14\H,0,51.03,45.58,48.2\H,0,50.49,44
 .34,47.27\H,0,52.78,43.71,48.07\H,0,51.44,42.65,48.42\H,0,51.64,44.06,
 50.81\H,0,53.31,44.23,50.21\H,0,52.65,42.25,51.59\H,0,52.09,41.56,50.2
 4\H,0,53.65,42.09,50.33\N,0,47.16,45.64,50.76\C,0,46.1,45.59,51.74\C,0
 ,44.81,46.32,51.41\O,0,43.78,45.99,51.98\C,0,46.64,45.93,53.13\C,0,47.
 43,47.23,53.2\O,0,47.16,48.27,52.57\O,0,48.36,47.26,54.04\H,0,47.93,46
 .28,50.87\H,0,45.76,44.56,51.8\H,0,47.33,45.15,53.46\H,0,45.81,46.03,5
 3.82\N,0,44.83,47.22,50.42\C,0,43.6,47.82,49.94\C,0,43.12,49.09,50.63\
 O,0,41.96,49.47,50.53\H,0,45.68,47.53,49.98\H,0,42.78,47.1,49.96\H,0,4
 3.81,48.08,48.91\N,0,43.94,49.78,51.43\C,0,43.47,50.91,52.21\C,0,43.53
 ,52.18,51.38\O,0,43.05,53.23,51.81\C,0,44.17,50.99,53.56\C,0,45.56,51.
 61,53.44\N,0,45.87,52.63,54.24\O,0,46.29,51.3,52.5\H,0,44.81,49.3,51.6
 3\H,0,42.41,50.78,52.39\H,0,44.23,49.97,53.94\H,0,43.51,51.58,54.19\H,
 0,45.27,52.85,55.02\H,0,46.85,52.84,54.18\N,0,44.17,52.24,50.21\C,0,44
 .17,53.35,49.28\C,0,45.49,54.04,49.01\O,0,45.39,55.08,48.36\H,0,44.68,
 51.4,49.96\H,0,43.47,54.13,49.57\H,0,43.83,52.95,48.32\N,0,46.63,53.49
 ,49.44\C,0,47.9,54.15,49.19\C,0,48.96,53.08,48.97\O,0,48.81,51.95,49.4
 4\C,0,48.4,54.88,50.43\C,0,47.37,55.79,51.04\C,0,47.57,57.18,51.02\C,0
 ,46.35,55.27,51.85\C,0,46.74,58.05,51.73\C,0,45.53,56.14,52.57\C,0,45.
 66,57.54,52.48\O,0,44.79,58.3,53.22\H,0,46.54,52.52,49.7\H,0,47.78,54.
 69,48.25\H,0,49.32,55.44,50.23\H,0,48.66,54.17,51.21\H,0,48.31,57.54,5
 0.31\H,0,46.32,54.2,52.01\H,0,46.83,59.11,51.57\H,0,44.82,55.71,53.27\
 H,0,44.09,57.74,53.56\N,0,50.1,53.37,48.33\C,0,51.27,52.53,48.18\C,0,5
 2.38,53.07,49.08\O,0,52.75,54.24,49.\C,0,51.72,52.46,46.72\C,0,50.57,5
 2.03,45.81\C,0,52.85,51.44,46.73\C,0,50.97,52.29,44.35\H,0,50.25,54.18
 ,47.76\H,0,51.08,51.56,48.64\H,0,52.12,53.42,46.42\H,0,49.75,52.68,46.
 11\H,0,50.3,50.98,45.89\H,0,53.62,51.65,47.48\H,0,52.54,50.4,46.67\H,0
 ,53.4,51.61,45.8\H,0,50.09,52.28,43.71\H,0,51.34,53.31,44.33\H,0,51.71
 ,51.67,43.85\N,0,52.99,52.18,49.87\C,0,53.96,52.4,50.92\C,0,55.24,51.6
 3,50.68\O,0,55.25,50.76,49.81\C,0,53.27,52.07,52.25\O,0,52.83,50.74,52
 .35\H,0,52.72,51.21,49.78\H,0,54.26,53.45,50.95\H,0,52.42,52.74,52.34\
 H,0,53.98,52.38,53.02\H,0,51.97,50.6,51.95\N,0,56.34,52.03,51.33\C,0,5
 7.61,51.33,51.24\C,0,57.54,49.86,51.63\O,0,57.95,48.96,50.91\C,0,58.7,
 52.06,52.03\H,0,56.19,52.75,52.02\H,0,57.94,51.4,50.2\H,0,58.65,53.11,
 51.75\H,0,58.31,52.1,53.04\H,0,59.66,51.58,51.8\N,0,56.81,49.53,52.7\C
 ,0,56.55,48.19,53.19\C,0,55.81,47.3,52.21\O,0,56.13,46.11,52.17\C,0,55
 .84,48.42,54.52\H,0,56.5,50.26,53.33\H,0,57.54,47.73,53.2\H,0,54.91,48
 .95,54.36\H,0,55.65,47.49,55.06\H,0,56.43,49.09,55.15\N,0,55.04,47.91,
 51.3\C,0,54.36,47.15,50.27\C,0,55.24,47.05,49.03\O,0,55.4,45.95,48.51\
 C,0,53.08,47.85,49.84\C,0,51.94,47.8,50.86\C,0,50.77,48.75,50.65\O,0,4
 9.63,48.25,50.53\O,0,50.87,49.99,50.75\H,0,54.9,48.89,51.46\H,0,54.22,
 46.13,50.64\H,0,52.7,47.29,48.99\H,0,53.24,48.91,49.64\H,0,52.44,47.99
 ,51.81\H,0,51.62,46.76,50.81\N,0,55.76,48.17,48.52\C,0,56.54,48.32,47.
 31\H,0,57.528,47.886,47.459\H,0,56.039,47.808,46.488\H,0,56.641,49.379
 ,47.071\H,0,55.66,49.01,49.06\Ca,0,48.39,50.23,51.42\O,0,49.82,49.41,5
 3.63\H,0,49.29,48.62,53.75\H,0,50.52,49.32,54.27\\Version=ES64L-G09Rev
 D.01\State=1-A\HF=-5333.6051171\RMSD=5.885e-09\Dipole=12.2178473,-4.83
 85666,2.2227467\Quadrupole=-104.1901712,74.78034,29.4098312,-27.091959
 9,8.5218313,22.886262\PG=C01 [X(C54H83Ca1N15O23)]\\@


 NOTHING PUZZLES ME MORE THAN TIME AND SPACE; AND YET NOTHING TROUBLES ME LESS
                                                          -- CHARLES LAMB (1810)
 Job cpu time:       0 days 16 hours 12 minutes  4.9 seconds.
 File lengths (MBytes):  RWF=   1513 Int=      0 D2E=      0 Chk=    103 Scr=      1
 Normal termination of Gaussian 09 at Mon Sep 16 15:04:25 2019.
