 Entering Gaussian System, Link 0=g16
 Initial command:
 /home1/apps/gaussian/16rA.03/g16/l1.exe "/scratch/01990/pengzhi/4328945/Gau-318379.inp" -scrdir="/scratch/01990/pengzhi/4328945/"
 Entering Link 1 = /home1/apps/gaussian/16rA.03/g16/l1.exe PID=    318380.
  
 Copyright (c) 1988,1990,1992,1993,1995,1998,2003,2009,2016,
            Gaussian, Inc.  All Rights Reserved.
  
 This is part of the Gaussian(R) 16 program.  It is based on
 the Gaussian(R) 09 system (copyright 2009, Gaussian, Inc.),
 the Gaussian(R) 03 system (copyright 2003, Gaussian, Inc.),
 the Gaussian(R) 98 system (copyright 1998, Gaussian, Inc.),
 the Gaussian(R) 94 system (copyright 1995, Gaussian, Inc.),
 the Gaussian 92(TM) system (copyright 1992, Gaussian, Inc.),
 the Gaussian 90(TM) system (copyright 1990, Gaussian, Inc.),
 the Gaussian 88(TM) system (copyright 1988, Gaussian, Inc.),
 the Gaussian 86(TM) system (copyright 1986, Carnegie Mellon
 University), and the Gaussian 82(TM) system (copyright 1983,
 Carnegie Mellon University). Gaussian is a federally registered
 trademark of Gaussian, Inc.
  
 This software contains proprietary and confidential information,
 including trade secrets, belonging to Gaussian, Inc.
  
 This software is provided under written license and may be
 used, copied, transmitted, or stored only in accord with that
 written license.
  
 The following legend is applicable only to US Government
 contracts under FAR:
  
                    RESTRICTED RIGHTS LEGEND
  
 Use, reproduction and disclosure by the US Government is
 subject to restrictions as set forth in subparagraphs (a)
 and (c) of the Commercial Computer Software - Restricted
 Rights clause in FAR 52.227-19.
  
 Gaussian, Inc.
 340 Quinnipiac St., Bldg. 40, Wallingford CT 06492
  
  
 ---------------------------------------------------------------
 Warning -- This program may not be used in any manner that
 competes with the business of Gaussian, Inc. or will provide
 assistance to any competitor of Gaussian, Inc.  The licensee
 of this program is prohibited from giving any competitor of
 Gaussian, Inc. access to this program.  By using this program,
 the user acknowledges that Gaussian, Inc. is engaged in the
 business of creating and licensing software in the field of
 computational chemistry and represents and warrants to the
 licensee that it is not a competitor of Gaussian, Inc. and that
 it will not use this program in any manner prohibited above.
 ---------------------------------------------------------------
  

 Cite this work as:
 Gaussian 16, Revision A.03,
 M. J. Frisch, G. W. Trucks, H. B. Schlegel, G. E. Scuseria, 
 M. A. Robb, J. R. Cheeseman, G. Scalmani, V. Barone, 
 G. A. Petersson, H. Nakatsuji, X. Li, M. Caricato, A. V. Marenich, 
 J. Bloino, B. G. Janesko, R. Gomperts, B. Mennucci, H. P. Hratchian, 
 J. V. Ortiz, A. F. Izmaylov, J. L. Sonnenberg, D. Williams-Young, 
 F. Ding, F. Lipparini, F. Egidi, J. Goings, B. Peng, A. Petrone, 
 T. Henderson, D. Ranasinghe, V. G. Zakrzewski, J. Gao, N. Rega, 
 G. Zheng, W. Liang, M. Hada, M. Ehara, K. Toyota, R. Fukuda, 
 J. Hasegawa, M. Ishida, T. Nakajima, Y. Honda, O. Kitao, H. Nakai, 
 T. Vreven, K. Throssell, J. A. Montgomery, Jr., J. E. Peralta, 
 F. Ogliaro, M. J. Bearpark, J. J. Heyd, E. N. Brothers, K. N. Kudin, 
 V. N. Staroverov, T. A. Keith, R. Kobayashi, J. Normand, 
 K. Raghavachari, A. P. Rendell, J. C. Burant, S. S. Iyengar, 
 J. Tomasi, M. Cossi, J. M. Millam, M. Klene, C. Adamo, R. Cammi, 
 J. W. Ochterski, R. L. Martin, K. Morokuma, O. Farkas, 
 J. B. Foresman, and D. J. Fox, Gaussian, Inc., Wallingford CT, 2016.
 
 ******************************************
 Gaussian 16:  ES64L-G16RevA.03 25-Dec-2016
                14-Sep-2019 
 ******************************************
 %chk=CaMKII_loop3_72.0.chk
 %nprocshared=48
 Will use up to   48 processors via shared memory.
 %mem=10GB
 %nosave
 ----------------------------------------------------------------------
 #b3lyp/svp scf=(tight,noincore) Test #IOP(5/87=12) Density=Current Pop
 =(MK,readradii) iop(6/33=2) iop(6/42=6)
 ----------------------------------------------------------------------
 1/30=1,38=1,172=1/1;
 2/12=2,17=6,18=5,40=1/2;
 3/5=18,7=101,11=2,25=1,30=1,74=-5/1,2,3;
 4//1;
 5/5=4,32=2,38=5,87=12/2;
 6/7=2,8=2,9=2,10=2,15=8,20=101,22=-1,28=1,33=2,42=6/1,2;
 99/5=1,9=1/99;
 -----------------
 CaMKII_loop3_72.0
 -----------------
 Symbolic Z-matrix:
 Charge =  0 Multiplicity = 1
 C                     77.41     60.51     19.5 
 C                     77.57     59.11     18.92 
 O                     78.68     58.67     18.64 
 H                     76.406    60.62     19.909 
 H                     78.143    60.662    20.292 
 H                     77.565    61.249    18.714 
 N                     76.46     58.43     18.65 
 C                     76.39     57.21     17.88 
 C                     76.61     57.5      16.4 
 O                     75.86     58.27     15.81 
 C                     75.04     56.56     18.2 
 C                     74.92     55.19     17.55 
 O                     73.89     54.5      17.73 
 O                     75.92     54.65     17.03 
 H                     75.66     58.88     19.07 
 H                     77.17     56.53     18.22 
 H                     74.33     57.27     17.78 
 H                     74.87     56.6      19.28 
 N                     77.58     56.86     15.74 
 C                     78.09     57.25     14.44 
 C                     77.44     56.45     13.31 
 O                     77.76     56.74     12.16 
 C                     79.61     57.11     14.47 
 C                     80.35     58.12     13.6 
 C                     81.83     57.75     13.54 
 C                     82.74     58.79     12.88 
 N                     84.07     58.19     12.72 
 H                     78.11     56.18     16.26 
 H                     77.9      58.29     14.19 
 H                     79.78     56.06     14.23 
 H                     79.98     57.41     15.45 
 H                     80.27     59.11     14.05 
 H                     79.87     58.16     12.63 
 H                     81.9      56.91     12.85 
 H                     82.33     57.39     14.44 
 H                     82.89     59.67     13.51 
 H                     82.23     59.25     12.03 
 H                     84.76     58.9      12.54 
 H                     84.35     57.65     13.52 
 H                     84.02     57.59     11.91 
 N                     76.53     55.49     13.53 
 C                     75.73     54.67     12.65 
 C                     74.36     54.34     13.21 
 O                     73.64     53.51     12.66 
 C                     76.5      53.38     12.4 
 C                     76.94     52.55     13.6 
 O                     76.36     52.57     14.71 
 O                     78.02     51.95     13.45 
 H                     76.45     55.33     14.52 
 H                     75.57     55.19     11.7 
 H                     77.44     53.52     11.87 
 H                     75.92     52.74     11.73 
 N                     73.89     55.02     14.26 
 C                     72.51     54.98     14.69 
 C                     71.92     53.63     15.07 
 O                     70.7      53.51     15.17 
 H                     74.49     55.72     14.67 
 H                     72.       55.27     13.77 
 H                     72.39     55.75     15.46 
 N                     72.72     52.6      15.36 
 C                     72.29     51.3      15.81 
 C                     71.68     51.33     17.2 
 O                     70.96     50.42     17.6 
 C                     73.5      50.38     15.66 
 C                     74.36     50.2      16.9 
 N                     74.62     48.99     17.38 
 O                     75.       51.15     17.35 
 H                     73.71     52.81     15.26 
 H                     71.52     50.87     15.16 
 H                     74.19     50.67     14.88 
 H                     73.07     49.44     15.28 
 H                     74.07     48.18     17.12 
 H                     75.24     48.9      18.18 
 N                     72.08     52.34     17.98 
 C                     71.55     52.63     19.3 
 C                     72.52     52.51     20.46 
 O                     72.08     52.32     21.59 
 H                     72.87     52.86     17.63 
 H                     70.8      51.89     19.55 
 H                     71.07     53.61     19.27 
 N                     73.82     52.33     20.2 
 C                     74.93     52.22     21.13 
 C                     76.11     53.07     20.69 
 O                     76.32     53.33     19.5 
 C                     75.3      50.76     21.36 
 C                     74.27     49.7      21.67 
 C                     74.19     49.21     22.98 
 C                     73.42     49.22     20.67 
 C                     73.21     48.24     23.2 
 C                     72.4      48.3      20.94 
 C                     72.27     47.79     22.25 
 O                     71.36     46.82     22.54 
 H                     74.13     52.52     19.26 
 H                     74.61     52.63     22.09 
 H                     76.05     50.66     22.15 
 H                     75.8      50.39     20.46 
 H                     74.88     49.48     23.76 
 H                     73.47     49.71     19.7 
 H                     73.2      47.92     24.23 
 H                     71.73     48.07     20.13 
 H                     70.69     46.61     21.88 
 N                     76.92     53.53     21.65 
 C                     78.18     54.23     21.55 
 C                     79.32     53.32     22.01 
 O                     79.18     52.64     23.02 
 C                     78.18     55.53     22.34 
 C                     77.12     56.47     21.77 
 C                     79.48     56.3      22.13 
 C                     76.71     57.5      22.83 
 H                     76.66     53.28     22.59 
 H                     78.32     54.57     20.52 
 H                     78.12     55.34     23.41 
 H                     76.25     55.9      21.44 
 H                     77.46     56.96     20.86 
 H                     79.72     56.7      21.14 
 H                     79.52     57.17     22.79 
 H                     80.35     55.69     22.41 
 H                     77.55     58.18     22.96 
 H                     75.83     58.07     22.54 
 H                     76.55     56.99     23.78 
 N                     80.48     53.47     21.37 
 C                     81.66     52.72     21.76 
 C                     82.9      53.61     21.77 
 O                     82.79     54.81     21.54 
 C                     81.76     51.55     20.79 
 O                     81.83     52.12     19.5 
 H                     80.56     53.98     20.5 
 H                     81.39     52.35     22.75 
 H                     80.86     50.95     20.91 
 H                     82.58     50.88     21.01 
 H                     81.69     51.43     18.85 
 N                     84.07     53.01     21.96 
 C                     85.24     53.8      22.29 
 C                     85.7      54.66     21.12 
 O                     85.94     55.86     21.2 
 C                     86.26     52.89     22.97 
 H                     84.12     52.       21.99 
 H                     85.02     54.55     23.06 
 H                     86.52     52.04     22.33 
 H                     87.19     53.43     23.13 
 H                     85.93     52.45     23.91 
 N                     85.84     54.02     19.96 
 C                     86.06     54.75     18.72 
 C                     85.05     55.78     18.24 
 O                     85.38     56.82     17.67 
 C                     86.15     53.7      17.62 
 H                     85.69     53.03     19.84 
 H                     87.04     55.22     18.72 
 H                     85.4      52.92     17.7 
 H                     86.01     54.14     16.63 
 H                     87.13     53.22     17.71 
 N                     83.76     55.46     18.39 
 C                     82.77     56.51     18.22 
 C                     82.84     57.73     19.13 
 O                     82.59     58.83     18.64 
 C                     81.34     55.97     18.33 
 C                     81.22     54.89     17.26 
 C                     79.82     54.3      17.37 
 O                     79.29     53.92     18.44 
 O                     79.19     54.22     16.3 
 H                     83.43     54.54     18.63 
 H                     82.84     56.84     17.18 
 H                     80.59     56.74     18.18 
 H                     81.14     55.53     19.31 
 H                     81.93     54.14     17.63 
 H                     81.49     55.23     16.26 
 N                     83.25     57.53     20.38 
 C                     83.34     58.61     21.34 
 H                     83.89     59.442    20.9 
 H                     82.337    58.941    21.61 
 H                     83.861    58.262    22.232 
 H                     83.21     56.57     20.68 
 Ca                    77.33     52.55     17.11 
 O                     78.2      50.5      18.54 
 H                     79.14     50.38     18.39 
 H                     77.89     49.64     18.81 
 
 Stoichiometry    C54H83CaN15O23
 Framework group  C1[X(C54H83CaN15O23)]
 Deg. of freedom   522
 Full point group                 C1      NOp   1
 Largest Abelian subgroup         C1      NOp   1
 Largest concise Abelian subgroup C1      NOp   1
                         Standard orientation:                         
 ---------------------------------------------------------------------
 Center     Atomic      Atomic             Coordinates (Angstroms)
 Number     Number       Type             X           Y           Z
 ---------------------------------------------------------------------
      1          6           0        2.082773    1.985038    5.837794
      2          6           0        1.636738    1.807326    4.391602
      3          8           0        2.460746    1.694788    3.490244
      4          1           0        1.235492    1.815086    6.501592
      5          1           0        2.871838    1.268867    6.066118
      6          1           0        2.458459    2.998177    5.980447
      7          7           0        0.332345    1.869736    4.142474
      8          6           0       -0.267487    1.973365    2.832641
      9          6           0       -0.059159    3.370184    2.259582
     10          8           0       -0.486538    4.348338    2.862957
     11          6           0       -1.737251    1.568119    2.984200
     12          6           0       -2.433199    1.503028    1.633193
     13          8           0       -3.635555    1.158014    1.564603
     14          8           0       -1.766751    1.567020    0.577848
     15          1           0       -0.193443    1.823564    5.002889
     16          1           0        0.204648    1.251498    2.167512
     17          1           0       -2.139233    2.364483    3.607751
     18          1           0       -1.798984    0.668983    3.604396
     19          7           0        0.530307    3.512892    1.068673
     20          6           0        1.056821    4.761360    0.552620
     21          6           0        0.064457    5.454657   -0.382234
     22          8           0        0.388379    6.550633   -0.832692
     23          6           0        2.397089    4.465676   -0.116074
     24          6           0        3.409444    5.601762   -0.020956
     25          6           0        4.616064    5.281148   -0.899690
     26          6           0        5.811265    6.225731   -0.742979
     27          7           0        6.782692    5.903618   -1.795154
     28          1           0        0.786363    2.667681    0.585192
     29          1           0        1.273563    5.495988    1.323039
     30          1           0        2.122537    4.155837   -1.124846
     31          1           0        2.925293    3.704247    0.457099
     32          1           0        3.758123    5.688275    1.008577
     33          1           0        2.914864    6.529859   -0.279659
     34          1           0        4.299803    5.475916   -1.923723
     35          1           0        4.998044    4.260143   -0.934908
     36          1           0        6.340546    6.072692    0.200547
     37          1           0        5.463076    7.251772   -0.600836
     38          1           0        7.681288    6.303579   -1.582653
     39          1           0        6.884985    4.914107   -1.937996
     40          1           0        6.442129    6.332382   -2.642962
     41          7           0       -1.131201    4.931160   -0.689567
     42          6           0       -2.250777    5.417304   -1.462233
     43          6           0       -3.595608    4.956880   -0.934181
     44          8           0       -4.621853    5.140132   -1.584596
     45          6           0       -2.070516    4.922482   -2.891274
     46          6           0       -1.906612    3.426088   -3.128849
     47          8           0       -2.349818    2.546232   -2.355337
     48          8           0       -1.163596    3.128718   -4.081949
     49          1           0       -1.195631    4.003874   -0.304744
     50          1           0       -2.261831    6.511972   -1.453247
     51          1           0       -1.192349    5.324533   -3.392550
     52          1           0       -2.902424    5.281312   -3.502885
     53          7           0       -3.682776    4.426439    0.289270
     54          6           0       -4.932149    4.217628    0.986669
     55          6           0       -5.976287    3.327649    0.328860
     56          8           0       -7.134416    3.347089    0.742575
     57          1           0       -2.827800    4.319769    0.814379
     58          1           0       -5.352275    5.224316    0.960732
     59          1           0       -4.683441    3.926787    2.013195
     60          7           0       -5.627100    2.481276   -0.644136
     61          6           0       -6.499847    1.532536   -1.288810
     62          6           0       -6.946305    0.417512   -0.360102
     63          8           0       -7.935096   -0.264581   -0.612177
     64          6           0       -5.763533    1.066561   -2.543285
     65          6           0       -4.956139   -0.213735   -2.407067
     66          7           0       -5.158896   -1.238412   -3.226229
     67          8           0       -3.963277   -0.242469   -1.680431
     68          1           0       -4.644381    2.535141   -0.900187
     69          1           0       -7.421858    1.998600   -1.653475
     70          1           0       -5.073646    1.790719   -2.953469
     71          1           0       -6.554909    1.010942   -3.307177
     72          1           0       -6.000424   -1.321077   -3.784079
     73          1           0       -4.567996   -2.060783   -3.142296
     74          7           0       -6.125878    0.161783    0.664593
     75          6           0       -6.401834   -0.780112    1.734211
     76          6           0       -5.475825   -1.977088    1.837437
     77          8           0       -5.871856   -2.992331    2.402275
     78          1           0       -5.222685    0.606669    0.606982
     79          1           0       -7.362144   -1.247196    1.554662
     80          1           0       -6.458529   -0.226671    2.673460
     81          7           0       -4.373967   -2.009615    1.079248
     82          6           0       -3.332394   -3.020248    1.025883
     83          6           0       -1.948491   -2.393216    1.037845
     84          8           0       -1.740089   -1.261853    0.585753
     85          6           0       -3.550790   -3.960001   -0.153340
     86          6           0       -4.889233   -4.593093   -0.450603
     87          6           0       -5.060235   -5.955065   -0.170618
     88          6           0       -5.929623   -3.835067   -0.994556
     89          6           0       -6.323984   -6.473920   -0.459458
     90          6           0       -7.206742   -4.368498   -1.204599
     91          6           0       -7.431437   -5.733230   -0.921545
     92          8           0       -8.625949   -6.322430   -1.202765
     93          1           0       -4.083305   -1.142485    0.655691
     94          1           0       -3.394797   -3.619945    1.936140
     95          1           0       -2.845398   -4.795782   -0.131145
     96          1           0       -3.303324   -3.417755   -1.070744
     97          1           0       -4.265044   -6.599270    0.161149
     98          1           0       -5.761452   -2.765254   -1.098089
     99          1           0       -6.384281   -7.521022   -0.207778
    100          1           0       -7.970047   -3.681935   -1.526928
    101          1           0       -9.370507   -5.757081   -1.436461
    102          7           0       -0.955530   -3.120497    1.561670
    103          6           0        0.467369   -2.871223    1.590323
    104          6           0        1.187710   -3.854476    0.666406
    105          8           0        0.865226   -5.036869    0.673435
    106          6           0        1.035957   -2.945104    2.999348
    107          6           0        0.392758   -1.862560    3.863346
    108          6           0        2.515068   -2.572285    3.014705
    109          6           0        0.498961   -2.244357    5.345086
    110          1           0       -1.223963   -4.022669    1.919062
    111          1           0        0.654683   -1.832067    1.305424
    112          1           0        0.983862   -3.958931    3.391830
    113          1           0       -0.652754   -1.728021    3.581382
    114          1           0        0.831081   -0.883819    3.679663
    115          1           0        2.820536   -1.553003    2.758869
    116          1           0        2.941772   -2.741464    4.006372
    117          1           0        3.092870   -3.220853    2.341723
    118          1           0        1.545729   -2.148684    5.627968
    119          1           0       -0.104464   -1.604642    5.985432
    120          1           0        0.220653   -3.291479    5.464587
    121          7           0        2.263470   -3.381318    0.036675
    122          6           0        3.078321   -4.233342   -0.810126
    123          6           0        4.565594   -3.987432   -0.570654
    124          8           0        4.920037   -3.205327    0.305521
    125          6           0        2.639458   -3.954615   -2.241737
    126          8           0        2.834208   -2.570925   -2.445143
    127          1           0        2.474258   -2.393179   -0.013818
    128          1           0        2.757156   -5.234434   -0.519323
    129          1           0        1.587296   -4.222231   -2.317482
    130          1           0        3.143482   -4.572578   -2.972341
    131          1           0        2.387367   -2.312022   -3.252300
    132          7           0        5.415765   -4.593020   -1.392527
    133          6           0        6.822765   -4.663747   -1.050112
    134          6           0        7.497729   -3.299743   -1.113490
    135          8           0        8.195452   -2.834513   -0.218648
    136          6           0        7.449080   -5.822584   -1.821945
    137          1           0        5.066545   -5.103096   -2.193381
    138          1           0        6.971952   -4.950658   -0.001672
    139          1           0        7.306657   -5.701521   -2.901185
    140          1           0        8.525454   -5.831241   -1.668827
    141          1           0        7.041764   -6.805169   -1.588024
    142          7           0        7.290188   -2.610421   -2.234455
    143          6           0        7.688974   -1.214754   -2.343914
    144          6           0        7.133528   -0.174771   -1.384062
    145          8           0        7.803660    0.769025   -0.965048
    146          6           0        7.278709   -0.764743   -3.740257
    147          1           0        6.754643   -2.953620   -3.017019
    148          1           0        8.772037   -1.123803   -2.342564
    149          1           0        6.290335   -1.102642   -4.033926
    150          1           0        7.251620    0.324290   -3.821333
    151          1           0        7.994676   -1.201093   -4.444452
    152          7           0        5.836210   -0.284025   -1.077419
    153          6           0        5.329450    0.492691    0.041244
    154          6           0        5.939439    0.267109    1.419078
    155          8           0        6.107374    1.247180    2.142858
    156          6           0        3.814390    0.333059    0.207708
    157          6           0        3.202028    0.770862   -1.118581
    158          6           0        1.694799    0.583589   -1.002858
    159          8           0        1.137202   -0.457125   -0.583097
    160          8           0        1.008288    1.562164   -1.348246
    161          1           0        5.189333   -0.883655   -1.562077
    162          1           0        5.447948    1.545200   -0.230018
    163          1           0        3.418931    0.927930    1.024800
    164          1           0        3.529127   -0.701766    0.412064
    165          1           0        3.584650   -0.000848   -1.797966
    166          1           0        3.510669    1.766489   -1.437902
    167          7           0        6.327247   -0.971133    1.713973
    168          6           0        6.904133   -1.309100    2.998138
    169          1           0        7.703532   -0.606272    3.233334
    170          1           0        6.134602   -1.253675    3.768346
    171          1           0        7.309499   -2.320276    2.960585
    172          1           0        5.934790   -1.680736    1.117617
    173         20           0       -1.294525    0.316347   -1.570947
    174          8           0       -1.199634   -2.014422   -2.821070
    175          1           0       -0.396155   -2.066246   -3.342834
    176          1           0       -1.802406   -2.614510   -3.251373
 ---------------------------------------------------------------------
 Rotational constants (GHZ):           0.0241273           0.0147915           0.0115078
 Standard basis: SVP (5D, 7F)
 There are  1809 symmetry adapted cartesian basis functions of A   symmetry.
 There are  1717 symmetry adapted basis functions of A   symmetry.
  1717 basis functions,  2922 primitive gaussians,  1809 cartesian basis functions
   358 alpha electrons      358 beta electrons
       nuclear repulsion energy     21646.4723428924 Hartrees.
 NAtoms=  176 NActive=  176 NUniq=  176 SFac= 1.00D+00 NAtFMM=   60 NAOKFM=T Big=T
 Integral buffers will be    131072 words long.
 Raffenetti 2 integral format.
 Two-electron integral symmetry is turned on.
 One-electron integrals computed using PRISM.
 NBasis=  1717 RedAO= T EigKep=  2.66D-04  NBF=  1717
 NBsUse=  1717 1.00D-06 EigRej= -1.00D+00 NBFU=  1717
 ExpMin= 1.98D-02 ExpMax= 3.51D+04 ExpMxC= 5.28D+03 IAcc=3 IRadAn=         5 AccDes= 0.00D+00
 Harris functional with IExCor=  402 and IRadAn=       5 diagonalized for initial guess.
 HarFok:  IExCor=  402 AccDes= 0.00D+00 IRadAn=         5 IDoV= 1 UseB2=F ITyADJ=14
 ICtDFT=  3500011 ScaDFX=  1.000000  1.000000  1.000000  1.000000
 FoFCou: FMM=F IPFlag=           0 FMFlag=      100000 FMFlg1=        2001
         NFxFlg=           0 DoJE=T BraDBF=F KetDBF=T FulRan=T
         wScrn=  0.000000 ICntrl=       500 IOpCl=  0 I1Cent=   200000004 NGrid=           0
         NMat0=    1 NMatS0=      1 NMatT0=    0 NMatD0=    1 NMtDS0=    0 NMtDT0=    0
 Petite list used in FoFCou.
 Requested convergence on RMS density matrix=1.00D-08 within 128 cycles.
 Requested convergence on MAX density matrix=1.00D-06.
 Requested convergence on             energy=1.00D-06.
 No special actions if energy rises.
 EnCoef did     4 forward-backward iterations
 SCF Done:  E(RB3LYP) =  -5333.55280905     A.U. after   18 cycles
            NFock= 18  Conv=0.53D-08     -V/T= 2.0082
 SCF density gives NOpUse=  1 NOpAll=  1.
 Hyperfine terms turned off by default for NAtoms > 100.

 **********************************************************************

            Population analysis using the SCF density.

 **********************************************************************

 Orbital symmetries:
 BldTbl:  Degeneracy threshold= 1.00D-02
       Occupied  (A) (A) (A) (A) (A) (A) (A) (A) (A) (A) (A) (A)
                 (A) (A) (A) (A) (A) (A) (A) (A) (A) (A) (A) (A)
                 (A) (A) (A) (A) (A) (A) (A) (A) (A) (A) (A) (A)
                 (A) (A) (A) (A) (A) (A) (A) (A) (A) (A) (A) (A)
                 (A) (A) (A) (A) (A) (A) (A) (A) (A) (A) (A) (A)
                 (A) (A) (A) (A) (A) (A) (A) (A) (A) (A) (A) (A)
                 (A) (A) (A) (A) (A) (A) (A) (A) (A) (A) (A) (A)
                 (A) (A) (A) (A) (A) (A) (A) (A) (A) (A) (A) (A)
                 (A) (A) (A) (A) (A) (A) (A) (A) (A) (A) (A) (A)
                 (A) (A) (A) (A) (A) (A) (A) (A) (A) (A) (A) (A)
                 (A) (A) (A) (A) (A) (A) (A) (A) (A) (A) (A) (A)
                 (A) (A) (A) (A) (A) (A) (A) (A) (A) (A) (A) (A)
                 (A) (A) (A) (A) (A) (A) (A) (A) (A) (A) (A) (A)
                 (A) (A) (A) (A) (A) (A) (A) (A) (A) (A) (A) (A)
                 (A) (A) (A) (A) (A) (A) (A) (A) (A) (A) (A) (A)
                 (A) (A) (A) (A) (A) (A) (A) (A) (A) (A) (A) (A)
                 (A) (A) (A) (A) (A) (A) (A) (A) (A) (A) (A) (A)
                 (A) (A) (A) (A) (A) (A) (A) (A) (A) (A) (A) (A)
                 (A) (A) (A) (A) (A) (A) (A) (A) (A) (A) (A) (A)
                 (A) (A) (A) (A) (A) (A) (A) (A) (A) (A) (A) (A)
                 (A) (A) (A) (A) (A) (A) (A) (A) (A) (A) (A) (A)
                 (A) (A) (A) (A) (A) (A) (A) (A) (A) (A) (A) (A)
                 (A) (A) (A) (A) (A) (A) (A) (A) (A) (A) (A) (A)
                 (A) (A) (A) (A) (A) (A) (A) (A) (A) (A) (A) (A)
                 (A) (A) (A) (A) (A) (A) (A) (A) (A) (A) (A) (A)
                 (A) (A) (A) (A) (A) (A) (A) (A) (A) (A) (A) (A)
                 (A) (A) (A) (A) (A) (A) (A) (A) (A) (A) (A) (A)
                 (A) (A) (A) (A) (A) (A) (A) (A) (A) (A) (A) (A)
                 (A) (A) (A) (A) (A) (A) (A) (A) (A) (A) (A) (A)
                 (A) (A) (A) (A) (A) (A) (A) (A) (A) (A)
       Virtual   (A) (A) (A) (A) (A) (A) (A) (A) (A) (A) (A) (A)
                 (A) (A) (A) (A) (A) (A) (A) (A) (A) (A) (A) (A)
                 (A) (A) (A) (A) (A) (A) (A) (A) (A) (A) (A) (A)
                 (A) (A) (A) (A) (A) (A) (A) (A) (A) (A) (A) (A)
                 (A) (A) (A) (A) (A) (A) (A) (A) (A) (A) (A) (A)
                 (A) (A) (A) (A) (A) (A) (A) (A) (A) (A) (A) (A)
                 (A) (A) (A) (A) (A) (A) (A) (A) (A) (A) (A) (A)
                 (A) (A) (A) (A) (A) (A) (A) (A) (A) (A) (A) (A)
                 (A) (A) (A) (A) (A) (A) (A) (A) (A) (A) (A) (A)
                 (A) (A) (A) (A) (A) (A) (A) (A) (A) (A) (A) (A)
                 (A) (A) (A) (A) (A) (A) (A) (A) (A) (A) (A) (A)
                 (A) (A) (A) (A) (A) (A) (A) (A) (A) (A) (A) (A)
                 (A) (A) (A) (A) (A) (A) (A) (A) (A) (A) (A) (A)
                 (A) (A) (A) (A) (A) (A) (A) (A) (A) (A) (A) (A)
                 (A) (A) (A) (A) (A) (A) (A) (A) (A) (A) (A) (A)
                 (A) (A) (A) (A) (A) (A) (A) (A) (A) (A) (A) (A)
                 (A) (A) (A) (A) (A) (A) (A) (A) (A) (A) (A) (A)
                 (A) (A) (A) (A) (A) (A) (A) (A) (A) (A) (A) (A)
                 (A) (A) (A) (A) (A) (A) (A) (A) (A) (A) (A) (A)
                 (A) (A) (A) (A) (A) (A) (A) (A) (A) (A) (A) (A)
                 (A) (A) (A) (A) (A) (A) (A) (A) (A) (A) (A) (A)
                 (A) (A) (A) (A) (A) (A) (A) (A) (A) (A) (A) (A)
                 (A) (A) (A) (A) (A) (A) (A) (A) (A) (A) (A) (A)
                 (A) (A) (A) (A) (A) (A) (A) (A) (A) (A) (A) (A)
                 (A) (A) (A) (A) (A) (A) (A) (A) (A) (A) (A) (A)
                 (A) (A) (A) (A) (A) (A) (A) (A) (A) (A) (A) (A)
                 (A) (A) (A) (A) (A) (A) (A) (A) (A) (A) (A) (A)
                 (A) (A) (A) (A) (A) (A) (A) (A) (A) (A) (A) (A)
                 (A) (A) (A) (A) (A) (A) (A) (A) (A) (A) (A) (A)
                 (A) (A) (A) (A) (A) (A) (A) (A) (A) (A) (A) (A)
                 (A) (A) (A) (A) (A) (A) (A) (A) (A) (A) (A) (A)
                 (A) (A) (A) (A) (A) (A) (A) (A) (A) (A) (A) (A)
                 (A) (A) (A) (A) (A) (A) (A) (A) (A) (A) (A) (A)
                 (A) (A) (A) (A) (A) (A) (A) (A) (A) (A) (A) (A)
                 (A) (A) (A) (A) (A) (A) (A) (A) (A) (A) (A) (A)
                 (A) (A) (A) (A) (A) (A) (A) (A) (A) (A) (A) (A)
                 (A) (A) (A) (A) (A) (A) (A) (A) (A) (A) (A) (A)
                 (A) (A) (A) (A) (A) (A) (A) (A) (A) (A) (A) (A)
                 (A) (A) (A) (A) (A) (A) (A) (A) (A) (A) (A) (A)
                 (A) (A) (A) (A) (A) (A) (A) (A) (A) (A) (A) (A)
                 (A) (A) (A) (A) (A) (A) (A) (A) (A) (A) (A) (A)
                 (A) (A) (A) (A) (A) (A) (A) (A) (A) (A) (A) (A)
                 (A) (A) (A) (A) (A) (A) (A) (A) (A) (A) (A) (A)
                 (A) (A) (A) (A) (A) (A) (A) (A) (A) (A) (A) (A)
                 (A) (A) (A) (A) (A) (A) (A) (A) (A) (A) (A) (A)
                 (A) (A) (A) (A) (A) (A) (A) (A) (A) (A) (A) (A)
                 (A) (A) (A) (A) (A) (A) (A) (A) (A) (A) (A) (A)
                 (A) (A) (A) (A) (A) (A) (A) (A) (A) (A) (A) (A)
                 (A) (A) (A) (A) (A) (A) (A) (A) (A) (A) (A) (A)
                 (A) (A) (A) (A) (A) (A) (A) (A) (A) (A) (A) (A)
                 (A) (A) (A) (A) (A) (A) (A) (A) (A) (A) (A) (A)
                 (A) (A) (A) (A) (A) (A) (A) (A) (A) (A) (A) (A)
                 (A) (A) (A) (A) (A) (A) (A) (A) (A) (A) (A) (A)
                 (A) (A) (A) (A) (A) (A) (A) (A) (A) (A) (A) (A)
                 (A) (A) (A) (A) (A) (A) (A) (A) (A) (A) (A) (A)
                 (A) (A) (A) (A) (A) (A) (A) (A) (A) (A) (A) (A)
                 (A) (A) (A) (A) (A) (A) (A) (A) (A) (A) (A) (A)
                 (A) (A) (A) (A) (A) (A) (A) (A) (A) (A) (A) (A)
                 (A) (A) (A) (A) (A) (A) (A) (A) (A) (A) (A) (A)
                 (A) (A) (A) (A) (A) (A) (A) (A) (A) (A) (A) (A)
                 (A) (A) (A) (A) (A) (A) (A) (A) (A) (A) (A) (A)
                 (A) (A) (A) (A) (A) (A) (A) (A) (A) (A) (A) (A)
                 (A) (A) (A) (A) (A) (A) (A) (A) (A) (A) (A) (A)
                 (A) (A) (A) (A) (A) (A) (A) (A) (A) (A) (A) (A)
                 (A) (A) (A) (A) (A) (A) (A) (A) (A) (A) (A) (A)
                 (A) (A) (A) (A) (A) (A) (A) (A) (A) (A) (A) (A)
                 (A) (A) (A) (A) (A) (A) (A) (A) (A) (A) (A) (A)
                 (A) (A) (A) (A) (A) (A) (A) (A) (A) (A) (A) (A)
                 (A) (A) (A) (A) (A) (A) (A) (A) (A) (A) (A) (A)
                 (A) (A) (A) (A) (A) (A) (A) (A) (A) (A) (A) (A)
                 (A) (A) (A) (A) (A) (A) (A) (A) (A) (A) (A) (A)
                 (A) (A) (A) (A) (A) (A) (A) (A) (A) (A) (A) (A)
                 (A) (A) (A) (A) (A) (A) (A) (A) (A) (A) (A) (A)
                 (A) (A) (A) (A) (A) (A) (A) (A) (A) (A) (A) (A)
                 (A) (A) (A) (A) (A) (A) (A) (A) (A) (A) (A) (A)
                 (A) (A) (A) (A) (A) (A) (A) (A) (A) (A) (A) (A)
                 (A) (A) (A) (A) (A) (A) (A) (A) (A) (A) (A) (A)
                 (A) (A) (A) (A) (A) (A) (A) (A) (A) (A) (A) (A)
                 (A) (A) (A) (A) (A) (A) (A) (A) (A) (A) (A) (A)
                 (A) (A) (A) (A) (A) (A) (A) (A) (A) (A) (A) (A)
                 (A) (A) (A) (A) (A) (A) (A) (A) (A) (A) (A) (A)
                 (A) (A) (A) (A) (A) (A) (A) (A) (A) (A) (A) (A)
                 (A) (A) (A) (A) (A) (A) (A) (A) (A) (A) (A) (A)
                 (A) (A) (A) (A) (A) (A) (A) (A) (A) (A) (A) (A)
                 (A) (A) (A) (A) (A) (A) (A) (A) (A) (A) (A) (A)
                 (A) (A) (A) (A) (A) (A) (A) (A) (A) (A) (A) (A)
                 (A) (A) (A) (A) (A) (A) (A) (A) (A) (A) (A) (A)
                 (A) (A) (A) (A) (A) (A) (A) (A) (A) (A) (A) (A)
                 (A) (A) (A) (A) (A) (A) (A) (A) (A) (A) (A) (A)
                 (A) (A) (A) (A) (A) (A) (A) (A) (A) (A) (A) (A)
                 (A) (A) (A) (A) (A) (A) (A) (A) (A) (A) (A) (A)
                 (A) (A) (A) (A) (A) (A) (A) (A) (A) (A) (A) (A)
                 (A) (A) (A) (A) (A) (A) (A) (A) (A) (A) (A) (A)
                 (A) (A) (A) (A) (A) (A) (A) (A) (A) (A) (A) (A)
                 (A) (A) (A) (A) (A) (A) (A) (A) (A) (A) (A) (A)
                 (A) (A) (A) (A) (A) (A) (A) (A) (A) (A) (A) (A)
                 (A) (A) (A) (A) (A) (A) (A) (A) (A) (A) (A) (A)
                 (A) (A) (A) (A) (A) (A) (A) (A) (A) (A) (A) (A)
                 (A) (A) (A) (A) (A) (A) (A) (A) (A) (A) (A) (A)
                 (A) (A) (A) (A) (A) (A) (A) (A) (A) (A) (A) (A)
                 (A) (A) (A) (A) (A) (A) (A) (A) (A) (A) (A) (A)
                 (A) (A) (A) (A) (A) (A) (A) (A) (A) (A) (A) (A)
                 (A) (A) (A) (A) (A) (A) (A) (A) (A) (A) (A) (A)
                 (A) (A) (A) (A) (A) (A) (A) (A) (A) (A) (A) (A)
                 (A) (A) (A) (A) (A) (A) (A) (A) (A) (A) (A) (A)
                 (A) (A) (A) (A) (A) (A) (A) (A) (A) (A) (A) (A)
                 (A) (A) (A) (A) (A) (A) (A) (A) (A) (A) (A) (A)
                 (A) (A) (A) (A) (A) (A) (A) (A) (A) (A) (A) (A)
                 (A) (A) (A) (A) (A) (A) (A) (A) (A) (A) (A) (A)
                 (A) (A) (A) (A) (A) (A) (A) (A) (A) (A) (A) (A)
                 (A) (A) (A) (A) (A) (A) (A) (A) (A) (A) (A) (A)
                 (A) (A) (A) (A) (A) (A) (A) (A) (A) (A) (A) (A)
                 (A) (A) (A) (A) (A) (A) (A) (A) (A) (A) (A) (A)
                 (A) (A) (A)
 The electronic state is 1-A.
 Alpha  occ. eigenvalues -- -145.36656 -19.21647 -19.18725 -19.14675 -19.14494
 Alpha  occ. eigenvalues --  -19.12121 -19.10944 -19.10816 -19.10730 -19.10324
 Alpha  occ. eigenvalues --  -19.07606 -19.06930 -19.06685 -19.06573 -19.06515
 Alpha  occ. eigenvalues --  -19.05908 -19.05200 -19.05078 -19.04672 -19.03536
 Alpha  occ. eigenvalues --  -19.02909 -19.02414 -19.01673 -18.99731 -15.42416
 Alpha  occ. eigenvalues --  -14.58063 -14.40460 -14.38564 -14.36935 -14.36214
 Alpha  occ. eigenvalues --  -14.36013 -14.35826 -14.33284 -14.32362 -14.32001
 Alpha  occ. eigenvalues --  -14.31552 -14.31430 -14.30828 -14.29542 -14.29539
 Alpha  occ. eigenvalues --  -12.56023 -12.55994 -12.55975 -10.33660 -10.32763
 Alpha  occ. eigenvalues --  -10.30836 -10.29938 -10.29555 -10.29078 -10.28772
 Alpha  occ. eigenvalues --  -10.28300 -10.27037 -10.26166 -10.26152 -10.26102
 Alpha  occ. eigenvalues --  -10.25926 -10.25466 -10.25288 -10.25022 -10.24929
 Alpha  occ. eigenvalues --  -10.24425 -10.24034 -10.23636 -10.23607 -10.23240
 Alpha  occ. eigenvalues --  -10.22711 -10.22606 -10.22516 -10.22395 -10.22241
 Alpha  occ. eigenvalues --  -10.21980 -10.21563 -10.21488 -10.20351 -10.20258
 Alpha  occ. eigenvalues --  -10.20083 -10.19882 -10.19521 -10.18969 -10.18668
 Alpha  occ. eigenvalues --  -10.18667 -10.18640 -10.18304 -10.18171 -10.18145
 Alpha  occ. eigenvalues --  -10.18127 -10.17847 -10.17603 -10.17464 -10.17263
 Alpha  occ. eigenvalues --  -10.17051 -10.17023 -10.16730 -10.16687 -10.16280
 Alpha  occ. eigenvalues --  -10.15663 -10.12644  -1.79228  -1.13483  -1.08013
 Alpha  occ. eigenvalues --   -1.07943  -1.06780  -1.06690  -1.06584  -1.06153
 Alpha  occ. eigenvalues --   -1.05279  -1.03984  -1.03882  -1.03583  -1.02963
 Alpha  occ. eigenvalues --   -1.02781  -1.02207  -1.00587  -0.99704  -0.99393
 Alpha  occ. eigenvalues --   -0.99012  -0.98674  -0.98306  -0.97887  -0.97437
 Alpha  occ. eigenvalues --   -0.97210  -0.96471  -0.95801  -0.95035  -0.93439
 Alpha  occ. eigenvalues --   -0.92717  -0.92504  -0.91708  -0.91184  -0.90101
 Alpha  occ. eigenvalues --   -0.89665  -0.88985  -0.88973  -0.88496  -0.87785
 Alpha  occ. eigenvalues --   -0.87294  -0.86801  -0.86576  -0.85739  -0.85476
 Alpha  occ. eigenvalues --   -0.83300  -0.82960  -0.81557  -0.80494  -0.80164
 Alpha  occ. eigenvalues --   -0.78933  -0.78333  -0.77333  -0.76271  -0.76040
 Alpha  occ. eigenvalues --   -0.74820  -0.73872  -0.73601  -0.72667  -0.72566
 Alpha  occ. eigenvalues --   -0.72037  -0.71880  -0.71779  -0.70599  -0.70541
 Alpha  occ. eigenvalues --   -0.69773  -0.69257  -0.68632  -0.68269  -0.67941
 Alpha  occ. eigenvalues --   -0.66625  -0.66547  -0.65246  -0.64887  -0.64006
 Alpha  occ. eigenvalues --   -0.63369  -0.63158  -0.62708  -0.61994  -0.61652
 Alpha  occ. eigenvalues --   -0.61535  -0.61053  -0.60922  -0.60611  -0.60267
 Alpha  occ. eigenvalues --   -0.60021  -0.59852  -0.59325  -0.57930  -0.57732
 Alpha  occ. eigenvalues --   -0.57318  -0.57236  -0.56669  -0.55992  -0.55800
 Alpha  occ. eigenvalues --   -0.55761  -0.55346  -0.55143  -0.55077  -0.54248
 Alpha  occ. eigenvalues --   -0.54179  -0.54110  -0.54018  -0.53317  -0.53184
 Alpha  occ. eigenvalues --   -0.52970  -0.52887  -0.52693  -0.52038  -0.51162
 Alpha  occ. eigenvalues --   -0.51058  -0.50518  -0.50161  -0.49978  -0.49181
 Alpha  occ. eigenvalues --   -0.49123  -0.48901  -0.48684  -0.48376  -0.48047
 Alpha  occ. eigenvalues --   -0.47953  -0.47881  -0.47493  -0.47412  -0.47303
 Alpha  occ. eigenvalues --   -0.47157  -0.46891  -0.46773  -0.46582  -0.46483
 Alpha  occ. eigenvalues --   -0.46454  -0.45917  -0.45759  -0.45602  -0.45450
 Alpha  occ. eigenvalues --   -0.45382  -0.44787  -0.44569  -0.44483  -0.44387
 Alpha  occ. eigenvalues --   -0.44214  -0.43827  -0.43783  -0.43525  -0.43474
 Alpha  occ. eigenvalues --   -0.43306  -0.43123  -0.43012  -0.42906  -0.42879
 Alpha  occ. eigenvalues --   -0.42666  -0.42650  -0.42435  -0.42157  -0.42056
 Alpha  occ. eigenvalues --   -0.41825  -0.41802  -0.41594  -0.41337  -0.41159
 Alpha  occ. eigenvalues --   -0.40883  -0.40796  -0.40678  -0.40554  -0.40448
 Alpha  occ. eigenvalues --   -0.39982  -0.39734  -0.39699  -0.39592  -0.39520
 Alpha  occ. eigenvalues --   -0.39404  -0.39331  -0.39153  -0.39038  -0.38957
 Alpha  occ. eigenvalues --   -0.38832  -0.38773  -0.38616  -0.38382  -0.38271
 Alpha  occ. eigenvalues --   -0.38237  -0.38050  -0.37986  -0.37770  -0.37728
 Alpha  occ. eigenvalues --   -0.37463  -0.37361  -0.37221  -0.37069  -0.36862
 Alpha  occ. eigenvalues --   -0.36815  -0.36697  -0.36651  -0.36408  -0.36089
 Alpha  occ. eigenvalues --   -0.35807  -0.35698  -0.35534  -0.35349  -0.35007
 Alpha  occ. eigenvalues --   -0.34902  -0.34829  -0.34685  -0.34599  -0.34335
 Alpha  occ. eigenvalues --   -0.34288  -0.34021  -0.33885  -0.33763  -0.33449
 Alpha  occ. eigenvalues --   -0.33181  -0.33093  -0.32649  -0.32638  -0.32272
 Alpha  occ. eigenvalues --   -0.32119  -0.32083  -0.31905  -0.31764  -0.31539
 Alpha  occ. eigenvalues --   -0.31255  -0.30978  -0.30470  -0.30175  -0.30000
 Alpha  occ. eigenvalues --   -0.29607  -0.29480  -0.29036  -0.27713  -0.27592
 Alpha  occ. eigenvalues --   -0.27339  -0.27149  -0.26842  -0.26415  -0.26251
 Alpha  occ. eigenvalues --   -0.25700  -0.25420  -0.25145  -0.24940  -0.24259
 Alpha  occ. eigenvalues --   -0.24133  -0.23463  -0.23249  -0.23110  -0.22917
 Alpha  occ. eigenvalues --   -0.22821  -0.22679  -0.22598  -0.22112  -0.22027
 Alpha  occ. eigenvalues --   -0.21925  -0.21315  -0.20709  -0.20612  -0.20405
 Alpha  occ. eigenvalues --   -0.20110  -0.19715  -0.19610  -0.19239  -0.19000
 Alpha  occ. eigenvalues --   -0.18598  -0.17322  -0.15864
 Alpha virt. eigenvalues --   -0.09670  -0.05607  -0.04110  -0.03502  -0.02860
 Alpha virt. eigenvalues --   -0.01629  -0.01265  -0.00191  -0.00051   0.00245
 Alpha virt. eigenvalues --    0.00480   0.00578   0.01046   0.01527   0.02142
 Alpha virt. eigenvalues --    0.02530   0.03155   0.03481   0.03875   0.04235
 Alpha virt. eigenvalues --    0.04368   0.04601   0.04769   0.04964   0.05175
 Alpha virt. eigenvalues --    0.05229   0.05359   0.05516   0.06064   0.06087
 Alpha virt. eigenvalues --    0.06197   0.06334   0.06397   0.06614   0.06714
 Alpha virt. eigenvalues --    0.07041   0.07080   0.07284   0.07586   0.07729
 Alpha virt. eigenvalues --    0.08293   0.08439   0.08631   0.08761   0.08893
 Alpha virt. eigenvalues --    0.09241   0.09308   0.09585   0.09767   0.09837
 Alpha virt. eigenvalues --    0.10241   0.10430   0.10528   0.10751   0.10911
 Alpha virt. eigenvalues --    0.11100   0.11313   0.11498   0.11538   0.11914
 Alpha virt. eigenvalues --    0.12106   0.12308   0.12509   0.12662   0.12842
 Alpha virt. eigenvalues --    0.12945   0.13131   0.13447   0.13541   0.13662
 Alpha virt. eigenvalues --    0.13733   0.13845   0.14223   0.14320   0.14455
 Alpha virt. eigenvalues --    0.14766   0.14779   0.15114   0.15209   0.15394
 Alpha virt. eigenvalues --    0.15569   0.15656   0.15902   0.15937   0.15997
 Alpha virt. eigenvalues --    0.16321   0.16484   0.16845   0.17025   0.17226
 Alpha virt. eigenvalues --    0.17302   0.17347   0.17742   0.17850   0.17898
 Alpha virt. eigenvalues --    0.18032   0.18297   0.18472   0.18591   0.18840
 Alpha virt. eigenvalues --    0.18934   0.19202   0.19249   0.19355   0.19604
 Alpha virt. eigenvalues --    0.19755   0.19963   0.20302   0.20673   0.20796
 Alpha virt. eigenvalues --    0.21061   0.21099   0.21189   0.21316   0.21770
 Alpha virt. eigenvalues --    0.21954   0.22117   0.22180   0.22432   0.22655
 Alpha virt. eigenvalues --    0.22913   0.23181   0.23255   0.23508   0.23557
 Alpha virt. eigenvalues --    0.23734   0.24114   0.24495   0.24754   0.24835
 Alpha virt. eigenvalues --    0.25227   0.25279   0.25496   0.25752   0.25927
 Alpha virt. eigenvalues --    0.26158   0.26471   0.26648   0.26765   0.27059
 Alpha virt. eigenvalues --    0.27252   0.27793   0.27823   0.28092   0.28297
 Alpha virt. eigenvalues --    0.28417   0.28872   0.29206   0.29389   0.29561
 Alpha virt. eigenvalues --    0.29837   0.30215   0.30370   0.30539   0.30848
 Alpha virt. eigenvalues --    0.31047   0.31229   0.31400   0.31501   0.31760
 Alpha virt. eigenvalues --    0.32114   0.32257   0.32411   0.32571   0.32848
 Alpha virt. eigenvalues --    0.33025   0.33462   0.33675   0.33882   0.34121
 Alpha virt. eigenvalues --    0.34470   0.34643   0.34799   0.35132   0.35465
 Alpha virt. eigenvalues --    0.35731   0.36213   0.36482   0.36786   0.36991
 Alpha virt. eigenvalues --    0.37155   0.37403   0.37641   0.38144   0.38212
 Alpha virt. eigenvalues --    0.38591   0.38886   0.39209   0.39295   0.39642
 Alpha virt. eigenvalues --    0.39804   0.40028   0.40482   0.40606   0.41199
 Alpha virt. eigenvalues --    0.41376   0.41615   0.41911   0.42057   0.42220
 Alpha virt. eigenvalues --    0.42723   0.42785   0.43062   0.43426   0.43685
 Alpha virt. eigenvalues --    0.44050   0.44166   0.44277   0.44302   0.44573
 Alpha virt. eigenvalues --    0.44837   0.45068   0.45403   0.45675   0.45845
 Alpha virt. eigenvalues --    0.45921   0.46057   0.46328   0.46587   0.46706
 Alpha virt. eigenvalues --    0.46751   0.47061   0.47179   0.47407   0.47549
 Alpha virt. eigenvalues --    0.47760   0.47897   0.48273   0.48438   0.48809
 Alpha virt. eigenvalues --    0.48991   0.49147   0.49477   0.49717   0.49825
 Alpha virt. eigenvalues --    0.49949   0.50158   0.50491   0.50546   0.50694
 Alpha virt. eigenvalues --    0.50890   0.51248   0.51518   0.51718   0.51754
 Alpha virt. eigenvalues --    0.51937   0.52145   0.52280   0.52683   0.52883
 Alpha virt. eigenvalues --    0.53010   0.53219   0.53346   0.53555   0.53614
 Alpha virt. eigenvalues --    0.53807   0.53842   0.54080   0.54427   0.54554
 Alpha virt. eigenvalues --    0.54669   0.54891   0.54962   0.55073   0.55217
 Alpha virt. eigenvalues --    0.55372   0.55488   0.55631   0.55781   0.56095
 Alpha virt. eigenvalues --    0.56328   0.56450   0.56549   0.56963   0.57265
 Alpha virt. eigenvalues --    0.57382   0.57769   0.57870   0.58015   0.58212
 Alpha virt. eigenvalues --    0.58319   0.58364   0.58711   0.58791   0.58946
 Alpha virt. eigenvalues --    0.59003   0.59226   0.59448   0.59769   0.59827
 Alpha virt. eigenvalues --    0.60042   0.60112   0.60199   0.60290   0.60623
 Alpha virt. eigenvalues --    0.60718   0.60912   0.60978   0.61169   0.61218
 Alpha virt. eigenvalues --    0.61335   0.61463   0.61636   0.61739   0.61821
 Alpha virt. eigenvalues --    0.61970   0.62123   0.62344   0.62539   0.62782
 Alpha virt. eigenvalues --    0.62829   0.62920   0.63118   0.63222   0.63361
 Alpha virt. eigenvalues --    0.63465   0.63565   0.63709   0.63764   0.63935
 Alpha virt. eigenvalues --    0.64114   0.64151   0.64245   0.64339   0.64448
 Alpha virt. eigenvalues --    0.64542   0.64716   0.64787   0.64896   0.65121
 Alpha virt. eigenvalues --    0.65162   0.65228   0.65291   0.65475   0.65502
 Alpha virt. eigenvalues --    0.65755   0.65807   0.66018   0.66148   0.66375
 Alpha virt. eigenvalues --    0.66433   0.66481   0.66696   0.66753   0.66896
 Alpha virt. eigenvalues --    0.66999   0.67105   0.67326   0.67475   0.67549
 Alpha virt. eigenvalues --    0.67664   0.67725   0.67833   0.67932   0.67936
 Alpha virt. eigenvalues --    0.68155   0.68202   0.68299   0.68474   0.68661
 Alpha virt. eigenvalues --    0.68734   0.68869   0.69089   0.69187   0.69278
 Alpha virt. eigenvalues --    0.69363   0.69465   0.69639   0.69745   0.69803
 Alpha virt. eigenvalues --    0.69979   0.70031   0.70234   0.70378   0.70528
 Alpha virt. eigenvalues --    0.70603   0.70682   0.70875   0.71063   0.71264
 Alpha virt. eigenvalues --    0.71378   0.71686   0.71737   0.71788   0.71952
 Alpha virt. eigenvalues --    0.72055   0.72241   0.72354   0.72479   0.72502
 Alpha virt. eigenvalues --    0.72620   0.72798   0.73047   0.73161   0.73358
 Alpha virt. eigenvalues --    0.73558   0.73683   0.73801   0.74114   0.74262
 Alpha virt. eigenvalues --    0.74309   0.74382   0.74563   0.74849   0.75215
 Alpha virt. eigenvalues --    0.75281   0.75512   0.75811   0.76064   0.76137
 Alpha virt. eigenvalues --    0.76275   0.76340   0.76782   0.76823   0.76947
 Alpha virt. eigenvalues --    0.77111   0.77278   0.77640   0.77965   0.78240
 Alpha virt. eigenvalues --    0.78380   0.78718   0.79103   0.79288   0.79378
 Alpha virt. eigenvalues --    0.79547   0.79638   0.79933   0.80005   0.80499
 Alpha virt. eigenvalues --    0.80636   0.80765   0.80949   0.81530   0.81568
 Alpha virt. eigenvalues --    0.81917   0.82225   0.82773   0.83014   0.83162
 Alpha virt. eigenvalues --    0.83504   0.83976   0.84126   0.84401   0.84580
 Alpha virt. eigenvalues --    0.84933   0.85304   0.85463   0.85772   0.86006
 Alpha virt. eigenvalues --    0.86402   0.86489   0.87014   0.87168   0.87589
 Alpha virt. eigenvalues --    0.88024   0.88277   0.88649   0.88815   0.89232
 Alpha virt. eigenvalues --    0.89534   0.89898   0.90261   0.90454   0.90611
 Alpha virt. eigenvalues --    0.90894   0.91476   0.91662   0.91988   0.92083
 Alpha virt. eigenvalues --    0.92550   0.92722   0.92953   0.93052   0.93378
 Alpha virt. eigenvalues --    0.93746   0.93835   0.94117   0.94454   0.94570
 Alpha virt. eigenvalues --    0.94928   0.95237   0.95635   0.95927   0.96023
 Alpha virt. eigenvalues --    0.96314   0.96455   0.96756   0.97170   0.97237
 Alpha virt. eigenvalues --    0.97605   0.97954   0.98232   0.98523   0.98789
 Alpha virt. eigenvalues --    0.98924   0.99081   0.99576   0.99801   1.00283
 Alpha virt. eigenvalues --    1.00580   1.00719   1.01069   1.01407   1.01541
 Alpha virt. eigenvalues --    1.02042   1.02419   1.02499   1.02748   1.02924
 Alpha virt. eigenvalues --    1.03511   1.03666   1.03722   1.04076   1.04202
 Alpha virt. eigenvalues --    1.04944   1.05159   1.05624   1.05991   1.06130
 Alpha virt. eigenvalues --    1.06407   1.06742   1.07077   1.07447   1.07565
 Alpha virt. eigenvalues --    1.07659   1.08061   1.08376   1.08649   1.08776
 Alpha virt. eigenvalues --    1.08996   1.09298   1.09418   1.10051   1.10329
 Alpha virt. eigenvalues --    1.10657   1.11089   1.11228   1.11385   1.11744
 Alpha virt. eigenvalues --    1.12008   1.12323   1.12477   1.12649   1.12922
 Alpha virt. eigenvalues --    1.13209   1.13258   1.13666   1.14404   1.14537
 Alpha virt. eigenvalues --    1.14665   1.14888   1.15175   1.15481   1.15606
 Alpha virt. eigenvalues --    1.16203   1.16389   1.16837   1.17103   1.17149
 Alpha virt. eigenvalues --    1.17412   1.17737   1.17916   1.18252   1.18611
 Alpha virt. eigenvalues --    1.18982   1.19027   1.19362   1.19547   1.19605
 Alpha virt. eigenvalues --    1.19769   1.19968   1.20340   1.20502   1.21110
 Alpha virt. eigenvalues --    1.21236   1.21539   1.21748   1.21873   1.22203
 Alpha virt. eigenvalues --    1.22461   1.22703   1.22882   1.23246   1.23735
 Alpha virt. eigenvalues --    1.23912   1.24094   1.24298   1.24692   1.24874
 Alpha virt. eigenvalues --    1.25432   1.25802   1.26114   1.26320   1.26416
 Alpha virt. eigenvalues --    1.26599   1.26761   1.27171   1.27381   1.27689
 Alpha virt. eigenvalues --    1.27941   1.28044   1.28297   1.28410   1.28957
 Alpha virt. eigenvalues --    1.29009   1.29167   1.29777   1.29873   1.30276
 Alpha virt. eigenvalues --    1.30422   1.30537   1.30942   1.31305   1.31596
 Alpha virt. eigenvalues --    1.31798   1.31911   1.32395   1.32518   1.32720
 Alpha virt. eigenvalues --    1.32925   1.33057   1.33223   1.33339   1.33737
 Alpha virt. eigenvalues --    1.34183   1.34444   1.34701   1.34889   1.34966
 Alpha virt. eigenvalues --    1.35197   1.35614   1.35834   1.36234   1.36361
 Alpha virt. eigenvalues --    1.36807   1.37482   1.37673   1.37928   1.38241
 Alpha virt. eigenvalues --    1.38721   1.38864   1.39053   1.39305   1.39492
 Alpha virt. eigenvalues --    1.39825   1.40135   1.40206   1.40804   1.40980
 Alpha virt. eigenvalues --    1.41168   1.41632   1.41976   1.42297   1.42805
 Alpha virt. eigenvalues --    1.43072   1.43349   1.43670   1.43971   1.44325
 Alpha virt. eigenvalues --    1.44420   1.44442   1.44781   1.45277   1.45670
 Alpha virt. eigenvalues --    1.46025   1.46196   1.46682   1.46788   1.46850
 Alpha virt. eigenvalues --    1.47737   1.47902   1.48280   1.48604   1.48660
 Alpha virt. eigenvalues --    1.49007   1.49083   1.49571   1.49737   1.50039
 Alpha virt. eigenvalues --    1.50404   1.50562   1.50969   1.51330   1.51455
 Alpha virt. eigenvalues --    1.51740   1.52068   1.52681   1.52695   1.52858
 Alpha virt. eigenvalues --    1.53026   1.53597   1.53790   1.54001   1.54119
 Alpha virt. eigenvalues --    1.54360   1.54617   1.54798   1.55171   1.55563
 Alpha virt. eigenvalues --    1.55706   1.55815   1.56247   1.56429   1.56726
 Alpha virt. eigenvalues --    1.57232   1.57643   1.58106   1.58644   1.59238
 Alpha virt. eigenvalues --    1.59478   1.59556   1.60143   1.60634   1.60995
 Alpha virt. eigenvalues --    1.61229   1.61530   1.61792   1.61925   1.62355
 Alpha virt. eigenvalues --    1.62377   1.62554   1.63367   1.63816   1.64003
 Alpha virt. eigenvalues --    1.64291   1.65007   1.65321   1.65543   1.65684
 Alpha virt. eigenvalues --    1.65922   1.66345   1.66848   1.67224   1.67303
 Alpha virt. eigenvalues --    1.67601   1.67894   1.68101   1.68387   1.68598
 Alpha virt. eigenvalues --    1.69049   1.69233   1.69651   1.69743   1.70073
 Alpha virt. eigenvalues --    1.70322   1.70505   1.70805   1.71034   1.71422
 Alpha virt. eigenvalues --    1.71537   1.71709   1.71912   1.72147   1.72207
 Alpha virt. eigenvalues --    1.72324   1.72661   1.72788   1.72937   1.73379
 Alpha virt. eigenvalues --    1.73459   1.73680   1.73839   1.74418   1.74505
 Alpha virt. eigenvalues --    1.74620   1.74818   1.74954   1.75005   1.75167
 Alpha virt. eigenvalues --    1.75307   1.75606   1.75626   1.75812   1.76071
 Alpha virt. eigenvalues --    1.76258   1.76504   1.76635   1.76891   1.76927
 Alpha virt. eigenvalues --    1.77325   1.77757   1.77950   1.78059   1.78255
 Alpha virt. eigenvalues --    1.78337   1.78485   1.78628   1.78655   1.78811
 Alpha virt. eigenvalues --    1.79065   1.79185   1.79634   1.79747   1.79830
 Alpha virt. eigenvalues --    1.79972   1.80219   1.80340   1.80569   1.80775
 Alpha virt. eigenvalues --    1.81097   1.81198   1.81283   1.81453   1.81836
 Alpha virt. eigenvalues --    1.81877   1.82001   1.82080   1.82163   1.82445
 Alpha virt. eigenvalues --    1.82633   1.82742   1.82864   1.83011   1.83112
 Alpha virt. eigenvalues --    1.83456   1.83580   1.83799   1.83987   1.84094
 Alpha virt. eigenvalues --    1.84203   1.84368   1.84455   1.84854   1.85010
 Alpha virt. eigenvalues --    1.85281   1.85588   1.85862   1.85899   1.86060
 Alpha virt. eigenvalues --    1.86264   1.86463   1.86834   1.86938   1.87050
 Alpha virt. eigenvalues --    1.87334   1.87516   1.87629   1.87775   1.87909
 Alpha virt. eigenvalues --    1.88233   1.88400   1.88564   1.88786   1.88920
 Alpha virt. eigenvalues --    1.89160   1.89429   1.89636   1.89860   1.90075
 Alpha virt. eigenvalues --    1.90278   1.90423   1.90573   1.90828   1.90926
 Alpha virt. eigenvalues --    1.91278   1.91552   1.91592   1.92049   1.92209
 Alpha virt. eigenvalues --    1.92423   1.92502   1.92809   1.92984   1.93301
 Alpha virt. eigenvalues --    1.93488   1.93684   1.94119   1.94263   1.94678
 Alpha virt. eigenvalues --    1.94887   1.95015   1.95185   1.95665   1.95725
 Alpha virt. eigenvalues --    1.95932   1.96140   1.96313   1.96718   1.96814
 Alpha virt. eigenvalues --    1.96876   1.97143   1.97340   1.97543   1.97725
 Alpha virt. eigenvalues --    1.98091   1.98653   1.99067   1.99183   1.99283
 Alpha virt. eigenvalues --    1.99392   1.99522   1.99634   1.99835   1.99947
 Alpha virt. eigenvalues --    2.00236   2.00291   2.00401   2.00712   2.01001
 Alpha virt. eigenvalues --    2.01177   2.01267   2.01522   2.01617   2.02004
 Alpha virt. eigenvalues --    2.02227   2.02621   2.02700   2.03102   2.03467
 Alpha virt. eigenvalues --    2.03910   2.04172   2.04249   2.04623   2.04881
 Alpha virt. eigenvalues --    2.05027   2.05194   2.05335   2.06050   2.06234
 Alpha virt. eigenvalues --    2.06299   2.06608   2.06696   2.07049   2.07136
 Alpha virt. eigenvalues --    2.07497   2.07684   2.07830   2.08523   2.08716
 Alpha virt. eigenvalues --    2.08991   2.09057   2.09268   2.09534   2.09821
 Alpha virt. eigenvalues --    2.10248   2.10489   2.10529   2.10784   2.11004
 Alpha virt. eigenvalues --    2.11171   2.11613   2.11975   2.12344   2.12613
 Alpha virt. eigenvalues --    2.12789   2.13473   2.14049   2.14236   2.14387
 Alpha virt. eigenvalues --    2.14531   2.14988   2.15135   2.15373   2.15894
 Alpha virt. eigenvalues --    2.16451   2.16605   2.16724   2.16850   2.17067
 Alpha virt. eigenvalues --    2.17275   2.17647   2.17876   2.18076   2.18166
 Alpha virt. eigenvalues --    2.18515   2.18577   2.18957   2.19420   2.19428
 Alpha virt. eigenvalues --    2.19710   2.20134   2.20268   2.20468   2.20872
 Alpha virt. eigenvalues --    2.21054   2.21141   2.21358   2.21588   2.22180
 Alpha virt. eigenvalues --    2.22458   2.22802   2.23725   2.24025   2.24265
 Alpha virt. eigenvalues --    2.24559   2.24681   2.24983   2.25284   2.25681
 Alpha virt. eigenvalues --    2.25745   2.26304   2.26480   2.26942   2.27085
 Alpha virt. eigenvalues --    2.27450   2.28044   2.28311   2.28562   2.28957
 Alpha virt. eigenvalues --    2.29333   2.29806   2.30247   2.30849   2.30969
 Alpha virt. eigenvalues --    2.31399   2.31603   2.32282   2.32884   2.33041
 Alpha virt. eigenvalues --    2.33270   2.33505   2.33961   2.34207   2.34281
 Alpha virt. eigenvalues --    2.34759   2.35030   2.35469   2.35552   2.36001
 Alpha virt. eigenvalues --    2.36372   2.36579   2.36720   2.36953   2.37295
 Alpha virt. eigenvalues --    2.37419   2.37581   2.38088   2.38681   2.39350
 Alpha virt. eigenvalues --    2.39607   2.39733   2.40024   2.40706   2.40758
 Alpha virt. eigenvalues --    2.41154   2.41355   2.41660   2.41837   2.41901
 Alpha virt. eigenvalues --    2.42305   2.42355   2.42863   2.43319   2.44059
 Alpha virt. eigenvalues --    2.44461   2.44596   2.44711   2.44972   2.45613
 Alpha virt. eigenvalues --    2.45999   2.46112   2.46480   2.47056   2.47320
 Alpha virt. eigenvalues --    2.47675   2.47919   2.48253   2.48770   2.49388
 Alpha virt. eigenvalues --    2.49523   2.49809   2.50137   2.50740   2.50899
 Alpha virt. eigenvalues --    2.51206   2.51268   2.51878   2.51898   2.52173
 Alpha virt. eigenvalues --    2.52748   2.52887   2.53017   2.53228   2.53400
 Alpha virt. eigenvalues --    2.53622   2.53795   2.54127   2.54736   2.55351
 Alpha virt. eigenvalues --    2.55471   2.55574   2.56014   2.56347   2.56877
 Alpha virt. eigenvalues --    2.56920   2.57627   2.57669   2.58138   2.58511
 Alpha virt. eigenvalues --    2.58840   2.59166   2.59198   2.59859   2.60012
 Alpha virt. eigenvalues --    2.60589   2.60865   2.60926   2.61163   2.61541
 Alpha virt. eigenvalues --    2.61628   2.61791   2.62052   2.63332   2.63745
 Alpha virt. eigenvalues --    2.63871   2.64187   2.64714   2.65392   2.65715
 Alpha virt. eigenvalues --    2.65887   2.66127   2.66255   2.66630   2.67048
 Alpha virt. eigenvalues --    2.67437   2.67609   2.67701   2.67772   2.68336
 Alpha virt. eigenvalues --    2.68878   2.69028   2.69594   2.69783   2.70122
 Alpha virt. eigenvalues --    2.70275   2.70969   2.71110   2.71198   2.71391
 Alpha virt. eigenvalues --    2.71914   2.72004   2.72186   2.72398   2.72475
 Alpha virt. eigenvalues --    2.73036   2.73115   2.73381   2.73601   2.74037
 Alpha virt. eigenvalues --    2.74118   2.74167   2.74328   2.74409   2.75025
 Alpha virt. eigenvalues --    2.75351   2.75543   2.75829   2.76065   2.76215
 Alpha virt. eigenvalues --    2.76679   2.76788   2.77151   2.77292   2.77560
 Alpha virt. eigenvalues --    2.77766   2.77860   2.78226   2.78535   2.78663
 Alpha virt. eigenvalues --    2.79075   2.79136   2.79357   2.80028   2.80252
 Alpha virt. eigenvalues --    2.80372   2.80459   2.80637   2.81042   2.81271
 Alpha virt. eigenvalues --    2.81900   2.81984   2.82475   2.82808   2.83000
 Alpha virt. eigenvalues --    2.83254   2.83875   2.83934   2.84410   2.84655
 Alpha virt. eigenvalues --    2.84741   2.85074   2.85297   2.85314   2.85516
 Alpha virt. eigenvalues --    2.85764   2.86189   2.86545   2.86630   2.87410
 Alpha virt. eigenvalues --    2.87543   2.88300   2.88553   2.88629   2.88757
 Alpha virt. eigenvalues --    2.88971   2.89627   2.89935   2.90194   2.90523
 Alpha virt. eigenvalues --    2.90816   2.91100   2.91243   2.91532   2.91825
 Alpha virt. eigenvalues --    2.92122   2.92460   2.92585   2.93061   2.93275
 Alpha virt. eigenvalues --    2.93504   2.93702   2.94006   2.94116   2.94243
 Alpha virt. eigenvalues --    2.94898   2.95100   2.95358   2.95461   2.95986
 Alpha virt. eigenvalues --    2.96394   2.96835   2.97471   2.97720   2.98050
 Alpha virt. eigenvalues --    2.98518   2.98980   2.99932   3.00103   3.00453
 Alpha virt. eigenvalues --    3.00749   3.01249   3.01578   3.01811   3.02252
 Alpha virt. eigenvalues --    3.02597   3.02957   3.03252   3.03488   3.03804
 Alpha virt. eigenvalues --    3.04326   3.04811   3.05261   3.05491   3.05829
 Alpha virt. eigenvalues --    3.05991   3.06387   3.06575   3.06956   3.07255
 Alpha virt. eigenvalues --    3.07609   3.08072   3.08806   3.08865   3.09086
 Alpha virt. eigenvalues --    3.09801   3.10302   3.10850   3.10967   3.11097
 Alpha virt. eigenvalues --    3.11278   3.12021   3.13338   3.13499   3.13787
 Alpha virt. eigenvalues --    3.14374   3.14760   3.14954   3.15286   3.15728
 Alpha virt. eigenvalues --    3.16338   3.16720   3.16977   3.17250   3.17547
 Alpha virt. eigenvalues --    3.17877   3.18295   3.18446   3.18885   3.19174
 Alpha virt. eigenvalues --    3.19680   3.19885   3.20406   3.20732   3.21059
 Alpha virt. eigenvalues --    3.21874   3.21951   3.22810   3.22970   3.23467
 Alpha virt. eigenvalues --    3.23765   3.24084   3.24658   3.25205   3.25651
 Alpha virt. eigenvalues --    3.26037   3.26233   3.27247   3.28123   3.28586
 Alpha virt. eigenvalues --    3.29078   3.29494   3.30029   3.30327   3.31074
 Alpha virt. eigenvalues --    3.31170   3.31683   3.31895   3.32525   3.33233
 Alpha virt. eigenvalues --    3.34420   3.34842   3.37150   3.38930   3.39850
 Alpha virt. eigenvalues --    3.40015   3.40318   3.45175   3.50621   3.51869
 Alpha virt. eigenvalues --    3.52084   3.54500   3.54806   3.55097   3.55503
 Alpha virt. eigenvalues --    3.56277   3.58053   3.58942   3.59890   3.61975
 Alpha virt. eigenvalues --    3.62343   3.62969   3.63759   3.65063   3.65536
 Alpha virt. eigenvalues --    3.65904   3.66933   3.67088   3.68107   3.68577
 Alpha virt. eigenvalues --    3.69552   3.70379   3.70616   3.70982   3.71324
 Alpha virt. eigenvalues --    3.71491   3.71785   3.72296   3.72608   3.73059
 Alpha virt. eigenvalues --    3.73454   3.73709   3.73877   3.74331   3.75371
 Alpha virt. eigenvalues --    3.76716   3.78202   3.79189   3.79724
          Condensed to atoms (all electrons):
 Mulliken charges:
               1
     1  C    0.067870
     2  C    0.008393
     3  O   -0.293128
     4  H   -0.010155
     5  H    0.031924
     6  H    0.046665
     7  N   -0.121625
     8  C    0.132504
     9  C    0.053550
    10  O   -0.292503
    11  C    0.029033
    12  C    0.174315
    13  O   -0.383757
    14  O   -0.455723
    15  H    0.113686
    16  H   -0.000788
    17  H    0.001622
    18  H    0.009460
    19  N   -0.143886
    20  C    0.157070
    21  C    0.041870
    22  O   -0.313358
    23  C   -0.010566
    24  C    0.046919
    25  C   -0.065898
    26  C    0.019363
    27  N    0.092466
    28  H    0.153529
    29  H    0.012099
    30  H    0.045019
    31  H    0.030511
    32  H    0.011142
    33  H    0.023063
    34  H    0.010199
    35  H    0.032830
    36  H    0.067436
    37  H    0.087358
    38  H    0.188433
    39  H    0.199242
    40  H    0.191069
    41  N   -0.136766
    42  C    0.167765
    43  C    0.031621
    44  O   -0.289453
    45  C    0.076085
    46  C    0.094678
    47  O   -0.462104
    48  O   -0.378878
    49  H    0.150390
    50  H    0.019148
    51  H   -0.005979
    52  H    0.012296
    53  N   -0.154307
    54  C    0.230543
    55  C    0.049300
    56  O   -0.303074
    57  H    0.121286
    58  H    0.013800
    59  H    0.039299
    60  N   -0.145415
    61  C    0.131829
    62  C    0.050025
    63  O   -0.291416
    64  C    0.108570
    65  C    0.046066
    66  N   -0.035179
    67  O   -0.340096
    68  H    0.161493
    69  H    0.020043
    70  H    0.062365
    71  H   -0.010150
    72  H    0.133279
    73  H    0.116910
    74  N   -0.198679
    75  C    0.252369
    76  C    0.029145
    77  O   -0.297526
    78  H    0.159344
    79  H    0.030155
    80  H    0.034459
    81  N   -0.155046
    82  C    0.126702
    83  C    0.117100
    84  O   -0.325588
    85  C    0.163587
    86  C   -0.028051
    87  C   -0.005398
    88  C   -0.003449
    89  C   -0.039820
    90  C   -0.066563
    91  C    0.234777
    92  O   -0.212047
    93  H    0.151983
    94  H   -0.005650
    95  H   -0.025246
    96  H   -0.065952
    97  H   -0.039797
    98  H   -0.021661
    99  H   -0.035310
   100  H   -0.031027
   101  H    0.183738
   102  N   -0.108062
   103  C    0.138107
   104  C    0.094980
   105  O   -0.297666
   106  C   -0.093858
   107  C    0.012409
   108  C    0.010467
   109  C    0.049689
   110  H    0.120164
   111  H    0.039594
   112  H   -0.016894
   113  H   -0.000363
   114  H    0.022976
   115  H    0.035545
   116  H   -0.006528
   117  H    0.002588
   118  H   -0.000921
   119  H    0.004823
   120  H    0.001640
   121  N   -0.151306
   122  C    0.068713
   123  C    0.121083
   124  O   -0.257101
   125  C    0.210650
   126  O   -0.289554
   127  H    0.166887
   128  H    0.039513
   129  H    0.001346
   130  H   -0.022331
   131  H    0.166680
   132  N   -0.130373
   133  C    0.079646
   134  C    0.073536
   135  O   -0.238457
   136  C    0.041943
   137  H    0.119606
   138  H    0.028242
   139  H   -0.005693
   140  H    0.039005
   141  H    0.038355
   142  N   -0.116873
   143  C    0.110893
   144  C    0.086457
   145  O   -0.275058
   146  C   -0.000629
   147  H    0.100225
   148  H    0.013813
   149  H    0.001276
   150  H    0.022860
   151  H    0.027425
   152  N   -0.160264
   153  C    0.142008
   154  C    0.062249
   155  O   -0.285357
   156  C   -0.081191
   157  C    0.146596
   158  C    0.085068
   159  O   -0.400459
   160  O   -0.403312
   161  H    0.119028
   162  H   -0.040750
   163  H    0.057795
   164  H   -0.000254
   165  H   -0.050975
   166  H   -0.021914
   167  N   -0.153867
   168  C    0.153252
   169  H    0.024626
   170  H    0.015975
   171  H    0.012660
   172  H    0.135549
   173  Ca   1.280957
   174  O   -0.278230
   175  H    0.175969
   176  H    0.187602
 Sum of Mulliken charges =  -0.00000
 Mulliken charges with hydrogens summed into heavy atoms:
               1
     1  C    0.136303
     2  C    0.008393
     3  O   -0.293128
     7  N   -0.007939
     8  C    0.131716
     9  C    0.053550
    10  O   -0.292503
    11  C    0.040115
    12  C    0.174315
    13  O   -0.383757
    14  O   -0.455723
    19  N    0.009643
    20  C    0.169168
    21  C    0.041870
    22  O   -0.313358
    23  C    0.064964
    24  C    0.081124
    25  C   -0.022870
    26  C    0.174157
    27  N    0.671210
    41  N    0.013624
    42  C    0.186913
    43  C    0.031621
    44  O   -0.289453
    45  C    0.082402
    46  C    0.094678
    47  O   -0.462104
    48  O   -0.378878
    53  N   -0.033021
    54  C    0.283642
    55  C    0.049300
    56  O   -0.303074
    60  N    0.016077
    61  C    0.151872
    62  C    0.050025
    63  O   -0.291416
    64  C    0.160784
    65  C    0.046066
    66  N    0.215009
    67  O   -0.340096
    74  N   -0.039335
    75  C    0.316983
    76  C    0.029145
    77  O   -0.297526
    81  N   -0.003063
    82  C    0.121052
    83  C    0.117100
    84  O   -0.325588
    85  C    0.072389
    86  C   -0.028051
    87  C   -0.045196
    88  C   -0.025110
    89  C   -0.075130
    90  C   -0.097590
    91  C    0.234777
    92  O   -0.028309
   102  N    0.012102
   103  C    0.177701
   104  C    0.094980
   105  O   -0.297666
   106  C   -0.110752
   107  C    0.035021
   108  C    0.042071
   109  C    0.055232
   121  N    0.015581
   122  C    0.108226
   123  C    0.121083
   124  O   -0.257101
   125  C    0.189665
   126  O   -0.122874
   132  N   -0.010767
   133  C    0.107888
   134  C    0.073536
   135  O   -0.238457
   136  C    0.113609
   142  N   -0.016648
   143  C    0.124707
   144  C    0.086457
   145  O   -0.275058
   146  C    0.050932
   152  N   -0.041236
   153  C    0.101258
   154  C    0.062249
   155  O   -0.285357
   156  C   -0.023649
   157  C    0.073706
   158  C    0.085068
   159  O   -0.400459
   160  O   -0.403312
   167  N   -0.018318
   168  C    0.206513
   173  Ca   1.280957
   174  O    0.085341
 DipInt: DoE/N= T F RetVal/Mat= T F Init=T NMatP=  1 IDeriv=0 Min/MaxMlt=  0  4
 Entering OneElI...
 OneElI was handed  1333951383 working-precision words.
 Multipole integrals L=0 to 4 MinM= 0 MaxM= 0.
 Requested accuracy = 0.1000D-12
 ShPair: Thresh= 1.00D-13 NBox=     0 BxSize= 0.00D+00 RnKept= 2.55D+01
         NSMCal=               327645 NSMKep=              160497
 PrmmSu-InSpLW:  IPartL=    0 NPrtUS=    1 NPrtUL=    1 DoSpLW=F IThBeg=    0 IThEnd=    0 NThAct=    1.
 PrsmSu:  NPrtUS=   1 ThrOK=F IAlg=1 NPAlg=1 LenDen=           0 ISkipM=0 DoSpLW=F IThBeg=    0 IThEnd=    0.
 Prism:   IPart=     0 DynPar=F LinDyn=F Incr=         512.
 PRISM was handed  1323882893 working-precision words and160497 shell-pairs
 IPart=  0 NShTot=      160497 NBatch=         366 AvBLen=       438.5
 PrsmSu-ThDecC:  IPartSL=    0    0 NPrtUSL=    1    1 IThBeg=    0 IThEnd=    0 CPU=   -1 GPU=   -1 NThAct=    1.
 PrSmSu:  NxtVal=            513.
 Electronic moments (au):
       -716.00000000         13.80855371         -1.30471754         -6.60445612
     -54791.79451122     -29838.62696806     -11507.23625172         98.42297225
        -44.62081926         21.07123793     -33992.55441673     -15597.39092522
     -25854.81061510      13665.58551865      96395.55625411      53809.78017818
     -14183.80751768      -4678.72129596      23039.07149570      -7866.64229882
   -8292688.67988876   -2651087.80458356    -582383.09981724    -230338.19517000
     262533.65730554    -498091.39591857      33358.97759265     -82900.25197243
      -4439.23338336   -2455213.03623693    -610303.08503747    -305911.45469223
    -186866.79388701      46602.29709160      42217.91571231
 Electronic spatial extent (au):  <R**2>=          96137.6577
 DipInt: DoE/N= F T RetVal/Mat= T F Init=T NMatP=  1 IDeriv=0 Min/MaxMlt=  0  4
 Nuclear    moments (au):
        716.00000000          0.00000000          0.00000000          0.00000000
      54389.96111504      29481.67181031      11126.58861634          0.00000000
          0.00000000         -0.00000000      35983.78020844      16207.69050044
      25808.09490685     -11583.25429158     -95543.37614137     -55073.92805387
      14426.26670209       4476.57341640     -23474.69838785       7451.66198283
    8100560.28006131    2554429.73036628     544334.54477911     250261.11428551
    -267843.10914186     510236.58494892     -34798.18042717      82438.46437963
       6640.01447408    2422814.33509770     576518.83731185     282761.46601104
     184987.86377978     -52672.49317084     -41387.03151917
 Total      moments (au):
         -0.00000000         13.80855371         -1.30471754         -6.60445612
       -401.83339618       -356.95515774       -380.64763538         98.42297225
        -44.62081926         21.07123793       1991.22579171        610.29957522
        -46.71570826       2082.33122707        852.18011273      -1264.14787569
        242.45918441       -202.14787956       -435.62689214       -414.98031600
    -192128.39982746     -96658.07421729     -38048.55503813      19922.91911551
      -5309.45183632      12145.18903035      -1439.20283452       -461.78759281
       2200.78109072     -32398.70113922     -33784.24772562     -23149.98868119
      -1878.93010723      -6070.19607924        830.88419314
 Traceless Quadrup. (au):
        -22.02133308         22.85690536         -0.83557228         98.42297225
        -44.62081926         21.07123793
 Charge=             -0.0000 electrons
 Dipole moment (field-independent basis, Debye):
    X=             35.0978    Y=             -3.3163    Z=            -16.7869  Tot=             39.0468
 Quadrupole moment (field-independent basis, Debye-Ang):
   XX=           -540.4797   YY=           -480.1169   ZZ=           -511.9841
   XY=            132.3823   XZ=            -60.0165   YZ=             28.3415
 Traceless Quadrupole moment (field-independent basis, Debye-Ang):
   XX=            -29.6194   YY=             30.7433   ZZ=             -1.1239
   XY=            132.3823   XZ=            -60.0165   YZ=             28.3415
 Octapole moment (field-independent basis, Debye-Ang**2):
  XXX=           1417.2778  YYY=            434.3877  ZZZ=            -33.2504  XYY=           1482.1231
  XXY=            606.5490  XXZ=           -899.7718  XZZ=            172.5731  YZZ=           -143.8811
  YYZ=           -310.0624  XYZ=           -295.3670
 Hexadecapole moment (field-independent basis, Debye-Ang**3):
 XXXX=         -72364.7682 YYYY=         -36406.0657 ZZZZ=         -14330.9103 XXXY=           7503.9267
 XXXZ=          -1999.7942 YYYX=           4574.4606 YYYZ=           -542.0728 ZZZX=           -173.9314
 ZZZY=            828.9197 XXYY=         -12202.9044 XXZZ=         -12724.7677 YYZZ=          -8719.3958
 XXYZ=           -707.6952 YYXZ=          -2286.3269 ZZXY=            312.9508
 N-N= 2.164647234289D+04 E-N=-5.577723798962D+04  KE= 5.290351085117D+03
 Leave Link  601 at Sat Sep 14 23:56:55 2019, MaxMem=  1342177280 cpu:              42.2 elap:               1.1
 FitSet:  NAtFit=   176 NAtPot=   176 NAtFrz=     0 MDM=   180 TotChg=   0.00000
 Merz-Kollman atomic radii used.
 Read replacement radii for each type of atom:
 Rad(20) =   1.700000000000D+00
 Atom Element Radius
    1     6    1.50
    2     6    1.50
    3     8    1.40
    4     1    1.20
    5     1    1.20
    6     1    1.20
    7     7    1.50
    8     6    1.50
    9     6    1.50
   10     8    1.40
   11     6    1.50
   12     6    1.50
   13     8    1.40
   14     8    1.40
   15     1    1.20
   16     1    1.20
   17     1    1.20
   18     1    1.20
   19     7    1.50
   20     6    1.50
   21     6    1.50
   22     8    1.40
   23     6    1.50
   24     6    1.50
   25     6    1.50
   26     6    1.50
   27     7    1.50
   28     1    1.20
   29     1    1.20
   30     1    1.20
   31     1    1.20
   32     1    1.20
   33     1    1.20
   34     1    1.20
   35     1    1.20
   36     1    1.20
   37     1    1.20
   38     1    1.20
   39     1    1.20
   40     1    1.20
   41     7    1.50
   42     6    1.50
   43     6    1.50
   44     8    1.40
   45     6    1.50
   46     6    1.50
   47     8    1.40
   48     8    1.40
   49     1    1.20
   50     1    1.20
   51     1    1.20
   52     1    1.20
   53     7    1.50
   54     6    1.50
   55     6    1.50
   56     8    1.40
   57     1    1.20
   58     1    1.20
   59     1    1.20
   60     7    1.50
   61     6    1.50
   62     6    1.50
   63     8    1.40
   64     6    1.50
   65     6    1.50
   66     7    1.50
   67     8    1.40
   68     1    1.20
   69     1    1.20
   70     1    1.20
   71     1    1.20
   72     1    1.20
   73     1    1.20
   74     7    1.50
   75     6    1.50
   76     6    1.50
   77     8    1.40
   78     1    1.20
   79     1    1.20
   80     1    1.20
   81     7    1.50
   82     6    1.50
   83     6    1.50
   84     8    1.40
   85     6    1.50
   86     6    1.50
   87     6    1.50
   88     6    1.50
   89     6    1.50
   90     6    1.50
   91     6    1.50
   92     8    1.40
   93     1    1.20
   94     1    1.20
   95     1    1.20
   96     1    1.20
   97     1    1.20
   98     1    1.20
   99     1    1.20
  100     1    1.20
  101     1    1.20
  102     7    1.50
  103     6    1.50
  104     6    1.50
  105     8    1.40
  106     6    1.50
  107     6    1.50
  108     6    1.50
  109     6    1.50
  110     1    1.20
  111     1    1.20
  112     1    1.20
  113     1    1.20
  114     1    1.20
  115     1    1.20
  116     1    1.20
  117     1    1.20
  118     1    1.20
  119     1    1.20
  120     1    1.20
  121     7    1.50
  122     6    1.50
  123     6    1.50
  124     8    1.40
  125     6    1.50
  126     8    1.40
  127     1    1.20
  128     1    1.20
  129     1    1.20
  130     1    1.20
  131     1    1.20
  132     7    1.50
  133     6    1.50
  134     6    1.50
  135     8    1.40
  136     6    1.50
  137     1    1.20
  138     1    1.20
  139     1    1.20
  140     1    1.20
  141     1    1.20
  142     7    1.50
  143     6    1.50
  144     6    1.50
  145     8    1.40
  146     6    1.50
  147     1    1.20
  148     1    1.20
  149     1    1.20
  150     1    1.20
  151     1    1.20
  152     7    1.50
  153     6    1.50
  154     6    1.50
  155     8    1.40
  156     6    1.50
  157     6    1.50
  158     6    1.50
  159     8    1.40
  160     8    1.40
  161     1    1.20
  162     1    1.20
  163     1    1.20
  164     1    1.20
  165     1    1.20
  166     1    1.20
  167     7    1.50
  168     6    1.50
  169     1    1.20
  170     1    1.20
  171     1    1.20
  172     1    1.20
  173    20    1.70
  174     8    1.40
[...]
 **** Fit       0.008846
 **** Fit       0.008939
 **** Fit      -0.015434
 **** Fit      -0.006964
 **** Fit       0.001116
 **** Fit       0.008118
 **** Fit       0.013286
 **** Fit       0.015972
 **** Fit      -0.002812
 **** Fit       0.007248
 **** Fit       0.015230
 **** Fit       0.020248
 **** Fit       0.033568
 **** Fit       0.031350
 **** Fit       0.029802
 **** Fit      -0.006912
 **** Fit       0.027938
 **** Fit       0.024749
 **** Fit       0.019778
 **** Fit       0.012494
 **** Fit       0.003719
 **** Fit      -0.004196
 **** Fit      -0.007748
 **** Fit       0.023479
 **** Fit       0.018016
 **** Fit       0.010845
 **** Fit       0.004646
 **** Fit       0.004067
 **** Fit       0.010989
 **** Fit       0.021336
 **** Fit       0.023726
 **** Fit       0.018004
 **** Fit       0.012635
 **** Fit       0.015588
 **** Fit       0.023589
 **** Fit       0.019826
 **** Fit       0.037584
 **** Fit       0.013052
 **** Fit       0.001043
 **** Fit       0.009444
 **** Fit       0.023015
 **** Fit       0.022979
 **** Fit       0.010754
 **** Fit      -0.022357
 **** Fit      -0.032684
 **** Fit      -0.016713
 **** Fit      -0.025580
 **** Fit      -0.036961
 **** Fit      -0.009529
 **** Fit      -0.017760
 **** Fit      -0.027932
 **** Fit      -0.041164
 **** Fit      -0.016129
 **** Fit      -0.027552
 **** Fit      -0.000135
 **** Fit      -0.007060
 **** Fit      -0.023857
 **** Fit      -0.015072
 **** Fit       0.055765
 **** Fit       0.031515
 **** Fit       0.032992
 **** Fit       0.027821
 **** Fit       0.031287
 **** Fit       0.035606
 **** Fit       0.030050
 **** Fit       0.027255
 **** Fit       0.032401
 **** Fit       0.039471
 **** Fit       0.033773
 **** Fit       0.052409
 **** Fit       0.042939
 **** Fit       0.048686
 **** Fit       0.051934
 **** Fit       0.035776
 **** Fit       0.039611
 **** Fit       0.042453
 **** Fit       0.042268
 **** Fit       0.037806
 **** Fit       0.029296
 **** Fit       0.017830
 **** Fit       0.004568
 **** Fit      -0.009499
 **** Fit       0.032421
 **** Fit       0.034484
 **** Fit       0.034451
 **** Fit       0.030627
 **** Fit       0.022666
 **** Fit       0.011664
 **** Fit      -0.000534
 **** Fit      -0.011418
 **** Fit       0.027714
 **** Fit       0.023759
 **** Fit       0.015176
 **** Fit       0.004532
 **** Fit       0.018414
 **** Fit       0.009748
 **** Fit      -0.037176
 **** Fit      -0.006602
 **** Fit      -0.008126
 **** Fit      -0.005695
 **** Fit      -0.006199
 **** Fit      -0.007690
 **** Fit      -0.009443
 **** Fit      -0.004676
 **** Fit      -0.004694
 **** Fit      -0.005194
 **** Fit      -0.005794
 **** Fit      -0.007089
 **** Fit      -0.008815
 **** Fit      -0.010864
 **** Fit      -0.012778
 **** Fit      -0.004029
 **** Fit      -0.003814
 **** Fit      -0.003857
 **** Fit      -0.004209
 **** Fit      -0.004855
 **** Fit      -0.005452
 **** Fit      -0.006578
 **** Fit      -0.012826
 **** Fit      -0.015411
 **** Fit      -0.017344
 **** Fit      -0.003312
 **** Fit      -0.003083
 **** Fit      -0.003099
 **** Fit      -0.003388
 **** Fit      -0.003905
 **** Fit      -0.004593
 **** Fit      -0.005231
 **** Fit      -0.020827
 **** Fit      -0.022876
 **** Fit      -0.002927
 **** Fit      -0.002547
 **** Fit      -0.002358
 **** Fit      -0.002428
 **** Fit      -0.002750
 **** Fit      -0.003257
 **** Fit      -0.003863
 **** Fit      -0.004517
 **** Fit      -0.026394
 **** Fit      -0.029482
 **** Fit      -0.003001
 **** Fit      -0.002400
 **** Fit      -0.001906
 **** Fit      -0.002620
 **** Fit      -0.003297
 **** Fit      -0.003973
 **** Fit      -0.004599
 **** Fit      -0.003413
 **** Fit      -0.002623
 **** Fit      -0.003661
 **** Fit      -0.004375
 **** Fit      -0.004949
 **** Fit      -0.004583
 **** Fit      -0.003611
 **** Fit      -0.002544
 **** Fit      -0.004349
 **** Fit      -0.005096
 **** Fit      -0.005622
 **** Fit      -0.005421
 **** Fit      -0.004038
 **** Fit      -0.005516
 **** Fit      -0.006255
 **** Fit      -0.006714
 **** Fit      -0.005387
 **** Fit      -0.007936
 **** Fit      -0.008324
 **** Fit      -0.006778
 **** Fit      -0.010288
 **** Fit      -0.010583
 **** Fit      -0.013600
 **** Fit      -0.013687
 **** Fit      -0.017498
 **** Fit      -0.018215
 **** Fit      -0.017888
 **** Fit      -0.022610
 **** Fit      -0.023578
 **** Fit      -0.028065
 **** Fit      -0.007181
 **** Fit      -0.008757
 **** Fit      -0.011020
 **** Fit      -0.013466
 **** Fit      -0.006561
 **** Fit      -0.007759
 **** Fit      -0.009551
 **** Fit      -0.012008
 **** Fit      -0.014937
 **** Fit      -0.017726
 **** Fit      -0.005774
 **** Fit      -0.006197
 **** Fit      -0.007153
 **** Fit      -0.008613
 **** Fit      -0.010738
 **** Fit      -0.013616
 **** Fit      -0.017165
 **** Fit      -0.020982
 **** Fit      -0.024251
 **** Fit      -0.005558
 **** Fit      -0.006127
 **** Fit      -0.006900
 **** Fit      -0.008122
 **** Fit      -0.009976
 **** Fit      -0.012637
 **** Fit      -0.016233
 **** Fit      -0.020752
 **** Fit      -0.025877
 **** Fit      -0.030810
 **** Fit      -0.005224
 **** Fit      -0.005625
 **** Fit      -0.006400
 **** Fit      -0.006996
 **** Fit      -0.007984
 **** Fit      -0.009535
 **** Fit      -0.011841
 **** Fit      -0.015111
 **** Fit      -0.019543
 **** Fit      -0.025236
 **** Fit      -0.005763
 **** Fit      -0.006041
 **** Fit      -0.007084
 **** Fit      -0.007553
 **** Fit      -0.008417
 **** Fit      -0.009854
 **** Fit      -0.012081
 **** Fit      -0.015368
 **** Fit      -0.020047
 **** Fit      -0.026472
 **** Fit      -0.006701
 **** Fit      -0.006853
 **** Fit      -0.008261
 **** Fit      -0.008598
 **** Fit      -0.009332
 **** Fit      -0.010631
 **** Fit      -0.012714
 **** Fit      -0.015879
 **** Fit      -0.020538
 **** Fit      -0.027240
 **** Fit      -0.008178
 **** Fit      -0.008172
 **** Fit      -0.010044
 **** Fit      -0.010261
 **** Fit      -0.010906
 **** Fit      -0.012145
 **** Fit      -0.014200
 **** Fit      -0.017399
 **** Fit      -0.022232
 **** Fit      -0.010323
 **** Fit      -0.010115
 **** Fit      -0.012574
 **** Fit      -0.012685
 **** Fit      -0.013333
 **** Fit      -0.014694
 **** Fit      -0.017027
 **** Fit      -0.020750
 **** Fit      -0.026543
 **** Fit      -0.013364
 **** Fit      -0.012853
 **** Fit      -0.016023
 **** Fit      -0.016033
 **** Fit      -0.016769
 **** Fit      -0.018420
 **** Fit      -0.021293
 **** Fit      -0.025939
 **** Fit      -0.016597
 **** Fit      -0.020575
 **** Fit      -0.020489
 **** Fit      -0.021391
 **** Fit      -0.023441
 **** Fit      -0.026949
 **** Fit      -0.021546
 **** Fit      -0.026365
 **** Fit      -0.026250
 **** Fit      -0.027654
 **** Fit      -0.030663
 **** Fit      -0.007325
 **** Fit      -0.007218
 **** Fit      -0.008749
 **** Fit      -0.008892
 **** Fit      -0.007439
 **** Fit      -0.006208
 **** Fit      -0.006121
 **** Fit      -0.007074
 **** Fit      -0.008804
 **** Fit      -0.010540
 **** Fit      -0.011457
 **** Fit      -0.010985
 **** Fit      -0.009423
 **** Fit      -0.007616
 **** Fit      -0.006186
 **** Fit      -0.005347
 **** Fit      -0.005028
 **** Fit      -0.005170
 **** Fit      -0.005829
 **** Fit      -0.012770
 **** Fit      -0.014299
 **** Fit      -0.014726
 **** Fit      -0.013866
 **** Fit      -0.012053
 **** Fit      -0.009925
 **** Fit      -0.007943
 **** Fit      -0.006360
 **** Fit      -0.005303
 **** Fit      -0.004699
 **** Fit      -0.004381
 **** Fit      -0.004270
 **** Fit      -0.004387
 **** Fit      -0.018123
 **** Fit      -0.019200
 **** Fit      -0.018909
 **** Fit      -0.017304
 **** Fit      -0.014850
 **** Fit      -0.012191
 **** Fit      -0.009697
 **** Fit      -0.007529
 **** Fit      -0.005889
 **** Fit      -0.004893
 **** Fit      -0.004368
 **** Fit      -0.004050
 **** Fit      -0.003818
 **** Fit      -0.003675
 **** Fit      -0.023678
 **** Fit      -0.025300
 **** Fit      -0.025371
 **** Fit      -0.023904
 **** Fit      -0.021177
 **** Fit      -0.017789
 **** Fit      -0.014350
 **** Fit      -0.011136
 **** Fit      -0.004016
 **** Fit      -0.003762
 **** Fit      -0.003471
 **** Fit      -0.033673
 **** Fit      -0.034160
 **** Fit      -0.033034
 **** Fit      -0.030487
 **** Fit      -0.017588
 **** Fit      -0.004031
 **** Fit      -0.003700
 **** Fit      -0.004215
 **** Fit      -0.001805
 **** Fit      -0.001518
 **** Fit      -0.001626
 **** Fit      -0.002070
 **** Fit      -0.001569
 **** Fit      -0.001021
 **** Fit      -0.000838
 **** Fit      -0.001024
 **** Fit      -0.001515
 **** Fit      -0.002209
 **** Fit      -0.001822
 **** Fit      -0.000932
 **** Fit      -0.000377
 **** Fit      -0.000220
 **** Fit      -0.000451
 **** Fit      -0.000999
 **** Fit      -0.001765
 **** Fit      -0.002646
 **** Fit      -0.003540
 **** Fit      -0.002483
 **** Fit      -0.001251
 **** Fit      -0.000311
 **** Fit       0.000226
 **** Fit       0.000325
 **** Fit       0.000015
 **** Fit      -0.000624
 **** Fit      -0.001491
 **** Fit      -0.002482
 **** Fit      -0.003504
 **** Fit      -0.004479
 **** Fit      -0.003216
 **** Fit      -0.001568
 **** Fit      -0.000260
 **** Fit       0.000559
 **** Fit       0.000827
 **** Fit       0.000568
 **** Fit      -0.000128
 **** Fit      -0.001134
 **** Fit      -0.002317
 **** Fit      -0.003558
 **** Fit      -0.004763
 **** Fit      -0.005863
 **** Fit      -0.004523
 **** Fit      -0.002331
 **** Fit      -0.000524
 **** Fit       0.000691
 **** Fit       0.001209
 **** Fit       0.001039
 **** Fit       0.000279
 **** Fit      -0.000910
 **** Fit      -0.002349
 **** Fit      -0.003877
 **** Fit      -0.005368
 **** Fit      -0.006736
 **** Fit      -0.007931
 **** Fit      -0.004862
 **** Fit      -0.002082
 **** Fit       0.000030
 **** Fit       0.001245
 **** Fit       0.001485
 **** Fit       0.000825
 **** Fit      -0.000536
 **** Fit      -0.002338
 **** Fit      -0.004325
 **** Fit      -0.006289
 **** Fit      -0.008088
 **** Fit      -0.009644
 **** Fit      -0.010931
 **** Fit      -0.000934
 **** Fit       0.001089
 **** Fit       0.001572
 **** Fit       0.000608
 **** Fit      -0.001456
 **** Fit      -0.004145
 **** Fit      -0.007008
 **** Fit      -0.009703
 **** Fit      -0.012018
 **** Fit      -0.013870
 **** Fit      -0.015271
 **** Fit      -0.006576
 **** Fit       0.020981
 **** Fit       0.002746
 **** Fit      -0.016986
 **** Fit       0.038581
 **** Fit       0.019521
 **** Fit       0.000268
 **** Fit       0.037319
 **** Fit       0.016390
 **** Fit      -0.003761
 **** Fit      -0.018364
 **** Fit      -0.003733
 **** Fit       0.033930
 **** Fit       0.012199
 **** Fit      -0.003554
 **** Fit       0.010150
 **** Fit       0.029624
 **** Fit       0.007675
 **** Fit      -0.003038
 **** Fit       0.011987
 **** Fit       0.024225
 **** Fit       0.003527
 **** Fit      -0.001869
 **** Fit       0.013298
 **** Fit       0.016756
 **** Fit       0.000278
 **** Fit       0.020359
 **** Fit       0.028015
 **** Fit       0.036251
 **** Fit       0.059241
 **** Fit       0.017453
 **** Fit       0.019286
 **** Fit       0.022763
 **** Fit       0.031097
 **** Fit       0.025674
 **** Fit       0.023399
 **** Fit       0.024071
 **** Fit       0.027151
 **** Fit       0.032242
 **** Fit       0.034764
 **** Fit       0.030796
 **** Fit       0.030613
 **** Fit       0.033741
 **** Fit       0.038941
 **** Fit       0.037505
 **** Fit       0.040702
 **** Fit       0.044354
 **** Fit       0.048161
 **** Fit       0.050872
 **** Fit       0.043507
 **** Fit       0.063382
 **** Fit       0.050405
 **** Fit       0.042012
 **** Fit       0.035648
 **** Fit       0.065290
 **** Fit       0.067739
 **** Fit       0.071894
 **** Fit       0.055092
 **** Fit       0.046177
 **** Fit       0.038760
 **** Fit       0.033175
 **** Fit       0.029816
 **** Fit       0.064997
 **** Fit       0.065615
 **** Fit       0.067939
 **** Fit       0.071659
 **** Fit       0.066257
 **** Fit       0.058559
 **** Fit       0.050459
 **** Fit       0.043119
 **** Fit       0.037326
 **** Fit       0.033745
 **** Fit       0.064159
 **** Fit       0.064972
 **** Fit       0.067030
 **** Fit       0.069868
 **** Fit       0.072617
 **** Fit       0.064752
 **** Fit       0.059823
 **** Fit       0.053177
 **** Fit       0.046485
 **** Fit       0.041189
 **** Fit       0.038362
 **** Fit       0.062308
 **** Fit       0.063144
 **** Fit       0.064704
 **** Fit       0.066344
 **** Fit       0.066814
 **** Fit       0.059705
 **** Fit       0.054759
 **** Fit       0.048793
 **** Fit       0.044516
 **** Fit       0.043812
 **** Fit       0.046844
 **** Fit       0.056428
 **** Fit       0.058890
 **** Fit       0.060258
 **** Fit       0.061446
 **** Fit       0.061789
 **** Fit       0.056047
 **** Fit       0.051132
 **** Fit       0.048882
 **** Fit       0.052137
 **** Fit       0.056087
 **** Fit       0.057724
 **** Fit       0.053536
 **** Fit       0.030447
 **** Fit       0.032046
 **** Fit       0.033056
 **** Fit       0.034639
 **** Fit       0.036568
 **** Fit       0.039172
 **** Fit       0.036266
 **** Fit       0.035713
 **** Fit       0.036404
 **** Fit       0.037766
 **** Fit       0.039603
 **** Fit       0.042002
 **** Fit       0.045252
 **** Fit       0.041424
 **** Fit       0.039989
 **** Fit       0.040131
 **** Fit       0.041232
 **** Fit       0.043017
 **** Fit       0.045479
 **** Fit       0.048810
 **** Fit       0.053328
 **** Fit       0.044308
 **** Fit       0.043464
 **** Fit       0.043932
 **** Fit       0.045330
 **** Fit       0.047522
 **** Fit       0.050580
 **** Fit       0.054720
 **** Fit       0.060263
 **** Fit       0.048031
 **** Fit       0.046517
 **** Fit       0.046348
 **** Fit       0.047235
 **** Fit       0.049003
 **** Fit       0.051630
 **** Fit       0.055231
 **** Fit       0.060025
 **** Fit       0.049667
 **** Fit       0.048500
 **** Fit       0.048334
 **** Fit       0.049187
 **** Fit       0.050987
 **** Fit       0.053733
 **** Fit       0.057524
 **** Fit       0.062529
 **** Fit       0.048764
 **** Fit       0.049393
 **** Fit       0.049296
 **** Fit       0.049496
 **** Fit       0.050450
 **** Fit       0.052295
 **** Fit       0.055085
 **** Fit       0.058876
 **** Fit       0.063685
 **** Fit       0.038504
 **** Fit       0.040302
 **** Fit       0.043508
 **** Fit       0.046533
 **** Fit       0.048384
 **** Fit       0.049426
 **** Fit       0.050540
 **** Fit       0.052310
 **** Fit       0.054957
 **** Fit       0.058481
 **** Fit       0.062595
 **** Fit       0.042977
 **** Fit       0.044247
 **** Fit       0.046773
 **** Fit       0.048958
 **** Fit       0.050918
 **** Fit       0.053405
 **** Fit       0.056584
 **** Fit       0.059614
 **** Fit       0.054794
 **** Fit       0.050615
 **** Fit       0.047125
 **** Fit       0.048210
 **** Fit       0.050973
 **** Fit       0.054007
 **** Fit       0.050829
 -----------------------------------------------------------------
 Leave Link  602 at Sat Sep 14 23:56:57 2019, MaxMem=  1342177280 cpu:             119.6 elap:               2.5

 Test job not archived.
 1\1\GINC-C500-091\SP\RB3LYP\SVP\C54H83Ca1N15O23\PENGZHI\14-Sep-2019\0\
 \#b3lyp/svp scf=(tight,noincore) Test #IOP(5/87=12) Density=Current Po
 p=(MK,readradii) iop(6/33=2) iop(6/42=6)\\CaMKII_loop3_72.0\\0,1\C,0,7
 7.41,60.51,19.5\C,0,77.57,59.11,18.92\O,0,78.68,58.67,18.64\H,0,76.406
 ,60.62,19.909\H,0,78.143,60.662,20.292\H,0,77.565,61.249,18.714\N,0,76
 .46,58.43,18.65\C,0,76.39,57.21,17.88\C,0,76.61,57.5,16.4\O,0,75.86,58
 .27,15.81\C,0,75.04,56.56,18.2\C,0,74.92,55.19,17.55\O,0,73.89,54.5,17
 .73\O,0,75.92,54.65,17.03\H,0,75.66,58.88,19.07\H,0,77.17,56.53,18.22\
 H,0,74.33,57.27,17.78\H,0,74.87,56.6,19.28\N,0,77.58,56.86,15.74\C,0,7
 8.09,57.25,14.44\C,0,77.44,56.45,13.31\O,0,77.76,56.74,12.16\C,0,79.61
 ,57.11,14.47\C,0,80.35,58.12,13.6\C,0,81.83,57.75,13.54\C,0,82.74,58.7
 9,12.88\N,0,84.07,58.19,12.72\H,0,78.11,56.18,16.26\H,0,77.9,58.29,14.
 19\H,0,79.78,56.06,14.23\H,0,79.98,57.41,15.45\H,0,80.27,59.11,14.05\H
 ,0,79.87,58.16,12.63\H,0,81.9,56.91,12.85\H,0,82.33,57.39,14.44\H,0,82
 .89,59.67,13.51\H,0,82.23,59.25,12.03\H,0,84.76,58.9,12.54\H,0,84.35,5
 7.65,13.52\H,0,84.02,57.59,11.91\N,0,76.53,55.49,13.53\C,0,75.73,54.67
 ,12.65\C,0,74.36,54.34,13.21\O,0,73.64,53.51,12.66\C,0,76.5,53.38,12.4
 \C,0,76.94,52.55,13.6\O,0,76.36,52.57,14.71\O,0,78.02,51.95,13.45\H,0,
 76.45,55.33,14.52\H,0,75.57,55.19,11.7\H,0,77.44,53.52,11.87\H,0,75.92
 ,52.74,11.73\N,0,73.89,55.02,14.26\C,0,72.51,54.98,14.69\C,0,71.92,53.
 63,15.07\O,0,70.7,53.51,15.17\H,0,74.49,55.72,14.67\H,0,72.,55.27,13.7
 7\H,0,72.39,55.75,15.46\N,0,72.72,52.6,15.36\C,0,72.29,51.3,15.81\C,0,
 71.68,51.33,17.2\O,0,70.96,50.42,17.6\C,0,73.5,50.38,15.66\C,0,74.36,5
 0.2,16.9\N,0,74.62,48.99,17.38\O,0,75.,51.15,17.35\H,0,73.71,52.81,15.
 26\H,0,71.52,50.87,15.16\H,0,74.19,50.67,14.88\H,0,73.07,49.44,15.28\H
 ,0,74.07,48.18,17.12\H,0,75.24,48.9,18.18\N,0,72.08,52.34,17.98\C,0,71
 .55,52.63,19.3\C,0,72.52,52.51,20.46\O,0,72.08,52.32,21.59\H,0,72.87,5
 2.86,17.63\H,0,70.8,51.89,19.55\H,0,71.07,53.61,19.27\N,0,73.82,52.33,
 20.2\C,0,74.93,52.22,21.13\C,0,76.11,53.07,20.69\O,0,76.32,53.33,19.5\
 C,0,75.3,50.76,21.36\C,0,74.27,49.7,21.67\C,0,74.19,49.21,22.98\C,0,73
 .42,49.22,20.67\C,0,73.21,48.24,23.2\C,0,72.4,48.3,20.94\C,0,72.27,47.
 79,22.25\O,0,71.36,46.82,22.54\H,0,74.13,52.52,19.26\H,0,74.61,52.63,2
 2.09\H,0,76.05,50.66,22.15\H,0,75.8,50.39,20.46\H,0,74.88,49.48,23.76\
 H,0,73.47,49.71,19.7\H,0,73.2,47.92,24.23\H,0,71.73,48.07,20.13\H,0,70
 .69,46.61,21.88\N,0,76.92,53.53,21.65\C,0,78.18,54.23,21.55\C,0,79.32,
 53.32,22.01\O,0,79.18,52.64,23.02\C,0,78.18,55.53,22.34\C,0,77.12,56.4
 7,21.77\C,0,79.48,56.3,22.13\C,0,76.71,57.5,22.83\H,0,76.66,53.28,22.5
 9\H,0,78.32,54.57,20.52\H,0,78.12,55.34,23.41\H,0,76.25,55.9,21.44\H,0
 ,77.46,56.96,20.86\H,0,79.72,56.7,21.14\H,0,79.52,57.17,22.79\H,0,80.3
 5,55.69,22.41\H,0,77.55,58.18,22.96\H,0,75.83,58.07,22.54\H,0,76.55,56
 .99,23.78\N,0,80.48,53.47,21.37\C,0,81.66,52.72,21.76\C,0,82.9,53.61,2
 1.77\O,0,82.79,54.81,21.54\C,0,81.76,51.55,20.79\O,0,81.83,52.12,19.5\
 H,0,80.56,53.98,20.5\H,0,81.39,52.35,22.75\H,0,80.86,50.95,20.91\H,0,8
 2.58,50.88,21.01\H,0,81.69,51.43,18.85\N,0,84.07,53.01,21.96\C,0,85.24
 ,53.8,22.29\C,0,85.7,54.66,21.12\O,0,85.94,55.86,21.2\C,0,86.26,52.89,
 22.97\H,0,84.12,52.,21.99\H,0,85.02,54.55,23.06\H,0,86.52,52.04,22.33\
 H,0,87.19,53.43,23.13\H,0,85.93,52.45,23.91\N,0,85.84,54.02,19.96\C,0,
 86.06,54.75,18.72\C,0,85.05,55.78,18.24\O,0,85.38,56.82,17.67\C,0,86.1
 5,53.7,17.62\H,0,85.69,53.03,19.84\H,0,87.04,55.22,18.72\H,0,85.4,52.9
 2,17.7\H,0,86.01,54.14,16.63\H,0,87.13,53.22,17.71\N,0,83.76,55.46,18.
 39\C,0,82.77,56.51,18.22\C,0,82.84,57.73,19.13\O,0,82.59,58.83,18.64\C
 ,0,81.34,55.97,18.33\C,0,81.22,54.89,17.26\C,0,79.82,54.3,17.37\O,0,79
 .29,53.92,18.44\O,0,79.19,54.22,16.3\H,0,83.43,54.54,18.63\H,0,82.84,5
 6.84,17.18\H,0,80.59,56.74,18.18\H,0,81.14,55.53,19.31\H,0,81.93,54.14
 ,17.63\H,0,81.49,55.23,16.26\N,0,83.25,57.53,20.38\C,0,83.34,58.61,21.
 34\H,0,83.89,59.442,20.9\H,0,82.337,58.941,21.61\H,0,83.861,58.262,22.
 232\H,0,83.21,56.57,20.68\Ca,0,77.33,52.55,17.11\O,0,78.2,50.5,18.54\H
 ,0,79.14,50.38,18.39\H,0,77.89,49.64,18.81\\Version=ES64L-G16RevA.03\S
 tate=1-A\HF=-5333.5528091\RMSD=5.291e-09\Dipole=15.3198364,-0.3946483,
 -1.069649\Quadrupole=-9.3997448,25.7836769,-16.3839321,-3.3061551,-91.
 2802416,-61.4192753\PG=C01 [X(C54H83Ca1N15O23)]\\@


 NOTHING MAKES A PERSON MORE PRODUCTIVE THAN THE LAST MINUTE.
 Job cpu time:       0 days  8 hours 53 minutes 19.6 seconds.
 Elapsed time:       0 days  0 hours 11 minutes 14.0 seconds.
 File lengths (MBytes):  RWF=   1517 Int=      0 D2E=      0 Chk=    171 Scr=      1
 Normal termination of Gaussian 16 at Sat Sep 14 23:56:59 2019.
