 Entering Gaussian System, Link 0=g09
 Initial command:
 /home/pcieplak/g09/g09/l1.exe "/scratch1/pcieplak/fullloop_14.0/Gau-11193.inp" -scrdir="/scratch1/pcieplak/fullloop_14.0/"
 Entering Link 1 = /home/pcieplak/g09/g09/l1.exe PID=     11194.
  
 Copyright (c) 1988,1990,1992,1993,1995,1998,2003,2009,2013,
            Gaussian, Inc.  All Rights Reserved.
  
 This is part of the Gaussian(R) 09 program.  It is based on
 the Gaussian(R) 03 system (copyright 2003, Gaussian, Inc.),
 the Gaussian(R) 98 system (copyright 1998, Gaussian, Inc.),
 the Gaussian(R) 94 system (copyright 1995, Gaussian, Inc.),
 the Gaussian 92(TM) system (copyright 1992, Gaussian, Inc.),
 the Gaussian 90(TM) system (copyright 1990, Gaussian, Inc.),
 the Gaussian 88(TM) system (copyright 1988, Gaussian, Inc.),
 the Gaussian 86(TM) system (copyright 1986, Carnegie Mellon
 University), and the Gaussian 82(TM) system (copyright 1983,
 Carnegie Mellon University). Gaussian is a federally registered
 trademark of Gaussian, Inc.
  
 This software contains proprietary and confidential information,
 including trade secrets, belonging to Gaussian, Inc.
  
 This software is provided under written license and may be
 used, copied, transmitted, or stored only in accord with that
 written license.
  
 The following legend is applicable only to US Government
 contracts under FAR:
  
                    RESTRICTED RIGHTS LEGEND
  
 Use, reproduction and disclosure by the US Government is
 subject to restrictions as set forth in subparagraphs (a)
 and (c) of the Commercial Computer Software - Restricted
 Rights clause in FAR 52.227-19.
  
 Gaussian, Inc.
 340 Quinnipiac St., Bldg. 40, Wallingford CT 06492
  
  
 ---------------------------------------------------------------
 Warning -- This program may not be used in any manner that
 competes with the business of Gaussian, Inc. or will provide
 assistance to any competitor of Gaussian, Inc.  The licensee
 of this program is prohibited from giving any competitor of
 Gaussian, Inc. access to this program.  By using this program,
 the user acknowledges that Gaussian, Inc. is engaged in the
 business of creating and licensing software in the field of
 computational chemistry and represents and warrants to the
 licensee that it is not a competitor of Gaussian, Inc. and that
 it will not use this program in any manner prohibited above.
 ---------------------------------------------------------------
  

 Cite this work as:
 Gaussian 09, Revision D.01,
 M. J. Frisch, G. W. Trucks, H. B. Schlegel, G. E. Scuseria, 
 M. A. Robb, J. R. Cheeseman, G. Scalmani, V. Barone, B. Mennucci, 
 G. A. Petersson, H. Nakatsuji, M. Caricato, X. Li, H. P. Hratchian, 
 A. F. Izmaylov, J. Bloino, G. Zheng, J. L. Sonnenberg, M. Hada, 
 M. Ehara, K. Toyota, R. Fukuda, J. Hasegawa, M. Ishida, T. Nakajima, 
 Y. Honda, O. Kitao, H. Nakai, T. Vreven, J. A. Montgomery, Jr., 
 J. E. Peralta, F. Ogliaro, M. Bearpark, J. J. Heyd, E. Brothers, 
 K. N. Kudin, V. N. Staroverov, T. Keith, R. Kobayashi, J. Normand, 
 K. Raghavachari, A. Rendell, J. C. Burant, S. S. Iyengar, J. Tomasi, 
 M. Cossi, N. Rega, J. M. Millam, M. Klene, J. E. Knox, J. B. Cross, 
 V. Bakken, C. Adamo, J. Jaramillo, R. Gomperts, R. E. Stratmann, 
 O. Yazyev, A. J. Austin, R. Cammi, C. Pomelli, J. W. Ochterski, 
 R. L. Martin, K. Morokuma, V. G. Zakrzewski, G. A. Voth, 
 P. Salvador, J. J. Dannenberg, S. Dapprich, A. D. Daniels, 
 O. Farkas, J. B. Foresman, J. V. Ortiz, J. Cioslowski, 
 and D. J. Fox, Gaussian, Inc., Wallingford CT, 2013.
 
 ******************************************
 Gaussian 09:  ES64L-G09RevD.01 24-Apr-2013
                16-Sep-2019 
 ******************************************
 %Nproc=12
 Will use up to   12 processors via shared memory.
 %chk=chk1mol
 %mem=32GB
 ----------------------------------------------------------------------
 #maxdisk=50GB #B3LYP/SVP Density=Current scf=(tight) #IOP(5/87=12)Pop=
 (MK,readradii) iop(6/33=2) iop(6/42=6)
 ----------------------------------------------------------------------
 1/30=1,38=1/1;
 2/12=2,17=6,18=5,40=1/2;
 3/5=18,7=101,11=2,16=1,25=1,30=1,74=-5/1,2,3;
 4//1;
 5/5=2,32=2,38=5,87=12/2;
 6/7=2,8=2,9=2,10=2,15=8,20=101,22=-1,28=1,33=2,42=6/1,2;
 99/5=1,9=1/99;
 ------------
 SOL molecule
 ------------
 Symbolic Z-matrix:
 Charge =  0 Multiplicity = 1
 C                     84.9      65.58     27.56 
 C                     84.28     65.13     28.87 
 O                     84.95     64.42     29.62 
 H                     85.914    65.188    27.485 
 H                     84.304    65.206    26.728 
 H                     84.929    66.669    27.526 
 N                     83.11     65.68     29.2 
 C                     82.57     65.62     30.54 
 C                     81.88     64.29     30.81 
 O                     80.8      64.03     30.28 
 C                     81.79     66.91     30.75 
 C                     81.09     66.92     32.1 
 O                     81.67     66.45     33.1 
 O                     79.95     67.41     32.24 
 H                     82.66     66.3      28.55 
 H                     83.38     65.65     31.27 
 H                     81.01     66.97     29.98 
 H                     82.48     67.75     30.77 
 N                     82.51     63.38     31.56 
 C                     82.34     61.94     31.57 
 C                     81.18     61.39     32.38 
 O                     80.65     60.35     32.01 
 C                     83.69     61.35     31.98 
 C                     83.95     59.98     31.35 
 C                     85.34     59.43     31.64 
 C                     85.46     58.       31.12 
 N                     86.68     57.42     31.7 
 H                     83.27     63.66     32.16 
 H                     82.14     61.67     30.53 
 H                     83.74     61.33     33.06 
 H                     84.51     61.96     31.61 
 H                     83.84     59.93     30.26 
 H                     83.21     59.26     31.71 
 H                     85.54     59.51     32.71 
 H                     86.07     60.02     31.08 
 H                     85.36     57.93     30.04 
 H                     84.6      57.43     31.48 
 H                     87.55     57.78     31.36 
 H                     86.71     57.68     32.68 
 H                     86.69     56.41     31.59 
 N                     80.82     62.08     33.47 
 C                     79.59     61.75     34.16 
 C                     78.47     62.69     33.72 
 O                     77.3      62.33     33.88 
 C                     79.84     61.93     35.65 
 C                     80.22     63.32     36.17 
 O                     80.7      64.14     35.36 
 O                     80.15     63.51     37.4 
 H                     81.36     62.92     33.57 
 H                     79.25     60.75     33.91 
 H                     80.67     61.28     35.93 
 H                     78.97     61.53     36.16 
 N                     78.79     63.84     33.14 
 C                     77.84     64.86     32.75 
 C                     77.52     65.9      33.82 
 O                     76.38     66.33     33.95 
 H                     79.75     63.95     32.85 
 H                     76.9      64.47     32.36 
 H                     78.4      65.48     32.04 
 N                     78.46     66.27     34.7 
 C                     78.34     67.17     35.82 
 C                     78.75     68.63     35.63 
 O                     78.71     69.39     36.59 
 C                     78.9      66.64     37.14 
 C                     80.37     66.9      37.45 
 N                     80.77     67.23     38.68 
 O                     81.22     66.9      36.57 
 H                     79.37     65.83     34.62 
 H                     77.28     67.14     36.05 
 H                     78.65     65.59     37.3 
 H                     78.32     67.14     37.92 
 H                     80.17     67.28     39.49 
 H                     81.74     67.37     38.91 
 N                     79.12     69.       34.4 
 C                     79.57     70.31     34. 
 C                     80.95     70.73     34.49 
 O                     81.23     71.93     34.45 
 H                     79.18     68.21     33.77 
 H                     78.84     71.05     34.32 
 H                     79.73     70.36     32.92 
 N                     81.82     69.89     35.04 
 C                     83.2      70.15     35.41 
 C                     84.11     69.06     34.87 
 O                     83.77     67.89     35.07 
 C                     83.36     70.21     36.92 
 C                     82.45     71.19     37.62 
 C                     82.91     72.51     37.78 
 C                     81.19     70.82     38.09 
 C                     82.12     73.47     38.43 
 C                     80.47     71.74     38.87 
 C                     80.95     73.05     39.09 
 O                     80.15     73.93     39.76 
 H                     81.47     68.94     35.14 
 H                     83.5      71.09     34.95 
 H                     84.41     70.49     37.04 
 H                     83.26     69.27     37.46 
 H                     83.88     72.64     37.33 
 H                     80.81     69.82     37.92 
 H                     82.46     74.49     38.52 
 H                     79.53     71.46     39.31 
 H                     79.32     73.51     39.98 
 N                     85.27     69.34     34.27 
 C                     86.14     68.36     33.65 
 C                     87.24     68.22     34.69 
 O                     87.91     69.19     35.03 
 C                     86.72     68.76     32.3 
 C                     85.68     68.75     31.18 
 C                     87.86     67.82     31.91 
 C                     85.95     69.72     30.03 
 H                     85.46     70.32     34.11 
 H                     85.63     67.41     33.49 
 H                     86.99     69.81     32.39 
 H                     84.76     69.17     31.6 
 H                     85.52     67.72     30.86 
 H                     88.08     67.97     30.85 
 H                     88.7      68.08     32.55 
 H                     87.57     66.77     32.01 
 H                     85.15     69.71     29.29 
 H                     86.14     70.77     30.28 
 H                     86.86     69.4      29.53 
 N                     87.55     66.98     35.07 
 C                     88.81     66.71     35.72 
 C                     89.95     66.31     34.79 
 O                     89.75     66.06     33.6 
 C                     88.6      65.73     36.88 
 O                     88.9      64.43     36.43 
 H                     86.9      66.26     34.8 
 H                     89.23     67.61     36.17 
 H                     87.59     65.89     37.26 
 H                     89.26     65.97     37.71 
 H                     88.59     63.82     37.1 
 N                     91.13     66.3      35.4 
 C                     92.34     65.94     34.67 
 C                     92.25     64.63     33.9 
 O                     92.53     64.46     32.72 
 C                     93.61     66.14     35.49 
 H                     91.19     66.57     36.37 
 H                     92.48     66.64     33.85 
 H                     94.41     66.26     34.77 
 H                     93.52     66.99     36.18 
 H                     93.82     65.29     36.14 
 N                     91.79     63.67     34.71 
 C                     91.63     62.32     34.23 
 C                     90.6      62.21     33.11 
 O                     90.72     61.35     32.24 
 C                     91.28     61.47     35.45 
 H                     91.8      63.84     35.71 
 H                     92.51     61.89     33.75 
 H                     92.09     61.61     36.16 
 H                     90.33     61.85     35.83 
 H                     91.32     60.42     35.16 
 N                     89.54     63.03     33.15 
 C                     88.56     63.09     32.09 
 C                     89.07     63.75     30.82 
 O                     88.8      63.22     29.74 
 C                     87.36     63.91     32.55 
 C                     86.6      63.26     33.71 
 C                     85.4      64.07     34.15 
 O                     84.31     64.02     33.53 
 O                     85.46     64.97     35.02 
 H                     89.44     63.72     33.87 
 H                     88.27     62.07     31.83 
 H                     86.66     64.16     31.76 
 H                     87.73     64.85     32.95 
 H                     87.19     63.16     34.62 
 H                     86.34     62.25     33.41 
 N                     89.92     64.77     30.86 
 C                     90.66     65.19     29.68 
 H                     91.655    64.745    29.698 
 H                     90.133    64.863    28.784 
 H                     90.749    66.276    29.674 
 H                     90.19     65.16     31.75 
 CA                    82.84     65.4      35.2 
 O                     83.48     63.19     36.56 
 H                     84.17     62.6      36.27 
 H                     83.11     62.77     37.33 
 
 Stoichiometry    C54H83CaN15O23
 Framework group  C1[X(C54H83CaN15O23)]
 Deg. of freedom   522
 Full point group                 C1      NOp   1
 Largest Abelian subgroup         C1      NOp   1
 Largest concise Abelian subgroup C1      NOp   1
                         Standard orientation:                         
 ---------------------------------------------------------------------
 Center     Atomic      Atomic             Coordinates (Angstroms)
 Number     Number       Type             X           Y           Z
 ---------------------------------------------------------------------
      1          6           0        2.335778    2.195093    5.542131
      2          6           0        1.646540    2.353475    4.199422
      3          8           0        2.332373    2.287247    3.179252
      4          1           0        3.400715    2.025247    5.385458
      5          1           0        2.195732    3.100497    6.132001
      6          1           0        1.907506    1.345142    6.073246
      7          7           0        0.312569    2.380339    4.209459
      8          6           0       -0.480744    2.183624    3.016666
      9          6           0       -0.584861    3.459714    2.192862
     10          8           0       -1.271860    4.401474    2.587856
     11          6           0       -1.759418    1.485911    3.458016
     12          6           0       -2.723747    1.310350    2.295326
     13          8           0       -2.283244    1.006355    1.168009
     14          8           0       -3.956512    1.441628    2.444845
     15          1           0       -0.170544    2.369163    5.090298
     16          1           0        0.017522    1.478866    2.349623
     17          1           0       -2.259419    2.120912    4.200763
     18          1           0       -1.523190    0.480849    3.798819
     19          7           0        0.151206    3.569200    1.082133
     20          6           0        0.612555    4.771884    0.416318
     21          6           0       -0.371409    5.467532   -0.506769
     22          8           0       -0.292440    6.682601   -0.636271
     23          6           0        1.925833    4.404079   -0.275578
     24          6           0        2.897686    5.582978   -0.359826
     25          6           0        4.260063    5.209963   -0.928587
     26          6           0        5.107250    6.463173   -1.132152
     27          7           0        6.259108    6.087249   -1.964680
     28          1           0        0.534030    2.744151    0.647691
     29          1           0        0.826037    5.478900    1.221957
     30          1           0        1.694979    3.982293   -1.244135
     31          1           0        2.474460    3.662587    0.299399
     32          1           0        3.108869    6.092945    0.587821
     33          1           0        2.467715    6.374241   -0.980010
     34          1           0        4.119387    4.639532   -1.848435
     35          1           0        4.788903    4.601355   -0.190668
     36          1           0        5.332973    6.979934   -0.203008
     37          1           0        4.509589    7.197196   -1.678148
     38          1           0        6.949351    5.504244   -1.533670
     39          1           0        5.918226    5.495428   -2.714646
     40          1           0        6.725336    6.911266   -2.333363
     41          7           0       -1.261663    4.692469   -1.139638
     42          6           0       -2.368286    5.297321   -1.851987
     43          6           0       -3.622941    5.289568   -0.981711
     44          8           0       -4.526098    6.090419   -1.240642
     45          6           0       -2.618008    4.463699   -3.100071
     46          6           0       -3.014834    2.993169   -2.935848
     47          8           0       -2.734888    2.425085   -1.859832
     48          8           0       -3.478111    2.410097   -3.935500
     49          1           0       -1.176388    3.731396   -0.863474
     50          1           0       -2.173023    6.340962   -2.077343
     51          1           0       -1.695946    4.450727   -3.682680
     52          1           0       -3.335767    5.012937   -3.700204
     53          7           0       -3.681970    4.456020    0.049314
     54          6           0       -4.836325    4.282349    0.905061
     55          6           0       -5.835258    3.222333    0.449650
     56          8           0       -7.039934    3.404182    0.580363
     57          1           0       -2.820674    4.003984    0.316959
     58          1           0       -5.383433    5.202351    1.110169
     59          1           0       -4.428307    3.792147    1.796870
     60          7           0       -5.407913    2.130753   -0.198986
     61          6           0       -6.187148    1.061329   -0.771634
     62          6           0       -6.401851   -0.207459    0.052915
     63          8           0       -7.010433   -1.146441   -0.445824
     64          6           0       -5.822266    0.691796   -2.209412
     65          6           0       -4.739648   -0.359752   -2.425712
     66          7           0       -4.854982   -1.285487   -3.380444
     67          8           0       -3.772570   -0.446052   -1.681258
     68          1           0       -4.411433    2.051902   -0.369016
     69          1           0       -7.153377    1.523645   -0.945027
     70          1           0       -5.635084    1.573063   -2.824986
     71          1           0       -6.741408    0.292519   -2.645941
     72          1           0       -5.608275   -1.335652   -4.050245
     73          1           0       -4.133861   -1.964489   -3.560279
     74          7           0       -5.916280   -0.209820    1.298272
     75          6           0       -5.977668   -1.301397    2.238107
     76          6           0       -5.088096   -2.501640    1.939812
     77          8           0       -5.344363   -3.560529    2.516944
     78          1           0       -5.364002    0.616550    1.489849
     79          1           0       -7.008307   -1.637427    2.326238
     80          1           0       -5.577531   -1.007351    3.211723
     81          7           0       -4.121375   -2.489577    1.028602
     82          6           0       -3.132470   -3.519315    0.762883
     83          6           0       -1.739647   -2.915996    0.700821
     84          8           0       -1.590000   -1.911778   -0.001782
     85          6           0       -3.414492   -4.222347   -0.554504
     86          6           0       -4.802496   -4.801071   -0.684983
     87          6           0       -5.006038   -6.119310   -0.237303
     88          6           0       -5.860556   -4.066110   -1.219529
     89          6           0       -6.268453   -6.722988   -0.337702
     90          6           0       -7.079344   -4.723065   -1.456524
     91          6           0       -7.277010   -6.066369   -1.067472
     92          8           0       -8.519366   -6.610383   -1.222072
     93          1           0       -4.047617   -1.613612    0.516503
     94          1           0       -3.151093   -4.225132    1.591542
     95          1           0       -2.654672   -5.008176   -0.575624
     96          1           0       -3.243456   -3.646482   -1.462428
     97          1           0       -4.102686   -6.530784    0.180961
     98          1           0       -5.720904   -3.033147   -1.514121
     99          1           0       -6.430327   -7.721099    0.038691
    100          1           0       -7.890397   -4.205803   -1.936350
    101          1           0       -9.118059   -5.954671   -1.576062
    102          7           0       -0.696029   -3.481478    1.313267
    103          6           0        0.636365   -2.913433    1.374511
    104          6           0        1.377020   -3.748262    0.342188
    105          8           0        1.456967   -4.966907    0.460148
    106          6           0        1.322629   -2.997698    2.731287
    107          6           0        0.718598   -2.045254    3.762837
    108          6           0        2.811866   -2.682855    2.595835
    109          6           0        0.841839   -2.495982    5.218157
    110          1           0       -0.905499   -4.278385    1.899068
    111          1           0        0.639496   -1.858642    1.099546
    112          1           0        1.087346   -3.984396    3.124441
    113          1           0       -0.367052   -2.075717    3.622707
    114          1           0        1.100934   -1.040955    3.578167
    115          1           0        3.216321   -2.504185    3.595331
    116          1           0        3.262051   -3.547357    2.113373
    117          1           0        2.980082   -1.758791    2.035113
    118          1           0        0.346367   -1.807957    5.902869
    119          1           0        0.495337   -3.504036    5.472840
    120          1           0        1.897308   -2.507909    5.475727
    121          7           0        2.072663   -3.081289   -0.579402
    122          6           0        3.109266   -3.745375   -1.332689
    123          6           0        4.510602   -3.645028   -0.740498
    124          8           0        4.754855   -2.896301    0.207314
    125          6           0        3.039659   -3.320493   -2.803992
    126          8           0        3.969352   -2.284769   -3.017172
    127          1           0        1.885598   -2.094116   -0.644954
    128          1           0        2.973449   -4.827249   -1.334059
    129          1           0        1.996847   -3.088364   -3.024806
    130          1           0        3.292587   -4.152529   -3.456558
    131          1           0        3.784249   -1.911324   -3.879365
    132          7           0        5.377958   -4.456664   -1.335090
    133          6           0        6.770637   -4.498665   -0.904646
    134          6           0        7.450297   -3.139100   -0.822511
    135          8           0        8.074016   -2.695075    0.133270
    136          6           0        7.571886   -5.598869   -1.592288
    137          1           0        5.061451   -5.067366   -2.072834
    138          1           0        6.809445   -4.800456    0.139105
    139          1           0        8.402804   -5.814936   -0.932220
    140          1           0        6.952429   -6.479998   -1.808122
    141          1           0        7.944617   -5.289208   -2.569161
    142          7           0        7.247120   -2.471871   -1.963924
    143          6           0        7.807183   -1.157121   -2.154348
    144          6           0        7.254272   -0.131728   -1.169331
    145          8           0        7.951090    0.811038   -0.799822
    146          6           0        7.545336   -0.786874   -3.613030
    147          1           0        6.921875   -2.991265   -2.772284
    148          1           0        8.878112   -1.076069   -1.963978
    149          1           0        8.002140   -1.569702   -4.211620
    150          1           0        6.461134   -0.755982   -3.734899
    151          1           0        8.101662    0.122155   -3.841872
    152          7           0        5.976928   -0.259140   -0.782342
    153          6           0        5.379482    0.586026    0.225800
    154          6           0        5.873756    0.303405    1.634494
    155          8           0        6.147412    1.263074    2.358613
    156          6           0        3.870860    0.367765    0.246378
    157          6           0        3.184443    0.808854   -1.049759
    158          6           0        1.685301    0.606024   -1.016066
    159          8           0        0.924042    1.423503   -0.444041
    160          8           0        1.127519   -0.457364   -1.374652
    161          1           0        5.408876   -1.022090   -1.098133
    162          1           0        5.629190    1.624222   -0.002005
    163          1           0        3.364775    0.822604    1.091127
    164          1           0        3.687811   -0.701329    0.309861
    165          1           0        3.500096    0.245969   -1.927098
    166          1           0        3.466378    1.839627   -1.238753
    167          7           0        6.167016   -0.929064    2.033891
    168          6           0        6.938974   -1.173363    3.242526
    169          1           0        7.985600   -1.327994    2.979777
    170          1           0        6.855534   -0.314426    3.907912
    171          1           0        6.556653   -2.061491    3.744933
    172          1           0        6.002525   -1.707075    1.413615
    173         20           0       -1.373047    0.440908   -1.226403
    174          8           0       -0.236094    1.325359   -3.477711
    175          1           0        0.688344    1.552932   -3.521588
    176          1           0       -0.580037    1.542383   -4.338411
 ---------------------------------------------------------------------
 Rotational constants (GHZ):      0.0236115      0.0150320      0.0115712
 Standard basis: SVP (5D, 7F)
 There are  1809 symmetry adapted cartesian basis functions of A   symmetry.
 There are  1717 symmetry adapted basis functions of A   symmetry.
  1717 basis functions,  2922 primitive gaussians,  1809 cartesian basis functions
   358 alpha electrons      358 beta electrons
       nuclear repulsion energy     21675.8629122864 Hartrees.
 NAtoms=  176 NActive=  176 NUniq=  176 SFac= 1.00D+00 NAtFMM=   60 NAOKFM=T Big=T
 Integral buffers will be    131072 words long.
 Raffenetti 2 integral format.
 Two-electron integral symmetry is turned on.
 One-electron integrals computed using PRISM.
 NBasis=  1717 RedAO= T EigKep=  2.96D-04  NBF=  1717
 NBsUse=  1717 1.00D-06 EigRej= -1.00D+00 NBFU=  1717
 ExpMin= 1.98D-02 ExpMax= 3.51D+04 ExpMxC= 5.28D+03 IAcc=3 IRadAn=         5 AccDes= 0.00D+00
 Harris functional with IExCor=  402 and IRadAn=       5 diagonalized for initial guess.
 HarFok:  IExCor=  402 AccDes= 0.00D+00 IRadAn=         5 IDoV= 1 UseB2=F ITyADJ=14
 ICtDFT=  3500011 ScaDFX=  1.000000  1.000000  1.000000  1.000000
 FoFCou: FMM=F IPFlag=           0 FMFlag=      100000 FMFlg1=        2001
         NFxFlg=           0 DoJE=T BraDBF=F KetDBF=T FulRan=T
         wScrn=  0.000000 ICntrl=     500 IOpCl=  0 I1Cent=   200000004 NGrid=           0
         NMat0=    1 NMatS0=      1 NMatT0=    0 NMatD0=    1 NMtDS0=    0 NMtDT0=    0
 Petite list used in FoFCou.
 Requested convergence on RMS density matrix=1.00D-08 within 128 cycles.
 Requested convergence on MAX density matrix=1.00D-06.
 Requested convergence on             energy=1.00D-06.
 No special actions if energy rises.
 EnCoef did     4 forward-backward iterations
 SCF Done:  E(RB3LYP) =  -5333.60344561     A.U. after   20 cycles
            NFock= 20  Conv=0.76D-09     -V/T= 2.0081

 **********************************************************************

            Population analysis using the SCF density.

 **********************************************************************

 Orbital symmetries:
 BldTbl:  Degeneracy threshold= 1.00D-02
       Occupied  (A) (A) (A) (A) (A) (A) (A) (A) (A) (A) (A) (A)
                 (A) (A) (A) (A) (A) (A) (A) (A) (A) (A) (A) (A)
                 (A) (A) (A) (A) (A) (A) (A) (A) (A) (A) (A) (A)
                 (A) (A) (A) (A) (A) (A) (A) (A) (A) (A) (A) (A)
                 (A) (A) (A) (A) (A) (A) (A) (A) (A) (A) (A) (A)
                 (A) (A) (A) (A) (A) (A) (A) (A) (A) (A) (A) (A)
                 (A) (A) (A) (A) (A) (A) (A) (A) (A) (A) (A) (A)
                 (A) (A) (A) (A) (A) (A) (A) (A) (A) (A) (A) (A)
                 (A) (A) (A) (A) (A) (A) (A) (A) (A) (A) (A) (A)
                 (A) (A) (A) (A) (A) (A) (A) (A) (A) (A) (A) (A)
                 (A) (A) (A) (A) (A) (A) (A) (A) (A) (A) (A) (A)
                 (A) (A) (A) (A) (A) (A) (A) (A) (A) (A) (A) (A)
                 (A) (A) (A) (A) (A) (A) (A) (A) (A) (A) (A) (A)
                 (A) (A) (A) (A) (A) (A) (A) (A) (A) (A) (A) (A)
                 (A) (A) (A) (A) (A) (A) (A) (A) (A) (A) (A) (A)
                 (A) (A) (A) (A) (A) (A) (A) (A) (A) (A) (A) (A)
                 (A) (A) (A) (A) (A) (A) (A) (A) (A) (A) (A) (A)
                 (A) (A) (A) (A) (A) (A) (A) (A) (A) (A) (A) (A)
                 (A) (A) (A) (A) (A) (A) (A) (A) (A) (A) (A) (A)
                 (A) (A) (A) (A) (A) (A) (A) (A) (A) (A) (A) (A)
                 (A) (A) (A) (A) (A) (A) (A) (A) (A) (A) (A) (A)
                 (A) (A) (A) (A) (A) (A) (A) (A) (A) (A) (A) (A)
                 (A) (A) (A) (A) (A) (A) (A) (A) (A) (A) (A) (A)
                 (A) (A) (A) (A) (A) (A) (A) (A) (A) (A) (A) (A)
                 (A) (A) (A) (A) (A) (A) (A) (A) (A) (A) (A) (A)
                 (A) (A) (A) (A) (A) (A) (A) (A) (A) (A) (A) (A)
                 (A) (A) (A) (A) (A) (A) (A) (A) (A) (A) (A) (A)
                 (A) (A) (A) (A) (A) (A) (A) (A) (A) (A) (A) (A)
                 (A) (A) (A) (A) (A) (A) (A) (A) (A) (A) (A) (A)
                 (A) (A) (A) (A) (A) (A) (A) (A) (A) (A)
       Virtual   (A) (A) (A) (A) (A) (A) (A) (A) (A) (A) (A) (A)
                 (A) (A) (A) (A) (A) (A) (A) (A) (A) (A) (A) (A)
                 (A) (A) (A) (A) (A) (A) (A) (A) (A) (A) (A) (A)
                 (A) (A) (A) (A) (A) (A) (A) (A) (A) (A) (A) (A)
                 (A) (A) (A) (A) (A) (A) (A) (A) (A) (A) (A) (A)
                 (A) (A) (A) (A) (A) (A) (A) (A) (A) (A) (A) (A)
                 (A) (A) (A) (A) (A) (A) (A) (A) (A) (A) (A) (A)
                 (A) (A) (A) (A) (A) (A) (A) (A) (A) (A) (A) (A)
                 (A) (A) (A) (A) (A) (A) (A) (A) (A) (A) (A) (A)
                 (A) (A) (A) (A) (A) (A) (A) (A) (A) (A) (A) (A)
                 (A) (A) (A) (A) (A) (A) (A) (A) (A) (A) (A) (A)
                 (A) (A) (A) (A) (A) (A) (A) (A) (A) (A) (A) (A)
                 (A) (A) (A) (A) (A) (A) (A) (A) (A) (A) (A) (A)
                 (A) (A) (A) (A) (A) (A) (A) (A) (A) (A) (A) (A)
                 (A) (A) (A) (A) (A) (A) (A) (A) (A) (A) (A) (A)
                 (A) (A) (A) (A) (A) (A) (A) (A) (A) (A) (A) (A)
                 (A) (A) (A) (A) (A) (A) (A) (A) (A) (A) (A) (A)
                 (A) (A) (A) (A) (A) (A) (A) (A) (A) (A) (A) (A)
                 (A) (A) (A) (A) (A) (A) (A) (A) (A) (A) (A) (A)
                 (A) (A) (A) (A) (A) (A) (A) (A) (A) (A) (A) (A)
                 (A) (A) (A) (A) (A) (A) (A) (A) (A) (A) (A) (A)
                 (A) (A) (A) (A) (A) (A) (A) (A) (A) (A) (A) (A)
                 (A) (A) (A) (A) (A) (A) (A) (A) (A) (A) (A) (A)
                 (A) (A) (A) (A) (A) (A) (A) (A) (A) (A) (A) (A)
                 (A) (A) (A) (A) (A) (A) (A) (A) (A) (A) (A) (A)
                 (A) (A) (A) (A) (A) (A) (A) (A) (A) (A) (A) (A)
                 (A) (A) (A) (A) (A) (A) (A) (A) (A) (A) (A) (A)
                 (A) (A) (A) (A) (A) (A) (A) (A) (A) (A) (A) (A)
                 (A) (A) (A) (A) (A) (A) (A) (A) (A) (A) (A) (A)
                 (A) (A) (A) (A) (A) (A) (A) (A) (A) (A) (A) (A)
                 (A) (A) (A) (A) (A) (A) (A) (A) (A) (A) (A) (A)
                 (A) (A) (A) (A) (A) (A) (A) (A) (A) (A) (A) (A)
                 (A) (A) (A) (A) (A) (A) (A) (A) (A) (A) (A) (A)
                 (A) (A) (A) (A) (A) (A) (A) (A) (A) (A) (A) (A)
                 (A) (A) (A) (A) (A) (A) (A) (A) (A) (A) (A) (A)
                 (A) (A) (A) (A) (A) (A) (A) (A) (A) (A) (A) (A)
                 (A) (A) (A) (A) (A) (A) (A) (A) (A) (A) (A) (A)
                 (A) (A) (A) (A) (A) (A) (A) (A) (A) (A) (A) (A)
                 (A) (A) (A) (A) (A) (A) (A) (A) (A) (A) (A) (A)
                 (A) (A) (A) (A) (A) (A) (A) (A) (A) (A) (A) (A)
                 (A) (A) (A) (A) (A) (A) (A) (A) (A) (A) (A) (A)
                 (A) (A) (A) (A) (A) (A) (A) (A) (A) (A) (A) (A)
                 (A) (A) (A) (A) (A) (A) (A) (A) (A) (A) (A) (A)
                 (A) (A) (A) (A) (A) (A) (A) (A) (A) (A) (A) (A)
                 (A) (A) (A) (A) (A) (A) (A) (A) (A) (A) (A) (A)
                 (A) (A) (A) (A) (A) (A) (A) (A) (A) (A) (A) (A)
                 (A) (A) (A) (A) (A) (A) (A) (A) (A) (A) (A) (A)
                 (A) (A) (A) (A) (A) (A) (A) (A) (A) (A) (A) (A)
                 (A) (A) (A) (A) (A) (A) (A) (A) (A) (A) (A) (A)
                 (A) (A) (A) (A) (A) (A) (A) (A) (A) (A) (A) (A)
                 (A) (A) (A) (A) (A) (A) (A) (A) (A) (A) (A) (A)
                 (A) (A) (A) (A) (A) (A) (A) (A) (A) (A) (A) (A)
                 (A) (A) (A) (A) (A) (A) (A) (A) (A) (A) (A) (A)
                 (A) (A) (A) (A) (A) (A) (A) (A) (A) (A) (A) (A)
                 (A) (A) (A) (A) (A) (A) (A) (A) (A) (A) (A) (A)
                 (A) (A) (A) (A) (A) (A) (A) (A) (A) (A) (A) (A)
                 (A) (A) (A) (A) (A) (A) (A) (A) (A) (A) (A) (A)
                 (A) (A) (A) (A) (A) (A) (A) (A) (A) (A) (A) (A)
                 (A) (A) (A) (A) (A) (A) (A) (A) (A) (A) (A) (A)
                 (A) (A) (A) (A) (A) (A) (A) (A) (A) (A) (A) (A)
                 (A) (A) (A) (A) (A) (A) (A) (A) (A) (A) (A) (A)
                 (A) (A) (A) (A) (A) (A) (A) (A) (A) (A) (A) (A)
                 (A) (A) (A) (A) (A) (A) (A) (A) (A) (A) (A) (A)
                 (A) (A) (A) (A) (A) (A) (A) (A) (A) (A) (A) (A)
                 (A) (A) (A) (A) (A) (A) (A) (A) (A) (A) (A) (A)
                 (A) (A) (A) (A) (A) (A) (A) (A) (A) (A) (A) (A)
                 (A) (A) (A) (A) (A) (A) (A) (A) (A) (A) (A) (A)
                 (A) (A) (A) (A) (A) (A) (A) (A) (A) (A) (A) (A)
                 (A) (A) (A) (A) (A) (A) (A) (A) (A) (A) (A) (A)
                 (A) (A) (A) (A) (A) (A) (A) (A) (A) (A) (A) (A)
                 (A) (A) (A) (A) (A) (A) (A) (A) (A) (A) (A) (A)
                 (A) (A) (A) (A) (A) (A) (A) (A) (A) (A) (A) (A)
                 (A) (A) (A) (A) (A) (A) (A) (A) (A) (A) (A) (A)
                 (A) (A) (A) (A) (A) (A) (A) (A) (A) (A) (A) (A)
                 (A) (A) (A) (A) (A) (A) (A) (A) (A) (A) (A) (A)
                 (A) (A) (A) (A) (A) (A) (A) (A) (A) (A) (A) (A)
                 (A) (A) (A) (A) (A) (A) (A) (A) (A) (A) (A) (A)
                 (A) (A) (A) (A) (A) (A) (A) (A) (A) (A) (A) (A)
                 (A) (A) (A) (A) (A) (A) (A) (A) (A) (A) (A) (A)
                 (A) (A) (A) (A) (A) (A) (A) (A) (A) (A) (A) (A)
                 (A) (A) (A) (A) (A) (A) (A) (A) (A) (A) (A) (A)
                 (A) (A) (A) (A) (A) (A) (A) (A) (A) (A) (A) (A)
                 (A) (A) (A) (A) (A) (A) (A) (A) (A) (A) (A) (A)
                 (A) (A) (A) (A) (A) (A) (A) (A) (A) (A) (A) (A)
                 (A) (A) (A) (A) (A) (A) (A) (A) (A) (A) (A) (A)
                 (A) (A) (A) (A) (A) (A) (A) (A) (A) (A) (A) (A)
                 (A) (A) (A) (A) (A) (A) (A) (A) (A) (A) (A) (A)
                 (A) (A) (A) (A) (A) (A) (A) (A) (A) (A) (A) (A)
                 (A) (A) (A) (A) (A) (A) (A) (A) (A) (A) (A) (A)
                 (A) (A) (A) (A) (A) (A) (A) (A) (A) (A) (A) (A)
                 (A) (A) (A) (A) (A) (A) (A) (A) (A) (A) (A) (A)
                 (A) (A) (A) (A) (A) (A) (A) (A) (A) (A) (A) (A)
                 (A) (A) (A) (A) (A) (A) (A) (A) (A) (A) (A) (A)
                 (A) (A) (A) (A) (A) (A) (A) (A) (A) (A) (A) (A)
                 (A) (A) (A) (A) (A) (A) (A) (A) (A) (A) (A) (A)
                 (A) (A) (A) (A) (A) (A) (A) (A) (A) (A) (A) (A)
                 (A) (A) (A) (A) (A) (A) (A) (A) (A) (A) (A) (A)
                 (A) (A) (A) (A) (A) (A) (A) (A) (A) (A) (A) (A)
                 (A) (A) (A) (A) (A) (A) (A) (A) (A) (A) (A) (A)
                 (A) (A) (A) (A) (A) (A) (A) (A) (A) (A) (A) (A)
                 (A) (A) (A) (A) (A) (A) (A) (A) (A) (A) (A) (A)
                 (A) (A) (A) (A) (A) (A) (A) (A) (A) (A) (A) (A)
                 (A) (A) (A) (A) (A) (A) (A) (A) (A) (A) (A) (A)
                 (A) (A) (A) (A) (A) (A) (A) (A) (A) (A) (A) (A)
                 (A) (A) (A) (A) (A) (A) (A) (A) (A) (A) (A) (A)
                 (A) (A) (A) (A) (A) (A) (A) (A) (A) (A) (A) (A)
                 (A) (A) (A) (A) (A) (A) (A) (A) (A) (A) (A) (A)
                 (A) (A) (A) (A) (A) (A) (A) (A) (A) (A) (A) (A)
                 (A) (A) (A) (A) (A) (A) (A) (A) (A) (A) (A) (A)
                 (A) (A) (A) (A) (A) (A) (A) (A) (A) (A) (A) (A)
                 (A) (A) (A) (A) (A) (A) (A) (A) (A) (A) (A) (A)
                 (A) (A) (A) (A) (A) (A) (A) (A) (A) (A) (A) (A)
                 (A) (A) (A) (A) (A) (A) (A) (A) (A) (A) (A) (A)
                 (A) (A) (A)
 The electronic state is 1-A.
 Alpha  occ. eigenvalues -- -145.36827 -19.18945 -19.18301 -19.14534 -19.13601
 Alpha  occ. eigenvalues --  -19.13235 -19.10964 -19.10722 -19.10309 -19.09986
 Alpha  occ. eigenvalues --  -19.09926 -19.09829 -19.07973 -19.07286 -19.06784
 Alpha  occ. eigenvalues --  -19.06551 -19.05132 -19.04894 -19.04387 -19.03768
 Alpha  occ. eigenvalues --  -19.03700 -19.02917 -19.02816 -19.02073 -15.42567
 Alpha  occ. eigenvalues --  -14.59159 -14.40420 -14.38610 -14.36852 -14.36157
 Alpha  occ. eigenvalues --  -14.35544 -14.35058 -14.34057 -14.32966 -14.32440
 Alpha  occ. eigenvalues --  -14.31683 -14.31598 -14.30021 -14.29680 -14.28842
 Alpha  occ. eigenvalues --  -12.56196 -12.56152 -12.56114 -10.35187 -10.32477
 Alpha  occ. eigenvalues --  -10.31319 -10.29443 -10.29432 -10.29337 -10.28690
 Alpha  occ. eigenvalues --  -10.28222 -10.27822 -10.27368 -10.26801 -10.26675
 Alpha  occ. eigenvalues --  -10.25917 -10.25871 -10.25537 -10.25494 -10.25231
 Alpha  occ. eigenvalues --  -10.23902 -10.23499 -10.23407 -10.23380 -10.23334
 Alpha  occ. eigenvalues --  -10.23322 -10.22986 -10.22877 -10.22707 -10.22553
 Alpha  occ. eigenvalues --  -10.22479 -10.22334 -10.22006 -10.21807 -10.20544
 Alpha  occ. eigenvalues --  -10.20419 -10.20411 -10.19968 -10.19783 -10.19301
 Alpha  occ. eigenvalues --  -10.19270 -10.19037 -10.18881 -10.17916 -10.17789
 Alpha  occ. eigenvalues --  -10.17695 -10.17564 -10.17166 -10.16823 -10.16805
 Alpha  occ. eigenvalues --  -10.16413 -10.16250 -10.15980 -10.15935 -10.15898
 Alpha  occ. eigenvalues --  -10.15863 -10.14887  -1.79417  -1.14406  -1.07702
 Alpha  occ. eigenvalues --   -1.07396  -1.07046  -1.06897  -1.06700  -1.05736
 Alpha  occ. eigenvalues --   -1.05130  -1.04423  -1.04111  -1.03585  -1.03024
 Alpha  occ. eigenvalues --   -1.02904  -1.02405  -1.00908  -1.00527  -1.00156
 Alpha  occ. eigenvalues --   -0.99217  -0.98579  -0.98497  -0.97901  -0.97762
 Alpha  occ. eigenvalues --   -0.97559  -0.96855  -0.96073  -0.95726  -0.94119
 Alpha  occ. eigenvalues --   -0.93244  -0.93071  -0.92840  -0.90882  -0.90512
 Alpha  occ. eigenvalues --   -0.89450  -0.89398  -0.88869  -0.88834  -0.88504
 Alpha  occ. eigenvalues --   -0.88470  -0.87555  -0.86997  -0.86374  -0.85307
 Alpha  occ. eigenvalues --   -0.83459  -0.82052  -0.81874  -0.81229  -0.80868
 Alpha  occ. eigenvalues --   -0.79740  -0.78502  -0.77016  -0.76907  -0.75673
 Alpha  occ. eigenvalues --   -0.74819  -0.74444  -0.74263  -0.73810  -0.72860
 Alpha  occ. eigenvalues --   -0.72245  -0.71621  -0.71148  -0.70873  -0.70657
 Alpha  occ. eigenvalues --   -0.70136  -0.69180  -0.68833  -0.68230  -0.67987
 Alpha  occ. eigenvalues --   -0.67487  -0.66998  -0.64895  -0.64500  -0.64228
 Alpha  occ. eigenvalues --   -0.63644  -0.63401  -0.63080  -0.62744  -0.62318
 Alpha  occ. eigenvalues --   -0.62282  -0.61063  -0.60715  -0.60638  -0.59472
 Alpha  occ. eigenvalues --   -0.59406  -0.58803  -0.58702  -0.58628  -0.57784
 Alpha  occ. eigenvalues --   -0.57210  -0.56763  -0.56643  -0.56458  -0.56450
 Alpha  occ. eigenvalues --   -0.56299  -0.55875  -0.55620  -0.54809  -0.54521
 Alpha  occ. eigenvalues --   -0.54375  -0.54096  -0.53608  -0.53392  -0.52906
 Alpha  occ. eigenvalues --   -0.52877  -0.52310  -0.52054  -0.51804  -0.51725
 Alpha  occ. eigenvalues --   -0.51485  -0.51182  -0.50631  -0.50556  -0.50054
 Alpha  occ. eigenvalues --   -0.49842  -0.49774  -0.49563  -0.49054  -0.48531
 Alpha  occ. eigenvalues --   -0.48204  -0.48045  -0.47887  -0.47679  -0.47386
 Alpha  occ. eigenvalues --   -0.47219  -0.46873  -0.46828  -0.46692  -0.46477
 Alpha  occ. eigenvalues --   -0.46347  -0.46235  -0.45800  -0.45596  -0.45391
 Alpha  occ. eigenvalues --   -0.45297  -0.45254  -0.44948  -0.44915  -0.44841
 Alpha  occ. eigenvalues --   -0.44454  -0.44398  -0.44308  -0.44038  -0.43766
 Alpha  occ. eigenvalues --   -0.43651  -0.43574  -0.43378  -0.43123  -0.42972
 Alpha  occ. eigenvalues --   -0.42767  -0.42669  -0.42516  -0.42440  -0.42113
 Alpha  occ. eigenvalues --   -0.41984  -0.41809  -0.41800  -0.41731  -0.41560
 Alpha  occ. eigenvalues --   -0.41245  -0.41226  -0.41092  -0.41058  -0.40756
 Alpha  occ. eigenvalues --   -0.40354  -0.40311  -0.40193  -0.40094  -0.39886
 Alpha  occ. eigenvalues --   -0.39755  -0.39681  -0.39589  -0.39515  -0.39425
 Alpha  occ. eigenvalues --   -0.39266  -0.39005  -0.38704  -0.38574  -0.38476
 Alpha  occ. eigenvalues --   -0.38313  -0.38265  -0.38207  -0.37968  -0.37888
 Alpha  occ. eigenvalues --   -0.37793  -0.37589  -0.37568  -0.37415  -0.37267
 Alpha  occ. eigenvalues --   -0.37104  -0.36942  -0.36846  -0.36715  -0.36685
 Alpha  occ. eigenvalues --   -0.36336  -0.36288  -0.36106  -0.35846  -0.35559
 Alpha  occ. eigenvalues --   -0.35402  -0.35169  -0.35037  -0.34680  -0.34676
 Alpha  occ. eigenvalues --   -0.34321  -0.34086  -0.33899  -0.33830  -0.33715
 Alpha  occ. eigenvalues --   -0.33453  -0.33381  -0.33198  -0.33079  -0.32702
 Alpha  occ. eigenvalues --   -0.32424  -0.32150  -0.32119  -0.31679  -0.31215
 Alpha  occ. eigenvalues --   -0.31058  -0.30729  -0.30715  -0.30563  -0.30285
 Alpha  occ. eigenvalues --   -0.30283  -0.29920  -0.29463  -0.28367  -0.28194
 Alpha  occ. eigenvalues --   -0.27870  -0.27776  -0.27581  -0.27003  -0.26718
 Alpha  occ. eigenvalues --   -0.26338  -0.26279  -0.25591  -0.25437  -0.25094
 Alpha  occ. eigenvalues --   -0.25048  -0.24609  -0.23644  -0.23471  -0.23252
 Alpha  occ. eigenvalues --   -0.22981  -0.22666  -0.22613  -0.22382  -0.21886
 Alpha  occ. eigenvalues --   -0.21813  -0.21761  -0.21617  -0.21274  -0.20857
 Alpha  occ. eigenvalues --   -0.20613  -0.19733  -0.19276  -0.19087  -0.18957
 Alpha  occ. eigenvalues --   -0.18802  -0.17936  -0.17781
 Alpha virt. eigenvalues --   -0.10840  -0.05304  -0.04550  -0.02934  -0.02304
 Alpha virt. eigenvalues --   -0.01633  -0.01412  -0.01180   0.00081   0.00324
 Alpha virt. eigenvalues --    0.00339   0.00965   0.01283   0.01466   0.01592
 Alpha virt. eigenvalues --    0.02470   0.02585   0.02755   0.03137   0.03290
 Alpha virt. eigenvalues --    0.03540   0.03859   0.03915   0.04319   0.04517
 Alpha virt. eigenvalues --    0.04823   0.05328   0.05453   0.06066   0.06178
 Alpha virt. eigenvalues --    0.06202   0.06577   0.06753   0.06818   0.06942
 Alpha virt. eigenvalues --    0.07173   0.07495   0.07557   0.07824   0.07985
 Alpha virt. eigenvalues --    0.08253   0.08373   0.08611   0.08881   0.08927
 Alpha virt. eigenvalues --    0.09164   0.09377   0.09482   0.09703   0.09818
 Alpha virt. eigenvalues --    0.09875   0.10089   0.10268   0.10413   0.10677
 Alpha virt. eigenvalues --    0.10805   0.11020   0.11246   0.11337   0.11706
 Alpha virt. eigenvalues --    0.12012   0.12116   0.12366   0.12556   0.12625
 Alpha virt. eigenvalues --    0.12794   0.12880   0.13109   0.13284   0.13458
 Alpha virt. eigenvalues --    0.13673   0.13751   0.13914   0.14172   0.14274
 Alpha virt. eigenvalues --    0.14484   0.14663   0.14862   0.15125   0.15213
 Alpha virt. eigenvalues --    0.15335   0.15427   0.15850   0.16104   0.16183
 Alpha virt. eigenvalues --    0.16389   0.16446   0.16590   0.16743   0.16844
 Alpha virt. eigenvalues --    0.16917   0.17213   0.17413   0.17644   0.17663
 Alpha virt. eigenvalues --    0.17834   0.17981   0.18082   0.18313   0.18440
 Alpha virt. eigenvalues --    0.18532   0.18855   0.19389   0.19522   0.19708
 Alpha virt. eigenvalues --    0.19769   0.20053   0.20146   0.20238   0.20382
 Alpha virt. eigenvalues --    0.20393   0.20868   0.21118   0.21549   0.21673
 Alpha virt. eigenvalues --    0.21800   0.22040   0.22407   0.22742   0.22865
 Alpha virt. eigenvalues --    0.23028   0.23250   0.23657   0.23744   0.23783
 Alpha virt. eigenvalues --    0.23935   0.24214   0.24280   0.24398   0.24732
 Alpha virt. eigenvalues --    0.25022   0.25197   0.25307   0.25572   0.26114
 Alpha virt. eigenvalues --    0.26202   0.26478   0.26589   0.26743   0.26939
 Alpha virt. eigenvalues --    0.27085   0.27179   0.27356   0.27670   0.27832
 Alpha virt. eigenvalues --    0.27997   0.28149   0.28619   0.28748   0.29053
 Alpha virt. eigenvalues --    0.29281   0.29536   0.29737   0.29893   0.30023
 Alpha virt. eigenvalues --    0.30191   0.30692   0.31144   0.31199   0.31479
 Alpha virt. eigenvalues --    0.31663   0.31837   0.32264   0.32440   0.32711
 Alpha virt. eigenvalues --    0.33157   0.33379   0.33452   0.33838   0.34195
 Alpha virt. eigenvalues --    0.34380   0.34464   0.34669   0.34834   0.35178
 Alpha virt. eigenvalues --    0.35545   0.36027   0.36363   0.36547   0.36740
 Alpha virt. eigenvalues --    0.37139   0.37274   0.37561   0.37813   0.38083
 Alpha virt. eigenvalues --    0.38541   0.38748   0.38908   0.39088   0.39220
 Alpha virt. eigenvalues --    0.39549   0.39775   0.39865   0.40105   0.40597
 Alpha virt. eigenvalues --    0.40850   0.41136   0.41329   0.41655   0.41902
 Alpha virt. eigenvalues --    0.42016   0.42176   0.42820   0.43230   0.43370
 Alpha virt. eigenvalues --    0.43445   0.43572   0.43788   0.43970   0.44226
 Alpha virt. eigenvalues --    0.44834   0.44912   0.45002   0.45198   0.45439
 Alpha virt. eigenvalues --    0.45673   0.45957   0.46104   0.46263   0.46398
 Alpha virt. eigenvalues --    0.46554   0.46814   0.46956   0.47275   0.47361
 Alpha virt. eigenvalues --    0.47461   0.47757   0.47923   0.48159   0.48211
 Alpha virt. eigenvalues --    0.48618   0.48744   0.49088   0.49287   0.49377
 Alpha virt. eigenvalues --    0.49509   0.49755   0.49961   0.50306   0.50429
 Alpha virt. eigenvalues --    0.50639   0.50796   0.50959   0.51267   0.51405
 Alpha virt. eigenvalues --    0.51595   0.51683   0.51881   0.51964   0.52201
 Alpha virt. eigenvalues --    0.52362   0.52549   0.52676   0.52856   0.53141
 Alpha virt. eigenvalues --    0.53301   0.53519   0.53639   0.53902   0.53999
 Alpha virt. eigenvalues --    0.54342   0.54496   0.54639   0.54734   0.55210
 Alpha virt. eigenvalues --    0.55228   0.55361   0.55589   0.55694   0.56029
 Alpha virt. eigenvalues --    0.56131   0.56462   0.56606   0.56710   0.57103
 Alpha virt. eigenvalues --    0.57244   0.57416   0.57574   0.57636   0.57669
 Alpha virt. eigenvalues --    0.57929   0.58259   0.58310   0.58491   0.58624
 Alpha virt. eigenvalues --    0.58802   0.59069   0.59141   0.59263   0.59461
 Alpha virt. eigenvalues --    0.59601   0.59800   0.59883   0.60090   0.60296
 Alpha virt. eigenvalues --    0.60340   0.60524   0.60620   0.60743   0.60832
 Alpha virt. eigenvalues --    0.60869   0.61308   0.61371   0.61444   0.61560
 Alpha virt. eigenvalues --    0.61741   0.61838   0.62005   0.62133   0.62310
 Alpha virt. eigenvalues --    0.62402   0.62500   0.62778   0.62971   0.63130
 Alpha virt. eigenvalues --    0.63155   0.63199   0.63441   0.63529   0.63558
 Alpha virt. eigenvalues --    0.63636   0.63812   0.63911   0.64009   0.64232
 Alpha virt. eigenvalues --    0.64254   0.64481   0.64602   0.64730   0.64843
 Alpha virt. eigenvalues --    0.64889   0.65084   0.65269   0.65362   0.65503
 Alpha virt. eigenvalues --    0.65550   0.65744   0.65768   0.65932   0.66064
 Alpha virt. eigenvalues --    0.66141   0.66184   0.66305   0.66503   0.66632
 Alpha virt. eigenvalues --    0.66741   0.66907   0.66966   0.67115   0.67228
 Alpha virt. eigenvalues --    0.67408   0.67581   0.67652   0.67697   0.67847
 Alpha virt. eigenvalues --    0.68058   0.68230   0.68300   0.68493   0.68601
 Alpha virt. eigenvalues --    0.68783   0.68897   0.68963   0.69177   0.69221
 Alpha virt. eigenvalues --    0.69265   0.69493   0.69652   0.69720   0.69812
 Alpha virt. eigenvalues --    0.69860   0.70115   0.70185   0.70443   0.70553
 Alpha virt. eigenvalues --    0.70702   0.70742   0.70886   0.70938   0.71136
 Alpha virt. eigenvalues --    0.71191   0.71404   0.71532   0.71670   0.71787
 Alpha virt. eigenvalues --    0.71919   0.72060   0.72129   0.72415   0.72604
 Alpha virt. eigenvalues --    0.72655   0.72808   0.72995   0.73118   0.73153
 Alpha virt. eigenvalues --    0.73355   0.73591   0.73922   0.73949   0.74178
 Alpha virt. eigenvalues --    0.74264   0.74398   0.74464   0.74638   0.74730
 Alpha virt. eigenvalues --    0.74900   0.75050   0.75356   0.75447   0.75672
 Alpha virt. eigenvalues --    0.75835   0.76032   0.76202   0.76351   0.76564
 Alpha virt. eigenvalues --    0.76922   0.77373   0.77535   0.77789   0.78002
 Alpha virt. eigenvalues --    0.78357   0.78513   0.78603   0.79060   0.79545
 Alpha virt. eigenvalues --    0.79614   0.79948   0.80014   0.80147   0.80225
 Alpha virt. eigenvalues --    0.80638   0.80936   0.81282   0.81342   0.81467
 Alpha virt. eigenvalues --    0.81906   0.82201   0.82659   0.82751   0.82967
 Alpha virt. eigenvalues --    0.83653   0.83755   0.83982   0.84221   0.84404
 Alpha virt. eigenvalues --    0.84671   0.84878   0.85155   0.85402   0.85765
 Alpha virt. eigenvalues --    0.85943   0.86422   0.86925   0.87447   0.87490
 Alpha virt. eigenvalues --    0.87722   0.87854   0.88084   0.88220   0.88653
 Alpha virt. eigenvalues --    0.88814   0.89354   0.89620   0.90128   0.90280
 Alpha virt. eigenvalues --    0.90410   0.91009   0.91109   0.91547   0.91743
 Alpha virt. eigenvalues --    0.92182   0.92477   0.92831   0.93205   0.93477
 Alpha virt. eigenvalues --    0.93782   0.94073   0.94209   0.94656   0.94924
 Alpha virt. eigenvalues --    0.95053   0.95275   0.95822   0.95932   0.96190
 Alpha virt. eigenvalues --    0.96530   0.96944   0.97260   0.97365   0.97827
 Alpha virt. eigenvalues --    0.97946   0.98169   0.98502   0.98715   0.99059
 Alpha virt. eigenvalues --    0.99118   0.99617   1.00052   1.00293   1.00433
 Alpha virt. eigenvalues --    1.00683   1.00888   1.01247   1.01308   1.01605
 Alpha virt. eigenvalues --    1.02310   1.02457   1.02605   1.02672   1.02908
 Alpha virt. eigenvalues --    1.03308   1.03424   1.03998   1.04298   1.04714
 Alpha virt. eigenvalues --    1.04773   1.04912   1.05376   1.05503   1.05749
 Alpha virt. eigenvalues --    1.05991   1.06384   1.06533   1.07032   1.07174
 Alpha virt. eigenvalues --    1.07203   1.07743   1.08157   1.08402   1.08686
 Alpha virt. eigenvalues --    1.08986   1.09444   1.09514   1.09750   1.09932
 Alpha virt. eigenvalues --    1.10340   1.10482   1.10998   1.11352   1.11488
 Alpha virt. eigenvalues --    1.11574   1.11920   1.12554   1.12619   1.12694
 Alpha virt. eigenvalues --    1.12845   1.13310   1.13689   1.13907   1.14019
 Alpha virt. eigenvalues --    1.14520   1.14732   1.15221   1.15848   1.16200
 Alpha virt. eigenvalues --    1.16319   1.16783   1.17245   1.17524   1.17642
 Alpha virt. eigenvalues --    1.17890   1.18093   1.18301   1.18646   1.18729
 Alpha virt. eigenvalues --    1.18929   1.19554   1.19634   1.19929   1.20151
 Alpha virt. eigenvalues --    1.20688   1.21119   1.21363   1.21573   1.21707
 Alpha virt. eigenvalues --    1.21983   1.22256   1.22409   1.22790   1.22968
 Alpha virt. eigenvalues --    1.23178   1.23516   1.23647   1.23882   1.24110
 Alpha virt. eigenvalues --    1.24222   1.24479   1.24625   1.24849   1.24952
 Alpha virt. eigenvalues --    1.25393   1.25730   1.26136   1.26379   1.26471
 Alpha virt. eigenvalues --    1.26636   1.26757   1.27053   1.27360   1.27561
 Alpha virt. eigenvalues --    1.27844   1.27919   1.28407   1.28563   1.28915
 Alpha virt. eigenvalues --    1.29235   1.29389   1.29688   1.29941   1.30240
 Alpha virt. eigenvalues --    1.30383   1.30815   1.31036   1.31222   1.31542
 Alpha virt. eigenvalues --    1.31642   1.31963   1.32103   1.32377   1.32600
 Alpha virt. eigenvalues --    1.32813   1.33155   1.33314   1.33789   1.33877
 Alpha virt. eigenvalues --    1.34336   1.34437   1.34737   1.34913   1.35424
 Alpha virt. eigenvalues --    1.35708   1.36144   1.36426   1.36615   1.37094
 Alpha virt. eigenvalues --    1.37223   1.37444   1.37574   1.37700   1.38061
 Alpha virt. eigenvalues --    1.38171   1.38481   1.38611   1.38870   1.39084
 Alpha virt. eigenvalues --    1.39418   1.39547   1.40061   1.40405   1.40459
 Alpha virt. eigenvalues --    1.40637   1.40905   1.41314   1.41485   1.41744
 Alpha virt. eigenvalues --    1.42318   1.42546   1.42915   1.43053   1.43647
 Alpha virt. eigenvalues --    1.43906   1.44386   1.44590   1.44871   1.45267
 Alpha virt. eigenvalues --    1.45448   1.45805   1.46352   1.46472   1.46506
 Alpha virt. eigenvalues --    1.46809   1.47465   1.47751   1.47867   1.48144
 Alpha virt. eigenvalues --    1.48392   1.48681   1.49227   1.49525   1.49841
 Alpha virt. eigenvalues --    1.49906   1.50474   1.50702   1.50974   1.51574
 Alpha virt. eigenvalues --    1.51821   1.52227   1.52594   1.52747   1.52884
 Alpha virt. eigenvalues --    1.53064   1.53300   1.53417   1.54020   1.54264
 Alpha virt. eigenvalues --    1.54440   1.54750   1.54874   1.55097   1.55561
 Alpha virt. eigenvalues --    1.55675   1.55842   1.56070   1.56693   1.57012
 Alpha virt. eigenvalues --    1.57439   1.58021   1.58394   1.58502   1.59279
 Alpha virt. eigenvalues --    1.59510   1.59627   1.60103   1.60459   1.60654
 Alpha virt. eigenvalues --    1.60972   1.61189   1.61454   1.61848   1.61941
 Alpha virt. eigenvalues --    1.62246   1.62532   1.62782   1.63286   1.63664
 Alpha virt. eigenvalues --    1.64060   1.64481   1.64591   1.65150   1.65528
 Alpha virt. eigenvalues --    1.65730   1.66192   1.66352   1.66864   1.67174
 Alpha virt. eigenvalues --    1.67525   1.67651   1.68222   1.68548   1.68699
 Alpha virt. eigenvalues --    1.68941   1.69139   1.69295   1.69298   1.69596
 Alpha virt. eigenvalues --    1.69919   1.70388   1.70576   1.70634   1.70836
 Alpha virt. eigenvalues --    1.71165   1.71689   1.71775   1.71993   1.72341
 Alpha virt. eigenvalues --    1.72394   1.72674   1.72872   1.72940   1.73258
 Alpha virt. eigenvalues --    1.73318   1.73504   1.73697   1.73844   1.74238
 Alpha virt. eigenvalues --    1.74488   1.74685   1.75080   1.75169   1.75357
 Alpha virt. eigenvalues --    1.75467   1.75806   1.75985   1.76044   1.76170
 Alpha virt. eigenvalues --    1.76378   1.76646   1.76934   1.76968   1.77127
 Alpha virt. eigenvalues --    1.77181   1.77380   1.77666   1.77765   1.77973
 Alpha virt. eigenvalues --    1.78111   1.78270   1.78384   1.78445   1.78582
 Alpha virt. eigenvalues --    1.78659   1.79066   1.79181   1.79369   1.79608
 Alpha virt. eigenvalues --    1.79660   1.79838   1.79970   1.80039   1.80303
 Alpha virt. eigenvalues --    1.80442   1.80606   1.80694   1.80847   1.81073
 Alpha virt. eigenvalues --    1.81095   1.81241   1.81404   1.81538   1.81760
 Alpha virt. eigenvalues --    1.82316   1.82493   1.82639   1.82758   1.82935
 Alpha virt. eigenvalues --    1.82937   1.83166   1.83397   1.83496   1.83677
 Alpha virt. eigenvalues --    1.83942   1.84107   1.84592   1.84928   1.85293
 Alpha virt. eigenvalues --    1.85390   1.85509   1.85884   1.85940   1.86413
 Alpha virt. eigenvalues --    1.86561   1.86719   1.86828   1.87060   1.87191
 Alpha virt. eigenvalues --    1.87322   1.87405   1.87836   1.88043   1.88079
 Alpha virt. eigenvalues --    1.88386   1.88458   1.88783   1.89439   1.89566
 Alpha virt. eigenvalues --    1.89655   1.89892   1.90123   1.90342   1.90531
 Alpha virt. eigenvalues --    1.90573   1.90667   1.90721   1.90839   1.91119
 Alpha virt. eigenvalues --    1.91147   1.91494   1.91589   1.91886   1.92145
 Alpha virt. eigenvalues --    1.92277   1.92346   1.92544   1.92865   1.92920
 Alpha virt. eigenvalues --    1.93279   1.93393   1.93615   1.93798   1.93990
 Alpha virt. eigenvalues --    1.94419   1.94540   1.94781   1.94938   1.95099
 Alpha virt. eigenvalues --    1.95249   1.95413   1.95831   1.95867   1.96166
 Alpha virt. eigenvalues --    1.96508   1.96857   1.97040   1.97109   1.97460
 Alpha virt. eigenvalues --    1.97618   1.97886   1.98291   1.98473   1.98675
 Alpha virt. eigenvalues --    1.98929   1.99078   1.99342   1.99670   1.99865
 Alpha virt. eigenvalues --    2.00192   2.00385   2.00649   2.00990   2.01068
 Alpha virt. eigenvalues --    2.01134   2.01283   2.01380   2.01527   2.01628
 Alpha virt. eigenvalues --    2.01963   2.02294   2.02435   2.02775   2.02828
 Alpha virt. eigenvalues --    2.03047   2.03152   2.03521   2.03825   2.03981
 Alpha virt. eigenvalues --    2.04272   2.04537   2.04664   2.04736   2.05238
 Alpha virt. eigenvalues --    2.05406   2.05774   2.06266   2.06624   2.06889
 Alpha virt. eigenvalues --    2.07016   2.07423   2.07621   2.08539   2.08901
 Alpha virt. eigenvalues --    2.09089   2.09238   2.09358   2.09475   2.09836
 Alpha virt. eigenvalues --    2.10262   2.10695   2.10809   2.10972   2.11436
 Alpha virt. eigenvalues --    2.11709   2.11919   2.12138   2.12168   2.12546
 Alpha virt. eigenvalues --    2.12648   2.12847   2.13339   2.13747   2.13895
 Alpha virt. eigenvalues --    2.14174   2.14685   2.15158   2.15205   2.15682
 Alpha virt. eigenvalues --    2.15950   2.16123   2.16506   2.16621   2.17081
 Alpha virt. eigenvalues --    2.17159   2.17723   2.18037   2.18214   2.18646
 Alpha virt. eigenvalues --    2.19014   2.19184   2.19774   2.19914   2.20281
 Alpha virt. eigenvalues --    2.20479   2.20657   2.20980   2.21193   2.21658
 Alpha virt. eigenvalues --    2.22185   2.22704   2.22813   2.22881   2.23051
 Alpha virt. eigenvalues --    2.23709   2.23784   2.23932   2.24192   2.24233
 Alpha virt. eigenvalues --    2.24535   2.24736   2.25164   2.25239   2.25542
 Alpha virt. eigenvalues --    2.25851   2.26581   2.26959   2.27097   2.28024
 Alpha virt. eigenvalues --    2.28444   2.28532   2.28711   2.29072   2.29566
 Alpha virt. eigenvalues --    2.29952   2.30276   2.30435   2.30658   2.31336
 Alpha virt. eigenvalues --    2.31555   2.31829   2.31957   2.32510   2.33044
 Alpha virt. eigenvalues --    2.33549   2.33610   2.33837   2.34126   2.34273
 Alpha virt. eigenvalues --    2.34814   2.35153   2.35789   2.36173   2.36423
 Alpha virt. eigenvalues --    2.36563   2.36646   2.36835   2.37025   2.37334
 Alpha virt. eigenvalues --    2.37752   2.37980   2.38616   2.38838   2.39136
 Alpha virt. eigenvalues --    2.39345   2.39401   2.39703   2.39803   2.39839
 Alpha virt. eigenvalues --    2.40166   2.40602   2.40981   2.41334   2.41675
 Alpha virt. eigenvalues --    2.42432   2.42589   2.42805   2.43126   2.43577
 Alpha virt. eigenvalues --    2.43887   2.44044   2.44223   2.44997   2.45456
 Alpha virt. eigenvalues --    2.45584   2.45995   2.46043   2.46138   2.46419
 Alpha virt. eigenvalues --    2.47225   2.47462   2.48003   2.48072   2.48307
 Alpha virt. eigenvalues --    2.48516   2.48808   2.49066   2.49166   2.49393
 Alpha virt. eigenvalues --    2.49600   2.50456   2.50719   2.50929   2.51480
 Alpha virt. eigenvalues --    2.51984   2.52253   2.52617   2.52651   2.52856
 Alpha virt. eigenvalues --    2.53295   2.53347   2.53431   2.54137   2.54403
 Alpha virt. eigenvalues --    2.54547   2.54918   2.55113   2.55662   2.55808
 Alpha virt. eigenvalues --    2.56525   2.56712   2.57450   2.57651   2.58617
 Alpha virt. eigenvalues --    2.58785   2.59151   2.59340   2.59608   2.59702
 Alpha virt. eigenvalues --    2.60399   2.60538   2.60855   2.61269   2.61803
 Alpha virt. eigenvalues --    2.61994   2.62202   2.62910   2.63134   2.63427
 Alpha virt. eigenvalues --    2.63892   2.64126   2.64389   2.64531   2.64612
 Alpha virt. eigenvalues --    2.64871   2.65900   2.66216   2.66384   2.66848
 Alpha virt. eigenvalues --    2.66974   2.67089   2.67252   2.67984   2.68271
 Alpha virt. eigenvalues --    2.68660   2.68777   2.68936   2.69167   2.70060
 Alpha virt. eigenvalues --    2.70116   2.70302   2.70620   2.70674   2.71221
 Alpha virt. eigenvalues --    2.71462   2.71638   2.71817   2.72231   2.72426
 Alpha virt. eigenvalues --    2.72658   2.72988   2.73153   2.73628   2.73675
 Alpha virt. eigenvalues --    2.74112   2.74298   2.74692   2.75193   2.75326
 Alpha virt. eigenvalues --    2.75698   2.75874   2.76306   2.76339   2.76603
 Alpha virt. eigenvalues --    2.76622   2.76866   2.77193   2.77294   2.77599
 Alpha virt. eigenvalues --    2.77873   2.78150   2.78264   2.78597   2.78664
 Alpha virt. eigenvalues --    2.78930   2.79073   2.79606   2.79864   2.80049
 Alpha virt. eigenvalues --    2.80352   2.80773   2.81166   2.81479   2.81772
 Alpha virt. eigenvalues --    2.81817   2.82062   2.82462   2.82548   2.82855
 Alpha virt. eigenvalues --    2.82978   2.83231   2.83648   2.83975   2.84292
 Alpha virt. eigenvalues --    2.84372   2.84461   2.84677   2.84912   2.85802
 Alpha virt. eigenvalues --    2.86107   2.86637   2.86852   2.87070   2.87206
 Alpha virt. eigenvalues --    2.87748   2.88100   2.88447   2.88626   2.88808
 Alpha virt. eigenvalues --    2.89186   2.89487   2.89911   2.90268   2.90580
 Alpha virt. eigenvalues --    2.91088   2.91247   2.91931   2.92277   2.92588
 Alpha virt. eigenvalues --    2.92714   2.93144   2.93439   2.93738   2.93853
 Alpha virt. eigenvalues --    2.94144   2.94262   2.94379   2.94586   2.94620
 Alpha virt. eigenvalues --    2.94822   2.95212   2.95320   2.95712   2.96228
 Alpha virt. eigenvalues --    2.96428   2.96563   2.97749   2.98193   2.98308
 Alpha virt. eigenvalues --    2.98410   2.98686   2.99715   2.99817   3.00058
 Alpha virt. eigenvalues --    3.00307   3.00815   3.01128   3.01212   3.01502
 Alpha virt. eigenvalues --    3.01585   3.02051   3.02264   3.02646   3.02686
 Alpha virt. eigenvalues --    3.03111   3.03184   3.03316   3.03802   3.04027
 Alpha virt. eigenvalues --    3.04565   3.04765   3.05185   3.05626   3.05699
 Alpha virt. eigenvalues --    3.06089   3.06660   3.07667   3.09101   3.09369
 Alpha virt. eigenvalues --    3.09540   3.09730   3.10224   3.11280   3.12261
 Alpha virt. eigenvalues --    3.12386   3.12661   3.12811   3.13194   3.13695
 Alpha virt. eigenvalues --    3.13828   3.13923   3.15000   3.15093   3.16296
 Alpha virt. eigenvalues --    3.16487   3.17459   3.17585   3.17923   3.18298
 Alpha virt. eigenvalues --    3.18581   3.18670   3.18725   3.19038   3.19368
 Alpha virt. eigenvalues --    3.19993   3.20745   3.20801   3.21211   3.21334
 Alpha virt. eigenvalues --    3.22033   3.22388   3.22609   3.23071   3.23352
 Alpha virt. eigenvalues --    3.23554   3.23850   3.24375   3.24519   3.25333
 Alpha virt. eigenvalues --    3.25777   3.26831   3.28018   3.28200   3.28256
 Alpha virt. eigenvalues --    3.29066   3.29561   3.30057   3.30709   3.31247
 Alpha virt. eigenvalues --    3.31660   3.31691   3.32111   3.32915   3.33314
 Alpha virt. eigenvalues --    3.33828   3.34234   3.34818   3.36177   3.38288
 Alpha virt. eigenvalues --    3.39123   3.41611   3.48493   3.48825   3.49800
 Alpha virt. eigenvalues --    3.51978   3.53479   3.54065   3.55126   3.56732
 Alpha virt. eigenvalues --    3.57753   3.58460   3.59257   3.59770   3.60160
 Alpha virt. eigenvalues --    3.62149   3.62429   3.62845   3.63639   3.64205
 Alpha virt. eigenvalues --    3.65943   3.66312   3.67050   3.67162   3.68485
 Alpha virt. eigenvalues --    3.68843   3.68940   3.69385   3.69903   3.70657
 Alpha virt. eigenvalues --    3.71132   3.71319   3.72086   3.72109   3.73048
 Alpha virt. eigenvalues --    3.73304   3.73409   3.74244   3.74350   3.75019
 Alpha virt. eigenvalues --    3.76593   3.78244   3.84112   3.84748
          Condensed to atoms (all electrons):
 Mulliken charges:
               1
     1  C    0.037442
     2  C    0.030100
     3  O   -0.288901
     4  H    0.037393
     5  H    0.024618
     6  H    0.021536
     7  N   -0.108796
     8  C    0.095301
     9  C    0.072627
    10  O   -0.284878
    11  C    0.100453
    12  C    0.100170
    13  O   -0.459331
    14  O   -0.366946
    15  H    0.115169
    16  H   -0.008239
    17  H    0.007414
    18  H    0.013511
    19  N   -0.148290
    20  C    0.108377
    21  C    0.057257
    22  O   -0.284770
    23  C    0.073424
    24  C   -0.012503
    25  C   -0.073343
    26  C    0.037259
    27  N    0.091146
    28  H    0.149567
    29  H    0.004168
    30  H   -0.017019
    31  H    0.040505
    32  H    0.013768
    33  H    0.011706
    34  H    0.013745
    35  H    0.064641
    36  H    0.088918
    37  H    0.064547
    38  H    0.192485
    39  H    0.185251
    40  H    0.194304
    41  N   -0.159973
    42  C    0.162204
    43  C    0.036216
    44  O   -0.284683
    45  C    0.086955
    46  C    0.121594
    47  O   -0.490263
    48  O   -0.375838
    49  H    0.118186
    50  H    0.012012
    51  H   -0.032851
    52  H    0.013384
    53  N   -0.135655
    54  C    0.246725
    55  C    0.016696
    56  O   -0.285414
    57  H    0.130966
    58  H    0.023371
    59  H    0.031124
    60  N   -0.165690
    61  C    0.161578
    62  C    0.023755
    63  O   -0.295436
    64  C    0.057028
    65  C    0.126964
    66  N   -0.047258
    67  O   -0.369570
    68  H    0.147437
    69  H    0.018165
    70  H    0.059020
    71  H   -0.006331
    72  H    0.121939
    73  H    0.117742
    74  N   -0.149144
    75  C    0.265186
    76  C   -0.008490
    77  O   -0.313865
    78  H    0.156916
    79  H    0.032877
    80  H    0.032408
    81  N   -0.140315
    82  C    0.180648
    83  C    0.119332
    84  O   -0.370975
    85  C    0.137839
    86  C   -0.036575
    87  C    0.033110
    88  C    0.026800
    89  C   -0.007085
    90  C   -0.044527
    91  C    0.164335
    92  O   -0.198239
    93  H    0.150696
    94  H   -0.015943
    95  H   -0.026020
    96  H   -0.023729
    97  H   -0.050482
    98  H   -0.041394
    99  H   -0.032807
   100  H   -0.048746
   101  H    0.168582
   102  N   -0.107500
   103  C    0.127159
   104  C    0.062144
   105  O   -0.292036
   106  C   -0.096267
   107  C   -0.002557
   108  C    0.102761
   109  C    0.026872
   110  H    0.131900
   111  H    0.015243
   112  H   -0.025787
   113  H   -0.000007
   114  H    0.019097
   115  H    0.000517
   116  H    0.028583
   117  H    0.006661
   118  H    0.011708
   119  H    0.009468
   120  H   -0.007060
   121  N   -0.123387
   122  C    0.075189
   123  C    0.121447
   124  O   -0.274831
   125  C    0.215950
   126  O   -0.292628
   127  H    0.143449
   128  H    0.023598
   129  H    0.033954
   130  H   -0.024225
   131  H    0.174246
   132  N   -0.112795
   133  C    0.057760
   134  C    0.054722
   135  O   -0.234112
   136  C    0.062585
   137  H    0.120542
   138  H    0.018645
   139  H    0.048931
   140  H    0.028034
   141  H    0.000741
   142  N   -0.139466
   143  C    0.095003
   144  C    0.055025
   145  O   -0.280113
   146  C    0.045359
   147  H    0.110377
   148  H    0.014910
   149  H    0.015792
   150  H    0.007481
   151  H    0.021321
   152  N   -0.149389
   153  C    0.173491
   154  C    0.059357
   155  O   -0.294453
   156  C   -0.098376
   157  C    0.153904
   158  C    0.107836
   159  O   -0.421046
   160  O   -0.425861
   161  H    0.136572
   162  H   -0.035574
   163  H    0.067113
   164  H    0.035153
   165  H   -0.041469
   166  H   -0.051764
   167  N   -0.156573
   168  C    0.131279
   169  H    0.026409
   170  H    0.037081
   171  H    0.007837
   172  H    0.131401
   173  Ca   1.313847
   174  O   -0.276897
   175  H    0.169987
   176  H    0.187456
 Sum of Mulliken charges =   0.00000
 Mulliken charges with hydrogens summed into heavy atoms:
               1
     1  C    0.120989
     2  C    0.030100
     3  O   -0.288901
     7  N    0.006373
     8  C    0.087061
     9  C    0.072627
    10  O   -0.284878
    11  C    0.121378
    12  C    0.100170
    13  O   -0.459331
    14  O   -0.366946
    19  N    0.001277
    20  C    0.112545
    21  C    0.057257
    22  O   -0.284770
    23  C    0.096910
    24  C    0.012971
    25  C    0.005043
    26  C    0.190724
    27  N    0.663187
    41  N   -0.041786
    42  C    0.174215
    43  C    0.036216
    44  O   -0.284683
    45  C    0.067489
    46  C    0.121594
    47  O   -0.490263
    48  O   -0.375838
    53  N   -0.004690
    54  C    0.301220
    55  C    0.016696
    56  O   -0.285414
    60  N   -0.018253
    61  C    0.179743
    62  C    0.023755
    63  O   -0.295436
    64  C    0.109716
    65  C    0.126964
    66  N    0.192423
    67  O   -0.369570
    74  N    0.007772
    75  C    0.330470
    76  C   -0.008490
    77  O   -0.313865
    81  N    0.010381
    82  C    0.164705
    83  C    0.119332
    84  O   -0.370975
    85  C    0.088090
    86  C   -0.036575
    87  C   -0.017372
    88  C   -0.014595
    89  C   -0.039892
    90  C   -0.093273
    91  C    0.164335
    92  O   -0.029657
   102  N    0.024400
   103  C    0.142402
   104  C    0.062144
   105  O   -0.292036
   106  C   -0.122054
   107  C    0.016533
   108  C    0.138522
   109  C    0.040988
   121  N    0.020062
   122  C    0.098787
   123  C    0.121447
   124  O   -0.274831
   125  C    0.225679
   126  O   -0.118382
   132  N    0.007746
   133  C    0.076404
   134  C    0.054722
   135  O   -0.234112
   136  C    0.140291
   142  N   -0.029090
   143  C    0.109913
   144  C    0.055025
   145  O   -0.280113
   146  C    0.089953
   152  N   -0.012817
   153  C    0.137918
   154  C    0.059357
   155  O   -0.294453
   156  C    0.003890
   157  C    0.060671
   158  C    0.107836
   159  O   -0.421046
   160  O   -0.425861
   167  N   -0.025172
   168  C    0.202607
   173  Ca   1.313847
   174  O    0.080545
 DipInt: DoE/N= T F RetVal/Mat= T F Init=T NMatP=  1 IDeriv=0 Min/MaxMlt=  0  4
 Entering OneElI...
 OneElI was handed  4286741430 working-precision words.
 Multipole integrals L=0 to 4 MinM= 0 MaxM= 0.
 Requested accuracy = 0.1000D-12
 ShPair: Thresh= 1.00D-13 NBox=     0 BxSize= 0.00D+00 RnKept= 2.55D+01
         NSMCal=               327645 NSMKep=              160888
 PrsmSu:  NPrtUS=   1 ThrOK=F IAlg=1 NPAlg=1 LenDen=           0.
 Prism:   IPart=     0 DynPar=F LinDyn=F Incr=         512.
 PRISM was handed  4276658318 working-precision words and160888 shell-pairs
 IPart=  0 NShTot=      160888 NBatch=         451 AvBLen=       356.7
 PrSmSu:  NxtVal=            513.
 Electronic moments (au):
       -716.00000000         16.10093249          0.66941782         -7.72313798
     -53640.69784560     -30518.44163484     -11657.69648822        104.22440987
        -58.23111558        -10.44518069     -59150.63240140     -16660.67343762
     -22985.30191244      35181.75411007     105493.65620262      46873.91583592
     -11859.62845692      -6174.70675334      22469.66635685      -5455.76430884
   -7787341.72890183   -2825652.37908589    -562485.02582059    -239934.12316691
     216610.84341993    -564530.36523892      57517.70389785     -86900.45199739
     -10931.10544111   -2456031.36159994    -651687.04288349    -316491.58452266
    -178138.07763079      19799.19723997      39866.69572646
 Electronic spatial extent (au):  <R**2>=          95816.8360
 DipInt: DoE/N= F T RetVal/Mat= T F Init=T NMatP=  1 IDeriv=0 Min/MaxMlt=  0  4
 Nuclear    moments (au):
        716.00000000          0.00000000          0.00000000          0.00000000
      53213.59383509      30135.04944982      11292.01618711          0.00000000
          0.00000000          0.00000000      60849.31261203      17280.07488155
      22827.80535137     -32765.69651767    -104904.26530262     -48055.84902045
      12241.83036884       6186.19943357     -23009.03351341       4995.27871133
    7597694.13908617    2721946.16471130     525901.46476695     253438.68825481
    -223056.57192936     579419.39308601     -60730.92653292      85602.92561487
      11762.01164697    2418332.36477160     617775.60517548     293951.73045432
     176556.03101679     -26561.81082660     -38430.50750368
 Total      moments (au):
          0.00000000         16.10093249          0.66941782         -7.72313798
       -427.10401050       -383.39218502       -365.68030111        104.22440987
        -58.23111558        -10.44518069       1698.68021063        619.40144392
       -157.49656107       2416.05759240        589.39090000      -1181.93318453
        382.20191192         11.49268023       -539.36715655       -460.48559751
    -189647.58981566    -103706.21437459     -36583.56105364      13504.56508790
      -6445.72850944      14889.02784709      -3213.22263507      -1297.52638253
        830.90620586     -37698.99682834     -33911.43770801     -22539.85406834
      -1582.04661401      -6762.61358663       1436.18822278
 Traceless Quadrup. (au):
        -35.04517829          8.66664719         26.37853110        104.22440987
        -58.23111558        -10.44518069
 Charge=              0.0000 electrons
 Dipole moment (field-independent basis, Debye):
    X=             40.9245    Y=              1.7015    Z=            -19.6303  Tot=             45.4209
 Quadrupole moment (field-independent basis, Debye-Ang):
   XX=           -574.4695   YY=           -515.6756   ZZ=           -491.8525
   XY=            140.1854   XZ=            -78.3228   YZ=            -14.0491
 Traceless Quadrupole moment (field-independent basis, Debye-Ang):
   XX=            -47.1370   YY=             11.6569   ZZ=             35.4800
   XY=            140.1854   XZ=            -78.3228   YZ=            -14.0491
 Octapole moment (field-independent basis, Debye-Ang**2):
  XXX=           1209.0551  YYY=            440.8661  ZZZ=           -112.1000  XYY=           1719.6566
  XXY=            419.5057  XXZ=           -841.2545  XZZ=            272.0366  YZZ=              8.1800
  YYZ=           -383.9007  XYZ=           -327.7559
 Hexadecapole moment (field-independent basis, Debye-Ang**3):
 XXXX=         -71430.3715 YYYY=         -39060.7306 ZZZZ=         -13779.1224 XXXY=           5086.4664
 XXXZ=          -2427.7703 YYYX=           5607.9215 YYYZ=          -1210.2536 ZZZX=           -488.7106
 ZZZY=            312.9591 XXYY=         -14199.2490 XXZZ=         -12772.6727 YYZZ=          -8489.5893
 XXYZ=           -595.8746 YYXZ=          -2547.1244 ZZXY=            540.9373
 N-N= 2.167586291229D+04 E-N=-5.583443270467D+04  KE= 5.290537577605D+03
 Leave Link  601 at Mon Sep 16 12:22:14 2019, MaxMem=  4294967296 cpu:        23.4
 FitSet:  NAtFit=   176 NAtPot=   176 NAtFrz=     0 MDM=   180 TotChg=   0.00000
 Merz-Kollman atomic radii used.
 Read replacement radii for each type of atom:
 Rad(20) =   1.700000000000D+00
 Atom Element Radius
    1     6    1.50
    2     6    1.50
    3     8    1.40
    4     1    1.20
    5     1    1.20
    6     1    1.20
    7     7    1.50
    8     6    1.50
    9     6    1.50
   10     8    1.40
   11     6    1.50
   12     6    1.50
   13     8    1.40
   14     8    1.40
   15     1    1.20
   16     1    1.20
   17     1    1.20
   18     1    1.20
   19     7    1.50
   20     6    1.50
   21     6    1.50
   22     8    1.40
   23     6    1.50
   24     6    1.50
   25     6    1.50
   26     6    1.50
   27     7    1.50
   28     1    1.20
   29     1    1.20
   30     1    1.20
   31     1    1.20
   32     1    1.20
   33     1    1.20
   34     1    1.20
   35     1    1.20
   36     1    1.20
   37     1    1.20
   38     1    1.20
   39     1    1.20
   40     1    1.20
   41     7    1.50
   42     6    1.50
   43     6    1.50
   44     8    1.40
   45     6    1.50
   46     6    1.50
   47     8    1.40
   48     8    1.40
   49     1    1.20
   50     1    1.20
   51     1    1.20
   52     1    1.20
   53     7    1.50
   54     6    1.50
   55     6    1.50
   56     8    1.40
   57     1    1.20
   58     1    1.20
   59     1    1.20
   60     7    1.50
   61     6    1.50
   62     6    1.50
   63     8    1.40
   64     6    1.50
   65     6    1.50
   66     7    1.50
   67     8    1.40
   68     1    1.20
   69     1    1.20
   70     1    1.20
   71     1    1.20
   72     1    1.20
   73     1    1.20
   74     7    1.50
   75     6    1.50
   76     6    1.50
   77     8    1.40
   78     1    1.20
   79     1    1.20
   80     1    1.20
   81     7    1.50
   82     6    1.50
   83     6    1.50
   84     8    1.40
   85     6    1.50
   86     6    1.50
   87     6    1.50
   88     6    1.50
   89     6    1.50
   90     6    1.50
   91     6    1.50
   92     8    1.40
   93     1    1.20
   94     1    1.20
   95     1    1.20
   96     1    1.20
   97     1    1.20
   98     1    1.20
   99     1    1.20
  100     1    1.20
  101     1    1.20
  102     7    1.50
  103     6    1.50
  104     6    1.50
  105     8    1.40
  106     6    1.50
  107     6    1.50
  108     6    1.50
  109     6    1.50
  110     1    1.20
  111     1    1.20
  112     1    1.20
  113     1    1.20
  114     1    1.20
  115     1    1.20
  116     1    1.20
  117     1    1.20
  118     1    1.20
  119     1    1.20
  120     1    1.20
  121     7    1.50
  122     6    1.50
  123     6    1.50
  124     8    1.40
  125     6    1.50
  126     8    1.40
  127     1    1.20
  128     1    1.20
  129     1    1.20
  130     1    1.20
  131     1    1.20
  132     7    1.50
  133     6    1.50
  134     6    1.50
  135     8    1.40
  136     6    1.50
  137     1    1.20
  138     1    1.20
  139     1    1.20
  140     1    1.20
  141     1    1.20
  142     7    1.50
  143     6    1.50
  144     6    1.50
  145     8    1.40
  146     6    1.50
  147     1    1.20
  148     1    1.20
  149     1    1.20
  150     1    1.20
  151     1    1.20
  152     7    1.50
  153     6    1.50
  154     6    1.50
  155     8    1.40
  156     6    1.50
  157     6    1.50
  158     6    1.50
  159     8    1.40
  160     8    1.40
  161     1    1.20
  162     1    1.20
  163     1    1.20
  164     1    1.20
  165     1    1.20
  166     1    1.20
  167     7    1.50
  168     6    1.50
  169     1    1.20
  170     1    1.20
  171     1    1.20
  172     1    1.20
  173    20    1.70
  174     8    1.40
  175     1    1.20
  176     1    1.20
 Generate VDW surfaces: Layer= 4 Dens= 6 Start= 1.400 Inc= 0.200

 **********************************************************************

            Electrostatic Properties Using The SCF Density

 **********************************************************************

       Atomic Center    1 is at   2.335778  2.195093  5.542131
       Atomic Center    2 is at   1.646540  2.353475  4.199422
       Atomic Center    3 is at   2.332373  2.287247  3.179252
[...]
 **** Fit      -0.006496
 **** Fit       0.003405
 **** Fit       0.011959
 **** Fit       0.055736
 **** Fit       0.052082
 **** Fit       0.058093
 **** Fit       0.054390
 **** Fit       0.058866
 **** Fit       0.059485
 **** Fit       0.061759
 **** Fit       0.062839
 **** Fit       0.063895
 **** Fit       0.059486
 **** Fit       0.061445
 **** Fit       0.061344
 **** Fit       0.014521
 **** Fit       0.020839
 **** Fit       0.027264
 **** Fit       0.039194
 **** Fit       0.072564
 **** Fit       0.062536
 **** Fit       0.070867
 **** Fit       0.061229
 **** Fit       0.053269
 **** Fit       0.053207
 **** Fit       0.055214
 **** Fit       0.057194
 **** Fit       0.055350
 **** Fit       0.056653
 **** Fit       0.058098
 **** Fit       0.059925
 **** Fit       0.056932
 **** Fit       0.057125
 **** Fit       0.058276
 **** Fit       0.059664
 **** Fit       0.057293
 **** Fit       0.058469
 **** Fit       0.058863
 **** Fit       0.058208
 **** Fit       0.069846
 **** Fit       0.061545
 **** Fit       0.062872
 **** Fit       0.070830
 **** Fit       0.062999
 **** Fit       0.068582
 **** Fit       0.064038
 **** Fit       0.062524
 **** Fit       0.065457
 **** Fit       0.065127
 **** Fit       0.064076
 **** Fit      -0.019106
 **** Fit      -0.003180
 **** Fit      -0.002941
 **** Fit      -0.003506
 **** Fit      -0.002557
 **** Fit      -0.002352
 **** Fit      -0.002800
 **** Fit      -0.003616
 **** Fit      -0.003897
 **** Fit      -0.002736
 **** Fit      -0.001459
 **** Fit      -0.001612
 **** Fit      -0.002099
 **** Fit      -0.002766
 **** Fit      -0.003571
 **** Fit      -0.004332
 **** Fit      -0.003002
 **** Fit      -0.000974
 **** Fit      -0.001464
 **** Fit      -0.002059
 **** Fit      -0.002836
 **** Fit      -0.003686
 **** Fit      -0.005589
 **** Fit      -0.003990
 **** Fit      -0.000920
 **** Fit      -0.001480
 **** Fit      -0.002104
 **** Fit      -0.003000
 **** Fit      -0.003856
 **** Fit      -0.004836
 **** Fit      -0.006207
 **** Fit      -0.004335
 **** Fit      -0.000609
 **** Fit      -0.001140
 **** Fit      -0.001675
 **** Fit      -0.002279
 **** Fit      -0.003238
 **** Fit      -0.004159
 **** Fit      -0.005254
 **** Fit      -0.009413
 **** Fit      -0.006944
 **** Fit      -0.004571
 **** Fit      -0.000320
 **** Fit      -0.000883
 **** Fit      -0.001382
 **** Fit      -0.001892
 **** Fit      -0.002491
 **** Fit      -0.003529
 **** Fit      -0.004503
 **** Fit      -0.005698
 **** Fit      -0.007114
 **** Fit      -0.014217
 **** Fit      -0.010981
 **** Fit      -0.007771
 **** Fit      -0.000827
 **** Fit      -0.001315
 **** Fit      -0.001742
 **** Fit      -0.002197
 **** Fit      -0.002770
 **** Fit      -0.006228
 **** Fit      -0.007825
 **** Fit      -0.009742
 **** Fit      -0.019555
 **** Fit      -0.015110
 **** Fit      -0.000913
 **** Fit      -0.001458
 **** Fit      -0.001854
 **** Fit      -0.010657
 **** Fit      -0.013261
 **** Fit      -0.001235
 **** Fit      -0.001900
 **** Fit      -0.011813
 **** Fit      -0.014697
 **** Fit      -0.018414
 **** Fit      -0.001669
 **** Fit      -0.002593
 **** Fit      -0.016955
 **** Fit      -0.021357
 **** Fit      -0.003207
 **** Fit      -0.004380
 **** Fit      -0.019493
 **** Fit      -0.024434
 **** Fit      -0.003681
 **** Fit      -0.005681
 **** Fit      -0.007271
 **** Fit      -0.003800
 **** Fit      -0.006862
 **** Fit      -0.027183
 **** Fit      -0.003354
 **** Fit      -0.002680
 **** Fit      -0.003602
 **** Fit      -0.004499
 **** Fit      -0.005731
 **** Fit      -0.002252
 **** Fit      -0.002558
 **** Fit      -0.002980
 **** Fit      -0.003999
 **** Fit      -0.004826
 **** Fit      -0.005994
 **** Fit      -0.007579
 **** Fit      -0.002493
 **** Fit      -0.002706
 **** Fit      -0.002878
 **** Fit      -0.003098
 **** Fit      -0.003447
 **** Fit      -0.004659
 **** Fit      -0.005447
 **** Fit      -0.006610
 **** Fit      -0.008241
 **** Fit      -0.010460
 **** Fit      -0.003403
 **** Fit      -0.003634
 **** Fit      -0.003730
 **** Fit      -0.003790
 **** Fit      -0.003908
 **** Fit      -0.004171
 **** Fit      -0.005713
 **** Fit      -0.006426
 **** Fit      -0.007540
 **** Fit      -0.009144
 **** Fit      -0.011367
 **** Fit      -0.014410
 **** Fit      -0.005308
 **** Fit      -0.005382
 **** Fit      -0.005311
 **** Fit      -0.005210
 **** Fit      -0.005183
 **** Fit      -0.005323
 **** Fit      -0.007318
 **** Fit      -0.007945
 **** Fit      -0.009022
 **** Fit      -0.010638
 **** Fit      -0.012915
 **** Fit      -0.016051
 **** Fit      -0.008094
 **** Fit      -0.008264
 **** Fit      -0.008096
 **** Fit      -0.007750
 **** Fit      -0.007381
 **** Fit      -0.007118
 **** Fit      -0.007068
 **** Fit      -0.009673
 **** Fit      -0.010202
 **** Fit      -0.011312
 **** Fit      -0.013094
 **** Fit      -0.015667
 **** Fit      -0.019232
 **** Fit      -0.012540
 **** Fit      -0.011656
 **** Fit      -0.010761
 **** Fit      -0.010047
 **** Fit      -0.009650
 **** Fit      -0.013038
 **** Fit      -0.013392
 **** Fit      -0.014567
 **** Fit      -0.016640
 **** Fit      -0.019708
 **** Fit      -0.023922
 **** Fit      -0.014487
 **** Fit      -0.013431
 **** Fit      -0.017756
 **** Fit      -0.017751
 **** Fit      -0.018932
 **** Fit      -0.021329
 **** Fit      -0.024939
 **** Fit      -0.029706
 **** Fit      -0.024854
 **** Fit      -0.027983
 **** Fit      -0.005136
 **** Fit      -0.004786
 **** Fit      -0.005963
 **** Fit      -0.006453
 **** Fit      -0.005649
 **** Fit      -0.004502
 **** Fit      -0.004116
 **** Fit      -0.004605
 **** Fit      -0.005786
 **** Fit      -0.007069
 **** Fit      -0.008039
 **** Fit      -0.008216
 **** Fit      -0.007525
 **** Fit      -0.006329
 **** Fit      -0.005037
 **** Fit      -0.003729
 **** Fit      -0.004605
 **** Fit      -0.005755
 **** Fit      -0.007100
 **** Fit      -0.008546
 **** Fit      -0.009850
 **** Fit      -0.010642
 **** Fit      -0.010628
 **** Fit      -0.009847
 **** Fit      -0.008619
 **** Fit      -0.007207
 **** Fit      -0.005778
 **** Fit      -0.004802
 **** Fit      -0.005997
 **** Fit      -0.007400
 **** Fit      -0.009022
 **** Fit      -0.010791
 **** Fit      -0.012491
 **** Fit      -0.013770
 **** Fit      -0.014239
 **** Fit      -0.013720
 **** Fit      -0.012453
 **** Fit      -0.010886
 **** Fit      -0.009217
 **** Fit      -0.007497
 **** Fit      -0.006506
 **** Fit      -0.008015
 **** Fit      -0.009805
 **** Fit      -0.011893
 **** Fit      -0.014194
 **** Fit      -0.016470
 **** Fit      -0.018313
 **** Fit      -0.019228
 **** Fit      -0.018851
 **** Fit      -0.017285
 **** Fit      -0.013125
 **** Fit      -0.011010
 **** Fit      -0.008863
 **** Fit      -0.010785
 **** Fit      -0.013094
 **** Fit      -0.015812
 **** Fit      -0.018848
 **** Fit      -0.021940
 **** Fit      -0.024628
 **** Fit      -0.013524
 **** Fit      -0.010217
 **** Fit      -0.012459
 **** Fit      -0.015210
 **** Fit      -0.018578
 **** Fit      -0.022572
 **** Fit      -0.014491
 **** Fit      -0.017708
 **** Fit      -0.021755
 **** Fit      -0.021119
 **** Fit      -0.001397
 **** Fit      -0.001276
 **** Fit      -0.001521
 **** Fit      -0.000671
 **** Fit      -0.000615
 **** Fit      -0.002770
 **** Fit      -0.001619
 **** Fit      -0.000613
 **** Fit       0.000003
 **** Fit       0.000207
 **** Fit       0.000015
 **** Fit      -0.000489
 **** Fit      -0.002993
 **** Fit      -0.001647
 **** Fit      -0.000579
 **** Fit       0.000133
 **** Fit       0.000580
 **** Fit       0.000799
 **** Fit       0.000770
 **** Fit       0.000498
 **** Fit       0.000040
 **** Fit      -0.002304
 **** Fit      -0.000896
 **** Fit      -0.000005
 **** Fit       0.000527
 **** Fit       0.000908
 **** Fit       0.001182
 **** Fit       0.001298
 **** Fit       0.001205
 **** Fit       0.000905
 **** Fit       0.000447
 **** Fit      -0.000089
 **** Fit       0.000690
 **** Fit       0.000945
 **** Fit       0.001253
 **** Fit       0.001524
 **** Fit       0.001648
 **** Fit       0.001558
 **** Fit       0.001251
 **** Fit       0.000772
 **** Fit       0.000206
 **** Fit       0.000770
 **** Fit       0.001000
 **** Fit       0.001381
 **** Fit       0.001715
 **** Fit       0.001874
 **** Fit       0.001796
 **** Fit       0.001476
 **** Fit       0.000961
 **** Fit       0.000337
 **** Fit       0.000400
 **** Fit       0.000972
 **** Fit       0.001537
 **** Fit       0.001908
 **** Fit       0.001991
 **** Fit       0.001758
 **** Fit       0.001239
 **** Fit       0.000522
 **** Fit      -0.000266
 **** Fit       0.000090
 **** Fit       0.001011
 **** Fit       0.001684
 **** Fit       0.002004
 **** Fit       0.001920
 **** Fit       0.001444
 **** Fit       0.000650
 **** Fit      -0.000323
 **** Fit      -0.000373
 **** Fit       0.000856
 **** Fit       0.001651
 **** Fit       0.001936
 **** Fit       0.001673
 **** Fit       0.000902
 **** Fit      -0.000252
 **** Fit      -0.001584
 **** Fit      -0.000158
 **** Fit       0.001123
 **** Fit       0.001682
 **** Fit       0.001438
 **** Fit       0.000412
 **** Fit      -0.001225
 **** Fit      -0.000372
 **** Fit       0.000951
 **** Fit       0.001096
 **** Fit      -0.000038
 **** Fit      -0.002284
 **** Fit      -0.000846
 **** Fit       0.000159
 **** Fit      -0.000802
 **** Fit       0.016188
 **** Fit       0.016034
 **** Fit       0.015198
 **** Fit       0.021984
 **** Fit       0.021412
 **** Fit       0.020832
 **** Fit       0.019560
 **** Fit       0.025654
 **** Fit       0.024822
 **** Fit       0.023924
 **** Fit       0.022296
 **** Fit       0.027131
 **** Fit       0.026417
 **** Fit       0.025367
 **** Fit       0.023501
 **** Fit       0.026534
 **** Fit       0.026484
 **** Fit       0.025606
 **** Fit       0.023632
 **** Fit       0.025003
 **** Fit       0.035483
 **** Fit       0.024342
 **** Fit       0.023451
 **** Fit       0.023598
 **** Fit       0.025197
 **** Fit       0.036618
 **** Fit       0.013964
 **** Fit       0.019938
 **** Fit       0.022868
 **** Fit       0.023988
 **** Fit       0.024431
 **** Fit       0.025070
 **** Fit       0.026514
 **** Fit       0.029129
 **** Fit       0.033060
 **** Fit       0.038196
 **** Fit       0.044057
 **** Fit       0.042060
 **** Fit       0.012305
 **** Fit       0.018311
 **** Fit       0.021786
 **** Fit       0.023797
 **** Fit       0.025339
 **** Fit       0.027180
 **** Fit       0.029825
 **** Fit       0.033522
 **** Fit       0.038240
 **** Fit       0.043639
 **** Fit       0.049147
 **** Fit       0.021425
 **** Fit       0.024312
 **** Fit       0.026643
 **** Fit       0.029174
 **** Fit       0.032393
 **** Fit       0.036484
 **** Fit       0.041315
 **** Fit       0.046479
 **** Fit       0.028501
 **** Fit       0.031419
 **** Fit       0.034895
 **** Fit       0.039046
 **** Fit       0.043672
 **** Fit       0.048366
 **** Fit       0.040699
 **** Fit       0.045058
 **** Fit       0.049276
 **** Fit       0.052853
 **** Fit       0.064992
 **** Fit       0.063836
 **** Fit       0.060429
 **** Fit       0.064156
 **** Fit       0.065567
 **** Fit       0.065744
 **** Fit       0.064094
 **** Fit       0.060382
 **** Fit       0.054801
 **** Fit       0.047835
 **** Fit       0.040094
 **** Fit       0.063260
 **** Fit       0.064602
 **** Fit       0.065324
 **** Fit       0.064814
 **** Fit       0.062605
 **** Fit       0.058587
 **** Fit       0.053042
 **** Fit       0.046514
 **** Fit       0.039669
 **** Fit       0.049608
 **** Fit       0.055044
 **** Fit       0.058338
 **** Fit       0.060275
 **** Fit       0.061779
 **** Fit       0.062944
 **** Fit       0.063762
 **** Fit       0.063887
 **** Fit       0.062851
 **** Fit       0.060349
 **** Fit       0.056394
 **** Fit       0.051336
 **** Fit       0.045742
 **** Fit       0.050123
 **** Fit       0.055182
 **** Fit       0.058491
 **** Fit       0.060460
 **** Fit       0.061817
 **** Fit       0.061615
 **** Fit       0.062071
 **** Fit       0.061649
 **** Fit       0.060003
 **** Fit       0.057016
 **** Fit       0.052940
 **** Fit       0.048360
 **** Fit       0.052632
 **** Fit       0.056503
 **** Fit       0.059011
 **** Fit       0.060590
 **** Fit       0.059694
 **** Fit       0.059899
 **** Fit       0.059081
 **** Fit       0.057089
 **** Fit       0.054086
 **** Fit       0.050661
 **** Fit       0.053920
 **** Fit       0.056808
 **** Fit       0.058668
 **** Fit       0.057612
 **** Fit       0.057643
 **** Fit       0.056516
 **** Fit       0.054431
 **** Fit       0.054355
 **** Fit       0.056495
 **** Fit       0.055799
 **** Fit       0.055697
 **** Fit       0.054527
 **** Fit       0.044992
 **** Fit       0.036817
 **** Fit      -0.002248
 **** Fit       0.009071
 **** Fit       0.016714
 **** Fit       0.047882
 **** Fit       0.041113
 **** Fit       0.033682
 **** Fit       0.025754
 **** Fit       0.004028
 **** Fit       0.012896
 **** Fit       0.019283
 **** Fit       0.023868
 **** Fit       0.027487
 **** Fit       0.054462
 **** Fit       0.054078
 **** Fit       0.051661
 **** Fit       0.047420
 **** Fit       0.041732
 **** Fit       0.034982
 **** Fit       0.027423
 **** Fit       0.019088
 **** Fit       0.009806
 **** Fit      -0.000563
 **** Fit       0.002942
 **** Fit       0.011779
 **** Fit       0.018727
 **** Fit       0.024069
 **** Fit       0.028430
 **** Fit       0.032471
 **** Fit       0.036659
 **** Fit       0.041130
 **** Fit       0.045662
 **** Fit       0.052900
 **** Fit       0.049249
 **** Fit       0.048574
 **** Fit       0.045941
 **** Fit       0.041540
 **** Fit       0.035719
 **** Fit       0.028826
 **** Fit       0.021098
 **** Fit       0.012718
 **** Fit       0.004116
 **** Fit      -0.003539
 **** Fit      -0.003405
 **** Fit       0.003856
 **** Fit       0.011560
 **** Fit       0.018436
 **** Fit       0.024148
 **** Fit       0.028960
 **** Fit       0.033331
 **** Fit       0.037580
 **** Fit       0.041702
 **** Fit       0.045367
 **** Fit       0.048057
 **** Fit       0.044336
 **** Fit       0.043261
 **** Fit       0.040025
 **** Fit       0.034916
 **** Fit       0.028426
 **** Fit       0.021119
 **** Fit       0.013754
 **** Fit       0.007633
 **** Fit       0.004565
 **** Fit       0.005685
 **** Fit       0.010262
 **** Fit       0.016375
 **** Fit       0.022439
 **** Fit       0.027832
 **** Fit       0.032609
 **** Fit       0.036928
 **** Fit       0.040657
 **** Fit       0.043324
 **** Fit       0.039457
 **** Fit       0.037638
 **** Fit       0.032954
 **** Fit       0.026394
 **** Fit       0.019655
 **** Fit       0.015134
 **** Fit       0.014965
 **** Fit       0.018871
 **** Fit       0.024536
 **** Fit       0.030118
 **** Fit       0.034899
 **** Fit       0.038309
 **** Fit       0.034370
 **** Fit       0.030914
 **** Fit       0.024656
 **** Fit       0.022483
 **** Fit       0.026678
 **** Fit       0.032208
 **** Fit       0.028815
 -----------------------------------------------------------------
 Leave Link  602 at Mon Sep 16 12:22:39 2019, MaxMem=  4294967296 cpu:       293.9

 Test job not archived.
 1\1\GINC-N008\SP\RB3LYP\SVP\C54H83Ca1N15O23\PCIEPLAK\16-Sep-2019\0\\#m
 axdisk=50GB #B3LYP/SVP Density=Current scf=(tight) #IOP(5/87=12)Pop=(M
 K,readradii) iop(6/33=2) iop(6/42=6)\\SOL molecule\\0,1\C,0,84.9,65.58
 ,27.56\C,0,84.28,65.13,28.87\O,0,84.95,64.42,29.62\H,0,85.914,65.188,2
 7.485\H,0,84.304,65.206,26.728\H,0,84.929,66.669,27.526\N,0,83.11,65.6
 8,29.2\C,0,82.57,65.62,30.54\C,0,81.88,64.29,30.81\O,0,80.8,64.03,30.2
 8\C,0,81.79,66.91,30.75\C,0,81.09,66.92,32.1\O,0,81.67,66.45,33.1\O,0,
 79.95,67.41,32.24\H,0,82.66,66.3,28.55\H,0,83.38,65.65,31.27\H,0,81.01
 ,66.97,29.98\H,0,82.48,67.75,30.77\N,0,82.51,63.38,31.56\C,0,82.34,61.
 94,31.57\C,0,81.18,61.39,32.38\O,0,80.65,60.35,32.01\C,0,83.69,61.35,3
 1.98\C,0,83.95,59.98,31.35\C,0,85.34,59.43,31.64\C,0,85.46,58.,31.12\N
 ,0,86.68,57.42,31.7\H,0,83.27,63.66,32.16\H,0,82.14,61.67,30.53\H,0,83
 .74,61.33,33.06\H,0,84.51,61.96,31.61\H,0,83.84,59.93,30.26\H,0,83.21,
 59.26,31.71\H,0,85.54,59.51,32.71\H,0,86.07,60.02,31.08\H,0,85.36,57.9
 3,30.04\H,0,84.6,57.43,31.48\H,0,87.55,57.78,31.36\H,0,86.71,57.68,32.
 68\H,0,86.69,56.41,31.59\N,0,80.82,62.08,33.47\C,0,79.59,61.75,34.16\C
 ,0,78.47,62.69,33.72\O,0,77.3,62.33,33.88\C,0,79.84,61.93,35.65\C,0,80
 .22,63.32,36.17\O,0,80.7,64.14,35.36\O,0,80.15,63.51,37.4\H,0,81.36,62
 .92,33.57\H,0,79.25,60.75,33.91\H,0,80.67,61.28,35.93\H,0,78.97,61.53,
 36.16\N,0,78.79,63.84,33.14\C,0,77.84,64.86,32.75\C,0,77.52,65.9,33.82
 \O,0,76.38,66.33,33.95\H,0,79.75,63.95,32.85\H,0,76.9,64.47,32.36\H,0,
 78.4,65.48,32.04\N,0,78.46,66.27,34.7\C,0,78.34,67.17,35.82\C,0,78.75,
 68.63,35.63\O,0,78.71,69.39,36.59\C,0,78.9,66.64,37.14\C,0,80.37,66.9,
 37.45\N,0,80.77,67.23,38.68\O,0,81.22,66.9,36.57\H,0,79.37,65.83,34.62
 \H,0,77.28,67.14,36.05\H,0,78.65,65.59,37.3\H,0,78.32,67.14,37.92\H,0,
 80.17,67.28,39.49\H,0,81.74,67.37,38.91\N,0,79.12,69.,34.4\C,0,79.57,7
 0.31,34.\C,0,80.95,70.73,34.49\O,0,81.23,71.93,34.45\H,0,79.18,68.21,3
 3.77\H,0,78.84,71.05,34.32\H,0,79.73,70.36,32.92\N,0,81.82,69.89,35.04
 \C,0,83.2,70.15,35.41\C,0,84.11,69.06,34.87\O,0,83.77,67.89,35.07\C,0,
 83.36,70.21,36.92\C,0,82.45,71.19,37.62\C,0,82.91,72.51,37.78\C,0,81.1
 9,70.82,38.09\C,0,82.12,73.47,38.43\C,0,80.47,71.74,38.87\C,0,80.95,73
 .05,39.09\O,0,80.15,73.93,39.76\H,0,81.47,68.94,35.14\H,0,83.5,71.09,3
 4.95\H,0,84.41,70.49,37.04\H,0,83.26,69.27,37.46\H,0,83.88,72.64,37.33
 \H,0,80.81,69.82,37.92\H,0,82.46,74.49,38.52\H,0,79.53,71.46,39.31\H,0
 ,79.32,73.51,39.98\N,0,85.27,69.34,34.27\C,0,86.14,68.36,33.65\C,0,87.
 24,68.22,34.69\O,0,87.91,69.19,35.03\C,0,86.72,68.76,32.3\C,0,85.68,68
 .75,31.18\C,0,87.86,67.82,31.91\C,0,85.95,69.72,30.03\H,0,85.46,70.32,
 34.11\H,0,85.63,67.41,33.49\H,0,86.99,69.81,32.39\H,0,84.76,69.17,31.6
 \H,0,85.52,67.72,30.86\H,0,88.08,67.97,30.85\H,0,88.7,68.08,32.55\H,0,
 87.57,66.77,32.01\H,0,85.15,69.71,29.29\H,0,86.14,70.77,30.28\H,0,86.8
 6,69.4,29.53\N,0,87.55,66.98,35.07\C,0,88.81,66.71,35.72\C,0,89.95,66.
 31,34.79\O,0,89.75,66.06,33.6\C,0,88.6,65.73,36.88\O,0,88.9,64.43,36.4
 3\H,0,86.9,66.26,34.8\H,0,89.23,67.61,36.17\H,0,87.59,65.89,37.26\H,0,
 89.26,65.97,37.71\H,0,88.59,63.82,37.1\N,0,91.13,66.3,35.4\C,0,92.34,6
 5.94,34.67\C,0,92.25,64.63,33.9\O,0,92.53,64.46,32.72\C,0,93.61,66.14,
 35.49\H,0,91.19,66.57,36.37\H,0,92.48,66.64,33.85\H,0,94.41,66.26,34.7
 7\H,0,93.52,66.99,36.18\H,0,93.82,65.29,36.14\N,0,91.79,63.67,34.71\C,
 0,91.63,62.32,34.23\C,0,90.6,62.21,33.11\O,0,90.72,61.35,32.24\C,0,91.
 28,61.47,35.45\H,0,91.8,63.84,35.71\H,0,92.51,61.89,33.75\H,0,92.09,61
 .61,36.16\H,0,90.33,61.85,35.83\H,0,91.32,60.42,35.16\N,0,89.54,63.03,
 33.15\C,0,88.56,63.09,32.09\C,0,89.07,63.75,30.82\O,0,88.8,63.22,29.74
 \C,0,87.36,63.91,32.55\C,0,86.6,63.26,33.71\C,0,85.4,64.07,34.15\O,0,8
 4.31,64.02,33.53\O,0,85.46,64.97,35.02\H,0,89.44,63.72,33.87\H,0,88.27
 ,62.07,31.83\H,0,86.66,64.16,31.76\H,0,87.73,64.85,32.95\H,0,87.19,63.
 16,34.62\H,0,86.34,62.25,33.41\N,0,89.92,64.77,30.86\C,0,90.66,65.19,2
 9.68\H,0,91.655,64.745,29.698\H,0,90.133,64.863,28.784\H,0,90.749,66.2
 76,29.674\H,0,90.19,65.16,31.75\Ca,0,82.84,65.4,35.2\O,0,83.48,63.19,3
 6.56\H,0,84.17,62.6,36.27\H,0,83.11,62.77,37.33\\Version=ES64L-G09RevD
 .01\State=1-A\HF=-5333.6034456\RMSD=7.628e-10\Dipole=13.9456961,-10.91
 83559,2.3753051\Quadrupole=-110.1477452,103.8122491,6.335496,-54.91183
 56,28.9555565,5.8039399\PG=C01 [X(C54H83Ca1N15O23)]\\@


 IT IS A QUALITY OF REVOLUTIONS NOT TO GO BY OLD LINES OR OLD LAWS,
 BUT TO BREAK UP BOTH, AND MAKE NEW ONES.
                                              -- A. LINCOLN (1848)
 Job cpu time:       0 days 17 hours 27 minutes 58.8 seconds.
 File lengths (MBytes):  RWF=   1513 Int=      0 D2E=      0 Chk=    103 Scr=      1
 Normal termination of Gaussian 09 at Mon Sep 16 12:22:40 2019.
