 Entering Gaussian System, Link 0=g16
 Initial command:
 /home1/apps/gaussian/16rA.03/g16/l1.exe "/scratch/01990/pengzhi/4329075/Gau-288484.inp" -scrdir="/scratch/01990/pengzhi/4329075/"
 Entering Link 1 = /home1/apps/gaussian/16rA.03/g16/l1.exe PID=    288485.
  
 Copyright (c) 1988,1990,1992,1993,1995,1998,2003,2009,2016,
            Gaussian, Inc.  All Rights Reserved.
  
 This is part of the Gaussian(R) 16 program.  It is based on
 the Gaussian(R) 09 system (copyright 2009, Gaussian, Inc.),
 the Gaussian(R) 03 system (copyright 2003, Gaussian, Inc.),
 the Gaussian(R) 98 system (copyright 1998, Gaussian, Inc.),
 the Gaussian(R) 94 system (copyright 1995, Gaussian, Inc.),
 the Gaussian 92(TM) system (copyright 1992, Gaussian, Inc.),
 the Gaussian 90(TM) system (copyright 1990, Gaussian, Inc.),
 the Gaussian 88(TM) system (copyright 1988, Gaussian, Inc.),
 the Gaussian 86(TM) system (copyright 1986, Carnegie Mellon
 University), and the Gaussian 82(TM) system (copyright 1983,
 Carnegie Mellon University). Gaussian is a federally registered
 trademark of Gaussian, Inc.
  
 This software contains proprietary and confidential information,
 including trade secrets, belonging to Gaussian, Inc.
  
 This software is provided under written license and may be
 used, copied, transmitted, or stored only in accord with that
 written license.
  
 The following legend is applicable only to US Government
 contracts under FAR:
  
                    RESTRICTED RIGHTS LEGEND
  
 Use, reproduction and disclosure by the US Government is
 subject to restrictions as set forth in subparagraphs (a)
 and (c) of the Commercial Computer Software - Restricted
 Rights clause in FAR 52.227-19.
  
 Gaussian, Inc.
 340 Quinnipiac St., Bldg. 40, Wallingford CT 06492
  
  
 ---------------------------------------------------------------
 Warning -- This program may not be used in any manner that
 competes with the business of Gaussian, Inc. or will provide
 assistance to any competitor of Gaussian, Inc.  The licensee
 of this program is prohibited from giving any competitor of
 Gaussian, Inc. access to this program.  By using this program,
 the user acknowledges that Gaussian, Inc. is engaged in the
 business of creating and licensing software in the field of
 computational chemistry and represents and warrants to the
 licensee that it is not a competitor of Gaussian, Inc. and that
 it will not use this program in any manner prohibited above.
 ---------------------------------------------------------------
  

 Cite this work as:
 Gaussian 16, Revision A.03,
 M. J. Frisch, G. W. Trucks, H. B. Schlegel, G. E. Scuseria, 
 M. A. Robb, J. R. Cheeseman, G. Scalmani, V. Barone, 
 G. A. Petersson, H. Nakatsuji, X. Li, M. Caricato, A. V. Marenich, 
 J. Bloino, B. G. Janesko, R. Gomperts, B. Mennucci, H. P. Hratchian, 
 J. V. Ortiz, A. F. Izmaylov, J. L. Sonnenberg, D. Williams-Young, 
 F. Ding, F. Lipparini, F. Egidi, J. Goings, B. Peng, A. Petrone, 
 T. Henderson, D. Ranasinghe, V. G. Zakrzewski, J. Gao, N. Rega, 
 G. Zheng, W. Liang, M. Hada, M. Ehara, K. Toyota, R. Fukuda, 
 J. Hasegawa, M. Ishida, T. Nakajima, Y. Honda, O. Kitao, H. Nakai, 
 T. Vreven, K. Throssell, J. A. Montgomery, Jr., J. E. Peralta, 
 F. Ogliaro, M. J. Bearpark, J. J. Heyd, E. N. Brothers, K. N. Kudin, 
 V. N. Staroverov, T. A. Keith, R. Kobayashi, J. Normand, 
 K. Raghavachari, A. P. Rendell, J. C. Burant, S. S. Iyengar, 
 J. Tomasi, M. Cossi, J. M. Millam, M. Klene, C. Adamo, R. Cammi, 
 J. W. Ochterski, R. L. Martin, K. Morokuma, O. Farkas, 
 J. B. Foresman, and D. J. Fox, Gaussian, Inc., Wallingford CT, 2016.
 
 ******************************************
 Gaussian 16:  ES64L-G16RevA.03 25-Dec-2016
                15-Sep-2019 
 ******************************************
 %chk=CaMKII_loop3_89.0.chk
 %nprocshared=48
 Will use up to   48 processors via shared memory.
 %mem=10GB
 %nosave
 ----------------------------------------------------------------------
 #b3lyp/svp scf=(tight,noincore) Test #IOP(5/87=12) Density=Current Pop
 =(MK,readradii) iop(6/33=2) iop(6/42=6)
 ----------------------------------------------------------------------
 1/30=1,38=1,172=1/1;
 2/12=2,17=6,18=5,40=1/2;
 3/5=18,7=101,11=2,25=1,30=1,74=-5/1,2,3;
 4//1;
 5/5=4,32=2,38=5,87=12/2;
 6/7=2,8=2,9=2,10=2,15=8,20=101,22=-1,28=1,33=2,42=6/1,2;
 99/5=1,9=1/99;
 -----------------
 CaMKII_loop3_89.0
 -----------------
 Symbolic Z-matrix:
 Charge =  0 Multiplicity = 1
 C                     69.97     50.24     30.34 
 C                     69.23     49.03     30.9 
 O                     69.32     48.01     30.23 
 H                     70.947    49.929    29.97 
 H                     69.394    50.673    29.522 
 H                     70.1      50.983    31.127 
 N                     68.56     49.09     32.06 
 C                     68.02     47.88     32.64 
 C                     66.7      47.58     31.94 
 O                     65.7      48.23     32.23 
 C                     67.89     48.02     34.15 
 C                     67.12     46.85     34.77 
 O                     66.62     47.02     35.9 
 O                     66.95     45.79     34.14 
 H                     68.51     49.97     32.55 
 H                     68.71     47.06     32.44 
 H                     67.44     48.97     34.44 
 H                     68.85     48.21     34.62 
 N                     66.75     46.63     31. 
 C                     65.75     46.38     29.98 
 C                     64.44     45.72     30.41 
 O                     63.39     46.06     29.86 
 C                     66.56     45.7      28.89 
 C                     65.76     45.06     27.76 
 C                     66.46     44.78     26.43 
 C                     67.69     43.87     26.46 
 N                     67.5      42.54     27.06 
 H                     67.69     46.33     30.8 
 H                     65.52     47.32     29.48 
 H                     67.13     44.88     29.33 
 H                     67.25     46.48     28.57 
 H                     64.88     45.7      27.65 
 H                     65.51     44.09     28.21 
 H                     66.7      45.77     26.05 
 H                     65.77     44.34     25.71 
 H                     68.46     44.32     27.08 
 H                     67.93     43.67     25.41 
 H                     66.75     41.95     26.74 
 H                     68.28     41.94     26.87 
 H                     67.37     42.54     28.06 
 N                     64.49     44.77     31.34 
 C                     63.39     44.16     32.07 
 C                     62.98     44.92     33.33 
 O                     62.01     44.51     33.96 
 C                     63.89     42.79     32.54 
 C                     65.29     42.67     33.1 
 O                     66.14     42.04     32.43 
 O                     65.56     43.1      34.24 
 H                     65.41     44.46     31.6 
 H                     62.52     44.       31.43 
 H                     63.89     42.18     31.63 
 H                     63.22     42.26     33.23 
 N                     63.75     45.9      33.79 
 C                     63.41     46.61     35.01 
 C                     63.54     45.86     36.34 
 O                     62.89     46.22     37.31 
 H                     64.73     45.92     33.55 
 H                     62.38     46.95     34.94 
 H                     63.97     47.53     35.15 
 N                     64.48     44.92     36.44 
 C                     64.71     44.24     37.7 
 C                     65.49     45.03     38.74 
 O                     65.91     44.58     39.8 
 C                     65.25     42.85     37.39 
 C                     66.77     42.81     37.43 
 N                     67.29     41.96     38.31 
 O                     67.42     43.66     36.82 
 H                     65.08     44.68     35.66 
 H                     63.74     44.05     38.17 
 H                     64.8      42.53     36.44 
 H                     64.82     42.22     38.16 
 H                     66.66     41.23     38.59 
 H                     68.29     41.85     38.39 
 N                     65.81     46.28     38.4 
 C                     66.65     47.17     39.17 
 C                     68.16     46.99     39.1 
 O                     68.9      47.43     39.98 
 H                     65.7      46.53     37.43 
 H                     66.35     47.27     40.22 
 H                     66.55     48.15     38.7 
 N                     68.68     46.34     38.05 
 C                     70.07     45.99     37.88 
 C                     70.5      46.02     36.42 
 O                     69.79     45.5      35.56 
 C                     70.38     44.61     38.47 
 C                     70.22     44.49     39.97 
 C                     71.4      44.53     40.74 
 C                     68.99     44.31     40.61 
 C                     71.31     44.34     42.12 
 C                     68.87     44.22     42. 
 C                     70.06     44.22     42.76 
 O                     69.97     44.13     44.12 
 H                     68.04     45.98     37.36 
 H                     70.64     46.78     38.37 
 H                     71.42     44.4      38.23 
 H                     69.7      43.93     37.96 
 H                     72.37     44.79     40.36 
 H                     68.11     44.27     39.98 
 H                     72.21     44.4      42.71 
 H                     67.93     44.12     42.51 
 H                     69.05     44.06     44.38 
 N                     71.73     46.45     36.14 
 C                     72.43     46.26     34.89 
 C                     73.43     45.12     34.92 
 O                     74.06     44.89     35.95 
 C                     73.1      47.51     34.33 
 C                     72.66     48.84     34.94 
 C                     72.9      47.51     32.82 
 C                     73.27     50.1      34.33 
 H                     72.21     47.02     36.83 
 H                     71.67     45.99     34.14 
 H                     74.17     47.43     34.5 
 H                     72.87     48.78     36. 
 H                     71.57     48.88     34.86 
 H                     71.84     47.64     32.63 
 H                     73.48     48.31     32.35 
 H                     73.27     46.59     32.36 
 H                     72.84     50.99     34.79 
 H                     74.35     49.95     34.41 
 H                     73.09     50.25     33.26 
 N                     73.7      44.41     33.82 
 C                     74.87     43.59     33.58 
 C                     75.28     43.6      32.12 
 O                     74.66     44.25     31.28 
 C                     74.5      42.22     34.16 
 O                     73.41     41.72     33.41 
 H                     73.15     44.75     33.04 
 H                     75.67     44.05     34.16 
 H                     74.2      42.35     35.2 
 H                     75.35     41.56     34.04 
 H                     73.06     40.91     33.78 
 N                     76.37     42.87     31.86 
 C                     77.14     43.13     30.66 
 C                     76.31     42.86     29.42 
 O                     76.47     43.61     28.46 
 C                     78.32     42.16     30.61 
 H                     76.75     42.27     32.57 
 H                     77.47     44.17     30.71 
 H                     79.11     42.34     29.89 
 H                     78.77     42.09     31.6 
 H                     77.86     41.2      30.37 
 N                     75.44     41.85     29.37 
 C                     74.62     41.59     28.2 
 C                     73.62     42.69     27.87 
 O                     73.38     43.04     26.71 
 C                     74.01     40.21     28.43 
 H                     75.41     41.23     30.17 
 H                     75.2      41.53     27.28 
 H                     73.47     39.94     27.52 
 H                     74.74     39.41     28.52 
 H                     73.32     40.21     29.28 
 N                     72.97     43.24     28.9 
 C                     72.01     44.32     28.75 
 C                     72.7      45.65     28.52 
 O                     72.18     46.57     27.88 
 C                     71.26     44.5      30.06 
 C                     70.15     43.45     30.1 
 C                     69.52     43.37     31.48 
 O                     69.77     42.41     32.25 
 O                     68.62     44.19     31.75 
 H                     73.23     42.96     29.84 
 H                     71.37     44.15     27.88 
 H                     70.75     45.47     30.06 
 H                     71.99     44.4      30.85 
 H                     70.47     42.49     29.69 
 H                     69.42     43.86     29.41 
 N                     73.94     45.82     29. 
 C                     74.71     47.01     28.7 
 H                     75.669    46.722    28.27 
 H                     74.163    47.627    27.987 
 H                     74.878    47.575    29.617 
 H                     74.31     45.14     29.65 
 Ca                    68.06     43.49     34.12 
 O                     67.92     41.03     35.18 
 H                     68.36     40.75     35.98 
 H                     67.31     40.33     34.97 
 
 Stoichiometry    C54H83CaN15O23
 Framework group  C1[X(C54H83CaN15O23)]
 Deg. of freedom   522
 Full point group                 C1      NOp   1
 Largest Abelian subgroup         C1      NOp   1
 Largest concise Abelian subgroup C1      NOp   1
                         Standard orientation:                         
 ---------------------------------------------------------------------
 Center     Atomic      Atomic             Coordinates (Angstroms)
 Number     Number       Type             X           Y           Z
 ---------------------------------------------------------------------
      1          6           0        2.239319    2.049155    5.460832
      2          6           0        1.465156    2.157164    4.151517
      3          8           0        2.139061    2.445389    3.171630
      4          1           0        3.178084    1.523694    5.285441
      5          1           0        2.449431    3.048067    5.843475
      6          1           0        1.645655    1.497411    6.189845
      7          7           0        0.146760    1.919673    4.092097
      8          6           0       -0.514787    1.862980    2.807091
      9          6           0       -0.794123    3.294845    2.366484
     10          8           0       -1.721820    3.915075    2.877652
     11          6           0       -1.762963    0.995336    2.883602
     12          6           0       -2.606172    1.090312    1.608386
     13          8           0       -3.804450    0.751524    1.680156
     14          8           0       -2.124803    1.546938    0.555211
     15          1           0       -0.349893    1.706983    4.943625
     16          1           0        0.163806    1.406942    2.085953
     17          1           0       -2.370199    1.220837    3.760821
     18          1           0       -1.527099   -0.022856    3.177290
     19          7           0        0.052671    3.793370    1.459284
     20          6           0        0.216536    5.193196    1.117912
     21          6           0       -0.880042    5.859307    0.287001
     22          8           0       -1.167493    7.037514    0.510164
     23          6           0        1.635443    5.232415    0.577760
     24          6           0        2.051453    6.522229   -0.122108
     25          6           0        3.541392    6.830341   -0.271939
     26          6           0        4.399284    5.808962   -1.022076
     27          7           0        3.958696    5.464694   -2.383091
     28          1           0        0.837111    3.186839    1.284998
     29          1           0        0.352914    5.762068    2.036762
     30          1           0        1.749678    4.453408   -0.177884
     31          1           0        2.239405    4.974660    1.447066
     32          1           0        1.506285    7.309414    0.406315
     33          1           0        1.649437    6.347675   -1.128991
     34          1           0        3.881604    6.968707    0.751394
     35          1           0        3.694566    7.786530   -0.772280
     36          1           0        4.372408    4.857514   -0.498795
     37          1           0        5.373510    6.291028   -1.158439
     38          1           0        3.784304    6.196334   -3.051890
     39          1           0        4.664370    4.950483   -2.875140
     40          1           0        3.113644    4.916422   -2.429842
     41          7           0       -1.458088    5.148094   -0.677332
     42          6           0       -2.654193    5.464548   -1.441656
     43          6           0       -3.955227    5.017857   -0.777518
     44          8           0       -5.012790    5.315438   -1.324241
     45          6           0       -2.550480    4.677776   -2.752394
     46          6           0       -2.069739    3.244103   -2.714070
     47          8           0       -0.950468    2.985034   -3.212483
     48          8           0       -2.810385    2.334160   -2.288811
     49          1           0       -1.035892    4.258403   -0.878081
     50          1           0       -2.706105    6.526685   -1.689183
     51          1           0       -1.793797    5.220474   -3.329550
     52          1           0       -3.449525    4.699847   -3.382578
     53          7           0       -3.915200    4.209882    0.276272
     54          6           0       -5.135817    3.732180    0.900767
     55          6           0       -5.988258    2.716576    0.132528
     56          8           0       -7.180236    2.609445    0.378927
     57          1           0       -3.107925    3.623006    0.425548
     58          1           0       -5.776217    4.584689    1.111757
     59          1           0       -4.979986    3.286047    1.878663
     60          7           0       -5.365977    1.867708   -0.685635
     61          6           0       -6.108421    0.826784   -1.369853
     62          6           0       -6.484210   -0.378320   -0.520967
     63          8           0       -6.976674   -1.416692   -0.947302
     64          6           0       -5.382743    0.512748   -2.671611
     65          6           0       -4.437380   -0.669553   -2.523109
     66          7           0       -4.687252   -1.697526   -3.328179
     67          8           0       -3.645290   -0.704070   -1.580506
     68          1           0       -4.363188    1.898914   -0.825060
     69          1           0       -7.066906    1.244461   -1.693506
     70          1           0       -4.913352    1.444660   -3.016012
     71          1           0       -6.178940    0.293407   -3.373509
     72          1           0       -5.227569   -1.455654   -4.139200
     73          1           0       -4.097522   -2.516395   -3.315113
     74          7           0       -6.150320   -0.306930    0.768963
     75          6           0       -6.292406   -1.375354    1.732748
     76          6           0       -5.255092   -2.489463    1.744522
     77          8           0       -5.498213   -3.587100    2.246205
     78          1           0       -5.507499    0.422903    1.032827
     79          1           0       -7.294610   -1.819432    1.762462
     80          1           0       -6.099933   -0.921520    2.706550
     81          7           0       -4.055164   -2.253801    1.196766
     82          6           0       -3.000722   -3.224979    1.028047
     83          6           0       -1.616508   -2.604509    1.155984
     84          8           0       -1.361144   -1.548608    0.578089
     85          6           0       -3.108867   -3.945959   -0.319949
     86          6           0       -4.341615   -4.803975   -0.504722
     87          6           0       -4.178128   -6.194495   -0.341549
     88          6           0       -5.596879   -4.298226   -0.856047
     89          6           0       -5.267428   -7.033277   -0.583355
     90          6           0       -6.723356   -5.113171   -1.002723
     91          6           0       -6.541706   -6.507827   -0.877668
     92          8           0       -7.626146   -7.326129   -1.019689
     93          1           0       -3.901188   -1.348928    0.781077
     94          1           0       -3.091687   -3.914925    1.867571
     95          1           0       -2.239364   -4.595709   -0.391296
     96          1           0       -3.084399   -3.151310   -1.063476
     97          1           0       -3.295483   -6.665117    0.048776
     98          1           0       -5.675258   -3.225921   -0.986117
     99          1           0       -5.147862   -8.093373   -0.429736
    100          1           0       -7.702483   -4.737349   -1.234603
    101          1           0       -8.405114   -6.801491   -1.211688
    102          7           0       -0.661492   -3.324296    1.744245
    103          6           0        0.758149   -3.061150    1.681226
    104          6           0        1.492881   -3.925344    0.674331
    105          8           0        1.134687   -5.087072    0.493261
    106          6           0        1.483412   -3.113026    3.021488
    107          6           0        0.599305   -3.073472    4.267036
    108          6           0        2.506097   -1.984414    3.042702
    109          6           0        1.323270   -3.046719    5.611268
    110          1           0       -0.939547   -4.091922    2.348262
    111          1           0        0.871788   -2.019617    1.341674
    112          1           0        2.046202   -4.040974    3.070278
    113          1           0       -0.067885   -3.923083    4.201313
    114          1           0       -0.040695   -2.191587    4.173335
    115          1           0        1.959749   -1.047346    3.045356
    116          1           0        3.151956   -2.060152    3.922719
    117          1           0        3.188610   -2.036971    2.190461
    118          1           0        0.605515   -2.950895    6.426281
    119          1           0        1.968293   -3.929310    5.594632
    120          1           0        2.007916   -2.206617    5.770291
    121          7           0        2.577316   -3.472155    0.037448
    122          6           0        3.593236   -4.266550   -0.622661
    123          6           0        4.966741   -3.632412   -0.517050
    124          8           0        5.142966   -2.569515    0.075990
    125          6           0        3.056971   -4.464308   -2.045162
    126          8           0        2.983523   -3.189708   -2.653931
    127          1           0        2.784748   -2.524568    0.329938
    128          1           0        3.614979   -5.214132   -0.084502
    129          1           0        2.059273   -4.899654   -1.985391
    130          1           0        3.760285   -5.081446   -2.590131
    131          1           0        2.561929   -3.224561   -3.512152
    132          7           0        5.937417   -4.346376   -1.097259
    133          6           0        7.317005   -4.134760   -0.706802
    134          6           0        7.759249   -2.723119   -1.040105
    135          8           0        8.515158   -2.166932   -0.247036
    136          6           0        8.210116   -5.070969   -1.520230
    137          1           0        5.701632   -5.139285   -1.666645
    138          1           0        7.381924   -4.339092    0.364194
    139          1           0        9.245058   -5.191082   -1.221285
    140          1           0        7.750726   -6.058166   -1.563828
    141          1           0        8.198559   -4.639042   -2.522281
    142          7           0        7.346011   -2.106761   -2.148634
    143          6           0        7.740273   -0.747238   -2.472912
    144          6           0        7.238277    0.308015   -1.496521
    145          8           0        7.932384    1.266951   -1.143876
    146          6           0        7.318302   -0.537212   -3.924542
    147          1           0        6.781625   -2.648284   -2.791691
    148          1           0        8.818267   -0.596714   -2.432040
    149          1           0        7.694492    0.440888   -4.231793
    150          1           0        7.799426   -1.209700   -4.629722
    151          1           0        6.229552   -0.563506   -4.036486
    152          7           0        5.980862    0.176397   -1.063525
    153          6           0        5.369362    1.083344   -0.107484
    154          6           0        5.847664    0.808841    1.304527
    155          8           0        5.907403    1.686832    2.171686
    156          6           0        3.873078    0.818570   -0.062446
    157          6           0        3.241992    1.555806   -1.243298
    158          6           0        1.796069    1.135083   -1.443298
    159          8           0        1.468826    0.374859   -2.387740
    160          8           0        0.929893    1.705189   -0.750464
    161          1           0        5.459904   -0.650114   -1.337534
    162          1           0        5.640768    2.118990   -0.329243
    163          1           0        3.446374    1.278715    0.835992
    164          1           0        3.748186   -0.253976   -0.094797
    165          1           0        3.858595    1.505828   -2.142966
    166          1           0        3.258514    2.587037   -0.906564
    167          7           0        6.256979   -0.429799    1.612963
    168          6           0        6.854290   -0.730280    2.898237
    169          1           0        7.824877   -1.201532    2.745247
    170          1           0        6.983839    0.192575    3.463766
    171          1           0        6.204340   -1.408381    3.451485
    172          1           0        6.068821   -1.182337    0.964825
    173         20           0       -1.161258    0.544146   -1.586865
    174          8           0       -1.803094   -0.220857   -4.076366
    175          1           0       -2.102312   -1.093388   -4.323670
    176          1           0       -1.960386    0.325091   -4.840172
 ---------------------------------------------------------------------
 Rotational constants (GHZ):           0.0228886           0.0154475           0.0116501
 Standard basis: SVP (5D, 7F)
 There are  1809 symmetry adapted cartesian basis functions of A   symmetry.
 There are  1717 symmetry adapted basis functions of A   symmetry.
  1717 basis functions,  2922 primitive gaussians,  1809 cartesian basis functions
   358 alpha electrons      358 beta electrons
       nuclear repulsion energy     21639.8218538715 Hartrees.
 NAtoms=  176 NActive=  176 NUniq=  176 SFac= 1.00D+00 NAtFMM=   60 NAOKFM=T Big=T
 Integral buffers will be    131072 words long.
 Raffenetti 2 integral format.
 Two-electron integral symmetry is turned on.
 One-electron integrals computed using PRISM.
 NBasis=  1717 RedAO= T EigKep=  2.66D-04  NBF=  1717
 NBsUse=  1717 1.00D-06 EigRej= -1.00D+00 NBFU=  1717
 ExpMin= 1.98D-02 ExpMax= 3.51D+04 ExpMxC= 5.28D+03 IAcc=3 IRadAn=         5 AccDes= 0.00D+00
 Harris functional with IExCor=  402 and IRadAn=       5 diagonalized for initial guess.
 HarFok:  IExCor=  402 AccDes= 0.00D+00 IRadAn=         5 IDoV= 1 UseB2=F ITyADJ=14
 ICtDFT=  3500011 ScaDFX=  1.000000  1.000000  1.000000  1.000000
 FoFCou: FMM=F IPFlag=           0 FMFlag=      100000 FMFlg1=        2001
         NFxFlg=           0 DoJE=T BraDBF=F KetDBF=T FulRan=T
         wScrn=  0.000000 ICntrl=       500 IOpCl=  0 I1Cent=   200000004 NGrid=           0
         NMat0=    1 NMatS0=      1 NMatT0=    0 NMatD0=    1 NMtDS0=    0 NMtDT0=    0
 Petite list used in FoFCou.
 Requested convergence on RMS density matrix=1.00D-08 within 128 cycles.
 Requested convergence on MAX density matrix=1.00D-06.
 Requested convergence on             energy=1.00D-06.
 No special actions if energy rises.
 EnCoef did     5 forward-backward iterations
 SCF Done:  E(RB3LYP) =  -5333.59079343     A.U. after   17 cycles
            NFock= 17  Conv=0.58D-08     -V/T= 2.0081
 SCF density gives NOpUse=  1 NOpAll=  1.
 Hyperfine terms turned off by default for NAtoms > 100.

 **********************************************************************

            Population analysis using the SCF density.

 **********************************************************************

 Orbital symmetries:
 BldTbl:  Degeneracy threshold= 1.00D-02
       Occupied  (A) (A) (A) (A) (A) (A) (A) (A) (A) (A) (A) (A)
                 (A) (A) (A) (A) (A) (A) (A) (A) (A) (A) (A) (A)
                 (A) (A) (A) (A) (A) (A) (A) (A) (A) (A) (A) (A)
                 (A) (A) (A) (A) (A) (A) (A) (A) (A) (A) (A) (A)
                 (A) (A) (A) (A) (A) (A) (A) (A) (A) (A) (A) (A)
                 (A) (A) (A) (A) (A) (A) (A) (A) (A) (A) (A) (A)
                 (A) (A) (A) (A) (A) (A) (A) (A) (A) (A) (A) (A)
                 (A) (A) (A) (A) (A) (A) (A) (A) (A) (A) (A) (A)
                 (A) (A) (A) (A) (A) (A) (A) (A) (A) (A) (A) (A)
                 (A) (A) (A) (A) (A) (A) (A) (A) (A) (A) (A) (A)
                 (A) (A) (A) (A) (A) (A) (A) (A) (A) (A) (A) (A)
                 (A) (A) (A) (A) (A) (A) (A) (A) (A) (A) (A) (A)
                 (A) (A) (A) (A) (A) (A) (A) (A) (A) (A) (A) (A)
                 (A) (A) (A) (A) (A) (A) (A) (A) (A) (A) (A) (A)
                 (A) (A) (A) (A) (A) (A) (A) (A) (A) (A) (A) (A)
                 (A) (A) (A) (A) (A) (A) (A) (A) (A) (A) (A) (A)
                 (A) (A) (A) (A) (A) (A) (A) (A) (A) (A) (A) (A)
                 (A) (A) (A) (A) (A) (A) (A) (A) (A) (A) (A) (A)
                 (A) (A) (A) (A) (A) (A) (A) (A) (A) (A) (A) (A)
                 (A) (A) (A) (A) (A) (A) (A) (A) (A) (A) (A) (A)
                 (A) (A) (A) (A) (A) (A) (A) (A) (A) (A) (A) (A)
                 (A) (A) (A) (A) (A) (A) (A) (A) (A) (A) (A) (A)
                 (A) (A) (A) (A) (A) (A) (A) (A) (A) (A) (A) (A)
                 (A) (A) (A) (A) (A) (A) (A) (A) (A) (A) (A) (A)
                 (A) (A) (A) (A) (A) (A) (A) (A) (A) (A) (A) (A)
                 (A) (A) (A) (A) (A) (A) (A) (A) (A) (A) (A) (A)
                 (A) (A) (A) (A) (A) (A) (A) (A) (A) (A) (A) (A)
                 (A) (A) (A) (A) (A) (A) (A) (A) (A) (A) (A) (A)
                 (A) (A) (A) (A) (A) (A) (A) (A) (A) (A) (A) (A)
                 (A) (A) (A) (A) (A) (A) (A) (A) (A) (A)
       Virtual   (A) (A) (A) (A) (A) (A) (A) (A) (A) (A) (A) (A)
                 (A) (A) (A) (A) (A) (A) (A) (A) (A) (A) (A) (A)
                 (A) (A) (A) (A) (A) (A) (A) (A) (A) (A) (A) (A)
                 (A) (A) (A) (A) (A) (A) (A) (A) (A) (A) (A) (A)
                 (A) (A) (A) (A) (A) (A) (A) (A) (A) (A) (A) (A)
                 (A) (A) (A) (A) (A) (A) (A) (A) (A) (A) (A) (A)
                 (A) (A) (A) (A) (A) (A) (A) (A) (A) (A) (A) (A)
                 (A) (A) (A) (A) (A) (A) (A) (A) (A) (A) (A) (A)
                 (A) (A) (A) (A) (A) (A) (A) (A) (A) (A) (A) (A)
                 (A) (A) (A) (A) (A) (A) (A) (A) (A) (A) (A) (A)
                 (A) (A) (A) (A) (A) (A) (A) (A) (A) (A) (A) (A)
                 (A) (A) (A) (A) (A) (A) (A) (A) (A) (A) (A) (A)
                 (A) (A) (A) (A) (A) (A) (A) (A) (A) (A) (A) (A)
                 (A) (A) (A) (A) (A) (A) (A) (A) (A) (A) (A) (A)
                 (A) (A) (A) (A) (A) (A) (A) (A) (A) (A) (A) (A)
                 (A) (A) (A) (A) (A) (A) (A) (A) (A) (A) (A) (A)
                 (A) (A) (A) (A) (A) (A) (A) (A) (A) (A) (A) (A)
                 (A) (A) (A) (A) (A) (A) (A) (A) (A) (A) (A) (A)
                 (A) (A) (A) (A) (A) (A) (A) (A) (A) (A) (A) (A)
                 (A) (A) (A) (A) (A) (A) (A) (A) (A) (A) (A) (A)
                 (A) (A) (A) (A) (A) (A) (A) (A) (A) (A) (A) (A)
                 (A) (A) (A) (A) (A) (A) (A) (A) (A) (A) (A) (A)
                 (A) (A) (A) (A) (A) (A) (A) (A) (A) (A) (A) (A)
                 (A) (A) (A) (A) (A) (A) (A) (A) (A) (A) (A) (A)
                 (A) (A) (A) (A) (A) (A) (A) (A) (A) (A) (A) (A)
                 (A) (A) (A) (A) (A) (A) (A) (A) (A) (A) (A) (A)
                 (A) (A) (A) (A) (A) (A) (A) (A) (A) (A) (A) (A)
                 (A) (A) (A) (A) (A) (A) (A) (A) (A) (A) (A) (A)
                 (A) (A) (A) (A) (A) (A) (A) (A) (A) (A) (A) (A)
                 (A) (A) (A) (A) (A) (A) (A) (A) (A) (A) (A) (A)
                 (A) (A) (A) (A) (A) (A) (A) (A) (A) (A) (A) (A)
                 (A) (A) (A) (A) (A) (A) (A) (A) (A) (A) (A) (A)
                 (A) (A) (A) (A) (A) (A) (A) (A) (A) (A) (A) (A)
                 (A) (A) (A) (A) (A) (A) (A) (A) (A) (A) (A) (A)
                 (A) (A) (A) (A) (A) (A) (A) (A) (A) (A) (A) (A)
                 (A) (A) (A) (A) (A) (A) (A) (A) (A) (A) (A) (A)
                 (A) (A) (A) (A) (A) (A) (A) (A) (A) (A) (A) (A)
                 (A) (A) (A) (A) (A) (A) (A) (A) (A) (A) (A) (A)
                 (A) (A) (A) (A) (A) (A) (A) (A) (A) (A) (A) (A)
                 (A) (A) (A) (A) (A) (A) (A) (A) (A) (A) (A) (A)
                 (A) (A) (A) (A) (A) (A) (A) (A) (A) (A) (A) (A)
                 (A) (A) (A) (A) (A) (A) (A) (A) (A) (A) (A) (A)
                 (A) (A) (A) (A) (A) (A) (A) (A) (A) (A) (A) (A)
                 (A) (A) (A) (A) (A) (A) (A) (A) (A) (A) (A) (A)
                 (A) (A) (A) (A) (A) (A) (A) (A) (A) (A) (A) (A)
                 (A) (A) (A) (A) (A) (A) (A) (A) (A) (A) (A) (A)
                 (A) (A) (A) (A) (A) (A) (A) (A) (A) (A) (A) (A)
                 (A) (A) (A) (A) (A) (A) (A) (A) (A) (A) (A) (A)
                 (A) (A) (A) (A) (A) (A) (A) (A) (A) (A) (A) (A)
                 (A) (A) (A) (A) (A) (A) (A) (A) (A) (A) (A) (A)
                 (A) (A) (A) (A) (A) (A) (A) (A) (A) (A) (A) (A)
                 (A) (A) (A) (A) (A) (A) (A) (A) (A) (A) (A) (A)
                 (A) (A) (A) (A) (A) (A) (A) (A) (A) (A) (A) (A)
                 (A) (A) (A) (A) (A) (A) (A) (A) (A) (A) (A) (A)
                 (A) (A) (A) (A) (A) (A) (A) (A) (A) (A) (A) (A)
                 (A) (A) (A) (A) (A) (A) (A) (A) (A) (A) (A) (A)
                 (A) (A) (A) (A) (A) (A) (A) (A) (A) (A) (A) (A)
                 (A) (A) (A) (A) (A) (A) (A) (A) (A) (A) (A) (A)
                 (A) (A) (A) (A) (A) (A) (A) (A) (A) (A) (A) (A)
                 (A) (A) (A) (A) (A) (A) (A) (A) (A) (A) (A) (A)
                 (A) (A) (A) (A) (A) (A) (A) (A) (A) (A) (A) (A)
                 (A) (A) (A) (A) (A) (A) (A) (A) (A) (A) (A) (A)
                 (A) (A) (A) (A) (A) (A) (A) (A) (A) (A) (A) (A)
                 (A) (A) (A) (A) (A) (A) (A) (A) (A) (A) (A) (A)
                 (A) (A) (A) (A) (A) (A) (A) (A) (A) (A) (A) (A)
                 (A) (A) (A) (A) (A) (A) (A) (A) (A) (A) (A) (A)
                 (A) (A) (A) (A) (A) (A) (A) (A) (A) (A) (A) (A)
                 (A) (A) (A) (A) (A) (A) (A) (A) (A) (A) (A) (A)
                 (A) (A) (A) (A) (A) (A) (A) (A) (A) (A) (A) (A)
                 (A) (A) (A) (A) (A) (A) (A) (A) (A) (A) (A) (A)
                 (A) (A) (A) (A) (A) (A) (A) (A) (A) (A) (A) (A)
                 (A) (A) (A) (A) (A) (A) (A) (A) (A) (A) (A) (A)
                 (A) (A) (A) (A) (A) (A) (A) (A) (A) (A) (A) (A)
                 (A) (A) (A) (A) (A) (A) (A) (A) (A) (A) (A) (A)
                 (A) (A) (A) (A) (A) (A) (A) (A) (A) (A) (A) (A)
                 (A) (A) (A) (A) (A) (A) (A) (A) (A) (A) (A) (A)
                 (A) (A) (A) (A) (A) (A) (A) (A) (A) (A) (A) (A)
                 (A) (A) (A) (A) (A) (A) (A) (A) (A) (A) (A) (A)
                 (A) (A) (A) (A) (A) (A) (A) (A) (A) (A) (A) (A)
                 (A) (A) (A) (A) (A) (A) (A) (A) (A) (A) (A) (A)
                 (A) (A) (A) (A) (A) (A) (A) (A) (A) (A) (A) (A)
                 (A) (A) (A) (A) (A) (A) (A) (A) (A) (A) (A) (A)
                 (A) (A) (A) (A) (A) (A) (A) (A) (A) (A) (A) (A)
                 (A) (A) (A) (A) (A) (A) (A) (A) (A) (A) (A) (A)
                 (A) (A) (A) (A) (A) (A) (A) (A) (A) (A) (A) (A)
                 (A) (A) (A) (A) (A) (A) (A) (A) (A) (A) (A) (A)
                 (A) (A) (A) (A) (A) (A) (A) (A) (A) (A) (A) (A)
                 (A) (A) (A) (A) (A) (A) (A) (A) (A) (A) (A) (A)
                 (A) (A) (A) (A) (A) (A) (A) (A) (A) (A) (A) (A)
                 (A) (A) (A) (A) (A) (A) (A) (A) (A) (A) (A) (A)
                 (A) (A) (A) (A) (A) (A) (A) (A) (A) (A) (A) (A)
                 (A) (A) (A) (A) (A) (A) (A) (A) (A) (A) (A) (A)
                 (A) (A) (A) (A) (A) (A) (A) (A) (A) (A) (A) (A)
                 (A) (A) (A) (A) (A) (A) (A) (A) (A) (A) (A) (A)
                 (A) (A) (A) (A) (A) (A) (A) (A) (A) (A) (A) (A)
                 (A) (A) (A) (A) (A) (A) (A) (A) (A) (A) (A) (A)
                 (A) (A) (A) (A) (A) (A) (A) (A) (A) (A) (A) (A)
                 (A) (A) (A) (A) (A) (A) (A) (A) (A) (A) (A) (A)
                 (A) (A) (A) (A) (A) (A) (A) (A) (A) (A) (A) (A)
                 (A) (A) (A) (A) (A) (A) (A) (A) (A) (A) (A) (A)
                 (A) (A) (A) (A) (A) (A) (A) (A) (A) (A) (A) (A)
                 (A) (A) (A) (A) (A) (A) (A) (A) (A) (A) (A) (A)
                 (A) (A) (A) (A) (A) (A) (A) (A) (A) (A) (A) (A)
                 (A) (A) (A) (A) (A) (A) (A) (A) (A) (A) (A) (A)
                 (A) (A) (A) (A) (A) (A) (A) (A) (A) (A) (A) (A)
                 (A) (A) (A) (A) (A) (A) (A) (A) (A) (A) (A) (A)
                 (A) (A) (A) (A) (A) (A) (A) (A) (A) (A) (A) (A)
                 (A) (A) (A) (A) (A) (A) (A) (A) (A) (A) (A) (A)
                 (A) (A) (A) (A) (A) (A) (A) (A) (A) (A) (A) (A)
                 (A) (A) (A) (A) (A) (A) (A) (A) (A) (A) (A) (A)
                 (A) (A) (A) (A) (A) (A) (A) (A) (A) (A) (A) (A)
                 (A) (A) (A) (A) (A) (A) (A) (A) (A) (A) (A) (A)
                 (A) (A) (A) (A) (A) (A) (A) (A) (A) (A) (A) (A)
                 (A) (A) (A)
 The electronic state is 1-A.
 Alpha  occ. eigenvalues -- -145.36743 -19.18216 -19.16785 -19.16415 -19.13834
 Alpha  occ. eigenvalues --  -19.11822 -19.11541 -19.11394 -19.11062 -19.10438
 Alpha  occ. eigenvalues --  -19.08475 -19.07447 -19.07238 -19.06909 -19.06879
 Alpha  occ. eigenvalues --  -19.06698 -19.05561 -19.05541 -19.04916 -19.04872
 Alpha  occ. eigenvalues --  -19.04803 -19.04736 -19.03603 -19.03168 -15.42496
 Alpha  occ. eigenvalues --  -14.56639 -14.41437 -14.38867 -14.37541 -14.37234
 Alpha  occ. eigenvalues --  -14.37206 -14.36380 -14.34939 -14.33368 -14.32564
 Alpha  occ. eigenvalues --  -14.32443 -14.30951 -14.30216 -14.29462 -14.29421
 Alpha  occ. eigenvalues --  -12.56115 -12.56073 -12.56047 -10.34769 -10.33668
 Alpha  occ. eigenvalues --  -10.30852 -10.29900 -10.29870 -10.29631 -10.29242
 Alpha  occ. eigenvalues --  -10.27849 -10.27688 -10.27601 -10.27455 -10.26443
 Alpha  occ. eigenvalues --  -10.26271 -10.26065 -10.25874 -10.25835 -10.25074
 Alpha  occ. eigenvalues --  -10.24826 -10.24308 -10.24049 -10.23996 -10.23921
 Alpha  occ. eigenvalues --  -10.23651 -10.23457 -10.23409 -10.22588 -10.22452
 Alpha  occ. eigenvalues --  -10.22360 -10.22346 -10.22270 -10.21903 -10.20975
 Alpha  occ. eigenvalues --  -10.20902 -10.20739 -10.20635 -10.20084 -10.19908
 Alpha  occ. eigenvalues --  -10.19798 -10.19772 -10.19213 -10.19149 -10.18982
 Alpha  occ. eigenvalues --  -10.18566 -10.18524 -10.18142 -10.17731 -10.16976
 Alpha  occ. eigenvalues --  -10.16610 -10.16438 -10.16079 -10.16056 -10.16018
 Alpha  occ. eigenvalues --  -10.15927 -10.15639  -1.79330  -1.12266  -1.09502
 Alpha  occ. eigenvalues --   -1.07011  -1.06888  -1.06625  -1.05451  -1.05128
 Alpha  occ. eigenvalues --   -1.04480  -1.04361  -1.03900  -1.03801  -1.03129
 Alpha  occ. eigenvalues --   -1.02529  -1.02010  -1.01793  -1.00521  -1.00122
 Alpha  occ. eigenvalues --   -0.99954  -0.99490  -0.99029  -0.98828  -0.98822
 Alpha  occ. eigenvalues --   -0.98102  -0.97940  -0.96959  -0.95279  -0.94417
 Alpha  occ. eigenvalues --   -0.93797  -0.92925  -0.92488  -0.91450  -0.91251
 Alpha  occ. eigenvalues --   -0.90906  -0.89960  -0.89762  -0.89090  -0.88473
 Alpha  occ. eigenvalues --   -0.88358  -0.87676  -0.87452  -0.86617  -0.85761
 Alpha  occ. eigenvalues --   -0.84124  -0.83253  -0.82018  -0.81191  -0.81134
 Alpha  occ. eigenvalues --   -0.79771  -0.79004  -0.76959  -0.76829  -0.75931
 Alpha  occ. eigenvalues --   -0.75465  -0.75394  -0.74613  -0.73115  -0.72205
 Alpha  occ. eigenvalues --   -0.71531  -0.71409  -0.70994  -0.70758  -0.70709
 Alpha  occ. eigenvalues --   -0.69956  -0.69398  -0.68971  -0.68266  -0.67949
 Alpha  occ. eigenvalues --   -0.67753  -0.67219  -0.66190  -0.65086  -0.64939
 Alpha  occ. eigenvalues --   -0.63988  -0.63713  -0.63411  -0.62984  -0.62254
 Alpha  occ. eigenvalues --   -0.61761  -0.60826  -0.60404  -0.60181  -0.59672
 Alpha  occ. eigenvalues --   -0.59388  -0.59113  -0.59087  -0.58442  -0.58377
 Alpha  occ. eigenvalues --   -0.57832  -0.57187  -0.57150  -0.56671  -0.56456
 Alpha  occ. eigenvalues --   -0.56323  -0.55621  -0.55539  -0.55159  -0.54986
 Alpha  occ. eigenvalues --   -0.54718  -0.54515  -0.54222  -0.53693  -0.53573
 Alpha  occ. eigenvalues --   -0.53182  -0.53008  -0.52632  -0.52280  -0.52042
 Alpha  occ. eigenvalues --   -0.51927  -0.51629  -0.51532  -0.50953  -0.50629
 Alpha  occ. eigenvalues --   -0.49972  -0.49894  -0.49700  -0.49610  -0.48803
 Alpha  occ. eigenvalues --   -0.48620  -0.48488  -0.48272  -0.48110  -0.47592
 Alpha  occ. eigenvalues --   -0.47503  -0.47252  -0.47213  -0.46967  -0.46735
 Alpha  occ. eigenvalues --   -0.46347  -0.46202  -0.45989  -0.45930  -0.45794
 Alpha  occ. eigenvalues --   -0.45760  -0.45380  -0.45239  -0.44977  -0.44760
 Alpha  occ. eigenvalues --   -0.44721  -0.44632  -0.44492  -0.44318  -0.44104
 Alpha  occ. eigenvalues --   -0.43785  -0.43510  -0.43437  -0.43191  -0.43081
 Alpha  occ. eigenvalues --   -0.43003  -0.42905  -0.42717  -0.42439  -0.42273
 Alpha  occ. eigenvalues --   -0.42246  -0.42105  -0.41948  -0.41706  -0.41561
 Alpha  occ. eigenvalues --   -0.41338  -0.41262  -0.41173  -0.41056  -0.40959
 Alpha  occ. eigenvalues --   -0.40737  -0.40518  -0.40431  -0.40369  -0.40337
 Alpha  occ. eigenvalues --   -0.40209  -0.40031  -0.39996  -0.39554  -0.39435
 Alpha  occ. eigenvalues --   -0.39330  -0.39203  -0.39021  -0.38999  -0.38882
 Alpha  occ. eigenvalues --   -0.38765  -0.38541  -0.38512  -0.38452  -0.38294
 Alpha  occ. eigenvalues --   -0.38048  -0.37912  -0.37571  -0.37547  -0.37413
 Alpha  occ. eigenvalues --   -0.37283  -0.36875  -0.36853  -0.36778  -0.36592
 Alpha  occ. eigenvalues --   -0.36497  -0.36429  -0.36384  -0.35966  -0.35845
 Alpha  occ. eigenvalues --   -0.35659  -0.35558  -0.35472  -0.35361  -0.35213
 Alpha  occ. eigenvalues --   -0.35032  -0.34921  -0.34616  -0.34406  -0.34342
 Alpha  occ. eigenvalues --   -0.34210  -0.33880  -0.33850  -0.33486  -0.33446
 Alpha  occ. eigenvalues --   -0.33158  -0.33102  -0.32503  -0.32322  -0.31854
 Alpha  occ. eigenvalues --   -0.31702  -0.31556  -0.31199  -0.31075  -0.30428
 Alpha  occ. eigenvalues --   -0.30229  -0.29892  -0.29713  -0.28511  -0.28192
 Alpha  occ. eigenvalues --   -0.27865  -0.27338  -0.27296  -0.26697  -0.26595
 Alpha  occ. eigenvalues --   -0.26295  -0.26025  -0.25912  -0.25334  -0.25061
 Alpha  occ. eigenvalues --   -0.24535  -0.24416  -0.24218  -0.23697  -0.23335
 Alpha  occ. eigenvalues --   -0.23218  -0.23026  -0.23018  -0.22885  -0.22782
 Alpha  occ. eigenvalues --   -0.22614  -0.22438  -0.22357  -0.21909  -0.21533
 Alpha  occ. eigenvalues --   -0.21411  -0.20691  -0.20109  -0.19832  -0.19751
 Alpha  occ. eigenvalues --   -0.19146  -0.18921  -0.18586
 Alpha virt. eigenvalues --   -0.08863  -0.04589  -0.02840  -0.02593  -0.01866
 Alpha virt. eigenvalues --   -0.01276  -0.01026  -0.00136  -0.00012   0.00332
 Alpha virt. eigenvalues --    0.00373   0.00719   0.01282   0.01789   0.01862
 Alpha virt. eigenvalues --    0.02377   0.02743   0.02852   0.03207   0.03395
 Alpha virt. eigenvalues --    0.03711   0.03984   0.04095   0.04418   0.04790
 Alpha virt. eigenvalues --    0.05037   0.05060   0.05307   0.05351   0.05568
 Alpha virt. eigenvalues --    0.05875   0.05943   0.06014   0.06378   0.06604
 Alpha virt. eigenvalues --    0.06718   0.06807   0.07070   0.07166   0.07227
 Alpha virt. eigenvalues --    0.07245   0.07627   0.07671   0.07822   0.08093
 Alpha virt. eigenvalues --    0.08371   0.08564   0.08817   0.09116   0.09343
 Alpha virt. eigenvalues --    0.09428   0.09756   0.09815   0.09967   0.10262
 Alpha virt. eigenvalues --    0.10652   0.10771   0.10988   0.11235   0.11455
 Alpha virt. eigenvalues --    0.11635   0.11667   0.11787   0.11926   0.12220
 Alpha virt. eigenvalues --    0.12321   0.12403   0.12593   0.12900   0.13104
 Alpha virt. eigenvalues --    0.13239   0.13279   0.13626   0.13713   0.14011
 Alpha virt. eigenvalues --    0.14225   0.14356   0.14437   0.14761   0.14832
 Alpha virt. eigenvalues --    0.14878   0.15012   0.15176   0.15398   0.15829
 Alpha virt. eigenvalues --    0.16045   0.16073   0.16215   0.16476   0.16587
 Alpha virt. eigenvalues --    0.16863   0.16940   0.17076   0.17379   0.17655
 Alpha virt. eigenvalues --    0.17740   0.18013   0.18126   0.18156   0.18315
 Alpha virt. eigenvalues --    0.18465   0.18552   0.18597   0.18783   0.19050
 Alpha virt. eigenvalues --    0.19271   0.19577   0.19682   0.19844   0.19965
 Alpha virt. eigenvalues --    0.20282   0.20517   0.20644   0.20731   0.21015
 Alpha virt. eigenvalues --    0.21075   0.21136   0.21382   0.21904   0.22085
 Alpha virt. eigenvalues --    0.22226   0.22385   0.22566   0.22784   0.23079
 Alpha virt. eigenvalues --    0.23616   0.23985   0.24156   0.24209   0.24598
 Alpha virt. eigenvalues --    0.24756   0.24890   0.24956   0.25133   0.25464
 Alpha virt. eigenvalues --    0.25595   0.25680   0.25870   0.26211   0.26405
 Alpha virt. eigenvalues --    0.26519   0.26773   0.26951   0.27366   0.27503
 Alpha virt. eigenvalues --    0.27897   0.28110   0.28353   0.28554   0.28982
 Alpha virt. eigenvalues --    0.29146   0.29504   0.29949   0.30276   0.30527
 Alpha virt. eigenvalues --    0.30705   0.30762   0.31322   0.31379   0.31790
 Alpha virt. eigenvalues --    0.31914   0.32174   0.32496   0.32671   0.32904
 Alpha virt. eigenvalues --    0.32981   0.33241   0.33529   0.33595   0.33602
 Alpha virt. eigenvalues --    0.33928   0.34398   0.34661   0.34723   0.35001
 Alpha virt. eigenvalues --    0.35115   0.35444   0.36422   0.36589   0.36865
 Alpha virt. eigenvalues --    0.37282   0.37358   0.37527   0.37732   0.37993
 Alpha virt. eigenvalues --    0.38170   0.38617   0.38934   0.39041   0.39264
 Alpha virt. eigenvalues --    0.39499   0.39749   0.40094   0.40309   0.40471
 Alpha virt. eigenvalues --    0.40570   0.40769   0.41018   0.41381   0.41674
 Alpha virt. eigenvalues --    0.41913   0.42123   0.42312   0.42423   0.42784
 Alpha virt. eigenvalues --    0.42969   0.43191   0.43483   0.43628   0.44105
 Alpha virt. eigenvalues --    0.44184   0.44666   0.44811   0.44984   0.45218
 Alpha virt. eigenvalues --    0.45307   0.45516   0.45627   0.45848   0.45881
 Alpha virt. eigenvalues --    0.46428   0.46507   0.46719   0.46847   0.46868
 Alpha virt. eigenvalues --    0.47103   0.47460   0.47812   0.47860   0.48117
 Alpha virt. eigenvalues --    0.48251   0.48413   0.48658   0.49068   0.49154
 Alpha virt. eigenvalues --    0.49727   0.49845   0.49927   0.50157   0.50538
 Alpha virt. eigenvalues --    0.50610   0.50649   0.50805   0.50945   0.50986
 Alpha virt. eigenvalues --    0.51251   0.51333   0.51533   0.51838   0.51888
 Alpha virt. eigenvalues --    0.52150   0.52304   0.52656   0.52814   0.53000
 Alpha virt. eigenvalues --    0.53069   0.53471   0.53515   0.53647   0.53769
 Alpha virt. eigenvalues --    0.53918   0.54023   0.54501   0.54558   0.54754
 Alpha virt. eigenvalues --    0.54909   0.55333   0.55449   0.55478   0.55875
 Alpha virt. eigenvalues --    0.56190   0.56361   0.56462   0.56630   0.56888
 Alpha virt. eigenvalues --    0.56943   0.57074   0.57222   0.57428   0.57747
 Alpha virt. eigenvalues --    0.57873   0.58097   0.58328   0.58505   0.58611
 Alpha virt. eigenvalues --    0.58791   0.58835   0.59015   0.59203   0.59411
 Alpha virt. eigenvalues --    0.59476   0.59647   0.59743   0.59898   0.60026
 Alpha virt. eigenvalues --    0.60102   0.60270   0.60560   0.60675   0.60966
 Alpha virt. eigenvalues --    0.61043   0.61179   0.61322   0.61374   0.61496
 Alpha virt. eigenvalues --    0.61773   0.61909   0.61973   0.62128   0.62238
 Alpha virt. eigenvalues --    0.62255   0.62328   0.62440   0.62683   0.62784
 Alpha virt. eigenvalues --    0.62799   0.62965   0.63056   0.63164   0.63342
 Alpha virt. eigenvalues --    0.63403   0.63542   0.63634   0.63748   0.63798
 Alpha virt. eigenvalues --    0.63967   0.64096   0.64189   0.64367   0.64411
 Alpha virt. eigenvalues --    0.64475   0.64538   0.64628   0.64961   0.65007
 Alpha virt. eigenvalues --    0.65128   0.65214   0.65297   0.65424   0.65590
 Alpha virt. eigenvalues --    0.65634   0.65855   0.66038   0.66088   0.66153
 Alpha virt. eigenvalues --    0.66311   0.66385   0.66480   0.66671   0.66747
 Alpha virt. eigenvalues --    0.66997   0.67127   0.67201   0.67406   0.67475
 Alpha virt. eigenvalues --    0.67515   0.67710   0.67787   0.67914   0.67986
 Alpha virt. eigenvalues --    0.68188   0.68258   0.68360   0.68440   0.68557
 Alpha virt. eigenvalues --    0.68629   0.68803   0.68842   0.68986   0.69036
 Alpha virt. eigenvalues --    0.69247   0.69390   0.69616   0.69837   0.69919
 Alpha virt. eigenvalues --    0.69988   0.70139   0.70258   0.70386   0.70540
 Alpha virt. eigenvalues --    0.70692   0.70724   0.70831   0.70905   0.70997
 Alpha virt. eigenvalues --    0.71076   0.71378   0.71411   0.71624   0.71695
 Alpha virt. eigenvalues --    0.71776   0.72208   0.72329   0.72367   0.72615
 Alpha virt. eigenvalues --    0.72889   0.73018   0.73199   0.73271   0.73414
 Alpha virt. eigenvalues --    0.73719   0.73907   0.74213   0.74303   0.74428
 Alpha virt. eigenvalues --    0.74636   0.74758   0.75008   0.75421   0.75514
 Alpha virt. eigenvalues --    0.75596   0.75770   0.75906   0.76090   0.76176
 Alpha virt. eigenvalues --    0.76415   0.76832   0.77034   0.77272   0.77561
 Alpha virt. eigenvalues --    0.77677   0.78211   0.78324   0.78672   0.78731
 Alpha virt. eigenvalues --    0.79086   0.79390   0.79573   0.79914   0.79978
 Alpha virt. eigenvalues --    0.80148   0.80278   0.80535   0.80813   0.81286
 Alpha virt. eigenvalues --    0.81898   0.82201   0.82415   0.82541   0.83092
 Alpha virt. eigenvalues --    0.83281   0.83560   0.83673   0.83773   0.83979
 Alpha virt. eigenvalues --    0.84279   0.84405   0.84745   0.85287   0.85580
 Alpha virt. eigenvalues --    0.85790   0.86109   0.86281   0.86698   0.86854
 Alpha virt. eigenvalues --    0.87019   0.87218   0.87604   0.87650   0.87819
 Alpha virt. eigenvalues --    0.88334   0.88684   0.89057   0.89634   0.89944
 Alpha virt. eigenvalues --    0.90257   0.90502   0.90857   0.91048   0.91425
 Alpha virt. eigenvalues --    0.91703   0.91908   0.92418   0.92676   0.92868
 Alpha virt. eigenvalues --    0.93038   0.93708   0.94103   0.94407   0.94704
 Alpha virt. eigenvalues --    0.94900   0.95118   0.95609   0.95918   0.95951
 Alpha virt. eigenvalues --    0.96103   0.96522   0.96706   0.96878   0.97128
 Alpha virt. eigenvalues --    0.97438   0.97722   0.97733   0.97978   0.98278
 Alpha virt. eigenvalues --    0.98393   0.98789   0.98973   0.99139   0.99317
 Alpha virt. eigenvalues --    0.99730   0.99921   1.00217   1.00567   1.00968
 Alpha virt. eigenvalues --    1.01042   1.01189   1.01435   1.01563   1.02035
 Alpha virt. eigenvalues --    1.02383   1.02778   1.03321   1.03714   1.03952
 Alpha virt. eigenvalues --    1.04099   1.04500   1.04606   1.04910   1.05419
 Alpha virt. eigenvalues --    1.05750   1.05867   1.06199   1.06260   1.06614
 Alpha virt. eigenvalues --    1.07106   1.07379   1.07490   1.07788   1.07961
 Alpha virt. eigenvalues --    1.08163   1.08511   1.09208   1.09366   1.09463
 Alpha virt. eigenvalues --    1.09805   1.10015   1.10300   1.10590   1.10665
 Alpha virt. eigenvalues --    1.10905   1.11173   1.11814   1.11883   1.11951
 Alpha virt. eigenvalues --    1.12214   1.12489   1.12742   1.13085   1.13440
 Alpha virt. eigenvalues --    1.13846   1.14095   1.14436   1.14645   1.14696
 Alpha virt. eigenvalues --    1.14933   1.15149   1.15247   1.15512   1.16039
 Alpha virt. eigenvalues --    1.16295   1.16737   1.16899   1.17238   1.17558
 Alpha virt. eigenvalues --    1.18010   1.18251   1.18519   1.18938   1.19028
 Alpha virt. eigenvalues --    1.19160   1.19412   1.19551   1.19677   1.20140
 Alpha virt. eigenvalues --    1.20462   1.20604   1.20791   1.20963   1.21821
 Alpha virt. eigenvalues --    1.21942   1.22151   1.22641   1.23132   1.23505
 Alpha virt. eigenvalues --    1.23686   1.23825   1.23986   1.24162   1.24504
 Alpha virt. eigenvalues --    1.24839   1.25137   1.25466   1.25554   1.25670
 Alpha virt. eigenvalues --    1.26090   1.26422   1.26654   1.26790   1.27167
 Alpha virt. eigenvalues --    1.27244   1.27456   1.27681   1.27739   1.28223
 Alpha virt. eigenvalues --    1.28361   1.28761   1.29008   1.29578   1.30002
 Alpha virt. eigenvalues --    1.30140   1.30295   1.30556   1.30874   1.31180
 Alpha virt. eigenvalues --    1.31775   1.31952   1.32262   1.32520   1.32983
 Alpha virt. eigenvalues --    1.33147   1.33529   1.33557   1.34030   1.34311
 Alpha virt. eigenvalues --    1.34498   1.34775   1.34912   1.35393   1.35502
 Alpha virt. eigenvalues --    1.36020   1.36609   1.37158   1.37249   1.37356
 Alpha virt. eigenvalues --    1.37448   1.37994   1.38114   1.38460   1.38649
 Alpha virt. eigenvalues --    1.38814   1.38963   1.39179   1.39558   1.39925
 Alpha virt. eigenvalues --    1.40199   1.40390   1.40910   1.41268   1.41483
 Alpha virt. eigenvalues --    1.41746   1.41883   1.42114   1.42424   1.42661
 Alpha virt. eigenvalues --    1.42833   1.43414   1.43540   1.43862   1.44024
 Alpha virt. eigenvalues --    1.44330   1.44721   1.45475   1.45631   1.45841
 Alpha virt. eigenvalues --    1.45890   1.46219   1.46477   1.46683   1.47272
 Alpha virt. eigenvalues --    1.47386   1.47391   1.47866   1.48138   1.48226
 Alpha virt. eigenvalues --    1.48404   1.48963   1.49077   1.49284   1.49489
 Alpha virt. eigenvalues --    1.49763   1.50070   1.50307   1.50476   1.50776
 Alpha virt. eigenvalues --    1.51079   1.51431   1.51764   1.51862   1.52144
 Alpha virt. eigenvalues --    1.52470   1.52972   1.53192   1.53453   1.53622
 Alpha virt. eigenvalues --    1.53924   1.54194   1.54218   1.54389   1.54857
 Alpha virt. eigenvalues --    1.55075   1.55319   1.55670   1.56568   1.56786
 Alpha virt. eigenvalues --    1.57077   1.57226   1.57690   1.58112   1.58515
 Alpha virt. eigenvalues --    1.58661   1.58882   1.59326   1.59722   1.60162
 Alpha virt. eigenvalues --    1.60793   1.61123   1.61573   1.61992   1.62309
 Alpha virt. eigenvalues --    1.62408   1.62694   1.62794   1.63764   1.63876
 Alpha virt. eigenvalues --    1.64059   1.64408   1.64751   1.65091   1.65328
 Alpha virt. eigenvalues --    1.65786   1.66345   1.66788   1.66938   1.67110
 Alpha virt. eigenvalues --    1.67334   1.67679   1.68048   1.68143   1.68651
 Alpha virt. eigenvalues --    1.68661   1.68817   1.69334   1.69510   1.69619
 Alpha virt. eigenvalues --    1.69744   1.70060   1.70373   1.70517   1.70794
 Alpha virt. eigenvalues --    1.71032   1.71349   1.71545   1.71813   1.71840
 Alpha virt. eigenvalues --    1.72152   1.72424   1.72491   1.72810   1.72877
 Alpha virt. eigenvalues --    1.72997   1.73235   1.73340   1.73543   1.73965
 Alpha virt. eigenvalues --    1.74059   1.74243   1.74454   1.74533   1.74598
 Alpha virt. eigenvalues --    1.74996   1.75405   1.75493   1.75570   1.75619
 Alpha virt. eigenvalues --    1.76131   1.76581   1.76667   1.76835   1.77156
 Alpha virt. eigenvalues --    1.77296   1.77427   1.77534   1.77616   1.77938
 Alpha virt. eigenvalues --    1.78115   1.78356   1.78423   1.78677   1.78815
 Alpha virt. eigenvalues --    1.78836   1.79027   1.79135   1.79290   1.79425
 Alpha virt. eigenvalues --    1.79494   1.79630   1.79700   1.79900   1.80000
 Alpha virt. eigenvalues --    1.80153   1.80246   1.80506   1.80595   1.80731
 Alpha virt. eigenvalues --    1.80987   1.81036   1.81252   1.81378   1.81617
 Alpha virt. eigenvalues --    1.81700   1.82138   1.82151   1.82491   1.82634
 Alpha virt. eigenvalues --    1.83036   1.83142   1.83241   1.83491   1.83868
 Alpha virt. eigenvalues --    1.84075   1.84141   1.84206   1.84620   1.84748
 Alpha virt. eigenvalues --    1.84839   1.85350   1.85543   1.85620   1.85838
 Alpha virt. eigenvalues --    1.85932   1.86285   1.86410   1.86583   1.86774
 Alpha virt. eigenvalues --    1.87080   1.87179   1.87381   1.87452   1.87731
 Alpha virt. eigenvalues --    1.87823   1.88157   1.88272   1.88539   1.88882
 Alpha virt. eigenvalues --    1.88898   1.89186   1.89336   1.89489   1.89585
 Alpha virt. eigenvalues --    1.89913   1.90198   1.90329   1.90486   1.90594
 Alpha virt. eigenvalues --    1.90709   1.90845   1.91011   1.91348   1.91411
 Alpha virt. eigenvalues --    1.91719   1.91923   1.92236   1.92417   1.92437
 Alpha virt. eigenvalues --    1.92756   1.92890   1.93008   1.93370   1.93551
 Alpha virt. eigenvalues --    1.93634   1.93850   1.93951   1.94191   1.94311
 Alpha virt. eigenvalues --    1.94886   1.94996   1.95152   1.95507   1.95674
 Alpha virt. eigenvalues --    1.95762   1.96101   1.96361   1.96737   1.96901
 Alpha virt. eigenvalues --    1.96978   1.97300   1.97594   1.97907   1.98092
 Alpha virt. eigenvalues --    1.98250   1.98567   1.98695   1.98848   1.99048
 Alpha virt. eigenvalues --    1.99124   1.99513   1.99909   2.00049   2.00305
 Alpha virt. eigenvalues --    2.00646   2.00949   2.01045   2.01705   2.01853
 Alpha virt. eigenvalues --    2.02110   2.02177   2.02467   2.02585   2.02925
 Alpha virt. eigenvalues --    2.03298   2.03449   2.03763   2.03970   2.04150
 Alpha virt. eigenvalues --    2.04571   2.04676   2.04970   2.05015   2.05433
 Alpha virt. eigenvalues --    2.05491   2.06097   2.06373   2.06664   2.07072
 Alpha virt. eigenvalues --    2.07316   2.07797   2.07935   2.08273   2.08788
 Alpha virt. eigenvalues --    2.09104   2.09286   2.09540   2.09845   2.09909
 Alpha virt. eigenvalues --    2.10072   2.10447   2.10741   2.10995   2.11137
 Alpha virt. eigenvalues --    2.11277   2.11754   2.11864   2.12289   2.12395
 Alpha virt. eigenvalues --    2.12651   2.12770   2.13222   2.13815   2.13946
 Alpha virt. eigenvalues --    2.14199   2.14251   2.14760   2.15025   2.15074
 Alpha virt. eigenvalues --    2.15503   2.15870   2.16106   2.16325   2.16633
 Alpha virt. eigenvalues --    2.17040   2.17397   2.17513   2.17570   2.18209
 Alpha virt. eigenvalues --    2.18432   2.18868   2.19198   2.19230   2.19431
 Alpha virt. eigenvalues --    2.19570   2.19764   2.19862   2.20296   2.20432
 Alpha virt. eigenvalues --    2.20665   2.21073   2.21210   2.21900   2.22103
 Alpha virt. eigenvalues --    2.22526   2.22743   2.22996   2.23194   2.23445
 Alpha virt. eigenvalues --    2.24088   2.24105   2.24252   2.24563   2.24836
 Alpha virt. eigenvalues --    2.24964   2.24988   2.25726   2.26569   2.26634
 Alpha virt. eigenvalues --    2.27083   2.27247   2.27761   2.27989   2.28131
 Alpha virt. eigenvalues --    2.28661   2.28982   2.29310   2.29462   2.29808
 Alpha virt. eigenvalues --    2.30244   2.30681   2.31314   2.32072   2.32290
 Alpha virt. eigenvalues --    2.32491   2.32831   2.33686   2.33931   2.34047
 Alpha virt. eigenvalues --    2.34562   2.34610   2.34871   2.35274   2.35719
 Alpha virt. eigenvalues --    2.36282   2.36780   2.36852   2.37145   2.37385
 Alpha virt. eigenvalues --    2.37609   2.37788   2.37939   2.38272   2.38469
 Alpha virt. eigenvalues --    2.38650   2.39157   2.39664   2.39731   2.39944
 Alpha virt. eigenvalues --    2.40401   2.40829   2.41149   2.41231   2.42092
 Alpha virt. eigenvalues --    2.42214   2.42282   2.42643   2.42818   2.43234
 Alpha virt. eigenvalues --    2.43728   2.43938   2.44238   2.44680   2.44961
 Alpha virt. eigenvalues --    2.45107   2.45402   2.45504   2.45699   2.45904
 Alpha virt. eigenvalues --    2.46311   2.46368   2.46824   2.47222   2.47408
 Alpha virt. eigenvalues --    2.47518   2.47813   2.48057   2.48618   2.49495
 Alpha virt. eigenvalues --    2.49729   2.49913   2.50131   2.50366   2.50917
 Alpha virt. eigenvalues --    2.51192   2.51674   2.51847   2.52534   2.52600
 Alpha virt. eigenvalues --    2.53318   2.53392   2.53795   2.54149   2.55129
 Alpha virt. eigenvalues --    2.55246   2.55777   2.56260   2.56707   2.56933
 Alpha virt. eigenvalues --    2.57126   2.57286   2.57799   2.58431   2.58595
 Alpha virt. eigenvalues --    2.58923   2.59062   2.59528   2.60116   2.60275
 Alpha virt. eigenvalues --    2.60902   2.61361   2.61630   2.61918   2.62084
 Alpha virt. eigenvalues --    2.62135   2.62454   2.62548   2.63463   2.63741
 Alpha virt. eigenvalues --    2.64052   2.64298   2.64577   2.65084   2.65234
 Alpha virt. eigenvalues --    2.65400   2.65525   2.65654   2.65919   2.66582
 Alpha virt. eigenvalues --    2.66851   2.67122   2.67447   2.67708   2.68016
 Alpha virt. eigenvalues --    2.68268   2.68617   2.69188   2.69274   2.69553
 Alpha virt. eigenvalues --    2.69777   2.69929   2.70061   2.70182   2.70451
 Alpha virt. eigenvalues --    2.70597   2.70850   2.71111   2.71184   2.71437
 Alpha virt. eigenvalues --    2.71645   2.71891   2.72357   2.72416   2.72550
 Alpha virt. eigenvalues --    2.72872   2.73049   2.73301   2.73428   2.73808
 Alpha virt. eigenvalues --    2.73902   2.74826   2.75415   2.75620   2.76177
 Alpha virt. eigenvalues --    2.76292   2.76417   2.76875   2.77105   2.77342
 Alpha virt. eigenvalues --    2.77516   2.77657   2.78194   2.78456   2.78934
 Alpha virt. eigenvalues --    2.79270   2.79549   2.79720   2.79988   2.80168
 Alpha virt. eigenvalues --    2.80362   2.80539   2.81152   2.81361   2.81554
 Alpha virt. eigenvalues --    2.82182   2.82265   2.82351   2.82453   2.83136
 Alpha virt. eigenvalues --    2.83163   2.83482   2.83760   2.83778   2.83984
 Alpha virt. eigenvalues --    2.84278   2.84397   2.84788   2.85200   2.85394
 Alpha virt. eigenvalues --    2.85581   2.86044   2.86127   2.86358   2.86951
 Alpha virt. eigenvalues --    2.87141   2.87514   2.87665   2.87967   2.88171
 Alpha virt. eigenvalues --    2.88356   2.89094   2.89497   2.89935   2.90007
 Alpha virt. eigenvalues --    2.90313   2.90403   2.90758   2.91194   2.91708
 Alpha virt. eigenvalues --    2.91760   2.92028   2.92244   2.92448   2.92699
 Alpha virt. eigenvalues --    2.93578   2.93828   2.94051   2.94982   2.95318
 Alpha virt. eigenvalues --    2.95390   2.95422   2.95936   2.96038   2.96346
 Alpha virt. eigenvalues --    2.96559   2.96835   2.97179   2.97315   2.97613
 Alpha virt. eigenvalues --    2.98051   2.98082   2.98822   2.99249   2.99523
 Alpha virt. eigenvalues --    2.99628   2.99847   3.00167   3.00670   3.00828
 Alpha virt. eigenvalues --    3.01290   3.01417   3.01594   3.01712   3.01912
 Alpha virt. eigenvalues --    3.02472   3.02917   3.03703   3.04139   3.04320
 Alpha virt. eigenvalues --    3.04511   3.05001   3.05858   3.06359   3.07227
 Alpha virt. eigenvalues --    3.07630   3.07897   3.08378   3.08528   3.08800
 Alpha virt. eigenvalues --    3.09202   3.09419   3.10026   3.11726   3.11978
 Alpha virt. eigenvalues --    3.12759   3.12955   3.13159   3.13495   3.14042
 Alpha virt. eigenvalues --    3.14103   3.15187   3.15541   3.15990   3.17334
 Alpha virt. eigenvalues --    3.17508   3.18036   3.18135   3.18560   3.18657
 Alpha virt. eigenvalues --    3.18838   3.19015   3.19075   3.19306   3.19536
 Alpha virt. eigenvalues --    3.19820   3.20042   3.20651   3.21657   3.21758
 Alpha virt. eigenvalues --    3.22037   3.22065   3.22502   3.22940   3.23165
 Alpha virt. eigenvalues --    3.23300   3.24218   3.24636   3.24848   3.25050
 Alpha virt. eigenvalues --    3.25336   3.26097   3.26651   3.26984   3.27271
 Alpha virt. eigenvalues --    3.27577   3.27964   3.28795   3.29535   3.29696
 Alpha virt. eigenvalues --    3.30401   3.31172   3.31798   3.31909   3.33764
 Alpha virt. eigenvalues --    3.35379   3.35875   3.36089   3.36771   3.39706
 Alpha virt. eigenvalues --    3.41405   3.41859   3.46473   3.48340   3.49424
 Alpha virt. eigenvalues --    3.49946   3.52327   3.53882   3.54530   3.55053
 Alpha virt. eigenvalues --    3.56456   3.57301   3.58888   3.59267   3.60163
 Alpha virt. eigenvalues --    3.60591   3.61375   3.63325   3.64049   3.64498
 Alpha virt. eigenvalues --    3.65688   3.65837   3.65905   3.66090   3.66325
 Alpha virt. eigenvalues --    3.67406   3.69175   3.69368   3.70026   3.70124
 Alpha virt. eigenvalues --    3.71025   3.71415   3.71611   3.72289   3.72524
 Alpha virt. eigenvalues --    3.73274   3.73606   3.73716   3.75015   3.75114
 Alpha virt. eigenvalues --    3.75911   3.79124   3.80107   3.83738
          Condensed to atoms (all electrons):
 Mulliken charges:
               1
     1  C    0.074726
     2  C    0.020757
     3  O   -0.302671
     4  H    0.045963
     5  H    0.041302
     6  H   -0.014527
     7  N   -0.121349
     8  C    0.088180
     9  C    0.060849
    10  O   -0.276897
    11  C    0.086887
    12  C    0.185631
    13  O   -0.381908
    14  O   -0.466787
    15  H    0.120022
    16  H    0.006278
    17  H   -0.009016
    18  H   -0.014478
    19  N   -0.106179
    20  C    0.141547
    21  C    0.075389
    22  O   -0.278133
    23  C   -0.094354
    24  C    0.001235
    25  C    0.025678
    26  C    0.031527
    27  N    0.070298
    28  H    0.147550
    29  H    0.005341
    30  H   -0.000337
    31  H    0.037687
    32  H    0.050566
    33  H   -0.019773
    34  H    0.055809
    35  H    0.016038
    36  H    0.112342
    37  H    0.069889
    38  H    0.170006
    39  H    0.182938
    40  H    0.199375
    41  N   -0.136355
    42  C    0.124394
    43  C    0.073448
    44  O   -0.286892
    45  C    0.115933
    46  C    0.022153
    47  O   -0.393082
    48  O   -0.428119
    49  H    0.140611
    50  H    0.016399
    51  H   -0.031931
    52  H    0.026484
    53  N   -0.145503
    54  C    0.235139
    55  C    0.024320
    56  O   -0.293063
    57  H    0.155526
    58  H    0.006537
    59  H    0.032421
    60  N   -0.170041
    61  C    0.128008
    62  C    0.055131
    63  O   -0.301651
    64  C    0.085193
    65  C    0.056313
    66  N   -0.015342
    67  O   -0.337364
    68  H    0.155116
    69  H    0.023467
    70  H    0.058422
    71  H   -0.019733
    72  H    0.126985
    73  H    0.125618
    74  N   -0.131710
    75  C    0.246561
    76  C    0.003089
    77  O   -0.300386
    78  H    0.156330
    79  H    0.025684
    80  H    0.019231
    81  N   -0.161751
    82  C    0.135174
    83  C    0.114229
    84  O   -0.335052
    85  C    0.171547
    86  C   -0.004363
    87  C   -0.027405
    88  C    0.022913
    89  C   -0.029625
    90  C   -0.029871
    91  C    0.160205
    92  O   -0.200082
    93  H    0.158008
    94  H   -0.020547
    95  H   -0.019865
    96  H   -0.041692
    97  H   -0.043076
    98  H   -0.012186
    99  H   -0.042072
   100  H   -0.045343
   101  H    0.169115
   102  N   -0.102782
   103  C    0.136906
   104  C    0.047962
   105  O   -0.293689
   106  C   -0.108721
   107  C    0.038779
   108  C    0.029912
   109  C    0.026119
   110  H    0.135998
   111  H    0.011619
   112  H   -0.014018
   113  H   -0.010026
   114  H    0.001626
   115  H    0.034781
   116  H    0.014489
   117  H   -0.013796
   118  H    0.022398
   119  H    0.009531
   120  H    0.015194
   121  N   -0.130449
   122  C    0.079057
   123  C    0.124044
   124  O   -0.273836
   125  C    0.246124
   126  O   -0.315043
   127  H    0.155151
   128  H    0.038290
   129  H    0.033562
   130  H   -0.031274
   131  H    0.175152
   132  N   -0.145094
   133  C    0.085922
   134  C    0.051715
   135  O   -0.253524
   136  C    0.057501
   137  H    0.123553
   138  H    0.026027
   139  H    0.055322
   140  H    0.016085
   141  H   -0.001046
   142  N   -0.128306
   143  C    0.115435
   144  C    0.065020
   145  O   -0.270150
   146  C    0.023084
   147  H    0.110962
   148  H    0.019782
   149  H    0.019193
   150  H    0.024047
   151  H    0.020903
   152  N   -0.149088
   153  C    0.126144
   154  C    0.062141
   155  O   -0.292082
   156  C   -0.023974
   157  C    0.131049
   158  C    0.117501
   159  O   -0.407384
   160  O   -0.429429
   161  H    0.126527
   162  H   -0.025404
   163  H    0.060103
   164  H   -0.002521
   165  H   -0.032328
   166  H   -0.072603
   167  N   -0.171317
   168  C    0.128712
   169  H    0.022752
   170  H    0.042657
   171  H   -0.001282
   172  H    0.125836
   173  Ca   1.284101
   174  O   -0.268022
   175  H    0.156894
   176  H    0.188529
 Sum of Mulliken charges =  -0.00000
 Mulliken charges with hydrogens summed into heavy atoms:
               1
     1  C    0.147464
     2  C    0.020757
     3  O   -0.302671
     7  N   -0.001327
     8  C    0.094458
     9  C    0.060849
    10  O   -0.276897
    11  C    0.063393
    12  C    0.185631
    13  O   -0.381908
    14  O   -0.466787
    19  N    0.041371
    20  C    0.146888
    21  C    0.075389
    22  O   -0.278133
    23  C   -0.057004
    24  C    0.032028
    25  C    0.097525
    26  C    0.213758
    27  N    0.622616
    41  N    0.004256
    42  C    0.140792
    43  C    0.073448
    44  O   -0.286892
    45  C    0.110486
    46  C    0.022153
    47  O   -0.393082
    48  O   -0.428119
    53  N    0.010023
    54  C    0.274097
    55  C    0.024320
    56  O   -0.293063
    60  N   -0.014925
    61  C    0.151475
    62  C    0.055131
    63  O   -0.301651
    64  C    0.123882
    65  C    0.056313
    66  N    0.237261
    67  O   -0.337364
    74  N    0.024619
    75  C    0.291476
    76  C    0.003089
    77  O   -0.300386
    81  N   -0.003743
    82  C    0.114627
    83  C    0.114229
    84  O   -0.335052
    85  C    0.109989
    86  C   -0.004363
    87  C   -0.070481
    88  C    0.010727
    89  C   -0.071696
    90  C   -0.075214
    91  C    0.160205
    92  O   -0.030967
   102  N    0.033216
   103  C    0.148526
   104  C    0.047962
   105  O   -0.293689
   106  C   -0.122739
   107  C    0.030379
   108  C    0.065386
   109  C    0.073241
   121  N    0.024701
   122  C    0.117347
   123  C    0.124044
   124  O   -0.273836
   125  C    0.248411
   126  O   -0.139891
   132  N   -0.021541
   133  C    0.111949
   134  C    0.051715
   135  O   -0.253524
   136  C    0.127862
   142  N   -0.017343
   143  C    0.135216
   144  C    0.065020
   145  O   -0.270150
   146  C    0.087227
   152  N   -0.022561
   153  C    0.100740
   154  C    0.062141
   155  O   -0.292082
   156  C    0.033607
   157  C    0.026118
   158  C    0.117501
   159  O   -0.407384
   160  O   -0.429429
   167  N   -0.045480
   168  C    0.192838
   173  Ca   1.284101
   174  O    0.077401
 DipInt: DoE/N= T F RetVal/Mat= T F Init=T NMatP=  1 IDeriv=0 Min/MaxMlt=  0  4
 Entering OneElI...
 OneElI was handed  1333951383 working-precision words.
 Multipole integrals L=0 to 4 MinM= 0 MaxM= 0.
 Requested accuracy = 0.1000D-12
 ShPair: Thresh= 1.00D-13 NBox=     0 BxSize= 0.00D+00 RnKept= 2.55D+01
         NSMCal=               327645 NSMKep=              159974
 PrmmSu-InSpLW:  IPartL=    0 NPrtUS=    1 NPrtUL=    1 DoSpLW=F IThBeg=    0 IThEnd=    0 NThAct=    1.
 PrsmSu:  NPrtUS=   1 ThrOK=F IAlg=1 NPAlg=1 LenDen=           0 ISkipM=0 DoSpLW=F IThBeg=    0 IThEnd=    0.
 Prism:   IPart=     0 DynPar=F LinDyn=F Incr=         512.
 PRISM was handed  1323909889 working-precision words and159974 shell-pairs
 IPart=  0 NShTot=      159974 NBatch=         365 AvBLen=       438.3
 PrsmSu-ThDecC:  IPartSL=    0    0 NPrtUSL=    1    1 IThBeg=    0 IThEnd=    0 CPU=   -1 GPU=   -1 NThAct=    1.
 PrSmSu:  NxtVal=            513.
 Electronic moments (au):
       -716.00000000         11.34139119         -1.65188495         -6.72278453
     -51837.06082774     -31791.17554843     -11728.55786110         31.93401727
        -24.43861401        -15.00435243     -85007.26578989     -12711.88589167
     -22386.43455805      41698.60387778     106152.49087741      51432.16009693
     -14895.25235439      -1096.87560233      11977.97925863      -6259.19937941
   -7513041.76530802   -3204879.98749525    -587484.28150833      80811.28513746
     334673.37595016    -587406.12351500     -24283.78766306     -83232.98947969
      29650.41881784   -2179517.87308865    -594064.40191626    -316863.32922138
    -188319.28604683     -15760.69764513      28239.87941913
 Electronic spatial extent (au):  <R**2>=          95356.7942
 DipInt: DoE/N= F T RetVal/Mat= T F Init=T NMatP=  1 IDeriv=0 Min/MaxMlt=  0  4
 Nuclear    moments (au):
        716.00000000          0.00000000          0.00000000         -0.00000000
      51356.31464650      31403.65886723      11377.74110137         -0.00000000
          0.00000000         -0.00000000      85651.47642643      13134.41904070
      22100.78175855     -39943.55848681    -106536.85348173     -52296.05518482
      15033.31664618       1095.47695685     -12550.83672560       5977.69799347
    7313959.72559232    3092603.27777592     552537.65684956     -81422.92974308
    -338240.12297916     592029.24055296      20610.45635056      83746.36171969
     -29217.28806478    2134640.64088755     561429.60487114     293768.40179607
     189149.83956907      11901.01773614     -27499.62189248
 Total      moments (au):
          0.00000000         11.34139119         -1.65188495         -6.72278453
       -480.74618123       -387.51668120       -350.81675973         31.93401727
        -24.43861401        -15.00435243        644.21063654        422.53314903
       -285.65279951       1755.04539097       -384.36260432       -863.89508789
        138.06429179         -1.39864548       -572.85746697       -281.50138594
    -199082.03971571    -112276.70971932     -34946.62465877       -611.64460561
      -3566.74702900       4623.11703796      -3673.33131250        513.37224000
        433.13075306     -44877.23220111     -32634.79704512     -23094.92742531
        830.55352224      -3859.67990899        740.25752664
 Traceless Quadrup. (au):
        -74.38630718         18.84319286         55.54311432         31.93401727
        -24.43861401        -15.00435243
 Charge=              0.0000 electrons
 Dipole moment (field-independent basis, Debye):
    X=             28.8269    Y=             -4.1987    Z=            -17.0876  Tot=             33.7729
 Quadrupole moment (field-independent basis, Debye-Ang):
   XX=           -646.6201   YY=           -521.2232   ZZ=           -471.8606
   XY=             42.9523   XZ=            -32.8708   YZ=            -20.1814
 Traceless Quadrupole moment (field-independent basis, Debye-Ang):
   XX=           -100.0521   YY=             25.3447   ZZ=             74.7074
   XY=             42.9523   XZ=            -32.8708   YZ=            -20.1814
 Octapole moment (field-independent basis, Debye-Ang**2):
  XXX=            458.5243  YYY=            300.7428  ZZZ=           -203.3167  XYY=           1249.1737
  XXY=           -273.5745  XXZ=           -614.8872  XZZ=             98.2688  YZZ=             -0.9955
  YYZ=           -407.7379  XYZ=           -200.3618
 Hexadecapole moment (field-independent basis, Debye-Ang**3):
 XXXX=         -74983.8425 YYYY=         -42288.7927 ZZZZ=         -13162.5746 XXXY=           -230.3747
 XXXZ=          -1343.4080 YYYX=           1741.2876 YYYZ=          -1383.5527 ZZZX=            193.3606
 ZZZY=            163.1378 XXYY=         -16902.9176 XXZZ=         -12291.8295 YYZZ=          -8698.6571
 XXYZ=            312.8263 YYXZ=          -1453.7405 ZZXY=            278.8165
 N-N= 2.163982185387D+04 E-N=-5.576032256766D+04  KE= 5.290485999649D+03
 Leave Link  601 at Sun Sep 15 01:07:54 2019, MaxMem=  1342177280 cpu:              45.3 elap:               1.2
 FitSet:  NAtFit=   176 NAtPot=   176 NAtFrz=     0 MDM=   180 TotChg=   0.00000
 Merz-Kollman atomic radii used.
 Read replacement radii for each type of atom:
 Rad(20) =   1.700000000000D+00
 Atom Element Radius
    1     6    1.50
    2     6    1.50
    3     8    1.40
    4     1    1.20
    5     1    1.20
    6     1    1.20
    7     7    1.50
    8     6    1.50
    9     6    1.50
   10     8    1.40
   11     6    1.50
   12     6    1.50
   13     8    1.40
   14     8    1.40
   15     1    1.20
   16     1    1.20
   17     1    1.20
   18     1    1.20
   19     7    1.50
   20     6    1.50
   21     6    1.50
   22     8    1.40
   23     6    1.50
   24     6    1.50
   25     6    1.50
   26     6    1.50
   27     7    1.50
   28     1    1.20
   29     1    1.20
   30     1    1.20
   31     1    1.20
   32     1    1.20
   33     1    1.20
   34     1    1.20
   35     1    1.20
   36     1    1.20
   37     1    1.20
   38     1    1.20
   39     1    1.20
   40     1    1.20
   41     7    1.50
   42     6    1.50
   43     6    1.50
   44     8    1.40
   45     6    1.50
   46     6    1.50
   47     8    1.40
   48     8    1.40
   49     1    1.20
   50     1    1.20
   51     1    1.20
   52     1    1.20
   53     7    1.50
   54     6    1.50
   55     6    1.50
   56     8    1.40
   57     1    1.20
   58     1    1.20
   59     1    1.20
   60     7    1.50
   61     6    1.50
   62     6    1.50
   63     8    1.40
   64     6    1.50
   65     6    1.50
   66     7    1.50
   67     8    1.40
   68     1    1.20
   69     1    1.20
   70     1    1.20
   71     1    1.20
   72     1    1.20
   73     1    1.20
   74     7    1.50
   75     6    1.50
   76     6    1.50
   77     8    1.40
   78     1    1.20
   79     1    1.20
   80     1    1.20
   81     7    1.50
   82     6    1.50
   83     6    1.50
   84     8    1.40
   85     6    1.50
   86     6    1.50
   87     6    1.50
   88     6    1.50
   89     6    1.50
   90     6    1.50
   91     6    1.50
   92     8    1.40
   93     1    1.20
   94     1    1.20
   95     1    1.20
   96     1    1.20
   97     1    1.20
   98     1    1.20
   99     1    1.20
  100     1    1.20
  101     1    1.20
  102     7    1.50
  103     6    1.50
  104     6    1.50
  105     8    1.40
  106     6    1.50
  107     6    1.50
  108     6    1.50
  109     6    1.50
  110     1    1.20
  111     1    1.20
  112     1    1.20
  113     1    1.20
  114     1    1.20
  115     1    1.20
  116     1    1.20
  117     1    1.20
  118     1    1.20
  119     1    1.20
  120     1    1.20
  121     7    1.50
  122     6    1.50
  123     6    1.50
  124     8    1.40
  125     6    1.50
  126     8    1.40
  127     1    1.20
  128     1    1.20
  129     1    1.20
  130     1    1.20
  131     1    1.20
  132     7    1.50
  133     6    1.50
  134     6    1.50
  135     8    1.40
  136     6    1.50
  137     1    1.20
  138     1    1.20
  139     1    1.20
  140     1    1.20
  141     1    1.20
  142     7    1.50
  143     6    1.50
  144     6    1.50
  145     8    1.40
  146     6    1.50
  147     1    1.20
  148     1    1.20
  149     1    1.20
  150     1    1.20
  151     1    1.20
  152     7    1.50
  153     6    1.50
  154     6    1.50
  155     8    1.40
  156     6    1.50
  157     6    1.50
  158     6    1.50
  159     8    1.40
  160     8    1.40
  161     1    1.20
  162     1    1.20
  163     1    1.20
  164     1    1.20
  165     1    1.20
  166     1    1.20
  167     7    1.50
  168     6    1.50
  169     1    1.20
  170     1    1.20
  171     1    1.20
  172     1    1.20
  173    20    1.70
  174     8    1.40
[...]
 **** Fit      -0.015556
 **** Fit      -0.005837
 **** Fit      -0.004230
 **** Fit      -0.004117
 **** Fit      -0.004750
 **** Fit      -0.007601
 **** Fit      -0.009963
 **** Fit      -0.012476
 **** Fit      -0.010986
 **** Fit      -0.008010
 **** Fit      -0.006846
 **** Fit      -0.009484
 **** Fit      -0.010638
 **** Fit       0.000950
 **** Fit       0.012276
 **** Fit       0.006276
 **** Fit       0.019051
 **** Fit       0.011455
 **** Fit       0.025814
 **** Fit       0.020137
 **** Fit       0.031792
 **** Fit       0.044111
 **** Fit       0.055136
 **** Fit       0.059696
 **** Fit       0.050073
 **** Fit       0.063297
 **** Fit       0.053406
 **** Fit       0.065757
 **** Fit       0.045377
 **** Fit       0.053699
 **** Fit       0.063581
 **** Fit       0.060271
 **** Fit       0.042709
 **** Fit       0.006244
 **** Fit       0.044549
 **** Fit       0.051556
 **** Fit       0.057478
 **** Fit       0.058759
 **** Fit       0.052828
 **** Fit       0.040235
 **** Fit       0.024094
 **** Fit       0.006868
 **** Fit       0.036155
 **** Fit       0.041836
 **** Fit       0.045710
 **** Fit       0.043574
 **** Fit       0.033693
 **** Fit       0.019727
 **** Fit       0.007107
 **** Fit       0.015673
 **** Fit       0.024174
 **** Fit       0.031939
 **** Fit       0.035405
 **** Fit       0.029028
 **** Fit       0.018064
 **** Fit       0.016789
 **** Fit       0.024377
 **** Fit       0.025979
 **** Fit      -0.037067
 **** Fit      -0.000976
 **** Fit      -0.001215
 **** Fit      -0.002421
 **** Fit      -0.002345
 **** Fit      -0.000694
 **** Fit       0.000565
 **** Fit       0.000153
 **** Fit      -0.001471
 **** Fit      -0.002750
 **** Fit      -0.002475
 **** Fit      -0.000309
 **** Fit       0.002002
 **** Fit       0.001101
 **** Fit      -0.000128
 **** Fit      -0.001798
 **** Fit      -0.003017
 **** Fit      -0.004690
 **** Fit      -0.002300
 **** Fit       0.002951
 **** Fit       0.001902
 **** Fit       0.000724
 **** Fit      -0.000529
 **** Fit      -0.002228
 **** Fit      -0.003458
 **** Fit      -0.006616
 **** Fit      -0.003624
 **** Fit       0.002777
 **** Fit       0.001579
 **** Fit       0.000334
 **** Fit      -0.000947
 **** Fit      -0.002775
 **** Fit      -0.003989
 **** Fit      -0.006941
 **** Fit      -0.003402
 **** Fit       0.004534
 **** Fit       0.003357
 **** Fit       0.002177
 **** Fit       0.000976
 **** Fit      -0.000258
 **** Fit      -0.001519
 **** Fit      -0.003447
 **** Fit      -0.004748
 **** Fit      -0.005988
 **** Fit       0.004298
 **** Fit       0.003047
 **** Fit       0.001802
 **** Fit       0.000536
 **** Fit      -0.000768
 **** Fit      -0.002107
 **** Fit      -0.004254
 **** Fit      -0.005648
 **** Fit      -0.006987
 **** Fit       0.005244
 **** Fit       0.003907
 **** Fit       0.002599
 **** Fit      -0.006753
 **** Fit      -0.008222
 **** Fit      -0.009678
 **** Fit       0.006524
 **** Fit       0.005022
 **** Fit      -0.009665
 **** Fit      -0.011233
 **** Fit       0.007971
 **** Fit       0.006256
 **** Fit      -0.013147
 **** Fit      -0.014950
 **** Fit       0.010077
 **** Fit       0.008088
 **** Fit      -0.015661
 **** Fit      -0.017623
 **** Fit      -0.020044
 **** Fit       0.013477
 **** Fit       0.011456
 **** Fit       0.008874
 **** Fit      -0.018705
 **** Fit      -0.020726
 **** Fit      -0.023283
 **** Fit      -0.026801
 **** Fit       0.016763
 **** Fit       0.015491
 **** Fit       0.013049
 **** Fit      -0.022462
 **** Fit      -0.024427
 **** Fit      -0.026973
 **** Fit      -0.030463
 **** Fit      -0.027353
 **** Fit      -0.029334
 **** Fit      -0.031995
 **** Fit      -0.033382
 **** Fit      -0.035461
 **** Fit      -0.002824
 **** Fit       0.002488
 **** Fit       0.001229
 **** Fit      -0.000103
 **** Fit      -0.001462
 **** Fit      -0.003718
 **** Fit      -0.005110
 **** Fit       0.003290
 **** Fit       0.001919
 **** Fit       0.000500
 **** Fit      -0.000920
 **** Fit      -0.002325
 **** Fit      -0.004882
 **** Fit      -0.006266
 **** Fit      -0.007682
 **** Fit       0.005453
 **** Fit       0.004016
 **** Fit       0.002465
 **** Fit       0.000892
 **** Fit      -0.000636
 **** Fit      -0.002099
 **** Fit      -0.003504
 **** Fit      -0.006459
 **** Fit      -0.007864
 **** Fit      -0.009328
 **** Fit      -0.010890
 **** Fit       0.007078
 **** Fit       0.005367
 **** Fit       0.003456
 **** Fit       0.001510
 **** Fit      -0.000346
 **** Fit      -0.002054
 **** Fit      -0.003614
 **** Fit      -0.005063
 **** Fit      -0.008636
 **** Fit      -0.009982
 **** Fit      -0.011411
 **** Fit      -0.012983
 **** Fit       0.006933
 **** Fit       0.004530
 **** Fit       0.002029
 **** Fit      -0.000344
 **** Fit      -0.002463
 **** Fit      -0.004296
 **** Fit      -0.005882
 **** Fit      -0.007298
 **** Fit      -0.011661
 **** Fit      -0.012884
 **** Fit      -0.014226
 **** Fit      -0.015763
 **** Fit      -0.017558
 **** Fit       0.009398
 **** Fit       0.006401
 **** Fit       0.003016
 **** Fit      -0.000295
 **** Fit      -0.003227
 **** Fit      -0.005656
 **** Fit      -0.007596
 **** Fit      -0.009150
 **** Fit      -0.010458
 **** Fit      -0.015887
 **** Fit      -0.016885
 **** Fit      -0.018090
 **** Fit      -0.019599
 **** Fit      -0.021474
 **** Fit       0.001393
 **** Fit      -0.003380
 **** Fit      -0.007350
 **** Fit      -0.010340
 **** Fit      -0.012440
 **** Fit      -0.013886
 **** Fit      -0.014953
 **** Fit      -0.021825
 **** Fit      -0.022315
 **** Fit      -0.023205
 **** Fit      -0.024605
 **** Fit      -0.029799
 **** Fit      -0.030838
 **** Fit      -0.004719
 **** Fit      -0.004593
 **** Fit      -0.006240
 **** Fit      -0.006629
 **** Fit      -0.004997
 **** Fit      -0.003256
 **** Fit      -0.004648
 **** Fit      -0.006286
 **** Fit      -0.007945
 **** Fit      -0.009164
 **** Fit      -0.009200
 **** Fit      -0.007718
 **** Fit      -0.005410
 **** Fit      -0.004911
 **** Fit      -0.006425
 **** Fit      -0.008097
 **** Fit      -0.009898
 **** Fit      -0.011608
 **** Fit      -0.012753
 **** Fit      -0.012742
 **** Fit      -0.011265
 **** Fit      -0.008726
 **** Fit      -0.005408
 **** Fit      -0.006880
 **** Fit      -0.008518
 **** Fit      -0.010404
 **** Fit      -0.012538
 **** Fit      -0.014765
 **** Fit      -0.016710
 **** Fit      -0.017790
 **** Fit      -0.017388
 **** Fit      -0.015248
 **** Fit      -0.011897
 **** Fit      -0.008391
 **** Fit      -0.006169
 **** Fit      -0.007648
 **** Fit      -0.009286
 **** Fit      -0.011211
 **** Fit      -0.013522
 **** Fit      -0.016230
 **** Fit      -0.019198
 **** Fit      -0.022059
 **** Fit      -0.024184
 **** Fit      -0.024783
 **** Fit      -0.023200
 **** Fit      -0.008702
 **** Fit      -0.010315
 **** Fit      -0.012216
 **** Fit      -0.014548
 **** Fit      -0.017424
 **** Fit      -0.020887
 **** Fit      -0.024831
 **** Fit      -0.010182
 **** Fit      -0.011884
 **** Fit      -0.013907
 **** Fit      -0.016447
 **** Fit      -0.019697
 **** Fit      -0.023821
 **** Fit      -0.013820
 **** Fit      -0.015932
 **** Fit      -0.018623
 **** Fit      -0.022154
 **** Fit      -0.026807
 **** Fit      -0.016304
 **** Fit      -0.018573
 **** Fit      -0.021515
 **** Fit      -0.025475
 **** Fit      -0.022168
 **** Fit      -0.025690
 **** Fit       0.002590
 **** Fit       0.001869
 **** Fit       0.001371
 **** Fit       0.003523
 **** Fit       0.004513
 **** Fit       0.003593
 **** Fit      -0.000162
 **** Fit       0.002237
 **** Fit       0.004706
 **** Fit       0.006206
 **** Fit       0.006441
 **** Fit       0.005731
 **** Fit       0.004444
 **** Fit       0.002891
 **** Fit       0.000466
 **** Fit       0.003467
 **** Fit       0.006188
 **** Fit       0.007976
 **** Fit       0.008594
 **** Fit       0.008366
 **** Fit       0.007621
 **** Fit       0.006526
 **** Fit       0.005192
 **** Fit       0.003743
 **** Fit      -0.000625
 **** Fit       0.002932
 **** Fit       0.010505
 **** Fit       0.009709
 **** Fit       0.008699
 **** Fit       0.007488
 **** Fit       0.006116
 **** Fit       0.004660
 **** Fit      -0.000717
 **** Fit       0.012086
 **** Fit       0.011083
 **** Fit       0.009978
 **** Fit       0.008712
 **** Fit       0.007285
 **** Fit       0.005758
 **** Fit       0.013379
 **** Fit       0.012351
 **** Fit       0.011242
 **** Fit       0.009966
 **** Fit       0.008504
 **** Fit       0.006906
 **** Fit       0.014133
 **** Fit       0.013121
 **** Fit       0.011921
 **** Fit       0.010466
 **** Fit       0.008766
 **** Fit       0.015679
 **** Fit       0.014909
 **** Fit       0.013916
 **** Fit       0.012598
 **** Fit       0.010914
 **** Fit       0.016549
 **** Fit       0.015993
 **** Fit       0.015064
 **** Fit       0.013649
 **** Fit       0.017266
 **** Fit       0.017229
 **** Fit       0.016692
 **** Fit       0.015465
 **** Fit       0.017663
 **** Fit       0.023615
 **** Fit       0.023022
 **** Fit       0.020477
 **** Fit       0.014911
 **** Fit       0.030033
 **** Fit       0.028296
 **** Fit       0.024962
 **** Fit       0.018997
 **** Fit       0.034384
 **** Fit       0.030260
 **** Fit       0.024430
 **** Fit       0.028921
 **** Fit       0.020675
 **** Fit       0.035213
 **** Fit       0.030288
 **** Fit       0.022575
 **** Fit       0.031184
 **** Fit       0.023786
 **** Fit       0.032906
 **** Fit       0.026179
 **** Fit       0.017063
 **** Fit       0.028584
 **** Fit       0.020879
 **** Fit       0.011424
 **** Fit      -0.005754
 **** Fit      -0.010205
 **** Fit      -0.012913
 **** Fit      -0.014787
 **** Fit      -0.017137
 **** Fit       0.030268
 **** Fit       0.023691
 **** Fit       0.016176
 **** Fit       0.008177
 **** Fit       0.000563
 **** Fit       0.003679
 **** Fit       0.000119
 **** Fit      -0.002176
 **** Fit      -0.003780
 **** Fit       0.033160
 **** Fit       0.027332
 **** Fit       0.021066
 **** Fit       0.014639
 **** Fit       0.008636
 **** Fit       0.011378
 **** Fit       0.008587
 **** Fit       0.006930
 **** Fit       0.031293
 **** Fit       0.025782
 **** Fit       0.020342
 **** Fit       0.015386
 **** Fit       0.018067
 **** Fit       0.035078
 **** Fit       0.030129
 **** Fit       0.025415
 **** Fit       0.021270
 **** Fit       0.034750
 **** Fit       0.030427
 **** Fit       0.026756
 **** Fit       0.039739
 **** Fit       0.035553
 **** Fit       0.036598
 **** Fit       0.039660
 **** Fit       0.038023
 **** Fit       0.037184
 **** Fit       0.035904
 **** Fit       0.040802
 **** Fit       0.039281
 **** Fit       0.037892
 **** Fit       0.035452
 **** Fit       0.043704
 **** Fit       0.041729
 **** Fit       0.040397
 **** Fit       0.038772
 **** Fit       0.035819
 **** Fit       0.046723
 **** Fit       0.044203
 **** Fit       0.042658
 **** Fit       0.041396
 **** Fit       0.039701
 **** Fit       0.036694
 **** Fit       0.047370
 **** Fit       0.045143
 **** Fit       0.043631
 **** Fit       0.042336
 **** Fit       0.040679
 **** Fit       0.037929
 **** Fit       0.048078
 **** Fit       0.046018
 **** Fit       0.044465
 **** Fit       0.043100
 **** Fit       0.041478
 **** Fit       0.039025
 **** Fit       0.035102
 **** Fit       0.050184
 **** Fit       0.048232
 **** Fit       0.046498
 **** Fit       0.045016
 **** Fit       0.043633
 **** Fit       0.042049
 **** Fit       0.039858
 **** Fit       0.036631
 **** Fit       0.048943
 **** Fit       0.047470
 **** Fit       0.046028
 **** Fit       0.044633
 **** Fit       0.043140
 **** Fit       0.041274
 **** Fit       0.038710
 **** Fit       0.035262
 **** Fit       0.049399
 **** Fit       0.049726
 **** Fit       0.049626
 **** Fit       0.048990
 **** Fit       0.048013
 **** Fit       0.046847
 **** Fit       0.045582
 **** Fit       0.044215
 **** Fit       0.042619
 **** Fit       0.040595
 **** Fit       0.038034
 **** Fit       0.048689
 **** Fit       0.048267
 **** Fit       0.047638
 **** Fit       0.046715
 **** Fit       0.045566
 **** Fit       0.044217
 **** Fit       0.042606
 **** Fit       0.040690
 **** Fit       0.048122
 **** Fit       0.047161
 **** Fit       0.046119
 **** Fit       0.044809
 **** Fit       0.043261
 **** Fit       0.041775
 **** Fit       0.045903
 **** Fit       0.044411
 **** Fit       0.005770
 **** Fit       0.010552
 **** Fit      -0.000159
 **** Fit      -0.003220
 **** Fit      -0.000872
 **** Fit       0.003479
 **** Fit       0.007290
 **** Fit       0.010996
 **** Fit       0.015080
 **** Fit       0.019811
 **** Fit       0.025334
 **** Fit       0.031737
 **** Fit       0.013346
 **** Fit       0.010674
 **** Fit       0.008318
 **** Fit       0.005989
 **** Fit       0.003786
 **** Fit       0.002257
 **** Fit       0.002073
 **** Fit       0.003476
 **** Fit       0.006046
 **** Fit       0.009099
 **** Fit       0.012218
 **** Fit       0.015413
 **** Fit       0.018909
 **** Fit       0.022913
 **** Fit       0.027540
 **** Fit       0.032781
 **** Fit       0.038408
 **** Fit       0.043913
 **** Fit       0.048779
 **** Fit       0.019467
 **** Fit       0.016913
 **** Fit       0.014778
 **** Fit       0.012942
 **** Fit       0.011590
 **** Fit       0.011115
 **** Fit       0.011773
 **** Fit       0.013432
 **** Fit       0.015725
 **** Fit       0.018388
 **** Fit       0.021402
 **** Fit       0.024871
 **** Fit       0.028874
 **** Fit       0.033366
 **** Fit       0.038106
 **** Fit       0.042679
 **** Fit       0.046693
 **** Fit       0.022691
 **** Fit       0.024146
 **** Fit       0.021757
 **** Fit       0.019892
 **** Fit       0.018545
 **** Fit       0.017897
 **** Fit       0.018149
 **** Fit       0.019302
 **** Fit       0.021172
 **** Fit       0.023593
 **** Fit       0.026518
 **** Fit       0.029943
 **** Fit       0.033775
 **** Fit       0.037762
 **** Fit       0.041510
 **** Fit       0.044624
 **** Fit       0.046765
 **** Fit       0.035238
 **** Fit       0.030928
 **** Fit       0.027184
 **** Fit       0.027702
 **** Fit       0.025438
 **** Fit       0.023879
 **** Fit       0.023111
 **** Fit       0.023279
 **** Fit       0.024404
 **** Fit       0.026359
 **** Fit       0.029001
 **** Fit       0.032190
 **** Fit       0.035672
 **** Fit       0.039011
 **** Fit       0.041674
 **** Fit       0.043143
 **** Fit       0.042991
 **** Fit       0.041106
 **** Fit       0.037918
 **** Fit       0.034202
 **** Fit       0.030662
 **** Fit       0.030381
 **** Fit       0.028220
 **** Fit       0.027243
 **** Fit       0.027633
 **** Fit       0.029354
 **** Fit       0.032109
 **** Fit       0.035359
 **** Fit       0.038242
 **** Fit       0.039755
 **** Fit       0.039205
 **** Fit       0.036753
 **** Fit       0.033437
 **** Fit       0.032364
 **** Fit       0.030708
 **** Fit       0.031801
 **** Fit       0.034757
 **** Fit       0.036724
 **** Fit       0.035407
 **** Fit       0.033788
 -----------------------------------------------------------------
 Leave Link  602 at Sun Sep 15 01:07:56 2019, MaxMem=  1342177280 cpu:             102.7 elap:               2.2

 Test job not archived.
 1\1\GINC-C506-071\SP\RB3LYP\SVP\C54H83Ca1N15O23\PENGZHI\15-Sep-2019\0\
 \#b3lyp/svp scf=(tight,noincore) Test #IOP(5/87=12) Density=Current Po
 p=(MK,readradii) iop(6/33=2) iop(6/42=6)\\CaMKII_loop3_89.0\\0,1\C,0,6
 9.97,50.24,30.34\C,0,69.23,49.03,30.9\O,0,69.32,48.01,30.23\H,0,70.947
 ,49.929,29.97\H,0,69.394,50.673,29.522\H,0,70.1,50.983,31.127\N,0,68.5
 6,49.09,32.06\C,0,68.02,47.88,32.64\C,0,66.7,47.58,31.94\O,0,65.7,48.2
 3,32.23\C,0,67.89,48.02,34.15\C,0,67.12,46.85,34.77\O,0,66.62,47.02,35
 .9\O,0,66.95,45.79,34.14\H,0,68.51,49.97,32.55\H,0,68.71,47.06,32.44\H
 ,0,67.44,48.97,34.44\H,0,68.85,48.21,34.62\N,0,66.75,46.63,31.\C,0,65.
 75,46.38,29.98\C,0,64.44,45.72,30.41\O,0,63.39,46.06,29.86\C,0,66.56,4
 5.7,28.89\C,0,65.76,45.06,27.76\C,0,66.46,44.78,26.43\C,0,67.69,43.87,
 26.46\N,0,67.5,42.54,27.06\H,0,67.69,46.33,30.8\H,0,65.52,47.32,29.48\
 H,0,67.13,44.88,29.33\H,0,67.25,46.48,28.57\H,0,64.88,45.7,27.65\H,0,6
 5.51,44.09,28.21\H,0,66.7,45.77,26.05\H,0,65.77,44.34,25.71\H,0,68.46,
 44.32,27.08\H,0,67.93,43.67,25.41\H,0,66.75,41.95,26.74\H,0,68.28,41.9
 4,26.87\H,0,67.37,42.54,28.06\N,0,64.49,44.77,31.34\C,0,63.39,44.16,32
 .07\C,0,62.98,44.92,33.33\O,0,62.01,44.51,33.96\C,0,63.89,42.79,32.54\
 C,0,65.29,42.67,33.1\O,0,66.14,42.04,32.43\O,0,65.56,43.1,34.24\H,0,65
 .41,44.46,31.6\H,0,62.52,44.,31.43\H,0,63.89,42.18,31.63\H,0,63.22,42.
 26,33.23\N,0,63.75,45.9,33.79\C,0,63.41,46.61,35.01\C,0,63.54,45.86,36
 .34\O,0,62.89,46.22,37.31\H,0,64.73,45.92,33.55\H,0,62.38,46.95,34.94\
 H,0,63.97,47.53,35.15\N,0,64.48,44.92,36.44\C,0,64.71,44.24,37.7\C,0,6
 5.49,45.03,38.74\O,0,65.91,44.58,39.8\C,0,65.25,42.85,37.39\C,0,66.77,
 42.81,37.43\N,0,67.29,41.96,38.31\O,0,67.42,43.66,36.82\H,0,65.08,44.6
 8,35.66\H,0,63.74,44.05,38.17\H,0,64.8,42.53,36.44\H,0,64.82,42.22,38.
 16\H,0,66.66,41.23,38.59\H,0,68.29,41.85,38.39\N,0,65.81,46.28,38.4\C,
 0,66.65,47.17,39.17\C,0,68.16,46.99,39.1\O,0,68.9,47.43,39.98\H,0,65.7
 ,46.53,37.43\H,0,66.35,47.27,40.22\H,0,66.55,48.15,38.7\N,0,68.68,46.3
 4,38.05\C,0,70.07,45.99,37.88\C,0,70.5,46.02,36.42\O,0,69.79,45.5,35.5
 6\C,0,70.38,44.61,38.47\C,0,70.22,44.49,39.97\C,0,71.4,44.53,40.74\C,0
 ,68.99,44.31,40.61\C,0,71.31,44.34,42.12\C,0,68.87,44.22,42.\C,0,70.06
 ,44.22,42.76\O,0,69.97,44.13,44.12\H,0,68.04,45.98,37.36\H,0,70.64,46.
 78,38.37\H,0,71.42,44.4,38.23\H,0,69.7,43.93,37.96\H,0,72.37,44.79,40.
 36\H,0,68.11,44.27,39.98\H,0,72.21,44.4,42.71\H,0,67.93,44.12,42.51\H,
 0,69.05,44.06,44.38\N,0,71.73,46.45,36.14\C,0,72.43,46.26,34.89\C,0,73
 .43,45.12,34.92\O,0,74.06,44.89,35.95\C,0,73.1,47.51,34.33\C,0,72.66,4
 8.84,34.94\C,0,72.9,47.51,32.82\C,0,73.27,50.1,34.33\H,0,72.21,47.02,3
 6.83\H,0,71.67,45.99,34.14\H,0,74.17,47.43,34.5\H,0,72.87,48.78,36.\H,
 0,71.57,48.88,34.86\H,0,71.84,47.64,32.63\H,0,73.48,48.31,32.35\H,0,73
 .27,46.59,32.36\H,0,72.84,50.99,34.79\H,0,74.35,49.95,34.41\H,0,73.09,
 50.25,33.26\N,0,73.7,44.41,33.82\C,0,74.87,43.59,33.58\C,0,75.28,43.6,
 32.12\O,0,74.66,44.25,31.28\C,0,74.5,42.22,34.16\O,0,73.41,41.72,33.41
 \H,0,73.15,44.75,33.04\H,0,75.67,44.05,34.16\H,0,74.2,42.35,35.2\H,0,7
 5.35,41.56,34.04\H,0,73.06,40.91,33.78\N,0,76.37,42.87,31.86\C,0,77.14
 ,43.13,30.66\C,0,76.31,42.86,29.42\O,0,76.47,43.61,28.46\C,0,78.32,42.
 16,30.61\H,0,76.75,42.27,32.57\H,0,77.47,44.17,30.71\H,0,79.11,42.34,2
 9.89\H,0,78.77,42.09,31.6\H,0,77.86,41.2,30.37\N,0,75.44,41.85,29.37\C
 ,0,74.62,41.59,28.2\C,0,73.62,42.69,27.87\O,0,73.38,43.04,26.71\C,0,74
 .01,40.21,28.43\H,0,75.41,41.23,30.17\H,0,75.2,41.53,27.28\H,0,73.47,3
 9.94,27.52\H,0,74.74,39.41,28.52\H,0,73.32,40.21,29.28\N,0,72.97,43.24
 ,28.9\C,0,72.01,44.32,28.75\C,0,72.7,45.65,28.52\O,0,72.18,46.57,27.88
 \C,0,71.26,44.5,30.06\C,0,70.15,43.45,30.1\C,0,69.52,43.37,31.48\O,0,6
 9.77,42.41,32.25\O,0,68.62,44.19,31.75\H,0,73.23,42.96,29.84\H,0,71.37
 ,44.15,27.88\H,0,70.75,45.47,30.06\H,0,71.99,44.4,30.85\H,0,70.47,42.4
 9,29.69\H,0,69.42,43.86,29.41\N,0,73.94,45.82,29.\C,0,74.71,47.01,28.7
 \H,0,75.669,46.722,28.27\H,0,74.163,47.627,27.987\H,0,74.878,47.575,29
 .617\H,0,74.31,45.14,29.65\Ca,0,68.06,43.49,34.12\O,0,67.92,41.03,35.1
 8\H,0,68.36,40.75,35.98\H,0,67.31,40.33,34.97\\Version=ES64L-G16RevA.0
 3\State=1-A\HF=-5333.5907934\RMSD=5.780e-09\Dipole=7.6660201,-7.968924
 1,-7.3675026\Quadrupole=-50.7243757,56.2217628,-5.4973871,10.7481801,5
 4.1876096,19.8749967\PG=C01 [X(C54H83Ca1N15O23)]\\@


 YOU KNOW YOU'VE SPOKEN TOO LONG WHEN THE AUDIENCE STOPS LOOKING AT
 THEIR WATCHES AND STARTS SHAKING THEM.
 Job cpu time:       0 days  8 hours 15 minutes 36.6 seconds.
 Elapsed time:       0 days  0 hours 10 minutes 26.6 seconds.
 File lengths (MBytes):  RWF=   1517 Int=      0 D2E=      0 Chk=    171 Scr=      1
 Normal termination of Gaussian 16 at Sun Sep 15 01:07:58 2019.
