 Entering Gaussian System, Link 0=g16
 Initial command:
 /home1/apps/gaussian/16rA.03/g16/l1.exe "/scratch/01990/pengzhi/4328931/Gau-223223.inp" -scrdir="/scratch/01990/pengzhi/4328931/"
 Entering Link 1 = /home1/apps/gaussian/16rA.03/g16/l1.exe PID=    223224.
  
 Copyright (c) 1988,1990,1992,1993,1995,1998,2003,2009,2016,
            Gaussian, Inc.  All Rights Reserved.
  
 This is part of the Gaussian(R) 16 program.  It is based on
 the Gaussian(R) 09 system (copyright 2009, Gaussian, Inc.),
 the Gaussian(R) 03 system (copyright 2003, Gaussian, Inc.),
 the Gaussian(R) 98 system (copyright 1998, Gaussian, Inc.),
 the Gaussian(R) 94 system (copyright 1995, Gaussian, Inc.),
 the Gaussian 92(TM) system (copyright 1992, Gaussian, Inc.),
 the Gaussian 90(TM) system (copyright 1990, Gaussian, Inc.),
 the Gaussian 88(TM) system (copyright 1988, Gaussian, Inc.),
 the Gaussian 86(TM) system (copyright 1986, Carnegie Mellon
 University), and the Gaussian 82(TM) system (copyright 1983,
 Carnegie Mellon University). Gaussian is a federally registered
 trademark of Gaussian, Inc.
  
 This software contains proprietary and confidential information,
 including trade secrets, belonging to Gaussian, Inc.
  
 This software is provided under written license and may be
 used, copied, transmitted, or stored only in accord with that
 written license.
  
 The following legend is applicable only to US Government
 contracts under FAR:
  
                    RESTRICTED RIGHTS LEGEND
  
 Use, reproduction and disclosure by the US Government is
 subject to restrictions as set forth in subparagraphs (a)
 and (c) of the Commercial Computer Software - Restricted
 Rights clause in FAR 52.227-19.
  
 Gaussian, Inc.
 340 Quinnipiac St., Bldg. 40, Wallingford CT 06492
  
  
 ---------------------------------------------------------------
 Warning -- This program may not be used in any manner that
 competes with the business of Gaussian, Inc. or will provide
 assistance to any competitor of Gaussian, Inc.  The licensee
 of this program is prohibited from giving any competitor of
 Gaussian, Inc. access to this program.  By using this program,
 the user acknowledges that Gaussian, Inc. is engaged in the
 business of creating and licensing software in the field of
 computational chemistry and represents and warrants to the
 licensee that it is not a competitor of Gaussian, Inc. and that
 it will not use this program in any manner prohibited above.
 ---------------------------------------------------------------
  

 Cite this work as:
 Gaussian 16, Revision A.03,
 M. J. Frisch, G. W. Trucks, H. B. Schlegel, G. E. Scuseria, 
 M. A. Robb, J. R. Cheeseman, G. Scalmani, V. Barone, 
 G. A. Petersson, H. Nakatsuji, X. Li, M. Caricato, A. V. Marenich, 
 J. Bloino, B. G. Janesko, R. Gomperts, B. Mennucci, H. P. Hratchian, 
 J. V. Ortiz, A. F. Izmaylov, J. L. Sonnenberg, D. Williams-Young, 
 F. Ding, F. Lipparini, F. Egidi, J. Goings, B. Peng, A. Petrone, 
 T. Henderson, D. Ranasinghe, V. G. Zakrzewski, J. Gao, N. Rega, 
 G. Zheng, W. Liang, M. Hada, M. Ehara, K. Toyota, R. Fukuda, 
 J. Hasegawa, M. Ishida, T. Nakajima, Y. Honda, O. Kitao, H. Nakai, 
 T. Vreven, K. Throssell, J. A. Montgomery, Jr., J. E. Peralta, 
 F. Ogliaro, M. J. Bearpark, J. J. Heyd, E. N. Brothers, K. N. Kudin, 
 V. N. Staroverov, T. A. Keith, R. Kobayashi, J. Normand, 
 K. Raghavachari, A. P. Rendell, J. C. Burant, S. S. Iyengar, 
 J. Tomasi, M. Cossi, J. M. Millam, M. Klene, C. Adamo, R. Cammi, 
 J. W. Ochterski, R. L. Martin, K. Morokuma, O. Farkas, 
 J. B. Foresman, and D. J. Fox, Gaussian, Inc., Wallingford CT, 2016.
 
 ******************************************
 Gaussian 16:  ES64L-G16RevA.03 25-Dec-2016
                14-Sep-2019 
 ******************************************
 %chk=CaMKII_loop3_111.0.chk
 %nprocshared=48
 Will use up to   48 processors via shared memory.
 %mem=10GB
 %nosave
 ----------------------------------------------------------------------
 #b3lyp/svp scf=(tight,noincore) Test #IOP(5/87=12) Density=Current Pop
 =(MK,readradii) iop(6/33=2) iop(6/42=6)
 ----------------------------------------------------------------------
 1/30=1,38=1,172=1/1;
 2/12=2,17=6,18=5,40=1/2;
 3/5=18,7=101,11=2,25=1,30=1,74=-5/1,2,3;
 4//1;
 5/5=4,32=2,38=5,87=12/2;
 6/7=2,8=2,9=2,10=2,15=8,20=101,22=-1,28=1,33=2,42=6/1,2;
 99/5=1,9=1/99;
 ------------------
 CaMKII_loop3_111.0
 ------------------
 Symbolic Z-matrix:
 Charge =  0 Multiplicity = 1
 C                     27.98     37.22     5.6 
 C                     28.95     36.09     5.27 
 O                     29.98     36.4      4.66 
 H                     27.05     36.8      5.984 
 H                     28.422    37.871    6.354 
 H                     27.773    37.797    4.699 
 N                     28.73     34.87     5.75 
 C                     29.49     33.68     5.42 
 C                     29.05     33.02     4.13 
 O                     27.99     32.41     4.13 
 C                     29.54     32.68     6.57 
 C                     30.41     31.46     6.31 
 O                     30.42     30.57     7.19 
 O                     31.17     31.34     5.33 
 H                     27.88     34.71     6.28 
 H                     30.49     34.08     5.25 
 H                     28.53     32.3      6.73 
 H                     29.7      33.17     7.53 
 N                     29.85     33.07     3.06 
 C                     29.61     32.52     1.74 
 C                     29.81     31.04     1.46 
 O                     28.9      30.42     0.92 
 C                     30.24     33.44     0.69 
 C                     29.4      33.41    -0.59 
 C                     30.07     34.38    -1.57 
 C                     29.28     34.52    -2.87 
 N                     29.49     33.38    -3.77 
 H                     30.73     33.54     3.22 
 H                     28.54     32.7      1.63 
 H                     31.27     33.18     0.43 
 H                     30.15     34.47     1.02 
 H                     28.4      33.66    -0.24 
 H                     29.26     32.43    -1.03 
 H                     31.09     34.08    -1.78 
 H                     30.07     35.35    -1.08 
 H                     29.62     35.35    -3.49 
 H                     28.23     34.69    -2.6 
 H                     30.43     33.46    -4.13 
 H                     29.46     32.42    -3.45 
 H                     28.99     33.5     -4.64 
 N                     30.92     30.47     1.94 
 C                     31.02     29.03     1.97 
 C                     30.3      28.34     3.12 
 O                     30.16     27.12     3.04 
 C                     32.49     28.67     1.79 
 C                     33.36     29.22     2.91 
 O                     33.       28.93     4.07 
 O                     34.35     29.96     2.75 
 H                     31.6      31.02     2.45 
 H                     30.51     28.72     1.05 
 H                     32.79     29.06     0.82 
 H                     32.52     27.58     1.76 
 N                     29.77     29.05     4.12 
 C                     28.99     28.54     5.23 
 C                     29.73     27.61     6.18 
 O                     29.1      26.72     6.75 
 H                     29.84     30.03     3.9 
 H                     28.17     27.99     4.79 
 H                     28.47     29.31     5.8 
 N                     31.06     27.69     6.29 
 C                     31.9      26.93     7.19 
 C                     31.77     27.31     8.66 
 O                     32.33     26.57     9.47 
 C                     33.38     26.87     6.82 
 C                     34.26     28.11     6.99 
 N                     35.55     27.91     6.75 
 O                     33.9      29.23     7.33 
 H                     31.46     28.34     5.63 
 H                     31.54     25.91     7.19 
 H                     33.5      26.65     5.76 
 H                     33.83     26.06     7.39 
 H                     35.96     26.98     6.78 
 H                     36.15     28.67     7.04 
 N                     31.1      28.42     8.99 
 C                     31.09     29.       10.32 
 C                     32.07     30.13     10.57 
 O                     32.3      30.44     11.74 
 H                     30.77     28.98     8.22 
 H                     31.23     28.25     11.1 
 H                     30.1      29.42     10.5 
 N                     32.77     30.65     9.56 
 C                     33.63     31.8      9.78 
 C                     33.38     32.71     8.59 
 O                     33.57     32.28     7.46 
 C                     35.09     31.35     9.74 
 C                     35.58     30.23     10.62 
 C                     35.4      30.35     12.01 
 C                     36.54     29.36     10.09 
 C                     36.06     29.4      12.81 
 C                     37.2      28.42     10.89 
 C                     36.95     28.46     12.27 
 O                     37.52     27.54     13.11 
 H                     32.66     30.37     8.6 
 H                     33.37     32.33     10.7 
 H                     35.72     32.23     9.85 
 H                     35.32     30.94     8.75 
 H                     34.7      31.07     12.4 
 H                     36.82     29.41     9.05 
 H                     35.81     29.53     13.85 
 H                     38.       27.75     10.62 
 H                     37.18     27.59     14.01 
 N                     33.3      34.03     8.78 
 C                     33.45     35.05     7.76 
 C                     34.89     35.48     7.51 
 O                     35.62     35.86     8.42 
 C                     32.65     36.27     8.22 
 C                     31.18     35.91     8.36 
 C                     32.69     37.44     7.25 
 C                     30.47     36.85     9.33 
 H                     33.3      34.43     9.71 
 H                     33.08     34.69     6.8 
 H                     32.97     36.51     9.23 
 H                     31.02     34.95     8.85 
 H                     30.77     35.83     7.35 
 H                     33.7      37.73     6.94 
 H                     32.27     37.04     6.33 
 H                     32.18     38.37     7.52 
 H                     30.98     36.86     10.3 
 H                     30.5      37.86     8.92 
 H                     29.43     36.6      9.51 
 N                     35.2      35.6      6.22 
 C                     36.5      36.13     5.85 
 C                     36.33     37.38     5. 
 O                     35.24     37.64     4.51 
 C                     37.27     35.12     5. 
 O                     36.64     34.81     3.78 
 H                     34.58     35.32     5.47 
 H                     37.15     36.37     6.69 
 H                     37.53     34.19     5.51 
 H                     38.21     35.6      4.73 
 H                     35.94     34.22     4.07 
 N                     37.36     38.22     4.85 
 C                     37.43     39.44     4.06 
 C                     36.6      39.37     2.79 
 O                     35.78     40.26     2.56 
 C                     38.89     39.87     3.99 
 H                     38.21     37.89     5.27 
 H                     36.94     40.24     4.62 
 H                     39.26     40.08     5. 
 H                     39.48     39.07     3.55 
 H                     39.       40.64     3.23 
 N                     36.88     38.39     1.93 
 C                     36.39     38.22     0.58 
 C                     34.91     37.87     0.63 
 O                     34.18     37.92    -0.36 
 C                     37.18     37.17    -0.19 
 H                     37.6      37.73     2.19 
 H                     36.48     39.2      0.11 
 H                     37.03     37.2     -1.27 
 H                     38.24     37.34     0.02 
 H                     36.99     36.17     0.22 
 N                     34.4      37.45     1.79 
 C                     33.01     37.19     2.09 
 C                     32.31     38.47     2.52 
 O                     31.23     38.8      2.03 
 C                     32.83     35.99     3.01 
 C                     33.34     34.65     2.48 
 C                     33.47     33.54     3.51 
 O                     32.88     32.45     3.37 
 O                     34.19     33.61     4.53 
 H                     35.01     37.31     2.59 
 H                     32.45     36.99     1.18 
 H                     31.75     36.03     3.07 
 H                     33.47     36.26     3.86 
 H                     34.33     34.92     2.11 
 H                     32.78     34.27     1.62 
 N                     32.91     39.28     3.4 
 C                     32.39     40.54     3.88 
 H                     31.403    40.383    4.315 
 H                     33.061    40.945    4.638 
 H                     32.312    41.242    3.05 
 H                     33.79     38.99     3.8 
 Ca                    33.8      31.09     5.26 
 O                     36.37     31.14     5.11 
 H                     37.16     31.02     4.59 
 H                     36.69     31.35     5.99 
 
 Stoichiometry    C54H83CaN15O23
 Framework group  C1[X(C54H83CaN15O23)]
 Deg. of freedom   522
 Full point group                 C1      NOp   1
 Largest Abelian subgroup         C1      NOp   1
 Largest concise Abelian subgroup C1      NOp   1
                         Standard orientation:                         
 ---------------------------------------------------------------------
 Center     Atomic      Atomic             Coordinates (Angstroms)
 Number     Number       Type             X           Y           Z
 ---------------------------------------------------------------------
      1          6           0        2.868081    1.187734    5.709582
      2          6           0        2.223580    1.236530    4.327939
      3          8           0        2.890243    0.792252    3.385985
      4          1           0        2.257556    1.751481    6.415418
      5          1           0        2.941710    0.152115    6.040871
      6          1           0        3.865125    1.625016    5.661966
      7          7           0        0.956205    1.618077    4.203915
      8          6           0        0.254401    1.832025    2.953196
      9          6           0        0.501684    3.197591    2.347077
     10          8           0       -0.030080    4.164381    2.874563
     11          6           0       -1.236404    1.530084    3.059658
     12          6           0       -1.999522    1.641403    1.748872
     13          8           0       -3.240176    1.483178    1.797280
     14          8           0       -1.458785    1.788432    0.636044
     15          1           0        0.465435    1.926920    5.036237
     16          1           0        0.721519    1.099866    2.293920
     17          1           0       -1.682084    2.266304    3.730067
     18          1           0       -1.429262    0.625293    3.635383
     19          7           0        1.233606    3.299380    1.232927
     20          6           0        1.595553    4.503064    0.509990
     21          6           0        0.607703    5.183242   -0.422914
     22          8           0        0.405504    6.384797   -0.283335
     23          6           0        2.994155    4.328072   -0.089253
     24          6           0        3.713860    5.679409   -0.117777
     25          6           0        5.111006    5.413482   -0.690023
     26          6           0        5.979543    6.670200   -0.692158
     27          7           0        5.639944    7.575014   -1.796551
     28          1           0        1.548429    2.414827    0.859627
     29          1           0        1.754398    5.201148    1.332697
     30          1           0        2.996616    3.917159   -1.102783
     31          1           0        3.601295    3.739578    0.591156
     32          1           0        3.649858    6.019812    0.914225
     33          1           0        3.202624    6.465798   -0.659839
     34          1           0        5.050821    4.995999   -1.688314
     35          1           0        5.577138    4.693650   -0.022518
     36          1           0        7.030298    6.463743   -0.897556
     37          1           0        5.898954    7.127278    0.302269
     38          1           0        5.967795    7.137396   -2.645435
     39          1           0        4.684734    7.815669   -2.030130
     40          1           0        6.243324    8.385632   -1.808004
     41          7           0       -0.083560    4.401764   -1.258884
     42          6           0       -1.234212    4.941519   -1.943841
     43          6           0       -2.516639    5.015346   -1.127184
     44          8           0       -3.437626    5.685915   -1.592501
     45          6           0       -1.338854    4.233574   -3.289487
     46          6           0       -1.548661    2.734629   -3.138017
     47          8           0       -2.504349    2.390399   -2.411747
     48          8           0       -0.819670    1.855576   -3.637154
     49          1           0        0.070848    3.401271   -1.272011
     50          1           0       -0.940242    5.975734   -2.159670
     51          1           0       -0.423285    4.458156   -3.831977
     52          1           0       -2.179746    4.704606   -3.800299
     53          7           0       -2.592875    4.447908    0.079962
     54          6           0       -3.711539    4.507877    0.999525
     55          6           0       -4.992094    3.840571    0.520065
     56          8           0       -6.073345    4.295723    0.891055
     57          1           0       -1.681162    4.111003    0.342592
     58          1           0       -3.915391    5.558375    1.152489
     59          1           0       -3.476853    4.170429    2.009104
     60          7           0       -4.933352    2.857495   -0.384098
     61          6           0       -6.044358    2.080765   -0.889624
     62          6           0       -6.649798    1.104320    0.111475
     63          8           0       -7.703187    0.559405   -0.221303
     64          6           0       -5.795406    1.352169   -2.207983
     65          6           0       -4.878708    0.127664   -2.241902
     66          7           0       -4.828816   -0.493745   -3.413679
     67          8           0       -4.219385   -0.327067   -1.315558
     68          1           0       -3.997417    2.713756   -0.732614
     69          1           0       -6.866768    2.761524   -1.063430
     70          1           0       -5.314940    2.015456   -2.926038
     71          1           0       -6.762435    1.057069   -2.609569
     72          1           0       -5.562116   -0.380502   -4.108911
     73          1           0       -4.377778   -1.397913   -3.386403
     74          7           0       -6.006908    0.865427    1.260179
     75          6           0       -6.363103   -0.191731    2.188048
     76          6           0       -5.577478   -1.483662    2.071826
     77          8           0       -6.037633   -2.485050    2.622624
     78          1           0       -5.109247    1.311564    1.362974
     79          1           0       -7.425888   -0.435712    2.149804
     80          1           0       -6.188394    0.172170    3.200941
     81          7           0       -4.515879   -1.556038    1.266674
     82          6           0       -3.701781   -2.758810    1.233758
     83          6           0       -2.267023   -2.260905    1.217612
     84          8           0       -1.906238   -1.510195    0.320857
     85          6           0       -3.963612   -3.506615   -0.073121
     86          6           0       -5.363183   -3.883150   -0.483392
     87          6           0       -6.127339   -4.664878    0.401971
     88          6           0       -5.680501   -3.818303   -1.845193
     89          6           0       -7.335698   -5.178893   -0.101772
     90          6           0       -6.880964   -4.336653   -2.344594
     91          6           0       -7.705479   -5.031209   -1.446671
     92          8           0       -8.918877   -5.523031   -1.850004
     93          1           0       -4.154841   -0.775425    0.744760
     94          1           0       -3.858437   -3.378236    2.120702
     95          1           0       -3.306280   -4.372751   -0.106642
     96          1           0       -3.670795   -2.876587   -0.920719
     97          1           0       -5.830518   -4.751450    1.433912
     98          1           0       -4.991515   -3.390304   -2.555556
     99          1           0       -7.881138   -5.704810    0.664326
    100          1           0       -7.206993   -4.411308   -3.369256
    101          1           0       -9.446087   -5.869126   -1.121741
    102          7           0       -1.344774   -2.896251    1.946098
    103          6           0        0.091743   -2.814893    1.764165
    104          6           0        0.652293   -3.802725    0.748796
    105          8           0        0.430113   -5.006945    0.825541
    106          6           0        0.735811   -3.094745    3.123157
    107          6           0        0.296413   -2.050202    4.136054
    108          6           0        2.254978   -3.036078    3.113717
    109          6           0        0.411630   -2.579775    5.562545
    110          1           0       -1.597906   -3.637688    2.587266
    111          1           0        0.377322   -1.827328    1.401866
    112          1           0        0.322526   -4.027692    3.495857
    113          1           0       -0.768948   -1.827243    4.085104
    114          1           0        0.831780   -1.126995    3.900106
    115          1           0        2.721364   -3.641663    2.328828
    116          1           0        2.482138   -2.022473    2.791532
    117          1           0        2.800012   -3.266293    4.034499
    118          1           0       -0.149809   -3.514459    5.673239
    119          1           0        1.461382   -2.787140    5.772596
    120          1           0        0.054944   -1.892257    6.321882
    121          7           0        1.550918   -3.272262   -0.079262
    122          6           0        2.257225   -4.137399   -1.006876
    123          6           0        3.756218   -4.047571   -0.764280
    124          8           0        4.209768   -3.138831   -0.082896
    125          6           0        2.016157   -3.690522   -2.448294
    126          8           0        2.487993   -2.393570   -2.725220
    127          1           0        1.759370   -2.282002   -0.114385
    128          1           0        1.963546   -5.185162   -0.966308
    129          1           0        0.982102   -3.771062   -2.790119
    130          1           0        2.604786   -4.356535   -3.078248
    131          1           0        1.811617   -1.851095   -2.312381
    132          7           0        4.559942   -5.002591   -1.244869
    133          6           0        6.009884   -5.095416   -1.164543
    134          6           0        6.692359   -3.739470   -1.212885
    135          8           0        7.497054   -3.441567   -0.329075
    136          6           0        6.461255   -6.206437   -2.104382
    137          1           0        4.082600   -5.679213   -1.812431
    138          1           0        6.275794   -5.459641   -0.169389
    139          1           0        6.026646   -7.159505   -1.782085
    140          1           0        6.126656   -5.981760   -3.113968
    141          1           0        7.539413   -6.148983   -2.234279
    142          7           0        6.457933   -2.974836   -2.280022
    143          6           0        7.126465   -1.751944   -2.666154
    144          6           0        6.749553   -0.650142   -1.686680
    145          8           0        7.360204    0.416506   -1.616921
    146          6           0        6.805814   -1.349836   -4.099679
    147          1           0        5.811766   -3.324527   -2.974128
    148          1           0        8.192073   -1.949409   -2.544141
    149          1           0        7.483153   -0.603834   -4.517402
    150          1           0        6.861677   -2.254118   -4.712665
    151          1           0        5.756395   -1.040797   -4.185785
    152          7           0        5.684126   -0.838624   -0.904733
    153          6           0        5.229582    0.011835    0.172212
    154          6           0        5.944107   -0.341964    1.467426
    155          8           0        6.453403    0.529801    2.171730
    156          6           0        3.710699    0.089472    0.248143
    157          6           0        3.000996    0.656248   -0.981364
    158          6           0        1.500533    0.422286   -1.042788
    159          8           0        0.697630    1.371291   -1.145434
    160          8           0        0.965807   -0.708088   -1.037885
    161          1           0        5.112980   -1.670699   -1.019377
    162          1           0        5.601926    1.025378    0.046550
    163          1           0        3.654521    0.751051    1.102987
    164          1           0        3.434117   -0.970780    0.314240
    165          1           0        3.487353    0.109231   -1.790147
    166          1           0        3.200622    1.717295   -1.160053
    167          7           0        6.073665   -1.628161    1.812985
    168          6           0        6.750317   -2.123088    2.990096
    169          1           0        6.313560   -1.666752    3.878377
    170          1           0        6.638081   -3.206220    3.045395
    171          1           0        7.808721   -1.868837    2.936018
    172          1           0        5.641561   -2.329787    1.230313
    173         20           0       -1.489034    0.197039   -1.473660
    174          8           0       -1.236295   -1.435809   -3.448459
    175          1           0       -0.975567   -1.589608   -4.352487
    176          1           0       -1.593734   -2.276350   -3.154132
 ---------------------------------------------------------------------
 Rotational constants (GHZ):           0.0238533           0.0156821           0.0122905
 Standard basis: SVP (5D, 7F)
 There are  1809 symmetry adapted cartesian basis functions of A   symmetry.
 There are  1717 symmetry adapted basis functions of A   symmetry.
  1717 basis functions,  2922 primitive gaussians,  1809 cartesian basis functions
   358 alpha electrons      358 beta electrons
       nuclear repulsion energy     21966.2781047038 Hartrees.
 NAtoms=  176 NActive=  176 NUniq=  176 SFac= 1.00D+00 NAtFMM=   60 NAOKFM=T Big=T
 Integral buffers will be    131072 words long.
 Raffenetti 2 integral format.
 Two-electron integral symmetry is turned on.
 One-electron integrals computed using PRISM.
 NBasis=  1717 RedAO= T EigKep=  3.05D-04  NBF=  1717
 NBsUse=  1717 1.00D-06 EigRej= -1.00D+00 NBFU=  1717
 ExpMin= 1.98D-02 ExpMax= 3.51D+04 ExpMxC= 5.28D+03 IAcc=3 IRadAn=         5 AccDes= 0.00D+00
 Harris functional with IExCor=  402 and IRadAn=       5 diagonalized for initial guess.
 HarFok:  IExCor=  402 AccDes= 0.00D+00 IRadAn=         5 IDoV= 1 UseB2=F ITyADJ=14
 ICtDFT=  3500011 ScaDFX=  1.000000  1.000000  1.000000  1.000000
 FoFCou: FMM=F IPFlag=           0 FMFlag=      100000 FMFlg1=        2001
         NFxFlg=           0 DoJE=T BraDBF=F KetDBF=T FulRan=T
         wScrn=  0.000000 ICntrl=       500 IOpCl=  0 I1Cent=   200000004 NGrid=           0
         NMat0=    1 NMatS0=      1 NMatT0=    0 NMatD0=    1 NMtDS0=    0 NMtDT0=    0
 Petite list used in FoFCou.
 Requested convergence on RMS density matrix=1.00D-08 within 128 cycles.
 Requested convergence on MAX density matrix=1.00D-06.
 Requested convergence on             energy=1.00D-06.
 No special actions if energy rises.
 EnCoef did     3 forward-backward iterations
 EnCoef did     2 forward-backward iterations
 EnCoef did     9 forward-backward iterations
 SCF Done:  E(RB3LYP) =  -5333.59390136     A.U. after   20 cycles
            NFock= 20  Conv=0.61D-08     -V/T= 2.0081
 SCF density gives NOpUse=  1 NOpAll=  1.
 Hyperfine terms turned off by default for NAtoms > 100.

 **********************************************************************

            Population analysis using the SCF density.

 **********************************************************************

 Orbital symmetries:
 BldTbl:  Degeneracy threshold= 1.00D-02
       Occupied  (A) (A) (A) (A) (A) (A) (A) (A) (A) (A) (A) (A)
                 (A) (A) (A) (A) (A) (A) (A) (A) (A) (A) (A) (A)
                 (A) (A) (A) (A) (A) (A) (A) (A) (A) (A) (A) (A)
                 (A) (A) (A) (A) (A) (A) (A) (A) (A) (A) (A) (A)
                 (A) (A) (A) (A) (A) (A) (A) (A) (A) (A) (A) (A)
                 (A) (A) (A) (A) (A) (A) (A) (A) (A) (A) (A) (A)
                 (A) (A) (A) (A) (A) (A) (A) (A) (A) (A) (A) (A)
                 (A) (A) (A) (A) (A) (A) (A) (A) (A) (A) (A) (A)
                 (A) (A) (A) (A) (A) (A) (A) (A) (A) (A) (A) (A)
                 (A) (A) (A) (A) (A) (A) (A) (A) (A) (A) (A) (A)
                 (A) (A) (A) (A) (A) (A) (A) (A) (A) (A) (A) (A)
                 (A) (A) (A) (A) (A) (A) (A) (A) (A) (A) (A) (A)
                 (A) (A) (A) (A) (A) (A) (A) (A) (A) (A) (A) (A)
                 (A) (A) (A) (A) (A) (A) (A) (A) (A) (A) (A) (A)
                 (A) (A) (A) (A) (A) (A) (A) (A) (A) (A) (A) (A)
                 (A) (A) (A) (A) (A) (A) (A) (A) (A) (A) (A) (A)
                 (A) (A) (A) (A) (A) (A) (A) (A) (A) (A) (A) (A)
                 (A) (A) (A) (A) (A) (A) (A) (A) (A) (A) (A) (A)
                 (A) (A) (A) (A) (A) (A) (A) (A) (A) (A) (A) (A)
                 (A) (A) (A) (A) (A) (A) (A) (A) (A) (A) (A) (A)
                 (A) (A) (A) (A) (A) (A) (A) (A) (A) (A) (A) (A)
                 (A) (A) (A) (A) (A) (A) (A) (A) (A) (A) (A) (A)
                 (A) (A) (A) (A) (A) (A) (A) (A) (A) (A) (A) (A)
                 (A) (A) (A) (A) (A) (A) (A) (A) (A) (A) (A) (A)
                 (A) (A) (A) (A) (A) (A) (A) (A) (A) (A) (A) (A)
                 (A) (A) (A) (A) (A) (A) (A) (A) (A) (A) (A) (A)
                 (A) (A) (A) (A) (A) (A) (A) (A) (A) (A) (A) (A)
                 (A) (A) (A) (A) (A) (A) (A) (A) (A) (A) (A) (A)
                 (A) (A) (A) (A) (A) (A) (A) (A) (A) (A) (A) (A)
                 (A) (A) (A) (A) (A) (A) (A) (A) (A) (A)
       Virtual   (A) (A) (A) (A) (A) (A) (A) (A) (A) (A) (A) (A)
                 (A) (A) (A) (A) (A) (A) (A) (A) (A) (A) (A) (A)
                 (A) (A) (A) (A) (A) (A) (A) (A) (A) (A) (A) (A)
                 (A) (A) (A) (A) (A) (A) (A) (A) (A) (A) (A) (A)
                 (A) (A) (A) (A) (A) (A) (A) (A) (A) (A) (A) (A)
                 (A) (A) (A) (A) (A) (A) (A) (A) (A) (A) (A) (A)
                 (A) (A) (A) (A) (A) (A) (A) (A) (A) (A) (A) (A)
                 (A) (A) (A) (A) (A) (A) (A) (A) (A) (A) (A) (A)
                 (A) (A) (A) (A) (A) (A) (A) (A) (A) (A) (A) (A)
                 (A) (A) (A) (A) (A) (A) (A) (A) (A) (A) (A) (A)
                 (A) (A) (A) (A) (A) (A) (A) (A) (A) (A) (A) (A)
                 (A) (A) (A) (A) (A) (A) (A) (A) (A) (A) (A) (A)
                 (A) (A) (A) (A) (A) (A) (A) (A) (A) (A) (A) (A)
                 (A) (A) (A) (A) (A) (A) (A) (A) (A) (A) (A) (A)
                 (A) (A) (A) (A) (A) (A) (A) (A) (A) (A) (A) (A)
                 (A) (A) (A) (A) (A) (A) (A) (A) (A) (A) (A) (A)
                 (A) (A) (A) (A) (A) (A) (A) (A) (A) (A) (A) (A)
                 (A) (A) (A) (A) (A) (A) (A) (A) (A) (A) (A) (A)
                 (A) (A) (A) (A) (A) (A) (A) (A) (A) (A) (A) (A)
                 (A) (A) (A) (A) (A) (A) (A) (A) (A) (A) (A) (A)
                 (A) (A) (A) (A) (A) (A) (A) (A) (A) (A) (A) (A)
                 (A) (A) (A) (A) (A) (A) (A) (A) (A) (A) (A) (A)
                 (A) (A) (A) (A) (A) (A) (A) (A) (A) (A) (A) (A)
                 (A) (A) (A) (A) (A) (A) (A) (A) (A) (A) (A) (A)
                 (A) (A) (A) (A) (A) (A) (A) (A) (A) (A) (A) (A)
                 (A) (A) (A) (A) (A) (A) (A) (A) (A) (A) (A) (A)
                 (A) (A) (A) (A) (A) (A) (A) (A) (A) (A) (A) (A)
                 (A) (A) (A) (A) (A) (A) (A) (A) (A) (A) (A) (A)
                 (A) (A) (A) (A) (A) (A) (A) (A) (A) (A) (A) (A)
                 (A) (A) (A) (A) (A) (A) (A) (A) (A) (A) (A) (A)
                 (A) (A) (A) (A) (A) (A) (A) (A) (A) (A) (A) (A)
                 (A) (A) (A) (A) (A) (A) (A) (A) (A) (A) (A) (A)
                 (A) (A) (A) (A) (A) (A) (A) (A) (A) (A) (A) (A)
                 (A) (A) (A) (A) (A) (A) (A) (A) (A) (A) (A) (A)
                 (A) (A) (A) (A) (A) (A) (A) (A) (A) (A) (A) (A)
                 (A) (A) (A) (A) (A) (A) (A) (A) (A) (A) (A) (A)
                 (A) (A) (A) (A) (A) (A) (A) (A) (A) (A) (A) (A)
                 (A) (A) (A) (A) (A) (A) (A) (A) (A) (A) (A) (A)
                 (A) (A) (A) (A) (A) (A) (A) (A) (A) (A) (A) (A)
                 (A) (A) (A) (A) (A) (A) (A) (A) (A) (A) (A) (A)
                 (A) (A) (A) (A) (A) (A) (A) (A) (A) (A) (A) (A)
                 (A) (A) (A) (A) (A) (A) (A) (A) (A) (A) (A) (A)
                 (A) (A) (A) (A) (A) (A) (A) (A) (A) (A) (A) (A)
                 (A) (A) (A) (A) (A) (A) (A) (A) (A) (A) (A) (A)
                 (A) (A) (A) (A) (A) (A) (A) (A) (A) (A) (A) (A)
                 (A) (A) (A) (A) (A) (A) (A) (A) (A) (A) (A) (A)
                 (A) (A) (A) (A) (A) (A) (A) (A) (A) (A) (A) (A)
                 (A) (A) (A) (A) (A) (A) (A) (A) (A) (A) (A) (A)
                 (A) (A) (A) (A) (A) (A) (A) (A) (A) (A) (A) (A)
                 (A) (A) (A) (A) (A) (A) (A) (A) (A) (A) (A) (A)
                 (A) (A) (A) (A) (A) (A) (A) (A) (A) (A) (A) (A)
                 (A) (A) (A) (A) (A) (A) (A) (A) (A) (A) (A) (A)
                 (A) (A) (A) (A) (A) (A) (A) (A) (A) (A) (A) (A)
                 (A) (A) (A) (A) (A) (A) (A) (A) (A) (A) (A) (A)
                 (A) (A) (A) (A) (A) (A) (A) (A) (A) (A) (A) (A)
                 (A) (A) (A) (A) (A) (A) (A) (A) (A) (A) (A) (A)
                 (A) (A) (A) (A) (A) (A) (A) (A) (A) (A) (A) (A)
                 (A) (A) (A) (A) (A) (A) (A) (A) (A) (A) (A) (A)
                 (A) (A) (A) (A) (A) (A) (A) (A) (A) (A) (A) (A)
                 (A) (A) (A) (A) (A) (A) (A) (A) (A) (A) (A) (A)
                 (A) (A) (A) (A) (A) (A) (A) (A) (A) (A) (A) (A)
                 (A) (A) (A) (A) (A) (A) (A) (A) (A) (A) (A) (A)
                 (A) (A) (A) (A) (A) (A) (A) (A) (A) (A) (A) (A)
                 (A) (A) (A) (A) (A) (A) (A) (A) (A) (A) (A) (A)
                 (A) (A) (A) (A) (A) (A) (A) (A) (A) (A) (A) (A)
                 (A) (A) (A) (A) (A) (A) (A) (A) (A) (A) (A) (A)
                 (A) (A) (A) (A) (A) (A) (A) (A) (A) (A) (A) (A)
                 (A) (A) (A) (A) (A) (A) (A) (A) (A) (A) (A) (A)
                 (A) (A) (A) (A) (A) (A) (A) (A) (A) (A) (A) (A)
                 (A) (A) (A) (A) (A) (A) (A) (A) (A) (A) (A) (A)
                 (A) (A) (A) (A) (A) (A) (A) (A) (A) (A) (A) (A)
                 (A) (A) (A) (A) (A) (A) (A) (A) (A) (A) (A) (A)
                 (A) (A) (A) (A) (A) (A) (A) (A) (A) (A) (A) (A)
                 (A) (A) (A) (A) (A) (A) (A) (A) (A) (A) (A) (A)
                 (A) (A) (A) (A) (A) (A) (A) (A) (A) (A) (A) (A)
                 (A) (A) (A) (A) (A) (A) (A) (A) (A) (A) (A) (A)
                 (A) (A) (A) (A) (A) (A) (A) (A) (A) (A) (A) (A)
                 (A) (A) (A) (A) (A) (A) (A) (A) (A) (A) (A) (A)
                 (A) (A) (A) (A) (A) (A) (A) (A) (A) (A) (A) (A)
                 (A) (A) (A) (A) (A) (A) (A) (A) (A) (A) (A) (A)
                 (A) (A) (A) (A) (A) (A) (A) (A) (A) (A) (A) (A)
                 (A) (A) (A) (A) (A) (A) (A) (A) (A) (A) (A) (A)
                 (A) (A) (A) (A) (A) (A) (A) (A) (A) (A) (A) (A)
                 (A) (A) (A) (A) (A) (A) (A) (A) (A) (A) (A) (A)
                 (A) (A) (A) (A) (A) (A) (A) (A) (A) (A) (A) (A)
                 (A) (A) (A) (A) (A) (A) (A) (A) (A) (A) (A) (A)
                 (A) (A) (A) (A) (A) (A) (A) (A) (A) (A) (A) (A)
                 (A) (A) (A) (A) (A) (A) (A) (A) (A) (A) (A) (A)
                 (A) (A) (A) (A) (A) (A) (A) (A) (A) (A) (A) (A)
                 (A) (A) (A) (A) (A) (A) (A) (A) (A) (A) (A) (A)
                 (A) (A) (A) (A) (A) (A) (A) (A) (A) (A) (A) (A)
                 (A) (A) (A) (A) (A) (A) (A) (A) (A) (A) (A) (A)
                 (A) (A) (A) (A) (A) (A) (A) (A) (A) (A) (A) (A)
                 (A) (A) (A) (A) (A) (A) (A) (A) (A) (A) (A) (A)
                 (A) (A) (A) (A) (A) (A) (A) (A) (A) (A) (A) (A)
                 (A) (A) (A) (A) (A) (A) (A) (A) (A) (A) (A) (A)
                 (A) (A) (A) (A) (A) (A) (A) (A) (A) (A) (A) (A)
                 (A) (A) (A) (A) (A) (A) (A) (A) (A) (A) (A) (A)
                 (A) (A) (A) (A) (A) (A) (A) (A) (A) (A) (A) (A)
                 (A) (A) (A) (A) (A) (A) (A) (A) (A) (A) (A) (A)
                 (A) (A) (A) (A) (A) (A) (A) (A) (A) (A) (A) (A)
                 (A) (A) (A) (A) (A) (A) (A) (A) (A) (A) (A) (A)
                 (A) (A) (A) (A) (A) (A) (A) (A) (A) (A) (A) (A)
                 (A) (A) (A) (A) (A) (A) (A) (A) (A) (A) (A) (A)
                 (A) (A) (A) (A) (A) (A) (A) (A) (A) (A) (A) (A)
                 (A) (A) (A) (A) (A) (A) (A) (A) (A) (A) (A) (A)
                 (A) (A) (A) (A) (A) (A) (A) (A) (A) (A) (A) (A)
                 (A) (A) (A) (A) (A) (A) (A) (A) (A) (A) (A) (A)
                 (A) (A) (A) (A) (A) (A) (A) (A) (A) (A) (A) (A)
                 (A) (A) (A) (A) (A) (A) (A) (A) (A) (A) (A) (A)
                 (A) (A) (A) (A) (A) (A) (A) (A) (A) (A) (A) (A)
                 (A) (A) (A) (A) (A) (A) (A) (A) (A) (A) (A) (A)
                 (A) (A) (A) (A) (A) (A) (A) (A) (A) (A) (A) (A)
                 (A) (A) (A)
 The electronic state is 1-A.
 Alpha  occ. eigenvalues -- -145.34765 -19.19438 -19.14604 -19.13473 -19.13342
 Alpha  occ. eigenvalues --  -19.12017 -19.11354 -19.10918 -19.09566 -19.08508
 Alpha  occ. eigenvalues --  -19.08021 -19.07914 -19.07590 -19.07137 -19.07082
 Alpha  occ. eigenvalues --  -19.05661 -19.05587 -19.04130 -19.03764 -19.03397
 Alpha  occ. eigenvalues --  -19.03365 -19.03351 -19.02716 -19.01867 -15.40538
 Alpha  occ. eigenvalues --  -14.58761 -14.39196 -14.37285 -14.36904 -14.35862
 Alpha  occ. eigenvalues --  -14.35152 -14.34871 -14.33372 -14.33004 -14.32450
 Alpha  occ. eigenvalues --  -14.31780 -14.31309 -14.29545 -14.29545 -14.28810
 Alpha  occ. eigenvalues --  -12.54131 -12.54120 -12.54106 -10.35116 -10.31582
 Alpha  occ. eigenvalues --  -10.30031 -10.30022 -10.29546 -10.27977 -10.27279
 Alpha  occ. eigenvalues --  -10.27029 -10.26971 -10.26766 -10.26339 -10.26065
 Alpha  occ. eigenvalues --  -10.25755 -10.25464 -10.24928 -10.24539 -10.24365
 Alpha  occ. eigenvalues --  -10.24327 -10.23696 -10.23475 -10.22842 -10.22842
 Alpha  occ. eigenvalues --  -10.22821 -10.22802 -10.22664 -10.22559 -10.22548
 Alpha  occ. eigenvalues --  -10.22418 -10.21969 -10.21353 -10.20939 -10.20847
 Alpha  occ. eigenvalues --  -10.20327 -10.19299 -10.19263 -10.19174 -10.18999
 Alpha  occ. eigenvalues --  -10.18437 -10.18416 -10.18325 -10.18237 -10.18041
 Alpha  occ. eigenvalues --  -10.17786 -10.17671 -10.17571 -10.17260 -10.17221
 Alpha  occ. eigenvalues --  -10.17208 -10.17192 -10.17181 -10.17031 -10.16665
 Alpha  occ. eigenvalues --  -10.16039 -10.14982  -1.77558  -1.14258  -1.07119
 Alpha  occ. eigenvalues --   -1.06130  -1.05849  -1.05700  -1.04608  -1.04396
 Alpha  occ. eigenvalues --   -1.04324  -1.03841  -1.03172  -1.02994  -1.02736
 Alpha  occ. eigenvalues --   -1.02151  -1.01334  -1.00930  -1.00825  -1.00108
 Alpha  occ. eigenvalues --   -0.98974  -0.98871  -0.98501  -0.97894  -0.97149
 Alpha  occ. eigenvalues --   -0.96639  -0.96086  -0.95570  -0.94202  -0.93426
 Alpha  occ. eigenvalues --   -0.92323  -0.91811  -0.91064  -0.91008  -0.90784
 Alpha  occ. eigenvalues --   -0.90002  -0.89641  -0.89262  -0.88791  -0.88003
 Alpha  occ. eigenvalues --   -0.87322  -0.87276  -0.86782  -0.86062  -0.85196
 Alpha  occ. eigenvalues --   -0.83505  -0.82380  -0.82128  -0.81499  -0.78857
 Alpha  occ. eigenvalues --   -0.77692  -0.77365  -0.77178  -0.77092  -0.75711
 Alpha  occ. eigenvalues --   -0.75399  -0.74141  -0.74008  -0.73033  -0.72335
 Alpha  occ. eigenvalues --   -0.71999  -0.71662  -0.71420  -0.71169  -0.69759
 Alpha  occ. eigenvalues --   -0.69445  -0.69029  -0.68393  -0.68103  -0.67422
 Alpha  occ. eigenvalues --   -0.66624  -0.65899  -0.64959  -0.64260  -0.64120
 Alpha  occ. eigenvalues --   -0.63743  -0.63617  -0.62177  -0.62064  -0.61401
 Alpha  occ. eigenvalues --   -0.61341  -0.60765  -0.60551  -0.60124  -0.59313
 Alpha  occ. eigenvalues --   -0.58992  -0.58864  -0.58710  -0.58123  -0.57686
 Alpha  occ. eigenvalues --   -0.57156  -0.57057  -0.56635  -0.56446  -0.56081
 Alpha  occ. eigenvalues --   -0.54731  -0.54715  -0.54539  -0.54373  -0.54124
 Alpha  occ. eigenvalues --   -0.53817  -0.53660  -0.53619  -0.53358  -0.52732
 Alpha  occ. eigenvalues --   -0.52468  -0.52246  -0.51998  -0.51604  -0.51317
 Alpha  occ. eigenvalues --   -0.50575  -0.50135  -0.49755  -0.49612  -0.49470
 Alpha  occ. eigenvalues --   -0.49377  -0.48967  -0.48688  -0.48251  -0.48121
 Alpha  occ. eigenvalues --   -0.47865  -0.47805  -0.47531  -0.47470  -0.47181
 Alpha  occ. eigenvalues --   -0.46994  -0.46892  -0.46593  -0.46347  -0.46242
 Alpha  occ. eigenvalues --   -0.45929  -0.45798  -0.45765  -0.45360  -0.45166
 Alpha  occ. eigenvalues --   -0.44959  -0.44518  -0.44463  -0.44340  -0.44122
 Alpha  occ. eigenvalues --   -0.44018  -0.43977  -0.43795  -0.43646  -0.43598
 Alpha  occ. eigenvalues --   -0.43395  -0.43085  -0.42971  -0.42762  -0.42513
 Alpha  occ. eigenvalues --   -0.42214  -0.42098  -0.41991  -0.41844  -0.41649
 Alpha  occ. eigenvalues --   -0.41621  -0.41482  -0.41381  -0.41289  -0.41154
 Alpha  occ. eigenvalues --   -0.40904  -0.40804  -0.40660  -0.40332  -0.40254
 Alpha  occ. eigenvalues --   -0.40105  -0.40030  -0.39961  -0.39725  -0.39650
 Alpha  occ. eigenvalues --   -0.39562  -0.39381  -0.39233  -0.39035  -0.38847
 Alpha  occ. eigenvalues --   -0.38777  -0.38690  -0.38596  -0.38505  -0.38381
 Alpha  occ. eigenvalues --   -0.38319  -0.38106  -0.38011  -0.37873  -0.37562
 Alpha  occ. eigenvalues --   -0.37456  -0.37382  -0.37158  -0.37128  -0.37031
 Alpha  occ. eigenvalues --   -0.36945  -0.36865  -0.36710  -0.36532  -0.36430
 Alpha  occ. eigenvalues --   -0.35876  -0.35739  -0.35642  -0.35565  -0.35137
 Alpha  occ. eigenvalues --   -0.35058  -0.34966  -0.34846  -0.34755  -0.34449
 Alpha  occ. eigenvalues --   -0.33948  -0.33763  -0.33623  -0.33529  -0.33319
 Alpha  occ. eigenvalues --   -0.33154  -0.32999  -0.32654  -0.32314  -0.32120
 Alpha  occ. eigenvalues --   -0.32052  -0.31894  -0.31703  -0.31329  -0.31238
 Alpha  occ. eigenvalues --   -0.31042  -0.30811  -0.30017  -0.29979  -0.29519
 Alpha  occ. eigenvalues --   -0.29019  -0.28733  -0.28707  -0.28441  -0.28051
 Alpha  occ. eigenvalues --   -0.27251  -0.26744  -0.26710  -0.26535  -0.26035
 Alpha  occ. eigenvalues --   -0.25834  -0.25250  -0.25080  -0.24861  -0.24851
 Alpha  occ. eigenvalues --   -0.24406  -0.23763  -0.23512  -0.23366  -0.23197
 Alpha  occ. eigenvalues --   -0.22937  -0.22683  -0.22389  -0.22208  -0.22103
 Alpha  occ. eigenvalues --   -0.21856  -0.21622  -0.21075  -0.20915  -0.20814
 Alpha  occ. eigenvalues --   -0.20710  -0.20207  -0.19666  -0.19190  -0.18935
 Alpha  occ. eigenvalues --   -0.18530  -0.18255  -0.17424
 Alpha virt. eigenvalues --   -0.10757  -0.05114  -0.04303  -0.02788  -0.01461
 Alpha virt. eigenvalues --   -0.00600  -0.00391  -0.00192  -0.00142   0.00456
 Alpha virt. eigenvalues --    0.01129   0.01457   0.01943   0.02090   0.02450
 Alpha virt. eigenvalues --    0.02653   0.02778   0.02859   0.03710   0.03820
 Alpha virt. eigenvalues --    0.04345   0.04517   0.04616   0.05073   0.05445
 Alpha virt. eigenvalues --    0.05631   0.05838   0.05982   0.06043   0.06373
 Alpha virt. eigenvalues --    0.06611   0.06766   0.06821   0.06998   0.07384
 Alpha virt. eigenvalues --    0.07609   0.07797   0.07823   0.08054   0.08344
 Alpha virt. eigenvalues --    0.08449   0.08558   0.08829   0.09205   0.09419
 Alpha virt. eigenvalues --    0.09612   0.09666   0.09996   0.10443   0.10558
 Alpha virt. eigenvalues --    0.10781   0.10881   0.11016   0.11289   0.11531
 Alpha virt. eigenvalues --    0.11584   0.11872   0.11937   0.12219   0.12408
 Alpha virt. eigenvalues --    0.12622   0.12843   0.12860   0.12901   0.13217
 Alpha virt. eigenvalues --    0.13336   0.13590   0.13643   0.14012   0.14147
 Alpha virt. eigenvalues --    0.14315   0.14407   0.14601   0.14810   0.14862
 Alpha virt. eigenvalues --    0.15026   0.15135   0.15291   0.15583   0.15727
 Alpha virt. eigenvalues --    0.16208   0.16363   0.16432   0.16614   0.16818
 Alpha virt. eigenvalues --    0.16884   0.17176   0.17413   0.17427   0.17657
 Alpha virt. eigenvalues --    0.17768   0.17969   0.18058   0.18380   0.18413
 Alpha virt. eigenvalues --    0.18621   0.18863   0.18941   0.19048   0.19157
 Alpha virt. eigenvalues --    0.19438   0.19782   0.20043   0.20211   0.20349
 Alpha virt. eigenvalues --    0.20386   0.20511   0.20701   0.21074   0.21164
 Alpha virt. eigenvalues --    0.21334   0.21691   0.21718   0.21881   0.22105
 Alpha virt. eigenvalues --    0.22351   0.22403   0.22676   0.22919   0.23080
 Alpha virt. eigenvalues --    0.23403   0.23532   0.23886   0.24023   0.24279
 Alpha virt. eigenvalues --    0.24393   0.24723   0.24823   0.25019   0.25164
 Alpha virt. eigenvalues --    0.25324   0.25587   0.25825   0.26030   0.26224
 Alpha virt. eigenvalues --    0.26261   0.26732   0.26788   0.26840   0.27174
 Alpha virt. eigenvalues --    0.27369   0.27591   0.27789   0.27966   0.28184
 Alpha virt. eigenvalues --    0.28649   0.28838   0.29032   0.29077   0.29288
 Alpha virt. eigenvalues --    0.29791   0.30019   0.30122   0.30529   0.30701
 Alpha virt. eigenvalues --    0.30844   0.31274   0.31437   0.31740   0.31970
 Alpha virt. eigenvalues --    0.32111   0.32375   0.32465   0.32590   0.32980
 Alpha virt. eigenvalues --    0.33246   0.33444   0.33506   0.33778   0.33973
 Alpha virt. eigenvalues --    0.34197   0.34487   0.34617   0.34927   0.35380
 Alpha virt. eigenvalues --    0.35713   0.36155   0.36415   0.36707   0.36833
 Alpha virt. eigenvalues --    0.37426   0.37593   0.37773   0.38006   0.38705
 Alpha virt. eigenvalues --    0.38811   0.39151   0.39382   0.39644   0.39707
 Alpha virt. eigenvalues --    0.40059   0.40358   0.40509   0.40905   0.41156
 Alpha virt. eigenvalues --    0.41268   0.41517   0.41680   0.41977   0.42373
 Alpha virt. eigenvalues --    0.42759   0.42985   0.43097   0.43422   0.43808
 Alpha virt. eigenvalues --    0.44022   0.44065   0.44481   0.44610   0.44812
 Alpha virt. eigenvalues --    0.45042   0.45290   0.45536   0.45743   0.45889
 Alpha virt. eigenvalues --    0.46101   0.46252   0.46643   0.46664   0.46971
 Alpha virt. eigenvalues --    0.47113   0.47499   0.47661   0.47891   0.48004
 Alpha virt. eigenvalues --    0.48271   0.48319   0.48424   0.48554   0.48627
 Alpha virt. eigenvalues --    0.48747   0.48999   0.49260   0.49313   0.49449
 Alpha virt. eigenvalues --    0.49729   0.49883   0.50268   0.50453   0.50651
 Alpha virt. eigenvalues --    0.50824   0.51125   0.51201   0.51551   0.51778
 Alpha virt. eigenvalues --    0.51849   0.52165   0.52487   0.52596   0.52712
 Alpha virt. eigenvalues --    0.52984   0.53152   0.53267   0.53488   0.53764
 Alpha virt. eigenvalues --    0.53935   0.54032   0.54266   0.54419   0.54898
 Alpha virt. eigenvalues --    0.54986   0.55057   0.55339   0.55625   0.55788
 Alpha virt. eigenvalues --    0.56000   0.56133   0.56163   0.56321   0.56385
 Alpha virt. eigenvalues --    0.56549   0.56795   0.56999   0.57078   0.57156
 Alpha virt. eigenvalues --    0.57301   0.57541   0.57578   0.57759   0.58178
 Alpha virt. eigenvalues --    0.58247   0.58365   0.58604   0.58839   0.58978
 Alpha virt. eigenvalues --    0.59323   0.59450   0.59568   0.59655   0.59859
 Alpha virt. eigenvalues --    0.60068   0.60244   0.60474   0.60528   0.60889
 Alpha virt. eigenvalues --    0.60938   0.60985   0.61075   0.61220   0.61569
 Alpha virt. eigenvalues --    0.61649   0.61810   0.62103   0.62355   0.62401
 Alpha virt. eigenvalues --    0.62619   0.62657   0.62702   0.62915   0.63093
 Alpha virt. eigenvalues --    0.63188   0.63241   0.63312   0.63573   0.63636
 Alpha virt. eigenvalues --    0.64007   0.64098   0.64140   0.64248   0.64289
 Alpha virt. eigenvalues --    0.64358   0.64523   0.64700   0.64841   0.65015
 Alpha virt. eigenvalues --    0.65149   0.65170   0.65284   0.65504   0.65574
 Alpha virt. eigenvalues --    0.65595   0.65759   0.65826   0.65995   0.66114
 Alpha virt. eigenvalues --    0.66177   0.66361   0.66472   0.66559   0.66602
 Alpha virt. eigenvalues --    0.66685   0.66896   0.66937   0.67022   0.67082
 Alpha virt. eigenvalues --    0.67240   0.67301   0.67747   0.67869   0.67896
 Alpha virt. eigenvalues --    0.67956   0.67993   0.68093   0.68233   0.68326
 Alpha virt. eigenvalues --    0.68434   0.68484   0.68621   0.68661   0.68675
 Alpha virt. eigenvalues --    0.68903   0.68950   0.69098   0.69216   0.69361
 Alpha virt. eigenvalues --    0.69460   0.69498   0.69690   0.69811   0.69902
 Alpha virt. eigenvalues --    0.70071   0.70425   0.70532   0.70565   0.70735
 Alpha virt. eigenvalues --    0.70775   0.70929   0.71047   0.71264   0.71319
 Alpha virt. eigenvalues --    0.71406   0.71533   0.71638   0.71780   0.72029
 Alpha virt. eigenvalues --    0.72157   0.72323   0.72435   0.72595   0.72783
 Alpha virt. eigenvalues --    0.72836   0.72957   0.73385   0.73424   0.73681
 Alpha virt. eigenvalues --    0.73794   0.73897   0.74114   0.74347   0.74371
 Alpha virt. eigenvalues --    0.74487   0.74899   0.75022   0.75254   0.75482
 Alpha virt. eigenvalues --    0.75556   0.75867   0.76100   0.76266   0.76288
 Alpha virt. eigenvalues --    0.76502   0.76803   0.77033   0.77287   0.77495
 Alpha virt. eigenvalues --    0.77595   0.78001   0.78203   0.78388   0.78588
 Alpha virt. eigenvalues --    0.78725   0.79088   0.79211   0.79303   0.79719
 Alpha virt. eigenvalues --    0.80033   0.80170   0.80368   0.80866   0.81013
 Alpha virt. eigenvalues --    0.81134   0.81251   0.81898   0.82209   0.82441
 Alpha virt. eigenvalues --    0.82599   0.82822   0.83218   0.83468   0.83868
 Alpha virt. eigenvalues --    0.83973   0.84277   0.84401   0.84695   0.85054
 Alpha virt. eigenvalues --    0.85167   0.85280   0.85615   0.85805   0.86072
 Alpha virt. eigenvalues --    0.86349   0.86759   0.87029   0.87284   0.87641
 Alpha virt. eigenvalues --    0.88300   0.88401   0.88696   0.88816   0.89075
 Alpha virt. eigenvalues --    0.89417   0.89746   0.90056   0.90223   0.90605
 Alpha virt. eigenvalues --    0.90830   0.91143   0.91515   0.91819   0.91916
 Alpha virt. eigenvalues --    0.92442   0.92667   0.92820   0.93110   0.93383
 Alpha virt. eigenvalues --    0.93986   0.94151   0.94647   0.94678   0.95193
 Alpha virt. eigenvalues --    0.95239   0.95544   0.95605   0.95962   0.96292
 Alpha virt. eigenvalues --    0.96395   0.96471   0.96952   0.97056   0.97515
 Alpha virt. eigenvalues --    0.97655   0.98386   0.98564   0.98799   0.98916
 Alpha virt. eigenvalues --    0.99059   0.99663   0.99852   0.99963   1.00301
 Alpha virt. eigenvalues --    1.00843   1.01049   1.01140   1.01576   1.01762
 Alpha virt. eigenvalues --    1.01944   1.02195   1.02421   1.02788   1.03447
 Alpha virt. eigenvalues --    1.03549   1.03664   1.04110   1.04516   1.05078
 Alpha virt. eigenvalues --    1.05421   1.05632   1.05908   1.06270   1.06798
 Alpha virt. eigenvalues --    1.07001   1.07105   1.07356   1.07888   1.08003
 Alpha virt. eigenvalues --    1.08148   1.08606   1.08835   1.09049   1.09369
 Alpha virt. eigenvalues --    1.09403   1.09616   1.10227   1.10462   1.10748
 Alpha virt. eigenvalues --    1.10863   1.11372   1.11479   1.11755   1.12197
 Alpha virt. eigenvalues --    1.12807   1.12940   1.13293   1.13609   1.13728
 Alpha virt. eigenvalues --    1.13923   1.14240   1.14485   1.14742   1.15015
 Alpha virt. eigenvalues --    1.15300   1.15427   1.15672   1.15936   1.16392
 Alpha virt. eigenvalues --    1.16505   1.16713   1.17136   1.17528   1.17908
 Alpha virt. eigenvalues --    1.17963   1.18204   1.18299   1.18562   1.18700
 Alpha virt. eigenvalues --    1.18969   1.19672   1.19853   1.20155   1.20367
 Alpha virt. eigenvalues --    1.20576   1.21198   1.21523   1.21750   1.21791
 Alpha virt. eigenvalues --    1.22163   1.22389   1.22942   1.23135   1.23355
 Alpha virt. eigenvalues --    1.23512   1.23698   1.23972   1.24532   1.24746
 Alpha virt. eigenvalues --    1.24990   1.25211   1.25418   1.25682   1.25733
 Alpha virt. eigenvalues --    1.26086   1.26524   1.27018   1.27039   1.27695
 Alpha virt. eigenvalues --    1.27770   1.27907   1.27999   1.28371   1.28687
 Alpha virt. eigenvalues --    1.28781   1.29144   1.29238   1.29521   1.29943
 Alpha virt. eigenvalues --    1.30284   1.30708   1.30798   1.31146   1.31202
 Alpha virt. eigenvalues --    1.31445   1.31696   1.31869   1.32020   1.32820
 Alpha virt. eigenvalues --    1.32839   1.33327   1.33680   1.33704   1.34097
 Alpha virt. eigenvalues --    1.34273   1.34525   1.34701   1.35028   1.35209
 Alpha virt. eigenvalues --    1.35357   1.35539   1.35789   1.35984   1.36388
 Alpha virt. eigenvalues --    1.36462   1.36828   1.37254   1.37301   1.37777
 Alpha virt. eigenvalues --    1.38130   1.38355   1.38628   1.38995   1.39301
 Alpha virt. eigenvalues --    1.39439   1.39844   1.40135   1.40508   1.40779
 Alpha virt. eigenvalues --    1.40984   1.41194   1.41294   1.41396   1.41744
 Alpha virt. eigenvalues --    1.42383   1.42680   1.43036   1.43575   1.43829
 Alpha virt. eigenvalues --    1.44345   1.44457   1.44904   1.45100   1.45481
 Alpha virt. eigenvalues --    1.45504   1.45713   1.46100   1.46428   1.46803
 Alpha virt. eigenvalues --    1.47078   1.47330   1.47467   1.47753   1.47925
 Alpha virt. eigenvalues --    1.48306   1.48387   1.48640   1.48891   1.49179
 Alpha virt. eigenvalues --    1.49299   1.49545   1.49737   1.50276   1.50526
 Alpha virt. eigenvalues --    1.50767   1.51201   1.51503   1.51660   1.51848
 Alpha virt. eigenvalues --    1.52204   1.52697   1.52953   1.53061   1.53466
 Alpha virt. eigenvalues --    1.53580   1.54161   1.54330   1.54484   1.54702
 Alpha virt. eigenvalues --    1.54842   1.54990   1.55078   1.55330   1.55586
 Alpha virt. eigenvalues --    1.56312   1.56759   1.57007   1.57086   1.57715
 Alpha virt. eigenvalues --    1.57933   1.58137   1.58545   1.58883   1.59018
 Alpha virt. eigenvalues --    1.59307   1.59518   1.59893   1.60042   1.60868
 Alpha virt. eigenvalues --    1.60974   1.61254   1.61576   1.62326   1.62625
 Alpha virt. eigenvalues --    1.63152   1.63427   1.63554   1.63878   1.64260
 Alpha virt. eigenvalues --    1.64399   1.64829   1.64963   1.65078   1.65153
 Alpha virt. eigenvalues --    1.65993   1.66225   1.66430   1.66705   1.66815
 Alpha virt. eigenvalues --    1.67140   1.67411   1.67599   1.67803   1.68103
 Alpha virt. eigenvalues --    1.68757   1.68981   1.69090   1.69259   1.69325
 Alpha virt. eigenvalues --    1.69565   1.70177   1.70365   1.70490   1.70817
 Alpha virt. eigenvalues --    1.71436   1.71659   1.71741   1.71875   1.72043
 Alpha virt. eigenvalues --    1.72234   1.72405   1.72495   1.72860   1.73305
 Alpha virt. eigenvalues --    1.73819   1.73899   1.74055   1.74379   1.74717
 Alpha virt. eigenvalues --    1.74841   1.74906   1.75052   1.75172   1.75394
 Alpha virt. eigenvalues --    1.75805   1.75937   1.76351   1.76651   1.76829
 Alpha virt. eigenvalues --    1.76888   1.77113   1.77174   1.77288   1.77600
 Alpha virt. eigenvalues --    1.77716   1.77784   1.78095   1.78412   1.78590
 Alpha virt. eigenvalues --    1.78893   1.78933   1.79175   1.79328   1.79430
 Alpha virt. eigenvalues --    1.79506   1.79631   1.79749   1.79911   1.80139
 Alpha virt. eigenvalues --    1.80295   1.80391   1.80498   1.80734   1.81001
 Alpha virt. eigenvalues --    1.81172   1.81279   1.81561   1.81589   1.81920
 Alpha virt. eigenvalues --    1.81964   1.82221   1.82428   1.82531   1.82614
 Alpha virt. eigenvalues --    1.83118   1.83214   1.83286   1.83719   1.83881
 Alpha virt. eigenvalues --    1.83995   1.84364   1.84389   1.84559   1.84708
 Alpha virt. eigenvalues --    1.84932   1.85021   1.85101   1.85340   1.85870
 Alpha virt. eigenvalues --    1.85958   1.86163   1.86284   1.86693   1.86841
 Alpha virt. eigenvalues --    1.87213   1.87262   1.87308   1.87481   1.87515
 Alpha virt. eigenvalues --    1.87920   1.88058   1.88325   1.88340   1.88403
 Alpha virt. eigenvalues --    1.88764   1.88908   1.89226   1.89243   1.89418
 Alpha virt. eigenvalues --    1.89564   1.89935   1.90379   1.90399   1.90524
 Alpha virt. eigenvalues --    1.90574   1.90896   1.91052   1.91169   1.91215
 Alpha virt. eigenvalues --    1.91409   1.91664   1.91980   1.92240   1.92407
 Alpha virt. eigenvalues --    1.92612   1.92773   1.93022   1.93292   1.93535
 Alpha virt. eigenvalues --    1.93948   1.94007   1.94315   1.94561   1.95018
 Alpha virt. eigenvalues --    1.95106   1.95266   1.95488   1.95574   1.95810
 Alpha virt. eigenvalues --    1.95824   1.96105   1.96316   1.96439   1.96642
 Alpha virt. eigenvalues --    1.97058   1.97275   1.97444   1.97762   1.98012
 Alpha virt. eigenvalues --    1.98291   1.98431   1.98730   1.98810   1.99110
 Alpha virt. eigenvalues --    1.99135   1.99531   1.99611   1.99728   1.99883
 Alpha virt. eigenvalues --    2.00019   2.00309   2.00785   2.00928   2.01027
 Alpha virt. eigenvalues --    2.01237   2.01577   2.01696   2.01898   2.02158
 Alpha virt. eigenvalues --    2.02347   2.02495   2.02664   2.02908   2.03062
 Alpha virt. eigenvalues --    2.03086   2.03608   2.03774   2.04256   2.04898
 Alpha virt. eigenvalues --    2.05445   2.05507   2.05829   2.05926   2.06220
 Alpha virt. eigenvalues --    2.06390   2.06641   2.07154   2.07378   2.07731
 Alpha virt. eigenvalues --    2.07892   2.08153   2.08323   2.08489   2.08805
 Alpha virt. eigenvalues --    2.08925   2.09192   2.09453   2.09893   2.10074
 Alpha virt. eigenvalues --    2.10351   2.10577   2.10822   2.10938   2.11236
 Alpha virt. eigenvalues --    2.11544   2.11733   2.11988   2.12549   2.12816
 Alpha virt. eigenvalues --    2.13132   2.13366   2.13650   2.13820   2.14607
 Alpha virt. eigenvalues --    2.14735   2.14962   2.15067   2.15205   2.15348
 Alpha virt. eigenvalues --    2.15466   2.15636   2.15724   2.16230   2.16676
 Alpha virt. eigenvalues --    2.16925   2.17278   2.17516   2.17822   2.18096
 Alpha virt. eigenvalues --    2.18651   2.19113   2.19200   2.19475   2.20024
 Alpha virt. eigenvalues --    2.20321   2.20394   2.20512   2.20696   2.21066
 Alpha virt. eigenvalues --    2.21228   2.21638   2.21739   2.22006   2.22345
 Alpha virt. eigenvalues --    2.22690   2.22948   2.23302   2.23891   2.23949
 Alpha virt. eigenvalues --    2.24450   2.24888   2.25064   2.25392   2.25805
 Alpha virt. eigenvalues --    2.26452   2.26801   2.26949   2.27473   2.27676
 Alpha virt. eigenvalues --    2.27843   2.28361   2.28668   2.28870   2.29479
 Alpha virt. eigenvalues --    2.29980   2.30438   2.30834   2.31325   2.31567
 Alpha virt. eigenvalues --    2.32034   2.32620   2.32841   2.33070   2.33329
 Alpha virt. eigenvalues --    2.34428   2.34760   2.34917   2.35054   2.35252
 Alpha virt. eigenvalues --    2.35537   2.35767   2.35844   2.36087   2.36514
 Alpha virt. eigenvalues --    2.36809   2.37069   2.37625   2.37826   2.38093
 Alpha virt. eigenvalues --    2.38334   2.38655   2.38907   2.39019   2.39375
 Alpha virt. eigenvalues --    2.39678   2.40133   2.40317   2.40546   2.41046
 Alpha virt. eigenvalues --    2.41200   2.41620   2.42077   2.42310   2.43001
 Alpha virt. eigenvalues --    2.43355   2.43569   2.43749   2.43896   2.43992
 Alpha virt. eigenvalues --    2.44626   2.44695   2.44924   2.45310   2.45470
 Alpha virt. eigenvalues --    2.45866   2.46068   2.46453   2.46768   2.47261
 Alpha virt. eigenvalues --    2.47476   2.47739   2.47948   2.48268   2.48473
 Alpha virt. eigenvalues --    2.49010   2.49109   2.49373   2.49413   2.50157
 Alpha virt. eigenvalues --    2.50291   2.50487   2.50997   2.51238   2.51600
 Alpha virt. eigenvalues --    2.51861   2.52382   2.53237   2.53533   2.53838
 Alpha virt. eigenvalues --    2.54087   2.54385   2.54842   2.55045   2.55495
 Alpha virt. eigenvalues --    2.56203   2.56706   2.56858   2.57103   2.57583
 Alpha virt. eigenvalues --    2.57878   2.58464   2.58545   2.58968   2.59251
 Alpha virt. eigenvalues --    2.59432   2.59995   2.60786   2.60951   2.61312
 Alpha virt. eigenvalues --    2.61371   2.61882   2.62305   2.62570   2.62778
 Alpha virt. eigenvalues --    2.63227   2.63384   2.63709   2.64002   2.64065
 Alpha virt. eigenvalues --    2.64142   2.64414   2.64666   2.65048   2.65323
 Alpha virt. eigenvalues --    2.65527   2.65810   2.66466   2.66503   2.66687
 Alpha virt. eigenvalues --    2.67060   2.67521   2.67815   2.68263   2.68405
 Alpha virt. eigenvalues --    2.69740   2.69838   2.70576   2.70647   2.70780
 Alpha virt. eigenvalues --    2.71006   2.71330   2.71524   2.71628   2.71890
 Alpha virt. eigenvalues --    2.72017   2.72156   2.72609   2.72910   2.73222
 Alpha virt. eigenvalues --    2.73352   2.73506   2.73551   2.73890   2.74245
 Alpha virt. eigenvalues --    2.74540   2.74853   2.74915   2.75017   2.75148
 Alpha virt. eigenvalues --    2.75287   2.75756   2.76068   2.76266   2.76501
 Alpha virt. eigenvalues --    2.76678   2.76993   2.77092   2.77175   2.77459
 Alpha virt. eigenvalues --    2.78079   2.78276   2.78594   2.78903   2.79347
 Alpha virt. eigenvalues --    2.79508   2.80045   2.80223   2.80647   2.80925
 Alpha virt. eigenvalues --    2.81053   2.81157   2.81374   2.81650   2.81724
 Alpha virt. eigenvalues --    2.82266   2.82375   2.82786   2.83030   2.83091
 Alpha virt. eigenvalues --    2.83426   2.83633   2.83796   2.84550   2.85150
 Alpha virt. eigenvalues --    2.85308   2.85477   2.85735   2.85797   2.86489
 Alpha virt. eigenvalues --    2.86787   2.86999   2.87956   2.88051   2.88100
 Alpha virt. eigenvalues --    2.88960   2.89092   2.89434   2.89516   2.89803
 Alpha virt. eigenvalues --    2.90082   2.90138   2.90582   2.91043   2.91346
 Alpha virt. eigenvalues --    2.91516   2.91636   2.91965   2.92177   2.92393
 Alpha virt. eigenvalues --    2.92464   2.92976   2.93433   2.93616   2.93887
 Alpha virt. eigenvalues --    2.94069   2.94185   2.94408   2.94688   2.94874
 Alpha virt. eigenvalues --    2.95649   2.95963   2.96404   2.96448   2.97023
 Alpha virt. eigenvalues --    2.97164   2.97431   2.97852   2.97950   2.98519
 Alpha virt. eigenvalues --    2.98565   2.99141   2.99291   2.99583   3.00396
 Alpha virt. eigenvalues --    3.00598   3.00873   3.01301   3.01329   3.01847
 Alpha virt. eigenvalues --    3.02024   3.02461   3.02525   3.02983   3.03700
 Alpha virt. eigenvalues --    3.04298   3.04649   3.05047   3.05558   3.05758
 Alpha virt. eigenvalues --    3.06088   3.06330   3.06629   3.07448   3.07913
 Alpha virt. eigenvalues --    3.08362   3.08560   3.08664   3.09394   3.09670
 Alpha virt. eigenvalues --    3.10535   3.10961   3.11779   3.12450   3.12752
 Alpha virt. eigenvalues --    3.13032   3.13297   3.14141   3.14436   3.14700
 Alpha virt. eigenvalues --    3.15711   3.16389   3.16559   3.16789   3.16894
 Alpha virt. eigenvalues --    3.16991   3.17925   3.18313   3.18508   3.18926
 Alpha virt. eigenvalues --    3.19076   3.19119   3.19519   3.20033   3.20201
 Alpha virt. eigenvalues --    3.20615   3.20682   3.21209   3.21356   3.21535
 Alpha virt. eigenvalues --    3.21807   3.21874   3.21944   3.22600   3.22623
 Alpha virt. eigenvalues --    3.23177   3.23590   3.23911   3.24095   3.24382
 Alpha virt. eigenvalues --    3.24983   3.26064   3.26549   3.27668   3.28634
 Alpha virt. eigenvalues --    3.28778   3.29357   3.29909   3.30916   3.31124
 Alpha virt. eigenvalues --    3.31314   3.32011   3.34186   3.34449   3.35270
 Alpha virt. eigenvalues --    3.35941   3.37756   3.38296   3.38978   3.39112
 Alpha virt. eigenvalues --    3.41352   3.41757   3.47538   3.50790   3.52778
 Alpha virt. eigenvalues --    3.54514   3.54771   3.55008   3.55825   3.56520
 Alpha virt. eigenvalues --    3.57671   3.58843   3.59051   3.60714   3.61316
 Alpha virt. eigenvalues --    3.61963   3.62554   3.62632   3.63141   3.64567
 Alpha virt. eigenvalues --    3.65784   3.66851   3.68725   3.69005   3.69733
 Alpha virt. eigenvalues --    3.69886   3.70177   3.70738   3.71346   3.72142
 Alpha virt. eigenvalues --    3.72214   3.72393   3.72905   3.73200   3.73263
 Alpha virt. eigenvalues --    3.73788   3.73834   3.74443   3.75200   3.76813
 Alpha virt. eigenvalues --    3.79049   3.80224   3.81067   3.85449
          Condensed to atoms (all electrons):
 Mulliken charges:
               1
     1  C    0.073110
     2  C    0.027957
     3  O   -0.297114
     4  H   -0.011028
     5  H    0.039723
     6  H    0.044777
     7  N   -0.127314
     8  C    0.124227
     9  C    0.053258
    10  O   -0.285674
    11  C    0.074116
    12  C    0.139329
    13  O   -0.389164
    14  O   -0.432275
    15  H    0.120583
    16  H   -0.013408
    17  H    0.004375
    18  H   -0.004364
    19  N   -0.113110
    20  C    0.174748
    21  C    0.059868
    22  O   -0.279239
    23  C   -0.013673
    24  C   -0.034721
    25  C   -0.014971
    26  C    0.064725
    27  N    0.074874
    28  H    0.145053
    29  H   -0.006895
    30  H    0.042823
    31  H    0.028384
    32  H    0.017850
    33  H   -0.014668
    34  H    0.021533
    35  H    0.069036
    36  H    0.058047
    37  H    0.087162
    38  H    0.176470
    39  H    0.195207
    40  H    0.186386
    41  N   -0.182860
    42  C    0.087244
    43  C    0.067922
    44  O   -0.297219
    45  C    0.156036
    46  C    0.065112
    47  O   -0.440703
    48  O   -0.378436
    49  H    0.164096
    50  H    0.008702
    51  H   -0.036158
    52  H    0.015681
    53  N   -0.148836
    54  C    0.269590
    55  C    0.013422
    56  O   -0.298344
    57  H    0.141284
    58  H    0.003132
    59  H    0.033812
    60  N   -0.151170
    61  C    0.194453
    62  C    0.030302
    63  O   -0.303168
    64  C    0.027088
    65  C    0.078167
    66  N   -0.036872
    67  O   -0.331417
    68  H    0.153378
    69  H    0.013463
    70  H    0.054337
    71  H    0.035526
    72  H    0.130385
    73  H    0.098587
    74  N   -0.153368
    75  C    0.244530
    76  C    0.031720
    77  O   -0.318229
    78  H    0.151771
    79  H    0.035906
    80  H    0.018327
    81  N   -0.140935
    82  C    0.114434
    83  C    0.147847
    84  O   -0.384655
    85  C    0.141915
    86  C    0.009152
    87  C    0.012493
    88  C    0.008133
    89  C   -0.051294
    90  C   -0.003015
    91  C    0.175529
    92  O   -0.212787
    93  H    0.156943
    94  H    0.003142
    95  H    0.003957
    96  H   -0.050641
    97  H   -0.008311
    98  H   -0.079747
    99  H   -0.040982
   100  H   -0.033584
   101  H    0.176917
   102  N   -0.099270
   103  C    0.140034
   104  C    0.083304
   105  O   -0.289982
   106  C   -0.112469
   107  C   -0.009406
   108  C    0.056516
   109  C    0.043806
   110  H    0.133081
   111  H    0.013340
   112  H   -0.021923
   113  H   -0.005120
   114  H    0.022388
   115  H    0.004591
   116  H    0.024903
   117  H    0.013387
   118  H    0.000826
   119  H   -0.004315
   120  H    0.004626
   121  N   -0.133211
   122  C    0.072917
   123  C    0.088403
   124  O   -0.291679
   125  C    0.268316
   126  O   -0.336680
   127  H    0.155703
   128  H    0.018818
   129  H   -0.015270
   130  H   -0.042587
   131  H    0.164832
   132  N   -0.100876
   133  C    0.102266
   134  C    0.030545
   135  O   -0.249838
   136  C    0.042916
   137  H    0.109355
   138  H    0.022020
   139  H    0.045684
   140  H   -0.005055
   141  H    0.039616
   142  N   -0.144107
   143  C    0.092311
   144  C    0.065385
   145  O   -0.295652
   146  C    0.051796
   147  H    0.111685
   148  H    0.023133
   149  H    0.043153
   150  H    0.002646
   151  H    0.025491
   152  N   -0.149644
   153  C    0.113485
   154  C    0.063445
   155  O   -0.293241
   156  C   -0.012737
   157  C    0.099827
   158  C    0.180660
   159  O   -0.400010
   160  O   -0.463977
   161  H    0.134270
   162  H   -0.027996
   163  H    0.041286
   164  H    0.022116
   165  H   -0.006759
   166  H   -0.037333
   167  N   -0.158615
   168  C    0.152563
   169  H    0.017038
   170  H    0.001930
   171  H    0.019989
   172  H    0.124885
   173  Ca   1.258048
   174  O   -0.275128
   175  H    0.197095
   176  H    0.180741
 Sum of Mulliken charges =  -0.00000
 Mulliken charges with hydrogens summed into heavy atoms:
               1
     1  C    0.146583
     2  C    0.027957
     3  O   -0.297114
     7  N   -0.006731
     8  C    0.110819
     9  C    0.053258
    10  O   -0.285674
    11  C    0.074127
    12  C    0.139329
    13  O   -0.389164
    14  O   -0.432275
    19  N    0.031943
    20  C    0.167853
    21  C    0.059868
    22  O   -0.279239
    23  C    0.057534
    24  C   -0.031538
    25  C    0.075598
    26  C    0.209935
    27  N    0.632937
    41  N   -0.018764
    42  C    0.095946
    43  C    0.067922
    44  O   -0.297219
    45  C    0.135559
    46  C    0.065112
    47  O   -0.440703
    48  O   -0.378436
    53  N   -0.007552
    54  C    0.306533
    55  C    0.013422
    56  O   -0.298344
    60  N    0.002208
    61  C    0.207916
    62  C    0.030302
    63  O   -0.303168
    64  C    0.116952
    65  C    0.078167
    66  N    0.192099
    67  O   -0.331417
    74  N   -0.001597
    75  C    0.298763
    76  C    0.031720
    77  O   -0.318229
    81  N    0.016008
    82  C    0.117576
    83  C    0.147847
    84  O   -0.384655
    85  C    0.095232
    86  C    0.009152
    87  C    0.004182
    88  C   -0.071614
    89  C   -0.092276
    90  C   -0.036599
    91  C    0.175529
    92  O   -0.035870
   102  N    0.033811
   103  C    0.153374
   104  C    0.083304
   105  O   -0.289982
   106  C   -0.134392
   107  C    0.007862
   108  C    0.099397
   109  C    0.044942
   121  N    0.022492
   122  C    0.091735
   123  C    0.088403
   124  O   -0.291679
   125  C    0.210458
   126  O   -0.171848
   132  N    0.008479
   133  C    0.124286
   134  C    0.030545
   135  O   -0.249838
   136  C    0.123160
   142  N   -0.032422
   143  C    0.115444
   144  C    0.065385
   145  O   -0.295652
   146  C    0.123087
   152  N   -0.015373
   153  C    0.085490
   154  C    0.063445
   155  O   -0.293241
   156  C    0.050665
   157  C    0.055735
   158  C    0.180660
   159  O   -0.400010
   160  O   -0.463977
   167  N   -0.033730
   168  C    0.191520
   173  Ca   1.258048
   174  O    0.102707
 DipInt: DoE/N= T F RetVal/Mat= T F Init=T NMatP=  1 IDeriv=0 Min/MaxMlt=  0  4
 Entering OneElI...
 OneElI was handed  1333951383 working-precision words.
 Multipole integrals L=0 to 4 MinM= 0 MaxM= 0.
 Requested accuracy = 0.1000D-12
 ShPair: Thresh= 1.00D-13 NBox=     0 BxSize= 0.00D+00 RnKept= 2.55D+01
         NSMCal=               327645 NSMKep=              164262
 PrmmSu-InSpLW:  IPartL=    0 NPrtUS=    1 NPrtUL=    1 DoSpLW=F IThBeg=    0 IThEnd=    0 NThAct=    1.
 PrsmSu:  NPrtUS=   1 ThrOK=F IAlg=1 NPAlg=1 LenDen=           0 ISkipM=0 DoSpLW=F IThBeg=    0 IThEnd=    0.
 Prism:   IPart=     0 DynPar=F LinDyn=F Incr=         512.
 PRISM was handed  1323732979 working-precision words and164262 shell-pairs
 IPart=  0 NShTot=      164262 NBatch=         374 AvBLen=       439.2
 PrsmSu-ThDecC:  IPartSL=    0    0 NPrtUSL=    1    1 IThBeg=    0 IThEnd=    0 CPU=   -1 GPU=   -1 NThAct=    1.
 PrSmSu:  NxtVal=            513.
 Electronic moments (au):
       -716.00000000         11.74305114          1.26045423         -5.35323569
     -50093.66812433     -29309.66857009     -12590.67907903        146.22643286
        -36.09127525        -15.80416103      11656.20554174     -43514.89136888
     -24645.53720908     -18694.20399109      92069.16883260      43741.70887784
     -14731.46342417       6093.72857954      25786.85958941      -3482.51200986
   -7052688.56347643   -2658263.11767477    -638659.13936890    -403305.65445281
     143144.67611610    -467612.50226092      51315.54252640     -91574.53471632
      18573.65413769   -2293027.13205778    -675900.03674225    -334158.14333966
    -236803.73379833      89818.70446733      31723.39567894
 Electronic spatial extent (au):  <R**2>=          91994.0158
 DipInt: DoE/N= F T RetVal/Mat= T F Init=T NMatP=  1 IDeriv=0 Min/MaxMlt=  0  4
 Nuclear    moments (au):
        716.00000000         -0.00000000          0.00000000         -0.00000000
      49655.41379622      29020.70302360      12216.44062184         -0.00000000
          0.00000000         -0.00000000     -10479.53697836      44985.85655237
      24546.44560510      21227.52131449     -91360.29634813     -44551.96334108
      14897.82793699      -6094.77808459     -26542.76702811       3174.20433611
    6866515.73676488    2585998.32570173     598215.16981140     423360.76373392
    -148923.20292693     497386.18598288     -58931.89268467      91901.96872477
     -17910.82661799    2269464.54956387     642563.62717543     312746.66012806
     232506.35365724     -98766.07004450     -30840.38079049
 Total      moments (au):
          0.00000000         11.74305114          1.26045423         -5.35323569
       -438.25432812       -288.96554649       -374.23845719        146.22643286
        -36.09127525        -15.80416103       1176.66856338       1470.96518349
        -99.09160398       2533.31732340        708.87248447       -810.25446324
        166.36451282         -1.04950504       -755.90743870       -308.30767375
    -186172.82671154     -72264.79197304     -40443.96955750      20055.10928111
      -5778.52681082      29773.68372196      -7616.35015827        327.43400844
        662.82751970     -23562.58249392     -33336.40956681     -21411.48321160
      -4297.38014109      -8947.36557717        883.01488844
 Traceless Quadrup. (au):
        -71.10155085         78.18723077         -7.08567992        146.22643286
        -36.09127525        -15.80416103
 Charge=              0.0000 electrons
 Dipole moment (field-independent basis, Debye):
    X=             29.8479    Y=              3.2038    Z=            -13.6066  Tot=             32.9590
 Quadrupole moment (field-independent basis, Debye-Ang):
   XX=           -589.4671   YY=           -388.6686   ZZ=           -503.3635
   XY=            196.6796   XZ=            -48.5440   YZ=            -21.2571
 Traceless Quadrupole moment (field-independent basis, Debye-Ang):
   XX=            -95.6340   YY=            105.1645   ZZ=             -9.5305
   XY=            196.6796   XZ=            -48.5440   YZ=            -21.2571
 Octapole moment (field-independent basis, Debye-Ang**2):
  XXX=            837.5074  YYY=           1046.9763  ZZZ=            -70.5296  XYY=           1803.1177
  XXY=            504.5481  XXZ=           -576.7079  XZZ=            118.4119  YZZ=             -0.7470
  YYZ=           -538.0258  XYZ=           -219.4415
 Hexadecapole moment (field-independent basis, Debye-Ang**3):
 XXXX=         -70121.6138 YYYY=         -27218.3859 ZZZZ=         -15233.1383 XXXY=           7553.7158
 XXXZ=          -2176.4703 YYYX=          11214.1970 YYYZ=          -2868.6827 ZZZX=            123.3273
 ZZZY=            249.6526 XXYY=          -8874.7984 XXZZ=         -12556.0904 YYZZ=          -8064.5913
 XXYZ=          -1618.5994 YYXZ=          -3370.0069 ZZXY=            332.5857
 N-N= 2.196627810470D+04 E-N=-5.641821668039D+04  KE= 5.290653275423D+03
 Leave Link  601 at Sat Sep 14 23:50:48 2019, MaxMem=  1342177280 cpu:              42.4 elap:               1.1
 FitSet:  NAtFit=   176 NAtPot=   176 NAtFrz=     0 MDM=   180 TotChg=   0.00000
 Merz-Kollman atomic radii used.
 Read replacement radii for each type of atom:
 Rad(20) =   1.700000000000D+00
 Atom Element Radius
    1     6    1.50
    2     6    1.50
    3     8    1.40
    4     1    1.20
    5     1    1.20
    6     1    1.20
    7     7    1.50
    8     6    1.50
    9     6    1.50
   10     8    1.40
   11     6    1.50
   12     6    1.50
   13     8    1.40
   14     8    1.40
   15     1    1.20
   16     1    1.20
   17     1    1.20
   18     1    1.20
   19     7    1.50
   20     6    1.50
   21     6    1.50
   22     8    1.40
   23     6    1.50
   24     6    1.50
   25     6    1.50
   26     6    1.50
   27     7    1.50
   28     1    1.20
   29     1    1.20
   30     1    1.20
   31     1    1.20
   32     1    1.20
   33     1    1.20
   34     1    1.20
   35     1    1.20
   36     1    1.20
   37     1    1.20
   38     1    1.20
   39     1    1.20
   40     1    1.20
   41     7    1.50
   42     6    1.50
   43     6    1.50
   44     8    1.40
   45     6    1.50
   46     6    1.50
   47     8    1.40
   48     8    1.40
   49     1    1.20
   50     1    1.20
   51     1    1.20
   52     1    1.20
   53     7    1.50
   54     6    1.50
   55     6    1.50
   56     8    1.40
   57     1    1.20
   58     1    1.20
   59     1    1.20
   60     7    1.50
   61     6    1.50
   62     6    1.50
   63     8    1.40
   64     6    1.50
   65     6    1.50
   66     7    1.50
   67     8    1.40
   68     1    1.20
   69     1    1.20
   70     1    1.20
   71     1    1.20
   72     1    1.20
   73     1    1.20
   74     7    1.50
   75     6    1.50
   76     6    1.50
   77     8    1.40
   78     1    1.20
   79     1    1.20
   80     1    1.20
   81     7    1.50
   82     6    1.50
   83     6    1.50
   84     8    1.40
   85     6    1.50
   86     6    1.50
   87     6    1.50
   88     6    1.50
   89     6    1.50
   90     6    1.50
   91     6    1.50
   92     8    1.40
   93     1    1.20
   94     1    1.20
   95     1    1.20
   96     1    1.20
   97     1    1.20
   98     1    1.20
   99     1    1.20
  100     1    1.20
  101     1    1.20
  102     7    1.50
  103     6    1.50
  104     6    1.50
  105     8    1.40
  106     6    1.50
  107     6    1.50
  108     6    1.50
  109     6    1.50
  110     1    1.20
  111     1    1.20
  112     1    1.20
  113     1    1.20
  114     1    1.20
  115     1    1.20
  116     1    1.20
  117     1    1.20
  118     1    1.20
  119     1    1.20
  120     1    1.20
  121     7    1.50
  122     6    1.50
  123     6    1.50
  124     8    1.40
  125     6    1.50
  126     8    1.40
  127     1    1.20
  128     1    1.20
  129     1    1.20
  130     1    1.20
  131     1    1.20
  132     7    1.50
  133     6    1.50
  134     6    1.50
  135     8    1.40
  136     6    1.50
  137     1    1.20
  138     1    1.20
  139     1    1.20
  140     1    1.20
  141     1    1.20
  142     7    1.50
  143     6    1.50
  144     6    1.50
  145     8    1.40
  146     6    1.50
  147     1    1.20
  148     1    1.20
  149     1    1.20
  150     1    1.20
  151     1    1.20
  152     7    1.50
  153     6    1.50
  154     6    1.50
  155     8    1.40
  156     6    1.50
  157     6    1.50
  158     6    1.50
  159     8    1.40
  160     8    1.40
  161     1    1.20
  162     1    1.20
  163     1    1.20
  164     1    1.20
  165     1    1.20
  166     1    1.20
  167     7    1.50
  168     6    1.50
  169     1    1.20
  170     1    1.20
  171     1    1.20
  172     1    1.20
  173    20    1.70
  174     8    1.40
  175     1    1.20
  176     1    1.20
[...]
 **** Fit      -0.023132
 **** Fit      -0.019155
 **** Fit      -0.015283
 **** Fit      -0.011909
 **** Fit      -0.009531
 **** Fit      -0.008594
 **** Fit      -0.038863
 **** Fit      -0.040882
 **** Fit      -0.040224
 **** Fit      -0.038846
 **** Fit      -0.036724
 **** Fit      -0.033867
 **** Fit      -0.030315
 **** Fit      -0.026145
 **** Fit      -0.021486
 **** Fit      -0.016538
 **** Fit      -0.011608
 **** Fit      -0.040331
 **** Fit      -0.040881
 **** Fit      -0.043575
 **** Fit      -0.042819
 **** Fit      -0.041235
 **** Fit      -0.038768
 **** Fit      -0.035425
 **** Fit      -0.031254
 **** Fit      -0.026349
 **** Fit      -0.020852
 **** Fit      -0.014971
 **** Fit      -0.043295
 **** Fit      -0.043645
 **** Fit      -0.047696
 **** Fit      -0.046930
 **** Fit      -0.045005
 **** Fit      -0.041878
 **** Fit      -0.037608
 **** Fit      -0.032313
 **** Fit      -0.026165
 **** Fit      -0.019393
 **** Fit      -0.012320
 **** Fit      -0.047503
 **** Fit      -0.033816
 **** Fit       0.000868
 **** Fit      -0.000274
 **** Fit       0.004456
 **** Fit       0.005344
 **** Fit       0.007728
 **** Fit      -0.019561
 **** Fit       0.003942
 **** Fit       0.003277
 **** Fit      -0.000234
 **** Fit      -0.007166
 **** Fit      -0.017247
 **** Fit      -0.000609
 **** Fit      -0.004656
 **** Fit      -0.011722
 **** Fit      -0.020762
 **** Fit      -0.004099
 **** Fit      -0.009228
 **** Fit      -0.016364
 **** Fit      -0.021507
 **** Fit      -0.012502
 **** Fit      -0.014727
 **** Fit      -0.028478
 **** Fit      -0.017590
 **** Fit      -0.021918
 **** Fit      -0.031245
 **** Fit      -0.023158
 **** Fit      -0.021506
 **** Fit      -0.020777
 **** Fit      -0.024831
 **** Fit      -0.029397
 **** Fit      -0.023966
 **** Fit      -0.010383
 **** Fit      -0.008240
 **** Fit       0.008590
 **** Fit       0.001546
 **** Fit       0.002996
 **** Fit       0.002728
 **** Fit       0.001480
 **** Fit      -0.001266
 **** Fit       0.000051
 **** Fit      -0.003727
 **** Fit      -0.008465
 **** Fit      -0.011926
 **** Fit      -0.012841
 **** Fit      -0.001673
 **** Fit      -0.006021
 **** Fit      -0.008665
 **** Fit      -0.004123
 **** Fit       0.011417
 **** Fit       0.002966
 **** Fit       0.013501
 **** Fit       0.006880
 **** Fit       0.015473
 **** Fit       0.008727
 **** Fit       0.015111
 **** Fit       0.020374
 **** Fit       0.008480
 **** Fit       0.012573
 **** Fit       0.014166
 **** Fit       0.011563
 **** Fit      -0.006626
 **** Fit       0.006645
 **** Fit       0.002226
 **** Fit      -0.006969
 **** Fit      -0.042225
 **** Fit      -0.009225
 **** Fit      -0.006314
 **** Fit      -0.006861
 **** Fit      -0.007875
 **** Fit      -0.009673
 **** Fit      -0.011244
 **** Fit      -0.005407
 **** Fit      -0.005650
 **** Fit      -0.006236
 **** Fit      -0.007128
 **** Fit      -0.008282
 **** Fit      -0.010090
 **** Fit      -0.011784
 **** Fit      -0.013695
 **** Fit      -0.004843
 **** Fit      -0.004596
 **** Fit      -0.004606
 **** Fit      -0.004926
 **** Fit      -0.005542
 **** Fit      -0.006393
 **** Fit      -0.007431
 **** Fit      -0.008651
 **** Fit      -0.010480
 **** Fit      -0.012137
 **** Fit      -0.014123
 **** Fit      -0.016398
 **** Fit      -0.018810
 **** Fit      -0.004486
 **** Fit      -0.004058
 **** Fit      -0.003762
 **** Fit      -0.003669
 **** Fit      -0.003858
 **** Fit      -0.004339
 **** Fit      -0.005053
 **** Fit      -0.005918
 **** Fit      -0.006881
 **** Fit      -0.007931
 **** Fit      -0.009106
 **** Fit      -0.010843
 **** Fit      -0.017239
 **** Fit      -0.020255
 **** Fit      -0.023511
 **** Fit      -0.003974
 **** Fit      -0.003525
 **** Fit      -0.004353
 **** Fit      -0.005318
 **** Fit      -0.006324
 **** Fit      -0.007336
 **** Fit      -0.008374
 **** Fit      -0.009505
 **** Fit      -0.025228
 **** Fit      -0.029666
 **** Fit      -0.034154
 **** Fit      -0.004817
 **** Fit      -0.005942
 **** Fit      -0.006999
 **** Fit      -0.007982
 **** Fit      -0.008935
 **** Fit      -0.032568
 **** Fit      -0.006780
 **** Fit      -0.007843
 **** Fit      -0.008758
 **** Fit      -0.006767
 **** Fit      -0.008012
 **** Fit      -0.009011
 **** Fit      -0.008342
 **** Fit      -0.009586
 **** Fit      -0.010508
 **** Fit      -0.010224
 **** Fit      -0.011553
 **** Fit      -0.013053
 **** Fit      -0.014412
 **** Fit      -0.017291
 **** Fit      -0.018573
 **** Fit      -0.024918
 **** Fit      -0.008647
 **** Fit      -0.009185
 **** Fit      -0.010179
 **** Fit      -0.009678
 **** Fit      -0.008253
 **** Fit      -0.007486
 **** Fit      -0.007912
 **** Fit      -0.009854
 **** Fit      -0.011262
 **** Fit      -0.012189
 **** Fit      -0.012177
 **** Fit      -0.011163
 **** Fit      -0.009565
 **** Fit      -0.008039
 **** Fit      -0.007026
 **** Fit      -0.006609
 **** Fit      -0.006736
 **** Fit      -0.007364
 **** Fit      -0.008450
 **** Fit      -0.010640
 **** Fit      -0.012252
 **** Fit      -0.013751
 **** Fit      -0.014821
 **** Fit      -0.015147
 **** Fit      -0.014605
 **** Fit      -0.013333
 **** Fit      -0.011574
 **** Fit      -0.009686
 **** Fit      -0.008095
 **** Fit      -0.006942
 **** Fit      -0.006233
 **** Fit      -0.005933
 **** Fit      -0.005960
 **** Fit      -0.006279
 **** Fit      -0.006911
 **** Fit      -0.007872
 **** Fit      -0.009137
 **** Fit      -0.013399
 **** Fit      -0.015337
 **** Fit      -0.017125
 **** Fit      -0.018456
 **** Fit      -0.019025
 **** Fit      -0.018688
 **** Fit      -0.017582
 **** Fit      -0.015952
 **** Fit      -0.009510
 **** Fit      -0.007870
 **** Fit      -0.006608
 **** Fit      -0.005809
 **** Fit      -0.005436
 **** Fit      -0.005337
 **** Fit      -0.017119
 **** Fit      -0.019615
 **** Fit      -0.021907
 **** Fit      -0.023623
 **** Fit      -0.024408
 **** Fit      -0.024114
 **** Fit      -0.022952
 **** Fit      -0.009010
 **** Fit      -0.007060
 **** Fit      -0.005746
 **** Fit      -0.005121
 **** Fit      -0.004881
 **** Fit      -0.025485
 **** Fit      -0.028543
 **** Fit      -0.030871
 **** Fit      -0.032032
 **** Fit      -0.031865
 **** Fit      -0.003291
 **** Fit      -0.002793
 **** Fit      -0.002668
 **** Fit      -0.002944
 **** Fit      -0.003592
 **** Fit      -0.002568
 **** Fit      -0.002062
 **** Fit      -0.001806
 **** Fit      -0.001865
 **** Fit      -0.002270
 **** Fit      -0.002990
 **** Fit      -0.003946
 **** Fit      -0.002214
 **** Fit      -0.001655
 **** Fit      -0.001213
 **** Fit      -0.001006
 **** Fit      -0.001120
 **** Fit      -0.001582
 **** Fit      -0.002361
 **** Fit      -0.003381
 **** Fit      -0.004549
 **** Fit      -0.001532
 **** Fit      -0.000919
 **** Fit      -0.000459
 **** Fit      -0.000283
 **** Fit      -0.000456
 **** Fit      -0.000991
 **** Fit      -0.001846
 **** Fit      -0.002951
 **** Fit      -0.004213
 **** Fit      -0.005538
 **** Fit      -0.001631
 **** Fit      -0.000730
 **** Fit      -0.000017
 **** Fit       0.000361
 **** Fit       0.000325
 **** Fit      -0.000147
 **** Fit      -0.001019
 **** Fit      -0.002217
 **** Fit      -0.003639
 **** Fit      -0.005174
 **** Fit      -0.006715
 **** Fit      -0.000713
 **** Fit       0.000316
 **** Fit       0.000936
 **** Fit       0.001067
 **** Fit       0.000678
 **** Fit      -0.000204
 **** Fit      -0.001502
 **** Fit      -0.003103
 **** Fit      -0.004879
 **** Fit      -0.006703
 **** Fit      -0.008459
 **** Fit      -0.001357
 **** Fit       0.000176
 **** Fit       0.001255
 **** Fit       0.001773
 **** Fit       0.001659
 **** Fit       0.000901
 **** Fit      -0.000441
 **** Fit      -0.002243
 **** Fit      -0.004343
 **** Fit      -0.006574
 **** Fit      -0.008782
 **** Fit      -0.010834
 **** Fit       0.000184
 **** Fit       0.001694
 **** Fit       0.002498
 **** Fit       0.002464
 **** Fit       0.001528
 **** Fit      -0.000249
 **** Fit      -0.002683
 **** Fit      -0.005517
 **** Fit      -0.008486
 **** Fit      -0.011361
 **** Fit      -0.013956
 **** Fit       0.001256
 **** Fit       0.002860
 **** Fit       0.003388
 **** Fit       0.000486
 **** Fit      -0.002785
 **** Fit      -0.006750
 **** Fit      -0.010928
 **** Fit      -0.014914
 **** Fit      -0.018408
 **** Fit      -0.011754
 **** Fit      -0.013614
 **** Fit      -0.016006
 **** Fit      -0.011755
 **** Fit      -0.013460
 **** Fit      -0.015744
 **** Fit      -0.018680
 **** Fit      -0.009516
 **** Fit      -0.010492
 **** Fit      -0.011900
 **** Fit      -0.013498
 **** Fit      -0.015688
 **** Fit      -0.018624
 **** Fit      -0.022434
 **** Fit      -0.027140
 **** Fit      -0.009143
 **** Fit      -0.009874
 **** Fit      -0.010742
 **** Fit      -0.012263
 **** Fit      -0.013728
 **** Fit      -0.015761
 **** Fit      -0.018533
 **** Fit      -0.022249
 **** Fit      -0.027135
 **** Fit      -0.033381
 **** Fit      -0.009284
 **** Fit      -0.009864
 **** Fit      -0.010463
 **** Fit      -0.011220
 **** Fit      -0.012921
 **** Fit      -0.014341
 **** Fit      -0.016363
 **** Fit      -0.019185
 **** Fit      -0.023071
 **** Fit      -0.028383
 **** Fit      -0.035598
 **** Fit      -0.010360
 **** Fit      -0.010801
 **** Fit      -0.011284
 **** Fit      -0.011947
 **** Fit      -0.013956
 **** Fit      -0.015300
 **** Fit      -0.017259
 **** Fit      -0.020036
 **** Fit      -0.023914
 **** Fit      -0.029321
 **** Fit      -0.011572
 **** Fit      -0.011917
 **** Fit      -0.012183
 **** Fit      -0.012525
 **** Fit      -0.013074
 **** Fit      -0.015464
 **** Fit      -0.016745
 **** Fit      -0.018679
 **** Fit      -0.021473
 **** Fit      -0.025429
 **** Fit      -0.031025
 **** Fit      -0.014005
 **** Fit      -0.014082
 **** Fit      -0.014120
 **** Fit      -0.014277
 **** Fit      -0.014684
 **** Fit      -0.017561
 **** Fit      -0.018819
 **** Fit      -0.020847
 **** Fit      -0.023879
 **** Fit      -0.028274
 **** Fit      -0.034628
 **** Fit      -0.017514
 **** Fit      -0.017188
 **** Fit      -0.016859
 **** Fit      -0.016716
 **** Fit      -0.016906
 **** Fit      -0.020389
 **** Fit      -0.021596
 **** Fit      -0.023756
 **** Fit      -0.027132
 **** Fit      -0.032143
 **** Fit      -0.021828
 **** Fit      -0.020824
 **** Fit      -0.020143
 **** Fit      -0.019952
 **** Fit      -0.024125
 **** Fit      -0.025157
 **** Fit      -0.027349
 **** Fit      -0.030946
 **** Fit      -0.036339
 **** Fit      -0.026538
 **** Fit      -0.024931
 **** Fit      -0.024090
 **** Fit      -0.028990
 **** Fit      -0.029731
 **** Fit      -0.032073
 **** Fit      -0.036198
 **** Fit      -0.029742
 **** Fit      -0.035228
 **** Fit      -0.035282
 **** Fit      -0.037486
 **** Fit      -0.020016
 **** Fit      -0.016359
 **** Fit       0.040619
 **** Fit       0.042796
 **** Fit       0.044658
 **** Fit      -0.012714
 **** Fit      -0.004468
 **** Fit       0.034969
 **** Fit      -0.003901
 **** Fit      -0.010124
 **** Fit       0.045462
 **** Fit       0.009549
 **** Fit       0.005577
 **** Fit       0.000872
 **** Fit      -0.005644
 **** Fit      -0.014600
 **** Fit       0.045681
 **** Fit       0.045988
 **** Fit       0.045748
 **** Fit       0.045006
 **** Fit       0.043804
 **** Fit       0.042109
 **** Fit       0.039753
 **** Fit       0.036446
 **** Fit       0.031909
 **** Fit       0.026150
 **** Fit       0.019821
 **** Fit       0.014813
 **** Fit       0.010424
 **** Fit       0.005432
 **** Fit      -0.000773
 **** Fit      -0.008413
 **** Fit       0.036320
 **** Fit       0.039315
 **** Fit       0.041175
 **** Fit       0.042260
 **** Fit       0.042731
 **** Fit       0.042654
 **** Fit       0.042057
 **** Fit       0.040924
 **** Fit       0.039171
 **** Fit       0.036649
 **** Fit       0.033221
 **** Fit       0.028916
 **** Fit       0.024079
 **** Fit       0.019271
 **** Fit       0.018592
 **** Fit       0.013985
 **** Fit       0.008818
 **** Fit       0.002853
 **** Fit      -0.003659
 **** Fit      -0.009709
 **** Fit      -0.010715
 **** Fit      -0.004978
 **** Fit       0.001959
 **** Fit       0.009405
 **** Fit       0.016948
 **** Fit       0.023987
 **** Fit       0.029810
 **** Fit       0.034090
 **** Fit       0.036984
 **** Fit       0.038820
 **** Fit       0.039841
 **** Fit       0.040172
 **** Fit       0.039857
 **** Fit       0.038884
 **** Fit       0.037182
 **** Fit       0.034664
 **** Fit       0.031319
 **** Fit       0.027320
 **** Fit       0.022999
 **** Fit       0.021251
 **** Fit       0.016729
 **** Fit       0.011802
 **** Fit       0.006624
 **** Fit       0.001882
 **** Fit      -0.001234
 **** Fit      -0.001647
 **** Fit       0.000825
 **** Fit       0.005458
 **** Fit       0.011310
 **** Fit       0.017604
 **** Fit       0.023633
 **** Fit       0.028757
 **** Fit       0.032639
 **** Fit       0.035307
 **** Fit       0.036943
 **** Fit       0.037700
 **** Fit       0.037650
 **** Fit       0.036800
 **** Fit       0.035115
 **** Fit       0.032581
 **** Fit       0.029286
 **** Fit       0.025444
 **** Fit       0.023085
 **** Fit       0.018674
 **** Fit       0.014154
 **** Fit       0.010186
 **** Fit       0.007862
 **** Fit       0.008104
 **** Fit       0.010931
 **** Fit       0.015543
 **** Fit       0.020892
 **** Fit       0.025999
 **** Fit       0.030153
 **** Fit       0.033065
 **** Fit       0.034751
 **** Fit       0.035303
 **** Fit       0.034769
 **** Fit       0.033167
 **** Fit       0.030557
 **** Fit       0.027115
 **** Fit       0.024309
 **** Fit       0.019950
 **** Fit       0.016329
 **** Fit       0.014998
 **** Fit       0.016823
 **** Fit       0.021021
 **** Fit       0.025853
 **** Fit       0.029781
 **** Fit       0.032050
 **** Fit       0.032496
 **** Fit       0.031170
 **** Fit       0.028286
 **** Fit       0.025078
 **** Fit       0.021354
 **** Fit       0.021623
 **** Fit       0.025737
 **** Fit       0.029024
 **** Fit       0.028657
 **** Fit       0.025517
 **** Fit       0.022112
 **** Fit       0.025535
 **** Fit       0.025858
 **** Fit       0.028686
 **** Fit       0.029346
 **** Fit       0.030923
 **** Fit       0.031497
 **** Fit       0.032303
 **** Fit       0.033444
 **** Fit       0.033768
 **** Fit       0.033932
 **** Fit       0.034584
 **** Fit       0.035548
 **** Fit       0.036743
 **** Fit       0.036513
 **** Fit       0.036981
 **** Fit       0.037857
 **** Fit       0.039078
 **** Fit       0.040013
 **** Fit       0.039025
 **** Fit       0.039049
 **** Fit       0.039664
 **** Fit       0.040651
 **** Fit       0.041924
 **** Fit       0.043030
 **** Fit       0.041532
 **** Fit       0.041118
 **** Fit       0.041434
 **** Fit       0.042214
 **** Fit       0.043278
 **** Fit       0.044479
 **** Fit       0.044637
 **** Fit       0.043435
 **** Fit       0.043084
 **** Fit       0.043448
 **** Fit       0.044323
 **** Fit       0.045524
 **** Fit       0.046872
 **** Fit       0.044845
 **** Fit       0.044917
 **** Fit       0.045536
 **** Fit       0.046696
 -----------------------------------------------------------------
 Leave Link  602 at Sat Sep 14 23:50:51 2019, MaxMem=  1342177280 cpu:             110.2 elap:               2.3

 Test job not archived.
 1\1\GINC-C496-062\SP\RB3LYP\SVP\C54H83Ca1N15O23\PENGZHI\14-Sep-2019\0\
 \#b3lyp/svp scf=(tight,noincore) Test #IOP(5/87=12) Density=Current Po
 p=(MK,readradii) iop(6/33=2) iop(6/42=6)\\CaMKII_loop3_111.0\\0,1\C,0,
 27.98,37.22,5.6\C,0,28.95,36.09,5.27\O,0,29.98,36.4,4.66\H,0,27.05,36.
 8,5.984\H,0,28.422,37.871,6.354\H,0,27.773,37.797,4.699\N,0,28.73,34.8
 7,5.75\C,0,29.49,33.68,5.42\C,0,29.05,33.02,4.13\O,0,27.99,32.41,4.13\
 C,0,29.54,32.68,6.57\C,0,30.41,31.46,6.31\O,0,30.42,30.57,7.19\O,0,31.
 17,31.34,5.33\H,0,27.88,34.71,6.28\H,0,30.49,34.08,5.25\H,0,28.53,32.3
 ,6.73\H,0,29.7,33.17,7.53\N,0,29.85,33.07,3.06\C,0,29.61,32.52,1.74\C,
 0,29.81,31.04,1.46\O,0,28.9,30.42,0.92\C,0,30.24,33.44,0.69\C,0,29.4,3
 3.41,-0.59\C,0,30.07,34.38,-1.57\C,0,29.28,34.52,-2.87\N,0,29.49,33.38
 ,-3.77\H,0,30.73,33.54,3.22\H,0,28.54,32.7,1.63\H,0,31.27,33.18,0.43\H
 ,0,30.15,34.47,1.02\H,0,28.4,33.66,-0.24\H,0,29.26,32.43,-1.03\H,0,31.
 09,34.08,-1.78\H,0,30.07,35.35,-1.08\H,0,29.62,35.35,-3.49\H,0,28.23,3
 4.69,-2.6\H,0,30.43,33.46,-4.13\H,0,29.46,32.42,-3.45\H,0,28.99,33.5,-
 4.64\N,0,30.92,30.47,1.94\C,0,31.02,29.03,1.97\C,0,30.3,28.34,3.12\O,0
 ,30.16,27.12,3.04\C,0,32.49,28.67,1.79\C,0,33.36,29.22,2.91\O,0,33.,28
 .93,4.07\O,0,34.35,29.96,2.75\H,0,31.6,31.02,2.45\H,0,30.51,28.72,1.05
 \H,0,32.79,29.06,0.82\H,0,32.52,27.58,1.76\N,0,29.77,29.05,4.12\C,0,28
 .99,28.54,5.23\C,0,29.73,27.61,6.18\O,0,29.1,26.72,6.75\H,0,29.84,30.0
 3,3.9\H,0,28.17,27.99,4.79\H,0,28.47,29.31,5.8\N,0,31.06,27.69,6.29\C,
 0,31.9,26.93,7.19\C,0,31.77,27.31,8.66\O,0,32.33,26.57,9.47\C,0,33.38,
 26.87,6.82\C,0,34.26,28.11,6.99\N,0,35.55,27.91,6.75\O,0,33.9,29.23,7.
 33\H,0,31.46,28.34,5.63\H,0,31.54,25.91,7.19\H,0,33.5,26.65,5.76\H,0,3
 3.83,26.06,7.39\H,0,35.96,26.98,6.78\H,0,36.15,28.67,7.04\N,0,31.1,28.
 42,8.99\C,0,31.09,29.,10.32\C,0,32.07,30.13,10.57\O,0,32.3,30.44,11.74
 \H,0,30.77,28.98,8.22\H,0,31.23,28.25,11.1\H,0,30.1,29.42,10.5\N,0,32.
 77,30.65,9.56\C,0,33.63,31.8,9.78\C,0,33.38,32.71,8.59\O,0,33.57,32.28
 ,7.46\C,0,35.09,31.35,9.74\C,0,35.58,30.23,10.62\C,0,35.4,30.35,12.01\
 C,0,36.54,29.36,10.09\C,0,36.06,29.4,12.81\C,0,37.2,28.42,10.89\C,0,36
 .95,28.46,12.27\O,0,37.52,27.54,13.11\H,0,32.66,30.37,8.6\H,0,33.37,32
 .33,10.7\H,0,35.72,32.23,9.85\H,0,35.32,30.94,8.75\H,0,34.7,31.07,12.4
 \H,0,36.82,29.41,9.05\H,0,35.81,29.53,13.85\H,0,38.,27.75,10.62\H,0,37
 .18,27.59,14.01\N,0,33.3,34.03,8.78\C,0,33.45,35.05,7.76\C,0,34.89,35.
 48,7.51\O,0,35.62,35.86,8.42\C,0,32.65,36.27,8.22\C,0,31.18,35.91,8.36
 \C,0,32.69,37.44,7.25\C,0,30.47,36.85,9.33\H,0,33.3,34.43,9.71\H,0,33.
 08,34.69,6.8\H,0,32.97,36.51,9.23\H,0,31.02,34.95,8.85\H,0,30.77,35.83
 ,7.35\H,0,33.7,37.73,6.94\H,0,32.27,37.04,6.33\H,0,32.18,38.37,7.52\H,
 0,30.98,36.86,10.3\H,0,30.5,37.86,8.92\H,0,29.43,36.6,9.51\N,0,35.2,35
 .6,6.22\C,0,36.5,36.13,5.85\C,0,36.33,37.38,5.\O,0,35.24,37.64,4.51\C,
 0,37.27,35.12,5.\O,0,36.64,34.81,3.78\H,0,34.58,35.32,5.47\H,0,37.15,3
 6.37,6.69\H,0,37.53,34.19,5.51\H,0,38.21,35.6,4.73\H,0,35.94,34.22,4.0
 7\N,0,37.36,38.22,4.85\C,0,37.43,39.44,4.06\C,0,36.6,39.37,2.79\O,0,35
 .78,40.26,2.56\C,0,38.89,39.87,3.99\H,0,38.21,37.89,5.27\H,0,36.94,40.
 24,4.62\H,0,39.26,40.08,5.\H,0,39.48,39.07,3.55\H,0,39.,40.64,3.23\N,0
 ,36.88,38.39,1.93\C,0,36.39,38.22,0.58\C,0,34.91,37.87,0.63\O,0,34.18,
 37.92,-0.36\C,0,37.18,37.17,-0.19\H,0,37.6,37.73,2.19\H,0,36.48,39.2,0
 .11\H,0,37.03,37.2,-1.27\H,0,38.24,37.34,0.02\H,0,36.99,36.17,0.22\N,0
 ,34.4,37.45,1.79\C,0,33.01,37.19,2.09\C,0,32.31,38.47,2.52\O,0,31.23,3
 8.8,2.03\C,0,32.83,35.99,3.01\C,0,33.34,34.65,2.48\C,0,33.47,33.54,3.5
 1\O,0,32.88,32.45,3.37\O,0,34.19,33.61,4.53\H,0,35.01,37.31,2.59\H,0,3
 2.45,36.99,1.18\H,0,31.75,36.03,3.07\H,0,33.47,36.26,3.86\H,0,34.33,34
 .92,2.11\H,0,32.78,34.27,1.62\N,0,32.91,39.28,3.4\C,0,32.39,40.54,3.88
 \H,0,31.403,40.383,4.315\H,0,33.061,40.945,4.638\H,0,32.312,41.242,3.0
 5\H,0,33.79,38.99,3.8\Ca,0,33.8,31.09,5.26\O,0,36.37,31.14,5.11\H,0,37
 .16,31.02,4.59\H,0,36.69,31.35,5.99\\Version=ES64L-G16RevA.03\State=1-
 A\HF=-5333.5939014\RMSD=6.138e-09\Dipole=3.7216062,6.4013124,-10.64509
 16\Quadrupole=7.9411678,-149.885485,141.9443172,-37.4039231,72.0952541
 ,24.6724023\PG=C01 [X(C54H83Ca1N15O23)]\\@


 IF AT FIRST YOU DON'T SUCCEED, TRY, TRY AGAIN.
 THEN GIVE UP;
 THERE'S NO USE BEING A DAMN FOOL ABOUT IT.

                                 -- W. C. FIELDS
 Job cpu time:       0 days 10 hours 18 minutes 58.8 seconds.
 Elapsed time:       0 days  0 hours 13 minutes  2.2 seconds.
 File lengths (MBytes):  RWF=   1517 Int=      0 D2E=      0 Chk=    171 Scr=      1
 Normal termination of Gaussian 16 at Sat Sep 14 23:50:52 2019.
