 Entering Gaussian System, Link 0=g16
 Initial command:
 /home1/apps/gaussian/16rA.03/g16/l1.exe "/scratch/04905/jaebeomh/4357399/Gau-207111.inp" -scrdir="/scratch/04905/jaebeomh/4357399/"
 Entering Link 1 = /home1/apps/gaussian/16rA.03/g16/l1.exe PID=    207112.
  
 Copyright (c) 1988,1990,1992,1993,1995,1998,2003,2009,2016,
            Gaussian, Inc.  All Rights Reserved.
  
 This is part of the Gaussian(R) 16 program.  It is based on
 the Gaussian(R) 09 system (copyright 2009, Gaussian, Inc.),
 the Gaussian(R) 03 system (copyright 2003, Gaussian, Inc.),
 the Gaussian(R) 98 system (copyright 1998, Gaussian, Inc.),
 the Gaussian(R) 94 system (copyright 1995, Gaussian, Inc.),
 the Gaussian 92(TM) system (copyright 1992, Gaussian, Inc.),
 the Gaussian 90(TM) system (copyright 1990, Gaussian, Inc.),
 the Gaussian 88(TM) system (copyright 1988, Gaussian, Inc.),
 the Gaussian 86(TM) system (copyright 1986, Carnegie Mellon
 University), and the Gaussian 82(TM) system (copyright 1983,
 Carnegie Mellon University). Gaussian is a federally registered
 trademark of Gaussian, Inc.
  
 This software contains proprietary and confidential information,
 including trade secrets, belonging to Gaussian, Inc.
  
 This software is provided under written license and may be
 used, copied, transmitted, or stored only in accord with that
 written license.
  
 The following legend is applicable only to US Government
 contracts under FAR:
  
                    RESTRICTED RIGHTS LEGEND
  
 Use, reproduction and disclosure by the US Government is
 subject to restrictions as set forth in subparagraphs (a)
 and (c) of the Commercial Computer Software - Restricted
 Rights clause in FAR 52.227-19.
  
 Gaussian, Inc.
 340 Quinnipiac St., Bldg. 40, Wallingford CT 06492
  
  
 ---------------------------------------------------------------
 Warning -- This program may not be used in any manner that
 competes with the business of Gaussian, Inc. or will provide
 assistance to any competitor of Gaussian, Inc.  The licensee
 of this program is prohibited from giving any competitor of
 Gaussian, Inc. access to this program.  By using this program,
 the user acknowledges that Gaussian, Inc. is engaged in the
 business of creating and licensing software in the field of
 computational chemistry and represents and warrants to the
 licensee that it is not a competitor of Gaussian, Inc. and that
 it will not use this program in any manner prohibited above.
 ---------------------------------------------------------------
  

 Cite this work as:
 Gaussian 16, Revision A.03,
 M. J. Frisch, G. W. Trucks, H. B. Schlegel, G. E. Scuseria, 
 M. A. Robb, J. R. Cheeseman, G. Scalmani, V. Barone, 
 G. A. Petersson, H. Nakatsuji, X. Li, M. Caricato, A. V. Marenich, 
 J. Bloino, B. G. Janesko, R. Gomperts, B. Mennucci, H. P. Hratchian, 
 J. V. Ortiz, A. F. Izmaylov, J. L. Sonnenberg, D. Williams-Young, 
 F. Ding, F. Lipparini, F. Egidi, J. Goings, B. Peng, A. Petrone, 
 T. Henderson, D. Ranasinghe, V. G. Zakrzewski, J. Gao, N. Rega, 
 G. Zheng, W. Liang, M. Hada, M. Ehara, K. Toyota, R. Fukuda, 
 J. Hasegawa, M. Ishida, T. Nakajima, Y. Honda, O. Kitao, H. Nakai, 
 T. Vreven, K. Throssell, J. A. Montgomery, Jr., J. E. Peralta, 
 F. Ogliaro, M. J. Bearpark, J. J. Heyd, E. N. Brothers, K. N. Kudin, 
 V. N. Staroverov, T. A. Keith, R. Kobayashi, J. Normand, 
 K. Raghavachari, A. P. Rendell, J. C. Burant, S. S. Iyengar, 
 J. Tomasi, M. Cossi, J. M. Millam, M. Klene, C. Adamo, R. Cammi, 
 J. W. Ochterski, R. L. Martin, K. Morokuma, O. Farkas, 
 J. B. Foresman, and D. J. Fox, Gaussian, Inc., Wallingford CT, 2016.
 
 ******************************************
 Gaussian 16:  ES64L-G16RevA.03 25-Dec-2016
                18-Sep-2019 
 ******************************************
 %chk=CaMKII_loop3_56.0.chk
 %nprocshared=48
 Will use up to   48 processors via shared memory.
 %mem=10GB
 %nosave
 ----------------------------------------------------------------------
 #b3lyp/svp scf=(tight,noincore) Test #IOP(5/87=12) Density=Current Pop
 =(MK,readradii) iop(6/33=2) iop(6/42=6)
 ----------------------------------------------------------------------
 1/30=1,38=1,172=1/1;
 2/12=2,17=6,18=5,40=1/2;
 3/5=18,7=101,11=2,25=1,30=1,74=-5/1,2,3;
 4//1;
 5/5=4,32=2,38=5,87=12/2;
 6/7=2,8=2,9=2,10=2,15=8,20=101,22=-1,28=1,33=2,42=6/1,2;
 99/5=1,9=1/99;
 -----------------
 CaMKII_loop3_56.0
 -----------------
 Symbolic Z-matrix:
 Charge =  0 Multiplicity = 1
 C                     75.52     41.35     24.24 
 C                     74.35     40.59     24.83 
 O                     74.32     39.36     24.87 
 H                     76.386    40.691    24.178 
 H                     75.259    41.702    23.242 
 H                     75.758    42.203    24.876 
 N                     73.33     41.33     25.26 
 C                     72.       40.86     25.58 
 C                     71.29     40.46     24.29 
 O                     70.4      41.14     23.8 
 C                     71.12     41.77     26.43 
 C                     69.85     41.1      26.94 
 O                     69.62     39.9      26.7 
 O                     69.03     41.87     27.48 
 H                     73.45     42.33     25.31 
 H                     72.18     39.99     26.22 
 H                     70.83     42.68     25.9 
 H                     71.7      42.       27.32 
 N                     71.52     39.21     23.88 
 C                     71.08     38.71     22.59 
 C                     69.66     38.21     22.38 
 O                     69.23     37.85     21.28 
 C                     72.13     37.83     21.91 
 C                     72.2      37.87     20.39 
 C                     73.05     36.76     19.77 
 C                     73.38     36.9      18.29 
 N                     72.11     36.85     17.54 
 H                     72.24     38.69     24.37 
 H                     71.09     39.67     22.06 
 H                     72.03     36.78     22.16 
 H                     73.07     38.17     22.35 
 H                     72.67     38.84     20.2 
 H                     71.21     37.84     19.94 
 H                     72.49     35.83     19.93 
 H                     73.97     36.74     20.35 
 H                     74.07     36.11     18.01 
 H                     73.81     37.88     18.07 
 H                     72.27     36.54     16.59 
 H                     71.43     36.14     17.75 
 H                     71.6      37.71     17.44 
 N                     68.87     38.37     23.44 
 C                     67.45     38.09     23.56 
 C                     66.69     39.34     23.99 
 O                     65.63     39.62     23.44 
 C                     67.18     36.89     24.47 
 C                     67.94     36.98     25.79 
 O                     67.48     37.73     26.68 
 O                     69.09     36.53     25.97 
 H                     69.27     38.7      24.3 
 H                     67.01     37.87     22.59 
 H                     67.62     36.03     23.96 
 H                     66.14     36.72     24.74 
 N                     67.16     40.08     24.99 
 C                     66.53     41.28     25.5 
 C                     65.87     41.13     26.87 
 O                     65.03     41.97     27.21 
 H                     67.91     39.8      25.6 
 H                     65.8      41.72     24.83 
 H                     67.28     42.04     25.74 
 N                     66.22     40.14     27.69 
 C                     65.81     40.       29.07 
 C                     66.41     41.03     30.02 
 O                     66.11     40.98     31.21 
 C                     66.01     38.59     29.62 
 C                     67.45     38.36     30.05 
 N                     67.6      37.55     31.11 
 O                     68.38     38.86     29.42 
 H                     66.97     39.48     27.49 
 H                     64.72     40.05     29.15 
 H                     65.76     37.8      28.91 
 H                     65.31     38.49     30.45 
 H                     66.85     37.1      31.6 
 H                     68.57     37.38     31.35 
 N                     67.22     41.94     29.48 
 C                     67.94     42.99     30.18 
 C                     69.13     42.48     30.98 
 O                     69.54     43.16     31.91 
 H                     67.46     41.94     28.5 
 H                     67.26     43.52     30.85 
 H                     68.27     43.76     29.48 
 N                     69.77     41.36     30.64 
 C                     71.03     40.9      31.19 
 C                     71.94     40.27     30.15 
 O                     71.51     39.66     29.17 
 C                     70.82     39.91     32.33 
 C                     69.85     40.38     33.38 
 C                     70.28     40.99     34.57 
 C                     68.48     40.12     33.31 
 C                     69.42     41.31     35.63 
 C                     67.55     40.48     34.29 
 C                     68.04     41.08     35.47 
 O                     67.1      41.47     36.38 
 H                     69.48     40.89     29.79 
 H                     71.46     41.79     31.66 
 H                     71.73     39.53     32.79 
 H                     70.28     39.07     31.88 
 H                     71.33     41.09     34.78 
 H                     68.08     39.62     32.43 
 H                     69.73     41.8      36.54 
 H                     66.49     40.3      34.24 
 H                     66.22     41.13     36.24 
 N                     73.24     40.35     30.45 
 C                     74.38     39.74     29.8 
 C                     74.88     38.67     30.76 
 O                     75.33     38.99     31.85 
 C                     75.44     40.82     29.56 
 C                     74.97     42.1      28.88 
 C                     76.63     40.24     28.82 
 C                     76.       43.2      28.63 
 H                     73.49     40.71     31.36 
 H                     74.15     39.34     28.81 
 H                     75.89     41.24     30.47 
 H                     74.14     42.6      29.38 
 H                     74.54     41.89     27.9 
 H                     77.5      40.89     28.84 
 H                     76.87     39.24     29.19 
 H                     76.3      40.25     27.78 
 H                     76.25     43.73     29.55 
 H                     76.84     42.8      28.07 
 H                     75.39     43.92     28.08 
 N                     74.89     37.4      30.35 
 C                     75.45     36.23     31. 
 C                     76.91     36.02     30.61 
 O                     77.41     36.65     29.67 
 C                     74.61     34.97     30.83 
 O                     74.66     34.67     29.45 
 H                     74.36     37.26     29.5 
 H                     75.55     36.5      32.05 
 H                     73.6      35.09     31.21 
 H                     74.91     34.11     31.43 
 H                     73.91     35.06     29. 
 N                     77.58     35.05     31.23 
 C                     78.96     34.76     30.9 
 C                     79.04     34.08     29.54 
 O                     79.9      34.38     28.72 
 C                     79.44     33.76     31.95 
 H                     77.22     34.57     32.04 
 H                     79.47     35.72     30.89 
 H                     80.49     33.57     31.75 
 H                     79.22     34.17     32.94 
 H                     78.92     32.81     31.87 
 N                     78.14     33.16     29.15 
 C                     77.98     32.74     27.77 
 C                     77.73     33.84     26.75 
 O                     78.4      33.84     25.72 
 C                     76.94     31.63     27.73 
 H                     77.34     33.03     29.75 
 H                     78.98     32.37     27.55 
 H                     76.78     31.14     26.77 
 H                     77.09     30.86     28.48 
 H                     75.97     32.04     28.01 
 N                     76.94     34.85     27.11 
 C                     76.71     35.97     26.22 
 C                     77.83     37.       26.13 
 O                     78.07     37.58     25.07 
 C                     75.41     36.66     26.61 
 C                     74.17     35.89     26.17 
 C                     72.99     36.45     26.96 
 O                     72.64     35.86     28.01 
 O                     72.35     37.45     26.59 
 H                     76.34     34.71     27.91 
 H                     76.68     35.61     25.2 
 H                     75.37     37.66     26.18 
 H                     75.44     36.86     27.68 
 H                     74.24     34.83     26.41 
 H                     73.92     35.98     25.11 
 N                     78.63     37.16     27.18 
 C                     79.94     37.8      27.2 
 H                     80.656    37.178    26.663 
 H                     79.876    38.776    26.719 
 H                     80.269    37.924    28.232 
 H                     78.27     36.79     28.05 
 Ca                    70.29     37.64     27.97 
 O                     71.24     37.       30.48 
 H                     71.84     37.19     31.2 
 H                     70.73     36.25     30.79 
 
 Stoichiometry    C54H83CaN15O23
 Framework group  C1[X(C54H83CaN15O23)]
 Deg. of freedom   522
 Full point group                 C1      NOp   1
 Largest Abelian subgroup         C1      NOp   1
 Largest concise Abelian subgroup C1      NOp   1
                         Standard orientation:                         
 ---------------------------------------------------------------------
 Center     Atomic      Atomic             Coordinates (Angstroms)
 Number     Number       Type             X           Y           Z
 ---------------------------------------------------------------------
      1          6           0        2.307157    2.695822    4.467038
      2          6           0        1.522182    2.373947    3.212123
      3          8           0        2.033135    2.405965    2.092613
      4          1           0        3.374108    2.631643    4.253548
      5          1           0        2.063189    3.704624    4.799945
      6          1           0        2.050302    1.982117    5.250236
      7          7           0        0.230449    2.101181    3.385103
      8          6           0       -0.785725    2.058361    2.356629
      9          6           0       -1.053509    3.476951    1.862568
     10          8           0       -2.072080    4.086116    2.155877
     11          6           0       -2.088581    1.338471    2.687268
     12          6           0       -2.990441    1.108792    1.480703
     13          8           0       -2.629855    1.450970    0.339041
     14          8           0       -4.134006    0.689478    1.751507
     15          1           0       -0.112073    1.976485    4.325331
     16          1           0       -0.333542    1.443521    1.571516
     17          1           0       -2.671584    1.863585    3.447177
     18          1           0       -1.803676    0.345530    3.025346
     19          7           0       -0.239106    3.903507    0.893911
     20          6           0       -0.223580    5.277484    0.425245
     21          6           0       -1.230452    5.772998   -0.600023
     22          8           0       -1.295063    6.951201   -0.963566
     23          6           0        1.192297    5.797500    0.171915
     24          6           0        1.453923    7.273959    0.433682
     25          6           0        2.785660    7.784391   -0.118526
     26          6           0        3.227690    9.168150    0.338334
     27          7           0        2.232125   10.141759   -0.150374
     28          1           0        0.558227    3.317247    0.671518
     29          1           0       -0.562950    5.744421    1.357660
     30          1           0        1.531729    5.626783   -0.843290
     31          1           0        1.811808    5.173650    0.819848
     32          1           0        1.468963    7.321616    1.527027
     33          1           0        0.654640    7.900309    0.043385
     34          1           0        2.677528    7.780687   -1.210494
     35          1           0        3.526442    7.046097    0.180413
     36          1           0        4.227776    9.357452   -0.039280
     37          1           0        3.207173    9.252112    1.427476
     38          1           0        2.646563   11.060936   -0.237298
     39          1           0        1.913394   10.099439   -1.102854
     40          1           0        1.414876   10.288299    0.415603
     41          7           0       -2.152369    4.870458   -0.929857
     42          6           0       -3.303582    5.030395   -1.800679
     43          6           0       -4.590275    4.682274   -1.060252
     44          8           0       -5.574178    5.403142   -1.189815
     45          6           0       -3.142824    4.251501   -3.107767
     46          6           0       -2.698127    2.810785   -2.873923
     47          8           0       -3.564034    1.982483   -2.512923
     48          8           0       -1.506534    2.445423   -2.810548
     49          1           0       -2.066771    3.934917   -0.574985
     50          1           0       -3.457466    6.075402   -2.059872
     51          1           0       -2.300372    4.716493   -3.624832
     52          1           0       -4.027488    4.188060   -3.737643
     53          7           0       -4.643771    3.574496   -0.326451
     54          6           0       -5.804674    3.126491    0.414222
     55          6           0       -6.518850    1.912265   -0.177900
     56          8           0       -7.682454    1.689167    0.172888
     57          1           0       -3.943019    2.852108   -0.336614
     58          1           0       -6.549800    3.895506    0.583937
     59          1           0       -5.510355    2.711611    1.383216
     60          7           0       -5.888828    1.095752   -1.021332
     61          6           0       -6.387419   -0.175077   -1.499350
     62          6           0       -6.446705   -1.273339   -0.444027
     63          8           0       -6.860455   -2.382886   -0.770090
     64          6           0       -5.666160   -0.676451   -2.747953
     65          6           0       -4.350612   -1.352544   -2.396339
     66          7           0       -4.011543   -2.377178   -3.194686
     67          8           0       -3.657661   -0.933122   -1.471297
     68          1           0       -4.904451    1.188505   -1.267298
     69          1           0       -7.386374   -0.054578   -1.928966
     70          1           0       -5.437180    0.108723   -3.470289
     71          1           0       -6.360651   -1.356056   -3.242643
     72          1           0       -4.547134   -2.695196   -3.980247
     73          1           0       -3.111621   -2.783073   -2.964924
     74          7           0       -6.053987   -0.941935    0.785503
     75          6           0       -5.980080   -1.818148    1.942088
     76          6           0       -4.815191   -2.796100    1.888753
     77          8           0       -4.885324   -3.820882    2.552307
     78          1           0       -5.701317   -0.024685    1.014143
     79          1           0       -6.912230   -2.378109    2.040781
     80          1           0       -5.927802   -1.233449    2.862519
     81          7           0       -3.705066   -2.521037    1.202049
     82          6           0       -2.464521   -3.269291    1.255556
     83          6           0       -1.231596   -2.383468    1.212973
     84          8           0       -1.202946   -1.309662    0.610048
     85          6           0       -2.376248   -4.296202    0.132408
     86          6           0       -3.593080   -5.172188    0.004862
     87          6           0       -3.651751   -6.452064    0.580689
     88          6           0       -4.681678   -4.836128   -0.802243
     89          6           0       -4.706334   -7.350200    0.364346
     90          6           0       -5.804492   -5.644947   -1.002241
     91          6           0       -5.804173   -6.925577   -0.408535
     92          8           0       -6.939087   -7.665460   -0.576890
     93          1           0       -3.632832   -1.608180    0.767337
     94          1           0       -2.543928   -3.857605    2.175057
     95          1           0       -1.468172   -4.895658    0.120162
     96          1           0       -2.419212   -3.709834   -0.791727
     97          1           0       -2.795931   -6.857748    1.090192
     98          1           0       -4.689335   -3.871877   -1.306785
     99          1           0       -4.778264   -8.326703    0.817743
    100          1           0       -6.656709   -5.390143   -1.608296
    101          1           0       -7.548342   -7.347096   -1.237989
    102          7           0       -0.158379   -2.922655    1.799389
    103          6           0        1.213675   -2.463155    1.822316
    104          6           0        1.991874   -3.440526    0.953033
    105          8           0        2.093295   -4.610479    1.290558
    106          6           0        1.709855   -2.481474    3.271822
    107          6           0        0.825452   -1.795632    4.305820
    108          6           0        3.125812   -1.944512    3.354518
    109          6           0        1.287656   -1.799656    5.761757
    110          1           0       -0.226037   -3.881110    2.110814
    111          1           0        1.328150   -1.427760    1.493905
    112          1           0        1.792842   -3.480139    3.722134
    113          1           0       -0.202004   -2.159419    4.335719
    114          1           0        0.677437   -0.743197    4.061131
    115          1           0        3.606450   -2.159836    4.304477
    116          1           0        3.727151   -2.298562    2.513364
    117          1           0        2.977782   -0.863457    3.357176
    118          1           0        1.143487   -2.777007    6.224141
    119          1           0        2.288380   -1.384185    5.833417
    120          1           0        0.507997   -1.185557    6.217843
    121          7           0        2.620252   -2.972196   -0.127202
    122          6           0        3.540076   -3.651129   -1.020496
    123          6           0        4.981729   -3.527340   -0.536643
    124          8           0        5.280721   -2.731107    0.361754
    125          6           0        3.376866   -3.261572   -2.484637
    126          8           0        3.750928   -1.900627   -2.553951
    127          1           0        2.334165   -2.032566   -0.368551
    128          1           0        3.359296   -4.714402   -0.871603
    129          1           0        2.374966   -3.453999   -2.856213
    130          1           0        3.936636   -3.859898   -3.204542
    131          1           0        2.978721   -1.341121   -2.465919
    132          7           0        5.914939   -4.207873   -1.200114
    133          6           0        7.312489   -4.123885   -0.829710
    134          6           0        7.878096   -2.767813   -1.229157
    135          8           0        8.624541   -2.138310   -0.488518
    136          6           0        8.029192   -5.189611   -1.656430
    137          1           0        5.692283   -4.910456   -1.887791
    138          1           0        7.341643   -4.259725    0.248481
    139          1           0        9.071704   -5.177476   -1.353742
    140          1           0        7.511727   -6.142281   -1.510654
    141          1           0        7.999631   -4.964140   -2.718310
    142          7           0        7.543028   -2.169439   -2.385954
    143          6           0        7.784089   -0.763228   -2.652147
    144          6           0        7.222647    0.225162   -1.641816
    145          8           0        7.963324    1.111917   -1.223649
    146          6           0        7.358901   -0.472248   -4.083876
    147          1           0        6.806094   -2.603245   -2.920408
    148          1           0        8.864673   -0.712598   -2.529372
    149          1           0        7.570836    0.525566   -4.466957
    150          1           0        7.724620   -1.194821   -4.806397
    151          1           0        6.278644   -0.589441   -4.165797
    152          7           0        6.025388   -0.035895   -1.120071
    153          6           0        5.454243    0.820159   -0.100088
    154          6           0        6.004206    0.646218    1.310829
    155          8           0        6.112149    1.610982    2.069235
    156          6           0        3.942309    0.641121   -0.085937
    157          6           0        3.246995    1.343452   -1.246700
    158          6           0        1.841581    0.756645   -1.349502
    159          8           0        1.642055   -0.177419   -2.162406
    160          8           0        0.885953    1.184703   -0.678650
    161          1           0        5.441423   -0.702427   -1.604138
    162          1           0        5.732484    1.845851   -0.303652
    163          1           0        3.526691    1.017044    0.848110
    164          1           0        3.727586   -0.425086   -0.032119
    165          1           0        3.742846    1.151628   -2.197192
    166          1           0        3.137348    2.425056   -1.135753
    167          7           0        6.492013   -0.540693    1.659235
    168          6           0        7.366784   -0.836891    2.787571
    169          1           0        8.352440   -0.409186    2.604648
    170          1           0        6.947800   -0.405200    3.696487
    171          1           0        7.455890   -1.917070    2.905528
    172          1           0        6.212196   -1.308031    1.062330
    173         20           0       -1.219824    0.201528   -1.563617
    174          8           0       -0.454547   -2.403063   -2.056218
    175          1           0       -0.109958   -3.230749   -1.723512
    176          1           0       -0.619335   -2.572827   -2.985048
 ---------------------------------------------------------------------
 Rotational constants (GHZ):           0.0216862           0.0157569           0.0111583
 Standard basis: SVP (5D, 7F)
 There are  1809 symmetry adapted cartesian basis functions of A   symmetry.
 There are  1717 symmetry adapted basis functions of A   symmetry.
  1717 basis functions,  2922 primitive gaussians,  1809 cartesian basis functions
   358 alpha electrons      358 beta electrons
       nuclear repulsion energy     21663.7800454874 Hartrees.
 NAtoms=  176 NActive=  176 NUniq=  176 SFac= 1.00D+00 NAtFMM=   60 NAOKFM=T Big=T
 Integral buffers will be    131072 words long.
 Raffenetti 2 integral format.
 Two-electron integral symmetry is turned on.
 One-electron integrals computed using PRISM.
 NBasis=  1717 RedAO= T EigKep=  2.67D-04  NBF=  1717
 NBsUse=  1717 1.00D-06 EigRej= -1.00D+00 NBFU=  1717
 ExpMin= 1.98D-02 ExpMax= 3.51D+04 ExpMxC= 5.28D+03 IAcc=3 IRadAn=         5 AccDes= 0.00D+00
 Harris functional with IExCor=  402 and IRadAn=       5 diagonalized for initial guess.
 HarFok:  IExCor=  402 AccDes= 0.00D+00 IRadAn=         5 IDoV= 1 UseB2=F ITyADJ=14
 ICtDFT=  3500011 ScaDFX=  1.000000  1.000000  1.000000  1.000000
 FoFCou: FMM=F IPFlag=           0 FMFlag=      100000 FMFlg1=        2001
         NFxFlg=           0 DoJE=T BraDBF=F KetDBF=T FulRan=T
         wScrn=  0.000000 ICntrl=       500 IOpCl=  0 I1Cent=   200000004 NGrid=           0
         NMat0=    1 NMatS0=      1 NMatT0=    0 NMatD0=    1 NMtDS0=    0 NMtDT0=    0
 Petite list used in FoFCou.
 Requested convergence on RMS density matrix=1.00D-08 within 128 cycles.
 Requested convergence on MAX density matrix=1.00D-06.
 Requested convergence on             energy=1.00D-06.
 No special actions if energy rises.
 EnCoef did     1 forward-backward iterations
 SCF Done:  E(RB3LYP) =  -5333.59332266     A.U. after   16 cycles
            NFock= 16  Conv=0.28D-08     -V/T= 2.0082
 SCF density gives NOpUse=  1 NOpAll=  1.
 Hyperfine terms turned off by default for NAtoms > 100.

 **********************************************************************

            Population analysis using the SCF density.

 **********************************************************************

 Orbital symmetries:
 BldTbl:  Degeneracy threshold= 1.00D-02
       Occupied  (A) (A) (A) (A) (A) (A) (A) (A) (A) (A) (A) (A)
                 (A) (A) (A) (A) (A) (A) (A) (A) (A) (A) (A) (A)
                 (A) (A) (A) (A) (A) (A) (A) (A) (A) (A) (A) (A)
                 (A) (A) (A) (A) (A) (A) (A) (A) (A) (A) (A) (A)
                 (A) (A) (A) (A) (A) (A) (A) (A) (A) (A) (A) (A)
                 (A) (A) (A) (A) (A) (A) (A) (A) (A) (A) (A) (A)
                 (A) (A) (A) (A) (A) (A) (A) (A) (A) (A) (A) (A)
                 (A) (A) (A) (A) (A) (A) (A) (A) (A) (A) (A) (A)
                 (A) (A) (A) (A) (A) (A) (A) (A) (A) (A) (A) (A)
                 (A) (A) (A) (A) (A) (A) (A) (A) (A) (A) (A) (A)
                 (A) (A) (A) (A) (A) (A) (A) (A) (A) (A) (A) (A)
                 (A) (A) (A) (A) (A) (A) (A) (A) (A) (A) (A) (A)
                 (A) (A) (A) (A) (A) (A) (A) (A) (A) (A) (A) (A)
                 (A) (A) (A) (A) (A) (A) (A) (A) (A) (A) (A) (A)
                 (A) (A) (A) (A) (A) (A) (A) (A) (A) (A) (A) (A)
                 (A) (A) (A) (A) (A) (A) (A) (A) (A) (A) (A) (A)
                 (A) (A) (A) (A) (A) (A) (A) (A) (A) (A) (A) (A)
                 (A) (A) (A) (A) (A) (A) (A) (A) (A) (A) (A) (A)
                 (A) (A) (A) (A) (A) (A) (A) (A) (A) (A) (A) (A)
                 (A) (A) (A) (A) (A) (A) (A) (A) (A) (A) (A) (A)
                 (A) (A) (A) (A) (A) (A) (A) (A) (A) (A) (A) (A)
                 (A) (A) (A) (A) (A) (A) (A) (A) (A) (A) (A) (A)
                 (A) (A) (A) (A) (A) (A) (A) (A) (A) (A) (A) (A)
                 (A) (A) (A) (A) (A) (A) (A) (A) (A) (A) (A) (A)
                 (A) (A) (A) (A) (A) (A) (A) (A) (A) (A) (A) (A)
                 (A) (A) (A) (A) (A) (A) (A) (A) (A) (A) (A) (A)
                 (A) (A) (A) (A) (A) (A) (A) (A) (A) (A) (A) (A)
                 (A) (A) (A) (A) (A) (A) (A) (A) (A) (A) (A) (A)
                 (A) (A) (A) (A) (A) (A) (A) (A) (A) (A) (A) (A)
                 (A) (A) (A) (A) (A) (A) (A) (A) (A) (A)
       Virtual   (A) (A) (A) (A) (A) (A) (A) (A) (A) (A) (A) (A)
                 (A) (A) (A) (A) (A) (A) (A) (A) (A) (A) (A) (A)
                 (A) (A) (A) (A) (A) (A) (A) (A) (A) (A) (A) (A)
                 (A) (A) (A) (A) (A) (A) (A) (A) (A) (A) (A) (A)
                 (A) (A) (A) (A) (A) (A) (A) (A) (A) (A) (A) (A)
                 (A) (A) (A) (A) (A) (A) (A) (A) (A) (A) (A) (A)
                 (A) (A) (A) (A) (A) (A) (A) (A) (A) (A) (A) (A)
                 (A) (A) (A) (A) (A) (A) (A) (A) (A) (A) (A) (A)
                 (A) (A) (A) (A) (A) (A) (A) (A) (A) (A) (A) (A)
                 (A) (A) (A) (A) (A) (A) (A) (A) (A) (A) (A) (A)
                 (A) (A) (A) (A) (A) (A) (A) (A) (A) (A) (A) (A)
                 (A) (A) (A) (A) (A) (A) (A) (A) (A) (A) (A) (A)
                 (A) (A) (A) (A) (A) (A) (A) (A) (A) (A) (A) (A)
                 (A) (A) (A) (A) (A) (A) (A) (A) (A) (A) (A) (A)
                 (A) (A) (A) (A) (A) (A) (A) (A) (A) (A) (A) (A)
                 (A) (A) (A) (A) (A) (A) (A) (A) (A) (A) (A) (A)
                 (A) (A) (A) (A) (A) (A) (A) (A) (A) (A) (A) (A)
                 (A) (A) (A) (A) (A) (A) (A) (A) (A) (A) (A) (A)
                 (A) (A) (A) (A) (A) (A) (A) (A) (A) (A) (A) (A)
                 (A) (A) (A) (A) (A) (A) (A) (A) (A) (A) (A) (A)
                 (A) (A) (A) (A) (A) (A) (A) (A) (A) (A) (A) (A)
                 (A) (A) (A) (A) (A) (A) (A) (A) (A) (A) (A) (A)
                 (A) (A) (A) (A) (A) (A) (A) (A) (A) (A) (A) (A)
                 (A) (A) (A) (A) (A) (A) (A) (A) (A) (A) (A) (A)
                 (A) (A) (A) (A) (A) (A) (A) (A) (A) (A) (A) (A)
                 (A) (A) (A) (A) (A) (A) (A) (A) (A) (A) (A) (A)
                 (A) (A) (A) (A) (A) (A) (A) (A) (A) (A) (A) (A)
                 (A) (A) (A) (A) (A) (A) (A) (A) (A) (A) (A) (A)
                 (A) (A) (A) (A) (A) (A) (A) (A) (A) (A) (A) (A)
                 (A) (A) (A) (A) (A) (A) (A) (A) (A) (A) (A) (A)
                 (A) (A) (A) (A) (A) (A) (A) (A) (A) (A) (A) (A)
                 (A) (A) (A) (A) (A) (A) (A) (A) (A) (A) (A) (A)
                 (A) (A) (A) (A) (A) (A) (A) (A) (A) (A) (A) (A)
                 (A) (A) (A) (A) (A) (A) (A) (A) (A) (A) (A) (A)
                 (A) (A) (A) (A) (A) (A) (A) (A) (A) (A) (A) (A)
                 (A) (A) (A) (A) (A) (A) (A) (A) (A) (A) (A) (A)
                 (A) (A) (A) (A) (A) (A) (A) (A) (A) (A) (A) (A)
                 (A) (A) (A) (A) (A) (A) (A) (A) (A) (A) (A) (A)
                 (A) (A) (A) (A) (A) (A) (A) (A) (A) (A) (A) (A)
                 (A) (A) (A) (A) (A) (A) (A) (A) (A) (A) (A) (A)
                 (A) (A) (A) (A) (A) (A) (A) (A) (A) (A) (A) (A)
                 (A) (A) (A) (A) (A) (A) (A) (A) (A) (A) (A) (A)
                 (A) (A) (A) (A) (A) (A) (A) (A) (A) (A) (A) (A)
                 (A) (A) (A) (A) (A) (A) (A) (A) (A) (A) (A) (A)
                 (A) (A) (A) (A) (A) (A) (A) (A) (A) (A) (A) (A)
                 (A) (A) (A) (A) (A) (A) (A) (A) (A) (A) (A) (A)
                 (A) (A) (A) (A) (A) (A) (A) (A) (A) (A) (A) (A)
                 (A) (A) (A) (A) (A) (A) (A) (A) (A) (A) (A) (A)
                 (A) (A) (A) (A) (A) (A) (A) (A) (A) (A) (A) (A)
                 (A) (A) (A) (A) (A) (A) (A) (A) (A) (A) (A) (A)
                 (A) (A) (A) (A) (A) (A) (A) (A) (A) (A) (A) (A)
                 (A) (A) (A) (A) (A) (A) (A) (A) (A) (A) (A) (A)
                 (A) (A) (A) (A) (A) (A) (A) (A) (A) (A) (A) (A)
                 (A) (A) (A) (A) (A) (A) (A) (A) (A) (A) (A) (A)
                 (A) (A) (A) (A) (A) (A) (A) (A) (A) (A) (A) (A)
                 (A) (A) (A) (A) (A) (A) (A) (A) (A) (A) (A) (A)
                 (A) (A) (A) (A) (A) (A) (A) (A) (A) (A) (A) (A)
                 (A) (A) (A) (A) (A) (A) (A) (A) (A) (A) (A) (A)
                 (A) (A) (A) (A) (A) (A) (A) (A) (A) (A) (A) (A)
                 (A) (A) (A) (A) (A) (A) (A) (A) (A) (A) (A) (A)
                 (A) (A) (A) (A) (A) (A) (A) (A) (A) (A) (A) (A)
                 (A) (A) (A) (A) (A) (A) (A) (A) (A) (A) (A) (A)
                 (A) (A) (A) (A) (A) (A) (A) (A) (A) (A) (A) (A)
                 (A) (A) (A) (A) (A) (A) (A) (A) (A) (A) (A) (A)
                 (A) (A) (A) (A) (A) (A) (A) (A) (A) (A) (A) (A)
                 (A) (A) (A) (A) (A) (A) (A) (A) (A) (A) (A) (A)
                 (A) (A) (A) (A) (A) (A) (A) (A) (A) (A) (A) (A)
                 (A) (A) (A) (A) (A) (A) (A) (A) (A) (A) (A) (A)
                 (A) (A) (A) (A) (A) (A) (A) (A) (A) (A) (A) (A)
                 (A) (A) (A) (A) (A) (A) (A) (A) (A) (A) (A) (A)
                 (A) (A) (A) (A) (A) (A) (A) (A) (A) (A) (A) (A)
                 (A) (A) (A) (A) (A) (A) (A) (A) (A) (A) (A) (A)
                 (A) (A) (A) (A) (A) (A) (A) (A) (A) (A) (A) (A)
                 (A) (A) (A) (A) (A) (A) (A) (A) (A) (A) (A) (A)
                 (A) (A) (A) (A) (A) (A) (A) (A) (A) (A) (A) (A)
                 (A) (A) (A) (A) (A) (A) (A) (A) (A) (A) (A) (A)
                 (A) (A) (A) (A) (A) (A) (A) (A) (A) (A) (A) (A)
                 (A) (A) (A) (A) (A) (A) (A) (A) (A) (A) (A) (A)
                 (A) (A) (A) (A) (A) (A) (A) (A) (A) (A) (A) (A)
                 (A) (A) (A) (A) (A) (A) (A) (A) (A) (A) (A) (A)
                 (A) (A) (A) (A) (A) (A) (A) (A) (A) (A) (A) (A)
                 (A) (A) (A) (A) (A) (A) (A) (A) (A) (A) (A) (A)
                 (A) (A) (A) (A) (A) (A) (A) (A) (A) (A) (A) (A)
                 (A) (A) (A) (A) (A) (A) (A) (A) (A) (A) (A) (A)
                 (A) (A) (A) (A) (A) (A) (A) (A) (A) (A) (A) (A)
                 (A) (A) (A) (A) (A) (A) (A) (A) (A) (A) (A) (A)
                 (A) (A) (A) (A) (A) (A) (A) (A) (A) (A) (A) (A)
                 (A) (A) (A) (A) (A) (A) (A) (A) (A) (A) (A) (A)
                 (A) (A) (A) (A) (A) (A) (A) (A) (A) (A) (A) (A)
                 (A) (A) (A) (A) (A) (A) (A) (A) (A) (A) (A) (A)
                 (A) (A) (A) (A) (A) (A) (A) (A) (A) (A) (A) (A)
                 (A) (A) (A) (A) (A) (A) (A) (A) (A) (A) (A) (A)
                 (A) (A) (A) (A) (A) (A) (A) (A) (A) (A) (A) (A)
                 (A) (A) (A) (A) (A) (A) (A) (A) (A) (A) (A) (A)
                 (A) (A) (A) (A) (A) (A) (A) (A) (A) (A) (A) (A)
                 (A) (A) (A) (A) (A) (A) (A) (A) (A) (A) (A) (A)
                 (A) (A) (A) (A) (A) (A) (A) (A) (A) (A) (A) (A)
                 (A) (A) (A) (A) (A) (A) (A) (A) (A) (A) (A) (A)
                 (A) (A) (A) (A) (A) (A) (A) (A) (A) (A) (A) (A)
                 (A) (A) (A) (A) (A) (A) (A) (A) (A) (A) (A) (A)
                 (A) (A) (A) (A) (A) (A) (A) (A) (A) (A) (A) (A)
                 (A) (A) (A) (A) (A) (A) (A) (A) (A) (A) (A) (A)
                 (A) (A) (A) (A) (A) (A) (A) (A) (A) (A) (A) (A)
                 (A) (A) (A) (A) (A) (A) (A) (A) (A) (A) (A) (A)
                 (A) (A) (A) (A) (A) (A) (A) (A) (A) (A) (A) (A)
                 (A) (A) (A) (A) (A) (A) (A) (A) (A) (A) (A) (A)
                 (A) (A) (A) (A) (A) (A) (A) (A) (A) (A) (A) (A)
                 (A) (A) (A) (A) (A) (A) (A) (A) (A) (A) (A) (A)
                 (A) (A) (A) (A) (A) (A) (A) (A) (A) (A) (A) (A)
                 (A) (A) (A) (A) (A) (A) (A) (A) (A) (A) (A) (A)
                 (A) (A) (A) (A) (A) (A) (A) (A) (A) (A) (A) (A)
                 (A) (A) (A) (A) (A) (A) (A) (A) (A) (A) (A) (A)
                 (A) (A) (A) (A) (A) (A) (A) (A) (A) (A) (A) (A)
                 (A) (A) (A)
 The electronic state is 1-A.
 Alpha  occ. eigenvalues -- -145.37630 -19.20204 -19.14360 -19.13639 -19.13118
 Alpha  occ. eigenvalues --  -19.12499 -19.12421 -19.11255 -19.09377 -19.08739
 Alpha  occ. eigenvalues --  -19.08085 -19.07841 -19.07513 -19.07239 -19.07217
 Alpha  occ. eigenvalues --  -19.05315 -19.05164 -19.04701 -19.04652 -19.04439
 Alpha  occ. eigenvalues --  -19.03606 -19.03140 -19.03092 -19.02869 -15.43362
 Alpha  occ. eigenvalues --  -14.58519 -14.39003 -14.37720 -14.37592 -14.37373
 Alpha  occ. eigenvalues --  -14.35544 -14.34696 -14.33255 -14.33074 -14.32567
 Alpha  occ. eigenvalues --  -14.31821 -14.30050 -14.29649 -14.29027 -14.28891
 Alpha  occ. eigenvalues --  -12.56992 -12.56928 -12.56922 -10.35574 -10.31546
 Alpha  occ. eigenvalues --  -10.30670 -10.30541 -10.29899 -10.28394 -10.27677
 Alpha  occ. eigenvalues --  -10.27320 -10.26814 -10.26701 -10.26280 -10.26220
 Alpha  occ. eigenvalues --  -10.25851 -10.25610 -10.25579 -10.24550 -10.24298
 Alpha  occ. eigenvalues --  -10.23776 -10.23596 -10.23400 -10.23100 -10.23066
 Alpha  occ. eigenvalues --  -10.22750 -10.22659 -10.22646 -10.22552 -10.22404
 Alpha  occ. eigenvalues --  -10.22071 -10.21795 -10.20828 -10.20228 -10.19955
 Alpha  occ. eigenvalues --  -10.19735 -10.19607 -10.19237 -10.19138 -10.18908
 Alpha  occ. eigenvalues --  -10.18715 -10.18620 -10.18530 -10.18524 -10.17653
 Alpha  occ. eigenvalues --  -10.17623 -10.17065 -10.17030 -10.16875 -10.16738
 Alpha  occ. eigenvalues --  -10.16698 -10.16515 -10.16425 -10.16326 -10.16147
 Alpha  occ. eigenvalues --  -10.15566 -10.15483  -1.80165  -1.14110  -1.07914
 Alpha  occ. eigenvalues --   -1.07561  -1.07503  -1.06287  -1.06114  -1.05136
 Alpha  occ. eigenvalues --   -1.04716  -1.04348  -1.03212  -1.03057  -1.02354
 Alpha  occ. eigenvalues --   -1.02349  -1.01921  -1.00959  -1.00237  -1.00203
 Alpha  occ. eigenvalues --   -0.99228  -0.99063  -0.98686  -0.98038  -0.97525
 Alpha  occ. eigenvalues --   -0.96985  -0.95970  -0.95846  -0.94489  -0.93925
 Alpha  occ. eigenvalues --   -0.92537  -0.91963  -0.91896  -0.91336  -0.90811
 Alpha  occ. eigenvalues --   -0.90053  -0.89371  -0.89277  -0.88969  -0.88927
 Alpha  occ. eigenvalues --   -0.88007  -0.87318  -0.86345  -0.86061  -0.85220
 Alpha  occ. eigenvalues --   -0.82645  -0.82240  -0.81925  -0.81448  -0.78475
 Alpha  occ. eigenvalues --   -0.77774  -0.77546  -0.77158  -0.76035  -0.75960
 Alpha  occ. eigenvalues --   -0.75477  -0.74949  -0.74389  -0.73322  -0.72080
 Alpha  occ. eigenvalues --   -0.71571  -0.71558  -0.70682  -0.70410  -0.70324
 Alpha  occ. eigenvalues --   -0.69229  -0.68873  -0.67998  -0.67718  -0.67559
 Alpha  occ. eigenvalues --   -0.66582  -0.65276  -0.64986  -0.64365  -0.64177
 Alpha  occ. eigenvalues --   -0.63960  -0.63677  -0.62734  -0.62042  -0.61389
 Alpha  occ. eigenvalues --   -0.61099  -0.60428  -0.60189  -0.60109  -0.59754
 Alpha  occ. eigenvalues --   -0.59540  -0.59286  -0.59088  -0.57445  -0.57348
 Alpha  occ. eigenvalues --   -0.57283  -0.56736  -0.56663  -0.56472  -0.56168
 Alpha  occ. eigenvalues --   -0.55577  -0.55261  -0.55103  -0.55005  -0.54612
 Alpha  occ. eigenvalues --   -0.54169  -0.53811  -0.53690  -0.53315  -0.53302
 Alpha  occ. eigenvalues --   -0.52511  -0.52084  -0.51807  -0.51341  -0.51316
 Alpha  occ. eigenvalues --   -0.50977  -0.50724  -0.50299  -0.49872  -0.49609
 Alpha  occ. eigenvalues --   -0.49468  -0.49136  -0.48687  -0.48512  -0.48411
 Alpha  occ. eigenvalues --   -0.47965  -0.47677  -0.47530  -0.47400  -0.47154
 Alpha  occ. eigenvalues --   -0.47043  -0.46741  -0.46525  -0.46250  -0.46132
 Alpha  occ. eigenvalues --   -0.46054  -0.45953  -0.45514  -0.45374  -0.44993
 Alpha  occ. eigenvalues --   -0.44707  -0.44547  -0.44272  -0.44141  -0.43911
 Alpha  occ. eigenvalues --   -0.43752  -0.43556  -0.43520  -0.43497  -0.43206
 Alpha  occ. eigenvalues --   -0.43156  -0.43025  -0.42770  -0.42644  -0.42469
 Alpha  occ. eigenvalues --   -0.42346  -0.42171  -0.42057  -0.41772  -0.41686
 Alpha  occ. eigenvalues --   -0.41511  -0.41358  -0.41234  -0.41040  -0.40869
 Alpha  occ. eigenvalues --   -0.40745  -0.40591  -0.40306  -0.40219  -0.39976
 Alpha  occ. eigenvalues --   -0.39919  -0.39874  -0.39829  -0.39699  -0.39635
 Alpha  occ. eigenvalues --   -0.39468  -0.39367  -0.39205  -0.38982  -0.38891
 Alpha  occ. eigenvalues --   -0.38820  -0.38634  -0.38505  -0.38440  -0.38302
 Alpha  occ. eigenvalues --   -0.38189  -0.38121  -0.38039  -0.37963  -0.37800
 Alpha  occ. eigenvalues --   -0.37620  -0.37556  -0.37239  -0.37135  -0.36950
 Alpha  occ. eigenvalues --   -0.36756  -0.36488  -0.36264  -0.35951  -0.35900
 Alpha  occ. eigenvalues --   -0.35822  -0.35640  -0.35514  -0.35304  -0.35093
 Alpha  occ. eigenvalues --   -0.34977  -0.34812  -0.34794  -0.34682  -0.34459
 Alpha  occ. eigenvalues --   -0.34193  -0.34066  -0.33618  -0.33384  -0.33340
 Alpha  occ. eigenvalues --   -0.33198  -0.32929  -0.32894  -0.32601  -0.32532
 Alpha  occ. eigenvalues --   -0.32068  -0.31462  -0.31390  -0.31287  -0.31005
 Alpha  occ. eigenvalues --   -0.30766  -0.30718  -0.30570  -0.30312  -0.30292
 Alpha  occ. eigenvalues --   -0.29696  -0.29164  -0.29001  -0.28395  -0.27837
 Alpha  occ. eigenvalues --   -0.27542  -0.27029  -0.26934  -0.26518  -0.25996
 Alpha  occ. eigenvalues --   -0.25587  -0.25336  -0.24890  -0.24847  -0.24721
 Alpha  occ. eigenvalues --   -0.24538  -0.23852  -0.23359  -0.23146  -0.22937
 Alpha  occ. eigenvalues --   -0.22818  -0.22692  -0.22641  -0.22544  -0.22343
 Alpha  occ. eigenvalues --   -0.22256  -0.21841  -0.21312  -0.20915  -0.20900
 Alpha  occ. eigenvalues --   -0.20342  -0.20272  -0.19752  -0.19424  -0.19323
 Alpha  occ. eigenvalues --   -0.19063  -0.18364  -0.17446
 Alpha virt. eigenvalues --   -0.10464  -0.04968  -0.04285  -0.03770  -0.01547
 Alpha virt. eigenvalues --   -0.01066  -0.00934   0.00311   0.00539   0.00700
 Alpha virt. eigenvalues --    0.00740   0.01228   0.02024   0.02319   0.02520
 Alpha virt. eigenvalues --    0.02766   0.02961   0.03183   0.03746   0.04065
 Alpha virt. eigenvalues --    0.04143   0.04489   0.04893   0.05027   0.05313
 Alpha virt. eigenvalues --    0.05429   0.05781   0.05912   0.06136   0.06305
 Alpha virt. eigenvalues --    0.06637   0.06906   0.06971   0.07036   0.07124
 Alpha virt. eigenvalues --    0.07296   0.07517   0.07806   0.07908   0.08041
 Alpha virt. eigenvalues --    0.08239   0.08355   0.08565   0.08684   0.08949
 Alpha virt. eigenvalues --    0.09284   0.09696   0.09933   0.10012   0.10182
 Alpha virt. eigenvalues --    0.10325   0.10710   0.11097   0.11149   0.11379
 Alpha virt. eigenvalues --    0.11474   0.11581   0.11691   0.11972   0.12321
 Alpha virt. eigenvalues --    0.12444   0.12553   0.12744   0.12848   0.12957
 Alpha virt. eigenvalues --    0.13207   0.13387   0.13514   0.13602   0.13651
 Alpha virt. eigenvalues --    0.13800   0.14348   0.14395   0.14558   0.14591
 Alpha virt. eigenvalues --    0.14806   0.15036   0.15372   0.15536   0.15930
 Alpha virt. eigenvalues --    0.16042   0.16194   0.16333   0.16407   0.16591
 Alpha virt. eigenvalues --    0.16649   0.16765   0.16961   0.17061   0.17322
 Alpha virt. eigenvalues --    0.17549   0.17650   0.17681   0.17953   0.17972
 Alpha virt. eigenvalues --    0.18163   0.18299   0.18450   0.18760   0.18857
 Alpha virt. eigenvalues --    0.18990   0.19163   0.19175   0.19390   0.19580
 Alpha virt. eigenvalues --    0.19988   0.20044   0.20463   0.20555   0.20708
 Alpha virt. eigenvalues --    0.21022   0.21097   0.21348   0.21610   0.21701
 Alpha virt. eigenvalues --    0.21764   0.22289   0.22417   0.22610   0.22833
 Alpha virt. eigenvalues --    0.23030   0.23244   0.23312   0.23539   0.23727
 Alpha virt. eigenvalues --    0.24010   0.24186   0.24506   0.24614   0.24712
 Alpha virt. eigenvalues --    0.25068   0.25400   0.25517   0.25590   0.25962
 Alpha virt. eigenvalues --    0.26205   0.26304   0.26711   0.26978   0.27096
 Alpha virt. eigenvalues --    0.27212   0.27518   0.27553   0.27821   0.27946
 Alpha virt. eigenvalues --    0.28398   0.28658   0.28833   0.29255   0.29305
 Alpha virt. eigenvalues --    0.29370   0.29947   0.30535   0.31060   0.31111
 Alpha virt. eigenvalues --    0.31322   0.31728   0.31850   0.32157   0.32335
 Alpha virt. eigenvalues --    0.32488   0.32627   0.32685   0.32971   0.33092
 Alpha virt. eigenvalues --    0.33270   0.33404   0.33554   0.33698   0.33922
 Alpha virt. eigenvalues --    0.34242   0.34466   0.35143   0.35445   0.35904
 Alpha virt. eigenvalues --    0.36155   0.36479   0.36927   0.37163   0.37483
 Alpha virt. eigenvalues --    0.37644   0.37877   0.37949   0.38060   0.38918
 Alpha virt. eigenvalues --    0.39019   0.39345   0.39569   0.39692   0.39733
 Alpha virt. eigenvalues --    0.40237   0.40541   0.40636   0.40862   0.41320
 Alpha virt. eigenvalues --    0.41354   0.42049   0.42400   0.42572   0.42667
 Alpha virt. eigenvalues --    0.43029   0.43048   0.43263   0.43470   0.43646
 Alpha virt. eigenvalues --    0.43798   0.44220   0.44694   0.44736   0.45105
 Alpha virt. eigenvalues --    0.45225   0.45421   0.45446   0.45808   0.45959
 Alpha virt. eigenvalues --    0.46031   0.46335   0.46430   0.46586   0.46640
 Alpha virt. eigenvalues --    0.46668   0.47097   0.47315   0.47552   0.47715
 Alpha virt. eigenvalues --    0.47791   0.47853   0.47967   0.48328   0.48469
 Alpha virt. eigenvalues --    0.48688   0.48829   0.48948   0.49238   0.49419
 Alpha virt. eigenvalues --    0.49452   0.49602   0.49724   0.50181   0.50349
 Alpha virt. eigenvalues --    0.50528   0.50922   0.51029   0.51207   0.51455
 Alpha virt. eigenvalues --    0.51714   0.51912   0.52014   0.52086   0.52634
 Alpha virt. eigenvalues --    0.52695   0.53115   0.53247   0.53637   0.53782
 Alpha virt. eigenvalues --    0.53826   0.53963   0.54092   0.54440   0.54550
 Alpha virt. eigenvalues --    0.54756   0.54854   0.55030   0.55424   0.55534
 Alpha virt. eigenvalues --    0.55738   0.55877   0.56098   0.56402   0.56577
 Alpha virt. eigenvalues --    0.56706   0.56803   0.56920   0.57110   0.57169
 Alpha virt. eigenvalues --    0.57353   0.57612   0.57670   0.57900   0.58090
 Alpha virt. eigenvalues --    0.58165   0.58444   0.58519   0.58754   0.58902
 Alpha virt. eigenvalues --    0.59038   0.59148   0.59255   0.59446   0.59579
 Alpha virt. eigenvalues --    0.59624   0.59978   0.60042   0.60263   0.60523
 Alpha virt. eigenvalues --    0.60690   0.60896   0.61017   0.61187   0.61403
 Alpha virt. eigenvalues --    0.61642   0.61761   0.61886   0.62248   0.62306
 Alpha virt. eigenvalues --    0.62476   0.62554   0.62723   0.62801   0.63003
 Alpha virt. eigenvalues --    0.63145   0.63169   0.63377   0.63519   0.63591
 Alpha virt. eigenvalues --    0.63673   0.63830   0.63851   0.63889   0.64137
 Alpha virt. eigenvalues --    0.64199   0.64494   0.64511   0.64753   0.64813
 Alpha virt. eigenvalues --    0.65072   0.65164   0.65176   0.65268   0.65476
 Alpha virt. eigenvalues --    0.65633   0.65679   0.65770   0.65830   0.66050
 Alpha virt. eigenvalues --    0.66097   0.66163   0.66222   0.66334   0.66471
 Alpha virt. eigenvalues --    0.66597   0.66720   0.66763   0.66934   0.67081
 Alpha virt. eigenvalues --    0.67184   0.67448   0.67531   0.67601   0.67731
 Alpha virt. eigenvalues --    0.67742   0.67856   0.67905   0.68037   0.68221
 Alpha virt. eigenvalues --    0.68278   0.68397   0.68601   0.68711   0.68797
 Alpha virt. eigenvalues --    0.68909   0.69114   0.69172   0.69372   0.69406
 Alpha virt. eigenvalues --    0.69594   0.69725   0.69774   0.69908   0.69977
 Alpha virt. eigenvalues --    0.70257   0.70377   0.70408   0.70479   0.70706
 Alpha virt. eigenvalues --    0.70957   0.71014   0.71082   0.71161   0.71344
 Alpha virt. eigenvalues --    0.71488   0.71567   0.71778   0.71864   0.71994
 Alpha virt. eigenvalues --    0.72028   0.72201   0.72299   0.72363   0.72492
 Alpha virt. eigenvalues --    0.72672   0.72995   0.73150   0.73214   0.73297
 Alpha virt. eigenvalues --    0.73500   0.73635   0.73884   0.73975   0.74245
 Alpha virt. eigenvalues --    0.74371   0.74550   0.74776   0.74881   0.75185
 Alpha virt. eigenvalues --    0.75371   0.75519   0.75655   0.76125   0.76422
 Alpha virt. eigenvalues --    0.76533   0.76713   0.77003   0.77028   0.77250
 Alpha virt. eigenvalues --    0.77356   0.77641   0.78037   0.78199   0.78355
 Alpha virt. eigenvalues --    0.78599   0.78658   0.78877   0.78986   0.79287
 Alpha virt. eigenvalues --    0.79386   0.79708   0.79887   0.80227   0.80275
 Alpha virt. eigenvalues --    0.80497   0.81094   0.81215   0.81353   0.81743
 Alpha virt. eigenvalues --    0.82313   0.82479   0.82651   0.82949   0.83167
 Alpha virt. eigenvalues --    0.83334   0.83380   0.84355   0.84611   0.84730
 Alpha virt. eigenvalues --    0.85013   0.85265   0.85391   0.85494   0.86084
 Alpha virt. eigenvalues --    0.86398   0.86882   0.87162   0.87421   0.87603
 Alpha virt. eigenvalues --    0.87945   0.88540   0.88800   0.88951   0.89145
 Alpha virt. eigenvalues --    0.89574   0.89716   0.89905   0.90106   0.90338
 Alpha virt. eigenvalues --    0.90411   0.90901   0.91110   0.91613   0.91787
 Alpha virt. eigenvalues --    0.92025   0.92353   0.92625   0.93132   0.93250
 Alpha virt. eigenvalues --    0.93561   0.93823   0.94212   0.95248   0.95445
 Alpha virt. eigenvalues --    0.95662   0.95901   0.96049   0.96545   0.96699
 Alpha virt. eigenvalues --    0.96910   0.97119   0.97519   0.97848   0.97948
 Alpha virt. eigenvalues --    0.98024   0.98266   0.98708   0.98807   0.98933
 Alpha virt. eigenvalues --    0.99234   0.99388   0.99925   1.00328   1.00574
 Alpha virt. eigenvalues --    1.00913   1.01495   1.01766   1.01882   1.02033
 Alpha virt. eigenvalues --    1.02253   1.02825   1.03524   1.03665   1.03743
 Alpha virt. eigenvalues --    1.04117   1.04385   1.04515   1.04606   1.04750
 Alpha virt. eigenvalues --    1.05054   1.05917   1.06242   1.06668   1.06774
 Alpha virt. eigenvalues --    1.07126   1.07471   1.07669   1.07886   1.08198
 Alpha virt. eigenvalues --    1.08513   1.08707   1.08895   1.09370   1.09742
 Alpha virt. eigenvalues --    1.09942   1.10168   1.10492   1.10788   1.10981
 Alpha virt. eigenvalues --    1.11479   1.11618   1.12069   1.12154   1.12449
 Alpha virt. eigenvalues --    1.12680   1.12958   1.13033   1.13371   1.13694
 Alpha virt. eigenvalues --    1.13965   1.14118   1.14596   1.14752   1.15069
 Alpha virt. eigenvalues --    1.15163   1.15582   1.15689   1.15889   1.16375
 Alpha virt. eigenvalues --    1.16560   1.16958   1.17205   1.17526   1.17669
 Alpha virt. eigenvalues --    1.18046   1.18285   1.18558   1.18770   1.19075
 Alpha virt. eigenvalues --    1.19310   1.19665   1.19835   1.20039   1.20121
 Alpha virt. eigenvalues --    1.20372   1.20524   1.21181   1.21549   1.21598
 Alpha virt. eigenvalues --    1.21823   1.22029   1.22260   1.22529   1.22804
 Alpha virt. eigenvalues --    1.23083   1.23324   1.23485   1.23861   1.24044
 Alpha virt. eigenvalues --    1.24460   1.24837   1.25023   1.25177   1.25470
 Alpha virt. eigenvalues --    1.25830   1.26411   1.26541   1.26754   1.26942
 Alpha virt. eigenvalues --    1.27097   1.27605   1.27902   1.28208   1.28347
 Alpha virt. eigenvalues --    1.28682   1.28858   1.29227   1.29524   1.29661
 Alpha virt. eigenvalues --    1.30254   1.30438   1.30832   1.30934   1.31044
 Alpha virt. eigenvalues --    1.31514   1.31812   1.32000   1.32413   1.32768
 Alpha virt. eigenvalues --    1.32893   1.33325   1.33514   1.33990   1.34177
 Alpha virt. eigenvalues --    1.34482   1.34746   1.34945   1.35146   1.35319
 Alpha virt. eigenvalues --    1.35580   1.35790   1.36324   1.36573   1.36767
 Alpha virt. eigenvalues --    1.36949   1.37058   1.37557   1.37798   1.38197
 Alpha virt. eigenvalues --    1.38268   1.38532   1.38775   1.38928   1.39151
 Alpha virt. eigenvalues --    1.39358   1.39482   1.39667   1.40166   1.40397
 Alpha virt. eigenvalues --    1.40476   1.41051   1.41223   1.41600   1.41906
 Alpha virt. eigenvalues --    1.42793   1.42939   1.42984   1.43441   1.43808
 Alpha virt. eigenvalues --    1.43947   1.44142   1.44179   1.44426   1.44796
 Alpha virt. eigenvalues --    1.45138   1.45407   1.45688   1.46274   1.46555
 Alpha virt. eigenvalues --    1.46743   1.46878   1.47183   1.47544   1.47879
 Alpha virt. eigenvalues --    1.48090   1.48300   1.48690   1.48773   1.49072
 Alpha virt. eigenvalues --    1.49391   1.49794   1.49876   1.49961   1.50170
 Alpha virt. eigenvalues --    1.50671   1.50876   1.51611   1.51833   1.51937
 Alpha virt. eigenvalues --    1.52286   1.52343   1.52868   1.53045   1.53486
 Alpha virt. eigenvalues --    1.53723   1.53929   1.54176   1.54450   1.54687
 Alpha virt. eigenvalues --    1.55000   1.55267   1.55554   1.55700   1.56010
 Alpha virt. eigenvalues --    1.56224   1.56729   1.56972   1.57484   1.57817
 Alpha virt. eigenvalues --    1.58562   1.58818   1.59392   1.59607   1.59808
 Alpha virt. eigenvalues --    1.60209   1.60393   1.60831   1.60889   1.61050
 Alpha virt. eigenvalues --    1.61695   1.61987   1.62321   1.62538   1.62571
 Alpha virt. eigenvalues --    1.63212   1.63666   1.63759   1.64063   1.64337
 Alpha virt. eigenvalues --    1.64478   1.64846   1.65044   1.65424   1.65626
 Alpha virt. eigenvalues --    1.65760   1.66093   1.66155   1.67456   1.67704
 Alpha virt. eigenvalues --    1.68305   1.68457   1.68723   1.69061   1.69694
 Alpha virt. eigenvalues --    1.69951   1.70136   1.70348   1.70404   1.70499
 Alpha virt. eigenvalues --    1.70724   1.70945   1.71308   1.71420   1.71692
 Alpha virt. eigenvalues --    1.71924   1.72171   1.72269   1.72502   1.72769
 Alpha virt. eigenvalues --    1.72944   1.73268   1.73371   1.73408   1.73684
 Alpha virt. eigenvalues --    1.73887   1.74113   1.74187   1.74472   1.74748
 Alpha virt. eigenvalues --    1.74897   1.75170   1.75217   1.75369   1.75593
 Alpha virt. eigenvalues --    1.75918   1.76100   1.76391   1.76611   1.76713
 Alpha virt. eigenvalues --    1.76989   1.77080   1.77546   1.77584   1.77748
 Alpha virt. eigenvalues --    1.78089   1.78149   1.78366   1.78440   1.78703
 Alpha virt. eigenvalues --    1.78947   1.79064   1.79225   1.79466   1.79540
 Alpha virt. eigenvalues --    1.79672   1.79905   1.80231   1.80281   1.80804
 Alpha virt. eigenvalues --    1.80888   1.80988   1.81116   1.81174   1.81414
 Alpha virt. eigenvalues --    1.81469   1.81631   1.81654   1.81912   1.82123
 Alpha virt. eigenvalues --    1.82241   1.82428   1.82493   1.82717   1.82764
 Alpha virt. eigenvalues --    1.82816   1.83063   1.83198   1.83485   1.83570
 Alpha virt. eigenvalues --    1.83675   1.83803   1.83892   1.84066   1.84336
 Alpha virt. eigenvalues --    1.84424   1.84460   1.84767   1.84938   1.85004
 Alpha virt. eigenvalues --    1.85346   1.85461   1.85853   1.85908   1.86012
 Alpha virt. eigenvalues --    1.86279   1.86629   1.86796   1.86936   1.86982
 Alpha virt. eigenvalues --    1.87494   1.87693   1.88008   1.88078   1.88271
 Alpha virt. eigenvalues --    1.88433   1.88555   1.88833   1.88991   1.89297
 Alpha virt. eigenvalues --    1.89477   1.89501   1.89835   1.89977   1.90121
 Alpha virt. eigenvalues --    1.90324   1.90348   1.90770   1.91064   1.91279
 Alpha virt. eigenvalues --    1.91531   1.91661   1.91838   1.92149   1.92310
 Alpha virt. eigenvalues --    1.92464   1.92610   1.92966   1.93121   1.93310
 Alpha virt. eigenvalues --    1.93417   1.93592   1.93954   1.93982   1.94434
 Alpha virt. eigenvalues --    1.94598   1.94865   1.95079   1.95327   1.95481
 Alpha virt. eigenvalues --    1.95713   1.96099   1.96332   1.96464   1.96766
 Alpha virt. eigenvalues --    1.97258   1.97520   1.97957   1.98039   1.98441
 Alpha virt. eigenvalues --    1.98583   1.98935   1.99134   1.99495   1.99681
 Alpha virt. eigenvalues --    1.99836   2.00009   2.00212   2.00522   2.00719
 Alpha virt. eigenvalues --    2.00925   2.01139   2.01396   2.01649   2.02068
 Alpha virt. eigenvalues --    2.02104   2.02246   2.02659   2.02774   2.03024
 Alpha virt. eigenvalues --    2.03252   2.03553   2.03737   2.03838   2.03933
 Alpha virt. eigenvalues --    2.04038   2.04321   2.04706   2.04809   2.05001
 Alpha virt. eigenvalues --    2.05307   2.05433   2.05603   2.05766   2.06006
 Alpha virt. eigenvalues --    2.06347   2.06446   2.06672   2.06983   2.07151
 Alpha virt. eigenvalues --    2.07564   2.07760   2.07943   2.08526   2.08767
 Alpha virt. eigenvalues --    2.08869   2.09118   2.09366   2.09470   2.09936
 Alpha virt. eigenvalues --    2.10257   2.10378   2.10839   2.11098   2.11311
 Alpha virt. eigenvalues --    2.11708   2.12135   2.12392   2.12509   2.13098
 Alpha virt. eigenvalues --    2.13494   2.13657   2.14186   2.14229   2.14444
 Alpha virt. eigenvalues --    2.14843   2.15232   2.15630   2.15687   2.15793
 Alpha virt. eigenvalues --    2.16098   2.16318   2.16383   2.16901   2.17098
 Alpha virt. eigenvalues --    2.17302   2.17724   2.17854   2.17950   2.18241
 Alpha virt. eigenvalues --    2.18585   2.19135   2.19385   2.19605   2.19961
 Alpha virt. eigenvalues --    2.20358   2.20521   2.21127   2.21803   2.21988
 Alpha virt. eigenvalues --    2.22281   2.22447   2.22855   2.23021   2.23496
 Alpha virt. eigenvalues --    2.23779   2.23912   2.24096   2.24359   2.24611
 Alpha virt. eigenvalues --    2.25039   2.25594   2.25917   2.25984   2.26533
 Alpha virt. eigenvalues --    2.26628   2.27281   2.27785   2.28002   2.28450
 Alpha virt. eigenvalues --    2.29074   2.29214   2.29499   2.29706   2.30022
 Alpha virt. eigenvalues --    2.30410   2.30633   2.30985   2.31275   2.31743
 Alpha virt. eigenvalues --    2.31832   2.32215   2.32705   2.33416   2.33611
 Alpha virt. eigenvalues --    2.33705   2.34466   2.34669   2.34821   2.35099
 Alpha virt. eigenvalues --    2.35807   2.35942   2.36214   2.36315   2.36503
 Alpha virt. eigenvalues --    2.36838   2.36921   2.37138   2.37398   2.37650
 Alpha virt. eigenvalues --    2.38039   2.38332   2.38555   2.38882   2.39150
 Alpha virt. eigenvalues --    2.39263   2.39493   2.39707   2.39949   2.40202
 Alpha virt. eigenvalues --    2.40424   2.41345   2.41591   2.41869   2.41989
 Alpha virt. eigenvalues --    2.42258   2.42946   2.43042   2.43328   2.43478
 Alpha virt. eigenvalues --    2.44158   2.44466   2.44730   2.44867   2.45300
 Alpha virt. eigenvalues --    2.46582   2.46776   2.46993   2.47136   2.47532
 Alpha virt. eigenvalues --    2.47647   2.48264   2.48421   2.48647   2.48744
 Alpha virt. eigenvalues --    2.49410   2.49698   2.50220   2.50682   2.50765
 Alpha virt. eigenvalues --    2.51121   2.51209   2.51397   2.51619   2.52379
 Alpha virt. eigenvalues --    2.52511   2.52769   2.53042   2.53406   2.54198
 Alpha virt. eigenvalues --    2.54551   2.54858   2.54999   2.55153   2.55408
 Alpha virt. eigenvalues --    2.55762   2.56273   2.56468   2.56709   2.56806
 Alpha virt. eigenvalues --    2.57215   2.57413   2.57620   2.58249   2.58561
 Alpha virt. eigenvalues --    2.59602   2.59738   2.59917   2.60269   2.60541
 Alpha virt. eigenvalues --    2.60893   2.61336   2.61619   2.61710   2.62420
 Alpha virt. eigenvalues --    2.62599   2.62860   2.63041   2.63656   2.64056
 Alpha virt. eigenvalues --    2.64420   2.64531   2.64655   2.64848   2.65057
 Alpha virt. eigenvalues --    2.65239   2.65634   2.65938   2.66131   2.66918
 Alpha virt. eigenvalues --    2.67409   2.67672   2.68189   2.68719   2.68788
 Alpha virt. eigenvalues --    2.68965   2.69115   2.69370   2.69600   2.70145
 Alpha virt. eigenvalues --    2.70482   2.70623   2.70795   2.71138   2.71431
 Alpha virt. eigenvalues --    2.71506   2.71672   2.71901   2.72055   2.72441
 Alpha virt. eigenvalues --    2.72814   2.72845   2.73111   2.73476   2.73840
 Alpha virt. eigenvalues --    2.74105   2.74166   2.74323   2.74474   2.74630
 Alpha virt. eigenvalues --    2.74904   2.75394   2.75495   2.75831   2.76053
 Alpha virt. eigenvalues --    2.76481   2.76739   2.77205   2.77360   2.77864
 Alpha virt. eigenvalues --    2.78045   2.78269   2.78616   2.78969   2.79108
 Alpha virt. eigenvalues --    2.79237   2.79612   2.79964   2.80479   2.81163
 Alpha virt. eigenvalues --    2.81318   2.81421   2.81643   2.81786   2.81845
 Alpha virt. eigenvalues --    2.82039   2.82128   2.82271   2.82650   2.82705
 Alpha virt. eigenvalues --    2.83035   2.83201   2.83651   2.84646   2.85016
 Alpha virt. eigenvalues --    2.85173   2.85422   2.85585   2.85705   2.86663
 Alpha virt. eigenvalues --    2.87190   2.87500   2.87627   2.88199   2.88425
 Alpha virt. eigenvalues --    2.88567   2.88653   2.88897   2.88988   2.89535
 Alpha virt. eigenvalues --    2.89747   2.90428   2.90567   2.90945   2.91124
 Alpha virt. eigenvalues --    2.91773   2.91918   2.92264   2.92441   2.92738
 Alpha virt. eigenvalues --    2.92991   2.93111   2.93328   2.93429   2.93707
 Alpha virt. eigenvalues --    2.93841   2.94538   2.94613   2.94907   2.95104
 Alpha virt. eigenvalues --    2.95253   2.96152   2.96631   2.96744   2.97236
 Alpha virt. eigenvalues --    2.97314   2.97773   2.98044   2.98148   2.98450
 Alpha virt. eigenvalues --    2.99183   2.99925   3.00168   3.00720   3.00900
 Alpha virt. eigenvalues --    3.00954   3.01257   3.01668   3.02025   3.02427
 Alpha virt. eigenvalues --    3.02743   3.03082   3.03123   3.03374   3.03560
 Alpha virt. eigenvalues --    3.03641   3.03757   3.04091   3.04809   3.05026
 Alpha virt. eigenvalues --    3.05528   3.06097   3.06324   3.07338   3.07633
 Alpha virt. eigenvalues --    3.08107   3.08333   3.09025   3.09271   3.09470
 Alpha virt. eigenvalues --    3.09574   3.09648   3.10304   3.10656   3.11360
 Alpha virt. eigenvalues --    3.11589   3.11959   3.12856   3.13621   3.14525
 Alpha virt. eigenvalues --    3.14817   3.15404   3.15441   3.15832   3.17422
 Alpha virt. eigenvalues --    3.17793   3.17894   3.18643   3.18881   3.19036
 Alpha virt. eigenvalues --    3.19233   3.19595   3.19748   3.19896   3.19935
 Alpha virt. eigenvalues --    3.20190   3.21332   3.21453   3.21619   3.21839
 Alpha virt. eigenvalues --    3.22038   3.22875   3.23285   3.23691   3.23789
 Alpha virt. eigenvalues --    3.24214   3.24340   3.24662   3.25170   3.25209
 Alpha virt. eigenvalues --    3.25434   3.25632   3.26109   3.27034   3.28055
 Alpha virt. eigenvalues --    3.28258   3.29015   3.29258   3.29572   3.30338
 Alpha virt. eigenvalues --    3.31350   3.32371   3.33426   3.35529   3.35603
 Alpha virt. eigenvalues --    3.36006   3.36861   3.39623   3.39724   3.40413
 Alpha virt. eigenvalues --    3.43042   3.45824   3.47287   3.48598   3.50460
 Alpha virt. eigenvalues --    3.51777   3.52925   3.53566   3.53788   3.58498
 Alpha virt. eigenvalues --    3.59034   3.59627   3.59881   3.60300   3.60830
 Alpha virt. eigenvalues --    3.61296   3.62257   3.63533   3.64806   3.65654
 Alpha virt. eigenvalues --    3.66797   3.66867   3.67379   3.68337   3.68917
 Alpha virt. eigenvalues --    3.69182   3.70058   3.70250   3.70312   3.70740
 Alpha virt. eigenvalues --    3.71428   3.71898   3.72233   3.72496   3.73551
 Alpha virt. eigenvalues --    3.73895   3.74021   3.74182   3.75190   3.76486
 Alpha virt. eigenvalues --    3.80820   3.81474   3.81751   3.83204
          Condensed to atoms (all electrons):
 Mulliken charges:
               1
     1  C    0.044707
     2  C    0.034902
     3  O   -0.284278
     4  H    0.053234
     5  H    0.027941
     6  H    0.014233
     7  N   -0.122995
     8  C    0.044778
     9  C    0.068054
    10  O   -0.263754
    11  C    0.098259
    12  C    0.178425
    13  O   -0.454872
    14  O   -0.392614
    15  H    0.111290
    16  H    0.033314
    17  H    0.018104
    18  H   -0.008894
    19  N   -0.165257
    20  C    0.119884
    21  C    0.093198
    22  O   -0.316225
    23  C    0.033910
    24  C   -0.018085
    25  C   -0.056315
    26  C    0.090417
    27  N    0.074669
    28  H    0.159036
    29  H    0.012212
    30  H    0.004565
    31  H    0.020887
    32  H   -0.002078
    33  H   -0.004274
    34  H    0.033178
    35  H    0.058221
    36  H    0.081927
    37  H    0.069887
    38  H    0.171528
    39  H    0.179568
    40  H    0.197269
    41  N   -0.110534
    42  C    0.077862
    43  C    0.061419
    44  O   -0.285811
    45  C    0.201797
    46  C    0.031870
    47  O   -0.392528
    48  O   -0.439414
    49  H    0.158439
    50  H    0.003087
    51  H   -0.018380
    52  H    0.009270
    53  N   -0.165502
    54  C    0.243651
    55  C   -0.007343
    56  O   -0.311802
    57  H    0.159053
    58  H    0.019906
    59  H    0.028879
    60  N   -0.146539
    61  C    0.138761
    62  C    0.048093
    63  O   -0.303402
    64  C    0.060779
    65  C    0.074215
    66  N   -0.048294
    67  O   -0.324930
    68  H    0.162154
    69  H    0.015436
    70  H    0.050988
    71  H    0.004144
    72  H    0.135525
    73  H    0.097124
    74  N   -0.136936
    75  C    0.246900
    76  C    0.033162
    77  O   -0.293574
    78  H    0.160121
    79  H    0.018992
    80  H    0.035161
    81  N   -0.163182
    82  C    0.085474
    83  C    0.146372
    84  O   -0.345329
    85  C    0.160994
    86  C    0.020905
    87  C   -0.005968
    88  C   -0.004598
    89  C   -0.020749
    90  C   -0.002199
    91  C    0.143623
    92  O   -0.208083
    93  H    0.172684
    94  H    0.005776
    95  H   -0.018518
    96  H   -0.059192
    97  H   -0.048311
    98  H   -0.055360
    99  H   -0.034596
   100  H   -0.052146
   101  H    0.171229
   102  N   -0.120063
   103  C    0.158551
   104  C    0.035849
   105  O   -0.272155
   106  C   -0.068408
   107  C   -0.026043
   108  C    0.027841
   109  C    0.028335
   110  H    0.138322
   111  H    0.023963
   112  H   -0.007771
   113  H   -0.006974
   114  H   -0.020383
   115  H    0.011317
   116  H    0.036332
   117  H    0.010604
   118  H    0.011195
   119  H    0.022393
   120  H    0.003973
   121  N   -0.127154
   122  C    0.113188
   123  C    0.115287
   124  O   -0.272855
   125  C    0.265858
   126  O   -0.339945
   127  H    0.134007
   128  H    0.009618
   129  H   -0.024887
   130  H   -0.011162
   131  H    0.172509
   132  N   -0.141602
   133  C    0.095439
   134  C    0.050717
   135  O   -0.249682
   136  C    0.044458
   137  H    0.113682
   138  H    0.024010
   139  H    0.046971
   140  H    0.023771
   141  H    0.009741
   142  N   -0.141824
   143  C    0.118054
   144  C    0.064746
   145  O   -0.266691
   146  C    0.035292
   147  H    0.092222
   148  H    0.017146
   149  H    0.030529
   150  H    0.004628
   151  H    0.001372
   152  N   -0.145898
   153  C    0.161000
   154  C    0.034077
   155  O   -0.302217
   156  C   -0.045518
   157  C    0.154920
   158  C    0.120429
   159  O   -0.445929
   160  O   -0.418486
   161  H    0.129075
   162  H   -0.006705
   163  H    0.044215
   164  H   -0.039626
   165  H   -0.017084
   166  H    0.000132
   167  N   -0.159158
   168  C    0.155747
   169  H    0.028402
   170  H    0.011605
   171  H    0.003151
   172  H    0.138451
   173  Ca   1.291050
   174  O   -0.260234
   175  H    0.186088
   176  H    0.169607
 Sum of Mulliken charges =  -0.00000
 Mulliken charges with hydrogens summed into heavy atoms:
               1
     1  C    0.140116
     2  C    0.034902
     3  O   -0.284278
     7  N   -0.011705
     8  C    0.078092
     9  C    0.068054
    10  O   -0.263754
    11  C    0.107469
    12  C    0.178425
    13  O   -0.454872
    14  O   -0.392614
    19  N   -0.006222
    20  C    0.132095
    21  C    0.093198
    22  O   -0.316225
    23  C    0.059362
    24  C   -0.024437
    25  C    0.035084
    26  C    0.242232
    27  N    0.623034
    41  N    0.047905
    42  C    0.080950
    43  C    0.061419
    44  O   -0.285811
    45  C    0.192687
    46  C    0.031870
    47  O   -0.392528
    48  O   -0.439414
    53  N   -0.006449
    54  C    0.292436
    55  C   -0.007343
    56  O   -0.311802
    60  N    0.015615
    61  C    0.154196
    62  C    0.048093
    63  O   -0.303402
    64  C    0.115911
    65  C    0.074215
    66  N    0.184355
    67  O   -0.324930
    74  N    0.023186
    75  C    0.301054
    76  C    0.033162
    77  O   -0.293574
    81  N    0.009502
    82  C    0.091250
    83  C    0.146372
    84  O   -0.345329
    85  C    0.083284
    86  C    0.020905
    87  C   -0.054278
    88  C   -0.059958
    89  C   -0.055345
    90  C   -0.054345
    91  C    0.143623
    92  O   -0.036854
   102  N    0.018259
   103  C    0.182514
   104  C    0.035849
   105  O   -0.272155
   106  C   -0.076179
   107  C   -0.053400
   108  C    0.086094
   109  C    0.065896
   121  N    0.006853
   122  C    0.122805
   123  C    0.115287
   124  O   -0.272855
   125  C    0.229809
   126  O   -0.167436
   132  N   -0.027920
   133  C    0.119449
   134  C    0.050717
   135  O   -0.249682
   136  C    0.124942
   142  N   -0.049603
   143  C    0.135200
   144  C    0.064746
   145  O   -0.266691
   146  C    0.071822
   152  N   -0.016823
   153  C    0.154295
   154  C    0.034077
   155  O   -0.302217
   156  C   -0.040928
   157  C    0.137968
   158  C    0.120429
   159  O   -0.445929
   160  O   -0.418486
   167  N   -0.020707
   168  C    0.198905
   173  Ca   1.291050
   174  O    0.095461
 DipInt: DoE/N= T F RetVal/Mat= T F Init=T NMatP=  1 IDeriv=0 Min/MaxMlt=  0  4
 Entering OneElI...
 OneElI was handed  1333951383 working-precision words.
 Multipole integrals L=0 to 4 MinM= 0 MaxM= 0.
 Requested accuracy = 0.1000D-12
 ShPair: Thresh= 1.00D-13 NBox=     0 BxSize= 0.00D+00 RnKept= 2.55D+01
         NSMCal=               327645 NSMKep=              158091
 PrmmSu-InSpLW:  IPartL=    0 NPrtUS=    1 NPrtUL=    1 DoSpLW=F IThBeg=    0 IThEnd=    0 NThAct=    1.
 PrsmSu:  NPrtUS=   1 ThrOK=F IAlg=1 NPAlg=1 LenDen=           0 ISkipM=0 DoSpLW=F IThBeg=    0 IThEnd=    0.
 Prism:   IPart=     0 DynPar=F LinDyn=F Incr=         512.
 PRISM was handed  1323959239 working-precision words and158091 shell-pairs
 IPart=  0 NShTot=      158091 NBatch=         366 AvBLen=       431.9
 PrsmSu-ThDecC:  IPartSL=    0    0 NPrtUSL=    1    1 IThBeg=    0 IThEnd=    0 CPU=   -1 GPU=   -1 NThAct=    1.
 PrSmSu:  NxtVal=            513.
 Electronic moments (au):
       -716.00000000          8.72561748          6.67085391         -3.69356985
     -51830.17879008     -35552.86742065     -10460.20432240         66.00095401
          0.84827256         42.39463139    -100845.95371640    -101349.22507656
     -17810.14577060      35064.80727642     106088.75648902      50248.54718742
     -16350.22171631       4330.42514599       6917.25020042     -19892.27876213
   -7526132.22530667   -5312739.16662227    -466828.49069963     389687.20252041
     374697.30126518   -1075975.93741958      18328.11675993     -42408.86348544
      25198.94639782   -2117749.02385948    -619524.24069851    -254544.64023128
    -154061.36017211     -38824.09249206      59421.38279047
 Electronic spatial extent (au):  <R**2>=          97843.2505
 DipInt: DoE/N= F T RetVal/Mat= T F Init=T NMatP=  1 IDeriv=0 Min/MaxMlt=  0  4
 Nuclear    moments (au):
        716.00000000         -0.00000000         -0.00000000         -0.00000000
      51271.95929624      35390.68707495      10079.65550197          0.00000000
         -0.00000000          0.00000000     101170.11889286     106929.08842681
      17697.39654534     -32762.18681521    -106576.63928971     -50794.80203446
      16365.41686162      -4437.39026257      -7209.09722161      19740.31157373
    7312813.71695807    5298697.83675324     432288.67028145    -389714.38030769
    -374781.40039383    1103293.36011125     -16428.94067824      43253.40898514
     -23576.91944640    2070786.27733053     585892.95770132     229178.77717374
     158083.55527960      38112.55545783     -59312.23476008
 Total      moments (au):
          0.00000000          8.72561748          6.67085391         -3.69356985
       -558.21949383       -162.18034570       -380.54882043         66.00095401
          0.84827256         42.39463139        324.16517646       5579.86335025
       -112.74922527       2302.62046121       -487.88280068       -546.25484703
         15.19514530       -106.96511658       -291.84702119       -151.96718840
    -213318.50834860     -14041.32986903     -34539.82041818        -27.17778727
        -84.09912866      27317.42269167       1899.17608169        844.54549971
       1622.02695142     -46962.74652894     -33631.28299718     -25365.86305755
       4022.19510748       -711.53703423        109.14803040
 Traceless Quadrup. (au):
       -191.23660718        204.80254095        -13.56593377         66.00095401
          0.84827256         42.39463139
 Charge=              0.0000 electrons
 Dipole moment (field-independent basis, Debye):
    X=             22.1783    Y=             16.9556    Z=             -9.3881  Tot=             29.4535
 Quadrupole moment (field-independent basis, Debye-Ang):
   XX=           -750.8243   YY=           -218.1381   ZZ=           -511.8512
   XY=             88.7735   XZ=              1.1410   YZ=             57.0222
 Traceless Quadrupole moment (field-independent basis, Debye-Ang):
   XX=           -257.2198   YY=            275.4664   ZZ=            -18.2466
   XY=             88.7735   XZ=              1.1410   YZ=             57.0222
 Octapole moment (field-independent basis, Debye-Ang**2):
  XXX=            230.7283  YYY=           3971.5318  ZZZ=            -80.2506  XYY=           1638.9165
  XXY=           -347.2562  XXZ=           -388.8032  XZZ=             10.8153  YZZ=            -76.1336
  YYZ=           -207.7255  XYZ=           -108.1644
 Hexadecapole moment (field-independent basis, Debye-Ang**3):
 XXXX=         -80345.9792 YYYY=          -5288.6381 ZZZZ=         -13009.3526 XXXY=            -10.2365
 XXXZ=            -31.6758 YYYX=          10289.0513 YYYZ=            715.3208 ZZZX=            318.0963
 ZZZY=            610.9331 XXYY=         -17688.4223 XXZZ=         -12667.1539 YYZZ=          -9554.0004
 XXYZ=           1514.9515 YYXZ=           -267.9990 ZZXY=             41.1104
 N-N= 2.166378004549D+04 E-N=-5.581241928983D+04  KE= 5.290444188359D+03
 Leave Link  601 at Wed Sep 18 16:55:31 2019, MaxMem=  1342177280 cpu:              44.5 elap:               1.2
 FitSet:  NAtFit=   176 NAtPot=   176 NAtFrz=     0 MDM=   180 TotChg=   0.00000
 Merz-Kollman atomic radii used.
 Read replacement radii for each type of atom:
 Rad(20) =   1.700000000000D+00
 Atom Element Radius
    1     6    1.50
    2     6    1.50
    3     8    1.40
    4     1    1.20
    5     1    1.20
    6     1    1.20
    7     7    1.50
    8     6    1.50
    9     6    1.50
   10     8    1.40
   11     6    1.50
   12     6    1.50
   13     8    1.40
   14     8    1.40
   15     1    1.20
   16     1    1.20
   17     1    1.20
   18     1    1.20
   19     7    1.50
   20     6    1.50
   21     6    1.50
   22     8    1.40
   23     6    1.50
   24     6    1.50
   25     6    1.50
   26     6    1.50
   27     7    1.50
   28     1    1.20
   29     1    1.20
   30     1    1.20
   31     1    1.20
   32     1    1.20
   33     1    1.20
   34     1    1.20
   35     1    1.20
   36     1    1.20
   37     1    1.20
   38     1    1.20
   39     1    1.20
   40     1    1.20
   41     7    1.50
   42     6    1.50
   43     6    1.50
   44     8    1.40
   45     6    1.50
   46     6    1.50
   47     8    1.40
   48     8    1.40
   49     1    1.20
   50     1    1.20
   51     1    1.20
   52     1    1.20
   53     7    1.50
   54     6    1.50
   55     6    1.50
   56     8    1.40
   57     1    1.20
   58     1    1.20
   59     1    1.20
   60     7    1.50
   61     6    1.50
   62     6    1.50
   63     8    1.40
   64     6    1.50
   65     6    1.50
   66     7    1.50
   67     8    1.40
   68     1    1.20
   69     1    1.20
   70     1    1.20
   71     1    1.20
   72     1    1.20
   73     1    1.20
   74     7    1.50
   75     6    1.50
   76     6    1.50
   77     8    1.40
   78     1    1.20
   79     1    1.20
   80     1    1.20
   81     7    1.50
   82     6    1.50
   83     6    1.50
   84     8    1.40
   85     6    1.50
   86     6    1.50
   87     6    1.50
   88     6    1.50
   89     6    1.50
   90     6    1.50
   91     6    1.50
   92     8    1.40
   93     1    1.20
   94     1    1.20
   95     1    1.20
   96     1    1.20
   97     1    1.20
   98     1    1.20
   99     1    1.20
  100     1    1.20
  101     1    1.20
  102     7    1.50
  103     6    1.50
  104     6    1.50
  105     8    1.40
  106     6    1.50
  107     6    1.50
  108     6    1.50
  109     6    1.50
  110     1    1.20
  111     1    1.20
  112     1    1.20
  113     1    1.20
  114     1    1.20
  115     1    1.20
  116     1    1.20
  117     1    1.20
  118     1    1.20
  119     1    1.20
  120     1    1.20
  121     7    1.50
  122     6    1.50
  123     6    1.50
  124     8    1.40
  125     6    1.50
  126     8    1.40
  127     1    1.20
  128     1    1.20
  129     1    1.20
  130     1    1.20
  131     1    1.20
  132     7    1.50
  133     6    1.50
  134     6    1.50
  135     8    1.40
  136     6    1.50
  137     1    1.20
  138     1    1.20
  139     1    1.20
  140     1    1.20
  141     1    1.20
  142     7    1.50
  143     6    1.50
  144     6    1.50
  145     8    1.40
  146     6    1.50
  147     1    1.20
  148     1    1.20
  149     1    1.20
  150     1    1.20
  151     1    1.20
  152     7    1.50
  153     6    1.50
  154     6    1.50
  155     8    1.40
  156     6    1.50
  157     6    1.50
  158     6    1.50
  159     8    1.40
  160     8    1.40
  161     1    1.20
  162     1    1.20
  163     1    1.20
  164     1    1.20
  165     1    1.20
  166     1    1.20
  167     7    1.50
  168     6    1.50
  169     1    1.20
  170     1    1.20
  171     1    1.20
  172     1    1.20
  173    20    1.70
  174     8    1.40
[...]
 **** Fit      -0.002959
 **** Fit       0.005243
 **** Fit       0.010867
 **** Fit       0.013057
 **** Fit       0.012153
 **** Fit       0.009178
 **** Fit       0.004966
 **** Fit      -0.011111
 **** Fit      -0.013397
 **** Fit      -0.014900
 **** Fit      -0.015242
 **** Fit      -0.013139
 **** Fit      -0.007734
 **** Fit      -0.001019
 **** Fit       0.003428
 **** Fit       0.004016
 **** Fit       0.001432
 **** Fit      -0.002984
 **** Fit      -0.007646
 **** Fit      -0.009842
 **** Fit      -0.012045
 **** Fit      -0.010442
 **** Fit      -0.005191
 **** Fit      -0.002650
 **** Fit      -0.005535
 **** Fit      -0.007979
 **** Fit      -0.030133
 **** Fit      -0.037016
 **** Fit      -0.030870
 **** Fit      -0.026010
 **** Fit      -0.022793
 **** Fit      -0.021633
 **** Fit      -0.022825
 **** Fit      -0.040773
 **** Fit      -0.032735
 **** Fit      -0.025966
 **** Fit      -0.020450
 **** Fit      -0.016346
 **** Fit      -0.013930
 **** Fit      -0.013452
 **** Fit      -0.038846
 **** Fit      -0.029908
 **** Fit      -0.022608
 **** Fit      -0.016706
 **** Fit      -0.012199
 **** Fit      -0.009230
 **** Fit      -0.007945
 **** Fit      -0.026030
 **** Fit      -0.018579
 **** Fit      -0.012767
 **** Fit      -0.008510
 **** Fit      -0.005860
 **** Fit      -0.021646
 **** Fit      -0.014611
 **** Fit      -0.009406
 **** Fit      -0.005908
 **** Fit      -0.004039
 **** Fit      -0.018035
 **** Fit      -0.011878
 **** Fit      -0.007597
 **** Fit      -0.005025
 **** Fit      -0.019349
 **** Fit      -0.012786
 **** Fit      -0.008396
 **** Fit      -0.005921
 **** Fit      -0.013773
 **** Fit      -0.009430
 **** Fit      -0.013242
 **** Fit      -0.009512
 **** Fit      -0.011295
 **** Fit      -0.007654
 **** Fit      -0.006343
 **** Fit      -0.004659
 **** Fit      -0.004649
 **** Fit      -0.004053
 **** Fit      -0.003191
 **** Fit      -0.002558
 **** Fit      -0.002384
 **** Fit      -0.002751
 **** Fit      -0.002638
 **** Fit      -0.002553
 **** Fit      -0.002964
 **** Fit      -0.004228
 **** Fit      -0.001540
 **** Fit      -0.002060
 **** Fit      -0.002496
 **** Fit      -0.003294
 **** Fit      -0.004831
 **** Fit      -0.007288
 **** Fit      -0.010568
 **** Fit      -0.000948
 **** Fit      -0.001771
 **** Fit      -0.002633
 **** Fit      -0.003885
 **** Fit      -0.005877
 **** Fit      -0.008681
 **** Fit      -0.012028
 **** Fit      -0.015521
 **** Fit      -0.001493
 **** Fit      -0.002096
 **** Fit      -0.003257
 **** Fit      -0.005114
 **** Fit      -0.007820
 **** Fit      -0.010923
 **** Fit      -0.013425
 **** Fit      -0.013918
 **** Fit      -0.011724
 **** Fit      -0.008248
 **** Fit      -0.003443
 **** Fit      -0.004336
 **** Fit      -0.006895
 **** Fit      -0.009234
 **** Fit      -0.008363
 **** Fit      -0.005156
 **** Fit      -0.005978
 **** Fit      -0.030135
 **** Fit      -0.017231
 **** Fit      -0.012965
 **** Fit      -0.006488
 **** Fit      -0.002382
 **** Fit       0.003572
 **** Fit      -0.000220
 **** Fit       0.005506
 **** Fit       0.010299
 **** Fit      -0.003961
 **** Fit       0.001286
 **** Fit       0.006497
 **** Fit       0.010969
 **** Fit      -0.001867
 **** Fit       0.003002
 **** Fit       0.007588
 **** Fit       0.011312
 **** Fit      -0.000079
 **** Fit       0.004181
 **** Fit       0.007884
 **** Fit       0.010505
 **** Fit       0.000817
 **** Fit       0.004157
 **** Fit       0.006727
 **** Fit       0.008023
 **** Fit       0.001506
 **** Fit       0.003643
 **** Fit       0.004511
 **** Fit       0.003581
 **** Fit       0.000481
 **** Fit      -0.004909
 **** Fit      -0.012284
 **** Fit       0.000683
 **** Fit       0.001148
 **** Fit      -0.000147
 **** Fit      -0.003529
 **** Fit      -0.008881
 **** Fit      -0.002044
 **** Fit      -0.004092
 **** Fit      -0.009731
 **** Fit      -0.010485
 **** Fit      -0.011895
 **** Fit      -0.013110
 **** Fit      -0.008774
 **** Fit      -0.008848
 **** Fit      -0.009226
 **** Fit      -0.009901
 **** Fit      -0.010810
 **** Fit      -0.012309
 **** Fit      -0.013583
 **** Fit      -0.015010
 **** Fit      -0.008613
 **** Fit      -0.008346
 **** Fit      -0.008172
 **** Fit      -0.008242
 **** Fit      -0.008631
 **** Fit      -0.009303
 **** Fit      -0.010172
 **** Fit      -0.011178
 **** Fit      -0.012807
 **** Fit      -0.014020
 **** Fit      -0.015417
 **** Fit      -0.017031
 **** Fit      -0.008605
 **** Fit      -0.008344
 **** Fit      -0.007976
 **** Fit      -0.008126
 **** Fit      -0.008872
 **** Fit      -0.009759
 **** Fit      -0.010717
 **** Fit      -0.011724
 **** Fit      -0.013430
 **** Fit      -0.014612
 **** Fit      -0.016012
 **** Fit      -0.017707
 **** Fit      -0.019739
 **** Fit      -0.022113
 **** Fit      -0.008525
 **** Fit      -0.008105
 **** Fit      -0.009265
 **** Fit      -0.010318
 **** Fit      -0.011351
 **** Fit      -0.012370
 **** Fit      -0.014212
 **** Fit      -0.022959
 **** Fit      -0.026044
 **** Fit      -0.029652
 **** Fit      -0.008756
 **** Fit      -0.010060
 **** Fit      -0.011214
 **** Fit      -0.012262
 **** Fit      -0.013236
 **** Fit      -0.027319
 **** Fit      -0.031507
 **** Fit      -0.036592
 **** Fit      -0.011182
 **** Fit      -0.012410
 **** Fit      -0.013447
 **** Fit      -0.014345
 **** Fit      -0.038395
 **** Fit      -0.012836
 **** Fit      -0.014073
 **** Fit      -0.015038
 **** Fit      -0.015020
 **** Fit      -0.016252
 **** Fit      -0.017814
 **** Fit      -0.019101
 **** Fit      -0.021830
 **** Fit      -0.023098
 **** Fit      -0.025562
 **** Fit      -0.027674
 **** Fit      -0.015433
 **** Fit      -0.016638
 **** Fit      -0.018209
 **** Fit      -0.020266
 **** Fit      -0.016053
 **** Fit      -0.017106
 **** Fit      -0.018507
 **** Fit      -0.020386
 **** Fit      -0.022881
 **** Fit      -0.026137
 **** Fit      -0.015215
 **** Fit      -0.017035
 **** Fit      -0.017935
 **** Fit      -0.019154
 **** Fit      -0.020806
 **** Fit      -0.023026
 **** Fit      -0.025985
 **** Fit      -0.029908
 **** Fit      -0.015741
 **** Fit      -0.016343
 **** Fit      -0.018479
 **** Fit      -0.019285
 **** Fit      -0.020427
 **** Fit      -0.022018
 **** Fit      -0.024193
 **** Fit      -0.027136
 **** Fit      -0.031120
 **** Fit      -0.036560
 **** Fit      -0.016953
 **** Fit      -0.017440
 **** Fit      -0.017903
 **** Fit      -0.020505
 **** Fit      -0.021196
 **** Fit      -0.022243
 **** Fit      -0.023745
 **** Fit      -0.025822
 **** Fit      -0.028642
 **** Fit      -0.032462
 **** Fit      -0.037707
 **** Fit      -0.019521
 **** Fit      -0.019790
 **** Fit      -0.020074
 **** Fit      -0.023264
 **** Fit      -0.023835
 **** Fit      -0.024814
 **** Fit      -0.026289
 **** Fit      -0.028364
 **** Fit      -0.031187
 **** Fit      -0.034996
 **** Fit      -0.040193
 **** Fit      -0.022944
 **** Fit      -0.023014
 **** Fit      -0.022976
 **** Fit      -0.023013
 **** Fit      -0.026947
 **** Fit      -0.027388
 **** Fit      -0.028370
 **** Fit      -0.029972
 **** Fit      -0.032288
 **** Fit      -0.035461
 **** Fit      -0.039729
 **** Fit      -0.045529
 **** Fit      -0.028408
 **** Fit      -0.027888
 **** Fit      -0.027328
 **** Fit      -0.026963
 **** Fit      -0.031792
 **** Fit      -0.032041
 **** Fit      -0.033066
 **** Fit      -0.034924
 **** Fit      -0.037683
 **** Fit      -0.041458
 **** Fit      -0.046454
 **** Fit      -0.034907
 **** Fit      -0.033351
 **** Fit      -0.032259
 **** Fit      -0.038084
 **** Fit      -0.038015
 **** Fit      -0.039078
 **** Fit      -0.041265
 **** Fit      -0.044577
 **** Fit      -0.049018
 **** Fit      -0.054603
 **** Fit      -0.039291
 **** Fit      -0.046105
 **** Fit      -0.045578
 **** Fit      -0.046929
 **** Fit      -0.050004
 **** Fit      -0.010992
 **** Fit      -0.011346
 **** Fit      -0.012300
 **** Fit      -0.012061
 **** Fit      -0.010774
 **** Fit      -0.010010
 **** Fit      -0.010319
 **** Fit      -0.011835
 **** Fit      -0.013026
 **** Fit      -0.014003
 **** Fit      -0.014331
 **** Fit      -0.013684
 **** Fit      -0.012252
 **** Fit      -0.010701
 **** Fit      -0.009660
 **** Fit      -0.009301
 **** Fit      -0.009431
 **** Fit      -0.009917
 **** Fit      -0.010740
 **** Fit      -0.012453
 **** Fit      -0.013721
 **** Fit      -0.015022
 **** Fit      -0.016184
 **** Fit      -0.016932
 **** Fit      -0.016951
 **** Fit      -0.016076
 **** Fit      -0.014468
 **** Fit      -0.012557
 **** Fit      -0.010806
 **** Fit      -0.009561
 **** Fit      -0.008951
 **** Fit      -0.008828
 **** Fit      -0.008947
 **** Fit      -0.009217
 **** Fit      -0.009679
 **** Fit      -0.010380
 **** Fit      -0.011318
 **** Fit      -0.014587
 **** Fit      -0.016103
 **** Fit      -0.017678
 **** Fit      -0.019173
 **** Fit      -0.020340
 **** Fit      -0.020845
 **** Fit      -0.020401
 **** Fit      -0.018970
 **** Fit      -0.016836
 **** Fit      -0.014440
 **** Fit      -0.012175
 **** Fit      -0.010324
 **** Fit      -0.009097
 **** Fit      -0.008576
 **** Fit      -0.008548
 **** Fit      -0.008673
 **** Fit      -0.008813
 **** Fit      -0.017360
 **** Fit      -0.019290
 **** Fit      -0.021347
 **** Fit      -0.023386
 **** Fit      -0.025121
 **** Fit      -0.026137
 **** Fit      -0.026011
 **** Fit      -0.024572
 **** Fit      -0.022072
 **** Fit      -0.019054
 **** Fit      -0.016020
 **** Fit      -0.013278
 **** Fit      -0.008618
 **** Fit      -0.023410
 **** Fit      -0.026172
 **** Fit      -0.029030
 **** Fit      -0.031659
 **** Fit      -0.033530
 **** Fit      -0.034030
 **** Fit      -0.032761
 **** Fit      -0.029873
 **** Fit      -0.026056
 **** Fit      -0.022081
 **** Fit      -0.018415
 **** Fit      -0.033999
 **** Fit      -0.038382
 **** Fit      -0.027001
 **** Fit      -0.007437
 **** Fit      -0.007705
 **** Fit      -0.007172
 **** Fit      -0.006684
 **** Fit      -0.006611
 **** Fit      -0.007010
 **** Fit      -0.007807
 **** Fit      -0.007895
 **** Fit      -0.007026
 **** Fit      -0.006301
 **** Fit      -0.005876
 **** Fit      -0.005874
 **** Fit      -0.006321
 **** Fit      -0.007149
 **** Fit      -0.008223
 **** Fit      -0.008669
 **** Fit      -0.007627
 **** Fit      -0.006585
 **** Fit      -0.005715
 **** Fit      -0.005199
 **** Fit      -0.005153
 **** Fit      -0.005598
 **** Fit      -0.006464
 **** Fit      -0.007626
 **** Fit      -0.008935
 **** Fit      -0.008919
 **** Fit      -0.007542
 **** Fit      -0.006222
 **** Fit      -0.005161
 **** Fit      -0.004540
 **** Fit      -0.004459
 **** Fit      -0.004920
 **** Fit      -0.005848
 **** Fit      -0.007117
 **** Fit      -0.008581
 **** Fit      -0.010094
 **** Fit      -0.008785
 **** Fit      -0.006901
 **** Fit      -0.005271
 **** Fit      -0.004151
 **** Fit      -0.003701
 **** Fit      -0.003958
 **** Fit      -0.004851
 **** Fit      -0.006236
 **** Fit      -0.007939
 **** Fit      -0.009782
 **** Fit      -0.011599
 **** Fit      -0.010745
 **** Fit      -0.008163
 **** Fit      -0.005775
 **** Fit      -0.003962
 **** Fit      -0.002978
 **** Fit      -0.002914
 **** Fit      -0.003708
 **** Fit      -0.005194
 **** Fit      -0.007158
 **** Fit      -0.009381
 **** Fit      -0.011656
 **** Fit      -0.013803
 **** Fit      -0.011565
 **** Fit      -0.007934
 **** Fit      -0.004786
 **** Fit      -0.002616
 **** Fit      -0.001695
 **** Fit      -0.002047
 **** Fit      -0.003490
 **** Fit      -0.005730
 **** Fit      -0.008455
 **** Fit      -0.011377
 **** Fit      -0.014248
 **** Fit      -0.016854
 **** Fit      -0.005710
 **** Fit      -0.009601
 **** Fit      -0.013675
 **** Fit      -0.017568
 **** Fit      -0.020985
 **** Fit      -0.016557
 **** Fit      -0.022166
 **** Fit      -0.006736
 **** Fit      -0.013515
 **** Fit       0.004456
 **** Fit       0.019755
 **** Fit       0.006377
 **** Fit      -0.002190
 **** Fit       0.008499
 **** Fit       0.020137
 **** Fit       0.030473
 **** Fit       0.038970
 **** Fit       0.044205
 **** Fit       0.044038
 **** Fit       0.037696
 **** Fit       0.027309
 **** Fit       0.016183
 **** Fit       0.010426
 **** Fit       0.000615
 **** Fit       0.011315
 **** Fit       0.022653
 **** Fit       0.031191
 **** Fit       0.034280
 **** Fit       0.030210
 **** Fit       0.020937
 **** Fit       0.012638
 **** Fit       0.003285
 **** Fit       0.003108
 **** Fit       0.012937
 **** Fit       0.022668
 **** Fit       0.022301
 **** Fit       0.013402
 **** Fit       0.034136
 **** Fit       0.034875
 **** Fit       0.036194
 **** Fit       0.037664
 **** Fit       0.039134
 **** Fit       0.041032
 **** Fit       0.037082
 **** Fit       0.039093
 **** Fit       0.040961
 **** Fit       0.042899
 **** Fit       0.045222
 **** Fit       0.039442
 **** Fit       0.040476
 **** Fit       0.041992
 **** Fit       0.043704
 **** Fit       0.045613
 **** Fit       0.047901
 **** Fit       0.045834
 **** Fit       0.045997
 **** Fit       0.046898
 **** Fit       0.048276
 **** Fit       0.050122
 **** Fit       0.051453
 **** Fit       0.051323
 **** Fit       0.052068
 **** Fit       0.049273
 **** Fit       0.049857
 **** Fit       0.051679
 **** Fit       0.050600
 **** Fit       0.050843
 **** Fit       0.051988
 **** Fit       0.053466
 **** Fit       0.054898
 **** Fit       0.052327
 **** Fit       0.051204
 **** Fit       0.051215
 **** Fit       0.051807
 **** Fit       0.052540
 **** Fit       0.053083
 **** Fit       0.029190
 **** Fit       0.023186
 **** Fit       0.027161
 **** Fit       0.053171
 **** Fit       0.051592
 **** Fit       0.051028
 **** Fit       0.051006
 **** Fit       0.051058
 **** Fit       0.050749
 **** Fit       0.037650
 **** Fit       0.032728
 **** Fit       0.029134
 **** Fit       0.028283
 **** Fit       0.030702
 **** Fit       0.035428
 **** Fit       0.040559
 **** Fit       0.044509
 **** Fit       0.046865
 **** Fit       0.053155
 **** Fit       0.051547
 **** Fit       0.050620
 **** Fit       0.050079
 **** Fit       0.049468
 **** Fit       0.048288
 **** Fit       0.046047
 **** Fit       0.042422
 **** Fit       0.039487
 **** Fit       0.036015
 **** Fit       0.034229
 **** Fit       0.035030
 **** Fit       0.037972
 **** Fit       0.041592
 **** Fit       0.044699
 **** Fit       0.047181
 **** Fit       0.052584
 **** Fit       0.051334
 **** Fit       0.050153
 **** Fit       0.049161
 **** Fit       0.047984
 **** Fit       0.046110
 **** Fit       0.043199
 **** Fit       0.041400
 **** Fit       0.039052
 **** Fit       0.039047
 **** Fit       0.041335
 **** Fit       0.044387
 **** Fit       0.047201
 **** Fit       0.049409
 **** Fit       0.050251
 **** Fit       0.049679
 **** Fit       0.048498
 **** Fit       0.046887
 **** Fit       0.044471
 **** Fit       0.043310
 **** Fit       0.042396
 **** Fit       0.044661
 **** Fit       0.047227
 **** Fit       0.047642
 **** Fit       0.045978
 **** Fit       0.045229
 -----------------------------------------------------------------
 Leave Link  602 at Wed Sep 18 16:55:34 2019, MaxMem=  1342177280 cpu:             127.3 elap:               2.7

 Test job not archived.
 1\1\GINC-C504-084\SP\RB3LYP\SVP\C54H83Ca1N15O23\JAEBEOMH\18-Sep-2019\0
 \\#b3lyp/svp scf=(tight,noincore) Test #IOP(5/87=12) Density=Current P
 op=(MK,readradii) iop(6/33=2) iop(6/42=6)\\CaMKII_loop3_56.0\\0,1\C,0,
 75.52,41.35,24.24\C,0,74.35,40.59,24.83\O,0,74.32,39.36,24.87\H,0,76.3
 86,40.691,24.178\H,0,75.259,41.702,23.242\H,0,75.758,42.203,24.876\N,0
 ,73.33,41.33,25.26\C,0,72.,40.86,25.58\C,0,71.29,40.46,24.29\O,0,70.4,
 41.14,23.8\C,0,71.12,41.77,26.43\C,0,69.85,41.1,26.94\O,0,69.62,39.9,2
 6.7\O,0,69.03,41.87,27.48\H,0,73.45,42.33,25.31\H,0,72.18,39.99,26.22\
 H,0,70.83,42.68,25.9\H,0,71.7,42.,27.32\N,0,71.52,39.21,23.88\C,0,71.0
 8,38.71,22.59\C,0,69.66,38.21,22.38\O,0,69.23,37.85,21.28\C,0,72.13,37
 .83,21.91\C,0,72.2,37.87,20.39\C,0,73.05,36.76,19.77\C,0,73.38,36.9,18
 .29\N,0,72.11,36.85,17.54\H,0,72.24,38.69,24.37\H,0,71.09,39.67,22.06\
 H,0,72.03,36.78,22.16\H,0,73.07,38.17,22.35\H,0,72.67,38.84,20.2\H,0,7
 1.21,37.84,19.94\H,0,72.49,35.83,19.93\H,0,73.97,36.74,20.35\H,0,74.07
 ,36.11,18.01\H,0,73.81,37.88,18.07\H,0,72.27,36.54,16.59\H,0,71.43,36.
 14,17.75\H,0,71.6,37.71,17.44\N,0,68.87,38.37,23.44\C,0,67.45,38.09,23
 .56\C,0,66.69,39.34,23.99\O,0,65.63,39.62,23.44\C,0,67.18,36.89,24.47\
 C,0,67.94,36.98,25.79\O,0,67.48,37.73,26.68\O,0,69.09,36.53,25.97\H,0,
 69.27,38.7,24.3\H,0,67.01,37.87,22.59\H,0,67.62,36.03,23.96\H,0,66.14,
 36.72,24.74\N,0,67.16,40.08,24.99\C,0,66.53,41.28,25.5\C,0,65.87,41.13
 ,26.87\O,0,65.03,41.97,27.21\H,0,67.91,39.8,25.6\H,0,65.8,41.72,24.83\
 H,0,67.28,42.04,25.74\N,0,66.22,40.14,27.69\C,0,65.81,40.,29.07\C,0,66
 .41,41.03,30.02\O,0,66.11,40.98,31.21\C,0,66.01,38.59,29.62\C,0,67.45,
 38.36,30.05\N,0,67.6,37.55,31.11\O,0,68.38,38.86,29.42\H,0,66.97,39.48
 ,27.49\H,0,64.72,40.05,29.15\H,0,65.76,37.8,28.91\H,0,65.31,38.49,30.4
 5\H,0,66.85,37.1,31.6\H,0,68.57,37.38,31.35\N,0,67.22,41.94,29.48\C,0,
 67.94,42.99,30.18\C,0,69.13,42.48,30.98\O,0,69.54,43.16,31.91\H,0,67.4
 6,41.94,28.5\H,0,67.26,43.52,30.85\H,0,68.27,43.76,29.48\N,0,69.77,41.
 36,30.64\C,0,71.03,40.9,31.19\C,0,71.94,40.27,30.15\O,0,71.51,39.66,29
 .17\C,0,70.82,39.91,32.33\C,0,69.85,40.38,33.38\C,0,70.28,40.99,34.57\
 C,0,68.48,40.12,33.31\C,0,69.42,41.31,35.63\C,0,67.55,40.48,34.29\C,0,
 68.04,41.08,35.47\O,0,67.1,41.47,36.38\H,0,69.48,40.89,29.79\H,0,71.46
 ,41.79,31.66\H,0,71.73,39.53,32.79\H,0,70.28,39.07,31.88\H,0,71.33,41.
 09,34.78\H,0,68.08,39.62,32.43\H,0,69.73,41.8,36.54\H,0,66.49,40.3,34.
 24\H,0,66.22,41.13,36.24\N,0,73.24,40.35,30.45\C,0,74.38,39.74,29.8\C,
 0,74.88,38.67,30.76\O,0,75.33,38.99,31.85\C,0,75.44,40.82,29.56\C,0,74
 .97,42.1,28.88\C,0,76.63,40.24,28.82\C,0,76.,43.2,28.63\H,0,73.49,40.7
 1,31.36\H,0,74.15,39.34,28.81\H,0,75.89,41.24,30.47\H,0,74.14,42.6,29.
 38\H,0,74.54,41.89,27.9\H,0,77.5,40.89,28.84\H,0,76.87,39.24,29.19\H,0
 ,76.3,40.25,27.78\H,0,76.25,43.73,29.55\H,0,76.84,42.8,28.07\H,0,75.39
 ,43.92,28.08\N,0,74.89,37.4,30.35\C,0,75.45,36.23,31.\C,0,76.91,36.02,
 30.61\O,0,77.41,36.65,29.67\C,0,74.61,34.97,30.83\O,0,74.66,34.67,29.4
 5\H,0,74.36,37.26,29.5\H,0,75.55,36.5,32.05\H,0,73.6,35.09,31.21\H,0,7
 4.91,34.11,31.43\H,0,73.91,35.06,29.\N,0,77.58,35.05,31.23\C,0,78.96,3
 4.76,30.9\C,0,79.04,34.08,29.54\O,0,79.9,34.38,28.72\C,0,79.44,33.76,3
 1.95\H,0,77.22,34.57,32.04\H,0,79.47,35.72,30.89\H,0,80.49,33.57,31.75
 \H,0,79.22,34.17,32.94\H,0,78.92,32.81,31.87\N,0,78.14,33.16,29.15\C,0
 ,77.98,32.74,27.77\C,0,77.73,33.84,26.75\O,0,78.4,33.84,25.72\C,0,76.9
 4,31.63,27.73\H,0,77.34,33.03,29.75\H,0,78.98,32.37,27.55\H,0,76.78,31
 .14,26.77\H,0,77.09,30.86,28.48\H,0,75.97,32.04,28.01\N,0,76.94,34.85,
 27.11\C,0,76.71,35.97,26.22\C,0,77.83,37.,26.13\O,0,78.07,37.58,25.07\
 C,0,75.41,36.66,26.61\C,0,74.17,35.89,26.17\C,0,72.99,36.45,26.96\O,0,
 72.64,35.86,28.01\O,0,72.35,37.45,26.59\H,0,76.34,34.71,27.91\H,0,76.6
 8,35.61,25.2\H,0,75.37,37.66,26.18\H,0,75.44,36.86,27.68\H,0,74.24,34.
 83,26.41\H,0,73.92,35.98,25.11\N,0,78.63,37.16,27.18\C,0,79.94,37.8,27
 .2\H,0,80.656,37.178,26.663\H,0,79.876,38.776,26.719\H,0,80.269,37.924
 ,28.232\H,0,78.27,36.79,28.05\Ca,0,70.29,37.64,27.97\O,0,71.24,37.,30.
 48\H,0,71.84,37.19,31.2\H,0,70.73,36.25,30.79\\Version=ES64L-G16RevA.0
 3\State=1-A\HF=-5333.5933227\RMSD=2.752e-09\Dipole=4.9216483,-7.518100
 3,-7.3167408\Quadrupole=-173.1446888,-49.2130214,222.3577102,66.455245
 3,-10.3236238,-7.6859004\PG=C01 [X(C54H83Ca1N15O23)]\\@


 A MAN BEGINS CUTTING HIS WISDOM TEETH THE 1ST
 TIME HE BITES OFF MORE THAN HE CAN CHEW.
 Job cpu time:       0 days  7 hours 40 minutes 44.9 seconds.
 Elapsed time:       0 days  0 hours  9 minutes 42.2 seconds.
 File lengths (MBytes):  RWF=   1517 Int=      0 D2E=      0 Chk=    171 Scr=      1
 Normal termination of Gaussian 16 at Wed Sep 18 16:55:35 2019.
