 Entering Gaussian System, Link 0=g16
 Initial command:
 /home1/apps/gaussian/16rA.03/g16/l1.exe "/scratch/01990/pengzhi/4328944/Gau-199636.inp" -scrdir="/scratch/01990/pengzhi/4328944/"
 Entering Link 1 = /home1/apps/gaussian/16rA.03/g16/l1.exe PID=    199637.
  
 Copyright (c) 1988,1990,1992,1993,1995,1998,2003,2009,2016,
            Gaussian, Inc.  All Rights Reserved.
  
 This is part of the Gaussian(R) 16 program.  It is based on
 the Gaussian(R) 09 system (copyright 2009, Gaussian, Inc.),
 the Gaussian(R) 03 system (copyright 2003, Gaussian, Inc.),
 the Gaussian(R) 98 system (copyright 1998, Gaussian, Inc.),
 the Gaussian(R) 94 system (copyright 1995, Gaussian, Inc.),
 the Gaussian 92(TM) system (copyright 1992, Gaussian, Inc.),
 the Gaussian 90(TM) system (copyright 1990, Gaussian, Inc.),
 the Gaussian 88(TM) system (copyright 1988, Gaussian, Inc.),
 the Gaussian 86(TM) system (copyright 1986, Carnegie Mellon
 University), and the Gaussian 82(TM) system (copyright 1983,
 Carnegie Mellon University). Gaussian is a federally registered
 trademark of Gaussian, Inc.
  
 This software contains proprietary and confidential information,
 including trade secrets, belonging to Gaussian, Inc.
  
 This software is provided under written license and may be
 used, copied, transmitted, or stored only in accord with that
 written license.
  
 The following legend is applicable only to US Government
 contracts under FAR:
  
                    RESTRICTED RIGHTS LEGEND
  
 Use, reproduction and disclosure by the US Government is
 subject to restrictions as set forth in subparagraphs (a)
 and (c) of the Commercial Computer Software - Restricted
 Rights clause in FAR 52.227-19.
  
 Gaussian, Inc.
 340 Quinnipiac St., Bldg. 40, Wallingford CT 06492
  
  
 ---------------------------------------------------------------
 Warning -- This program may not be used in any manner that
 competes with the business of Gaussian, Inc. or will provide
 assistance to any competitor of Gaussian, Inc.  The licensee
 of this program is prohibited from giving any competitor of
 Gaussian, Inc. access to this program.  By using this program,
 the user acknowledges that Gaussian, Inc. is engaged in the
 business of creating and licensing software in the field of
 computational chemistry and represents and warrants to the
 licensee that it is not a competitor of Gaussian, Inc. and that
 it will not use this program in any manner prohibited above.
 ---------------------------------------------------------------
  

 Cite this work as:
 Gaussian 16, Revision A.03,
 M. J. Frisch, G. W. Trucks, H. B. Schlegel, G. E. Scuseria, 
 M. A. Robb, J. R. Cheeseman, G. Scalmani, V. Barone, 
 G. A. Petersson, H. Nakatsuji, X. Li, M. Caricato, A. V. Marenich, 
 J. Bloino, B. G. Janesko, R. Gomperts, B. Mennucci, H. P. Hratchian, 
 J. V. Ortiz, A. F. Izmaylov, J. L. Sonnenberg, D. Williams-Young, 
 F. Ding, F. Lipparini, F. Egidi, J. Goings, B. Peng, A. Petrone, 
 T. Henderson, D. Ranasinghe, V. G. Zakrzewski, J. Gao, N. Rega, 
 G. Zheng, W. Liang, M. Hada, M. Ehara, K. Toyota, R. Fukuda, 
 J. Hasegawa, M. Ishida, T. Nakajima, Y. Honda, O. Kitao, H. Nakai, 
 T. Vreven, K. Throssell, J. A. Montgomery, Jr., J. E. Peralta, 
 F. Ogliaro, M. J. Bearpark, J. J. Heyd, E. N. Brothers, K. N. Kudin, 
 V. N. Staroverov, T. A. Keith, R. Kobayashi, J. Normand, 
 K. Raghavachari, A. P. Rendell, J. C. Burant, S. S. Iyengar, 
 J. Tomasi, M. Cossi, J. M. Millam, M. Klene, C. Adamo, R. Cammi, 
 J. W. Ochterski, R. L. Martin, K. Morokuma, O. Farkas, 
 J. B. Foresman, and D. J. Fox, Gaussian, Inc., Wallingford CT, 2016.
 
 ******************************************
 Gaussian 16:  ES64L-G16RevA.03 25-Dec-2016
                14-Sep-2019 
 ******************************************
 %chk=CaMKII_loop3_71.0.chk
 %nprocshared=48
 Will use up to   48 processors via shared memory.
 %mem=10GB
 %nosave
 ----------------------------------------------------------------------
 #b3lyp/svp scf=(tight,noincore) Test #IOP(5/87=12) Density=Current Pop
 =(MK,readradii) iop(6/33=2) iop(6/42=6)
 ----------------------------------------------------------------------
 1/30=1,38=1,172=1/1;
 2/12=2,17=6,18=5,40=1/2;
 3/5=18,7=101,11=2,25=1,30=1,74=-5/1,2,3;
 4//1;
 5/5=4,32=2,38=5,87=12/2;
 6/7=2,8=2,9=2,10=2,15=8,20=101,22=-1,28=1,33=2,42=6/1,2;
 99/5=1,9=1/99;
 -----------------
 CaMKII_loop3_71.0
 -----------------
 Symbolic Z-matrix:
 Charge =  0 Multiplicity = 1
 C                     75.42     43.72     21.87 
 C                     74.19     42.89     22.18 
 O                     74.12     41.67     22.03 
 H                     76.246    43.06     21.607 
 H                     75.208    44.386    21.034 
 H                     75.691    44.31     22.746 
 N                     73.16     43.65     22.57 
 C                     71.94     43.05     23.07 
 C                     71.07     42.75     21.86 
 O                     70.05     43.41     21.64 
 C                     71.3      43.92     24.15 
 C                     70.14     43.21     24.83 
 O                     69.99     41.99     24.6 
 O                     69.38     43.9      25.55 
 H                     73.21     44.66     22.53 
 H                     72.16     42.14     23.61 
 H                     70.93     44.83     23.68 
 H                     71.98     44.27     24.93 
 N                     71.51     41.87     20.95 
 C                     70.91     41.61     19.65 
 C                     69.47     41.12     19.66 
 O                     68.74     41.4      18.72 
 C                     71.81     40.7      18.82 
 C                     71.71     41.08     17.35 
 C                     72.49     39.98     16.62 
 C                     72.57     40.22     15.12 
 N                     71.99     39.09     14.37 
 H                     72.41     41.48     21.19 
 H                     70.89     42.54     19.08 
 H                     71.57     39.65     18.99 
 H                     72.86     40.84     19.07 
 H                     72.17     42.05     17.15 
 H                     70.68     41.15     17. 
 H                     72.02     39.05     16.93 
 H                     73.51     40.02     17. 
 H                     73.55     40.56     14.78 
 H                     71.95     41.07     14.86 
 H                     72.08     39.12     13.37 
 H                     72.3      38.24     14.82 
 H                     70.98     39.12     14.47 
 N                     68.99     40.52     20.76 
 C                     67.65     40.07     21.04 
 C                     66.98     41.02     22.03 
 O                     65.79     40.91     22.3 
 C                     67.68     38.66     21.62 
 C                     68.53     38.55     22.87 
 O                     69.35     37.61     22.99 
 O                     68.29     39.26     23.88 
 H                     69.71     40.37     21.45 
 H                     66.97     40.12     20.19 
 H                     68.16     37.98     20.91 
 H                     66.64     38.36     21.72 
 N                     67.68     42.05     22.51 
 C                     67.       43.25     22.97 
 C                     66.37     43.32     24.36 
 O                     65.74     44.28     24.8 
 H                     68.68     42.08     22.41 
 H                     66.29     43.59     22.22 
 H                     67.76     44.01     23.15 
 N                     66.49     42.28     25.19 
 C                     65.76     42.       26.41 
 C                     66.15     42.98     27.51 
 O                     65.51     43.       28.56 
 C                     65.92     40.53     26.78 
 C                     67.19     40.39     27.6 
 N                     67.17     39.92     28.85 
 O                     68.27     40.61     27.05 
 H                     67.23     41.62     24.98 
 H                     64.73     42.24     26.17 
 H                     66.05     39.85     25.94 
 H                     65.02     40.2      27.31 
 H                     66.34     39.59     29.31 
 H                     68.08     39.77     29.26 
 N                     67.09     43.9      27.27 
 C                     67.63     44.96     28.09 
 C                     68.95     44.55     28.73 
 O                     69.32     45.17     29.72 
 H                     67.65     43.65     26.47 
 H                     66.94     45.21     28.9 
 H                     67.88     45.9      27.6 
 N                     69.54     43.4      28.36 
 C                     70.69     42.85     29.05 
 C                     71.7      42.19     28.13 
 O                     71.36     41.25     27.42 
 C                     70.28     41.81     30.1 
 C                     69.33     42.35     31.14 
 C                     69.75     42.74     32.42 
 C                     67.98     42.49     30.8 
 C                     68.8      43.26     33.3 
 C                     67.03     43.13     31.61 
 C                     67.46     43.48     32.91 
 O                     66.56     44.13     33.7 
 H                     69.3      43.05     27.45 
 H                     71.26     43.68     29.47 
 H                     71.14     41.52     30.71 
 H                     69.82     40.93     29.66 
 H                     70.8      42.67     32.69 
 H                     67.73     42.26     29.78 
 H                     69.11     43.51     34.3 
 H                     65.98     43.15     31.36 
 H                     65.74     44.37     33.25 
 N                     72.96     42.62     28.19 
 C                     74.06     41.97     27.5 
 C                     74.5      40.74     28.27 
 O                     74.83     40.88     29.44 
 C                     75.24     42.86     27.13 
 C                     74.77     44.1      26.36 
 C                     76.33     42.12     26.37 
 C                     75.91     45.12     26.42 
 H                     73.17     43.33     28.88 
 H                     73.66     41.7      26.52 
 H                     75.68     43.18     28.07 
 H                     73.88     44.56     26.78 
 H                     74.59     43.91     25.3 
 H                     76.84     41.34     26.95 
 H                     75.88     41.68     25.48 
 H                     77.12     42.8      26.05 
 H                     76.12     45.32     27.47 
 H                     76.83     44.81     25.93 
 H                     75.6      46.05     25.95 
 N                     74.66     39.58     27.61 
 C                     75.22     38.4      28.22 
 C                     76.67     38.18     27.8 
 O                     77.12     38.71     26.78 
 C                     74.41     37.18     27.8 
 O                     74.44     36.99     26.4 
 H                     74.22     39.63     26.7 
 H                     75.2      38.42     29.31 
 H                     73.38     37.28     28.15 
 H                     74.78     36.27     28.27 
 H                     73.92     37.75     26.12 
 N                     77.44     37.42     28.58 
 C                     78.7      36.88     28.12 
 C                     78.76     36.35     26.7 
 O                     79.66     36.72     25.95 
 C                     79.24     35.84     29.1 
 H                     76.99     36.89     29.32 
 H                     79.45     37.67     28.18 
 H                     79.09     36.19     30.12 
 H                     78.71     34.89     29.11 
 H                     80.29     35.72     28.81 
 N                     77.8      35.54     26.27 
 C                     77.66     35.1      24.89 
 C                     77.46     36.21     23.87 
 O                     78.01     36.17     22.77 
 C                     76.5      34.12     24.86 
 H                     77.17     35.18     26.97 
 H                     78.61     34.69     24.54 
 H                     75.56     34.66     25. 
 H                     76.56     33.55     23.94 
 H                     76.61     33.35     25.62 
 N                     76.69     37.25     24.19 
 C                     76.45     38.39     23.33 
 C                     77.77     39.13     23.17 
 O                     78.09     39.65     22.1 
 C                     75.32     39.21     23.96 
 C                     74.01     38.57     23.52 
 C                     72.83     39.23     24.21 
 O                     72.9      39.43     25.45 
 O                     71.88     39.65     23.52 
 H                     76.17     37.29     25.06 
 H                     76.15     38.04     22.35 
 H                     75.37     40.25     23.64 
 H                     75.47     39.08     25.03 
 H                     73.97     37.5      23.74 
 H                     73.92     38.66     22.44 
 N                     78.55     39.32     24.24 
 C                     79.79     40.06     24.12 
 H                     80.566    39.405    23.724 
 H                     79.647    40.903    23.444 
 H                     80.091    40.428    25.101 
 H                     78.15     39.04     25.12 
 Ca                    70.27     39.62     25.61 
 O                     70.73     38.24     27.7 
 H                     71.11     38.49     28.55 
 H                     70.74     37.28     27.71 
 
 Stoichiometry    C54H83CaN15O23
 Framework group  C1[X(C54H83CaN15O23)]
 Deg. of freedom   522
 Full point group                 C1      NOp   1
 Largest Abelian subgroup         C1      NOp   1
 Largest concise Abelian subgroup C1      NOp   1
                         Standard orientation:                         
 ---------------------------------------------------------------------
 Center     Atomic      Atomic             Coordinates (Angstroms)
 Number     Number       Type             X           Y           Z
 ---------------------------------------------------------------------
      1          6           0        2.790287    2.166245    4.456079
      2          6           0        1.999856    2.229496    3.164135
      3          8           0        2.505369    2.307689    2.044250
      4          1           0        3.852817    2.089241    4.227727
      5          1           0        2.609200    3.069729    5.037732
      6          1           0        2.478057    1.294126    5.031262
      7          7           0        0.680806    2.262788    3.386842
      8          6           0       -0.261513    2.160471    2.291412
      9          6           0       -0.465404    3.567960    1.754381
     10          8           0       -1.530575    4.163782    1.940946
     11          6           0       -1.528018    1.422467    2.720615
     12          6           0       -2.433329    1.123159    1.536163
     13          8           0       -1.968617    1.303361    0.389267
     14          8           0       -3.605143    0.750873    1.781833
     15          1           0        0.310312    2.354934    4.324095
     16          1           0        0.127867    1.515083    1.516843
     17          1           0       -2.067212    2.052481    3.426486
     18          1           0       -1.362145    0.486204    3.258386
     19          7           0        0.580020    4.212748    1.218249
     20          6           0        0.616927    5.616924    0.838079
     21          6           0       -0.394020    6.056504   -0.210042
     22          8           0       -0.814452    7.204357   -0.186182
     23          6           0        2.036240    6.029969    0.461325
     24          6           0        2.281490    7.471127    0.883481
     25          6           0        3.646426    7.817119    0.276407
     26          6           0        4.112505    9.216114    0.650018
     27          7           0        4.349939   10.035501   -0.553323
     28          1           0        1.423459    3.657519    1.223745
     29          1           0        0.397758    6.224737    1.717129
     30          1           0        2.220067    5.876699   -0.602496
     31          1           0        2.779298    5.452422    1.008047
     32          1           0        2.326916    7.573039    1.969782
     33          1           0        1.500048    8.150723    0.543188
     34          1           0        3.539041    7.618072   -0.786959
     35          1           0        4.363043    7.120476    0.709476
     36          1           0        4.908787    9.230375    1.396565
     37          1           0        3.317827    9.728599    1.179494
     38          1           0        4.746407   10.946664   -0.406373
     39          1           0        4.819896    9.448662   -1.228497
     40          1           0        3.452280   10.282883   -0.958306
     41          7           0       -0.912271    5.142111   -1.044129
     42          6           0       -1.945735    5.297332   -2.036278
     43          6           0       -3.241288    4.659590   -1.539965
     44          8           0       -4.288333    4.797853   -2.160996
     45          6           0       -1.519017    4.642851   -3.345845
     46          6           0       -1.172396    3.175537   -3.191108
     47          8           0       -0.124457    2.721023   -3.706512
     48          8           0       -2.010792    2.357644   -2.732913
     49          1           0       -0.471793    4.241619   -0.934158
     50          1           0       -2.256989    6.327608   -2.206726
     51          1           0       -0.590863    5.100484   -3.700812
     52          1           0       -2.302790    4.876990   -4.061722
     53          7           0       -3.245383    4.046439   -0.354499
     54          6           0       -4.478199    3.927533    0.407095
     55          6           0       -5.502159    2.838469    0.091900
     56          8           0       -6.584924    2.704598    0.659172
     57          1           0       -2.381463    3.806656    0.100524
     58          1           0       -4.970386    4.894448    0.477994
     59          1           0       -4.217854    3.556935    1.398295
     60          7           0       -5.238910    1.945090   -0.865949
     61          6           0       -6.142927    1.024554   -1.525546
     62          6           0       -6.593943   -0.070368   -0.566260
     63          8           0       -7.491949   -0.840255   -0.902949
     64          6           0       -5.511303    0.519422   -2.817557
     65          6           0       -4.654576   -0.687175   -2.478379
     66          7           0       -4.889746   -1.887754   -3.014201
     67          8           0       -3.653379   -0.517729   -1.781104
     68          1           0       -4.266561    1.847187   -1.134744
     69          1           0       -7.032724    1.612843   -1.721194
     70          1           0       -4.834967    1.216701   -3.308750
     71          1           0       -6.307656    0.300540   -3.537079
     72          1           0       -5.603745   -2.064396   -3.698601
     73          1           0       -4.195747   -2.589059   -2.801511
     74          7           0       -6.109339   -0.095617    0.679582
     75          6           0       -6.374306   -0.972266    1.797115
     76          6           0       -5.301557   -2.045664    1.927982
     77          8           0       -5.580947   -3.055988    2.562480
     78          1           0       -5.265095    0.450068    0.754274
     79          1           0       -7.331505   -1.483685    1.667042
     80          1           0       -6.396673   -0.529562    2.791958
     81          7           0       -4.195712   -1.977534    1.166428
     82          6           0       -3.223930   -3.050697    1.095290
     83          6           0       -1.787311   -2.572395    0.998075
     84          8           0       -1.440962   -1.857752    0.063929
     85          6           0       -3.480915   -3.972725   -0.103052
     86          6           0       -4.856315   -4.592369   -0.098975
     87          6           0       -5.093172   -5.908124    0.324803
     88          6           0       -5.940452   -3.809754   -0.511116
     89          6           0       -6.406820   -6.378898    0.323930
     90          6           0       -7.281386   -4.206300   -0.397772
     91          6           0       -7.499605   -5.547025   -0.007596
     92          8           0       -8.795929   -5.940870    0.137414
     93          1           0       -3.947235   -1.066932    0.823992
     94          1           0       -3.233301   -3.577966    2.050330
     95          1           0       -2.836677   -4.854984   -0.054311
     96          1           0       -3.351034   -3.467146   -1.055481
     97          1           0       -4.268207   -6.519294    0.680054
     98          1           0       -5.714365   -2.783994   -0.740249
     99          1           0       -6.584083   -7.404608    0.597964
    100          1           0       -8.091927   -3.617448   -0.799862
    101          1           0       -9.438666   -5.225860    0.047134
    102          7           0       -0.926169   -3.021514    1.910669
    103          6           0        0.505482   -2.788761    1.841393
    104          6           0        1.138701   -3.746675    0.851022
    105          8           0        0.968048   -4.946551    1.020066
    106          6           0        1.248439   -2.774624    3.171512
    107          6           0        0.585706   -1.805929    4.158332
    108          6           0        2.732944   -2.479124    3.022428
    109          6           0        1.096814   -2.173059    5.553891
    110          1           0       -1.278470   -3.689965    2.583988
    111          1           0        0.608624   -1.753024    1.509865
    112          1           0        1.171268   -3.782691    3.568307
    113          1           0       -0.498756   -1.869029    4.166151
    114          1           0        0.867279   -0.763280    3.998018
    115          1           0        3.298707   -3.250288    2.483802
    116          1           0        2.835632   -1.523142    2.508859
    117          1           0        3.218942   -2.395815    3.994932
    118          1           0        0.839653   -3.215683    5.736655
    119          1           0        2.166634   -2.043686    5.699999
    120          1           0        0.599780   -1.561781    6.303022
    121          7           0        1.982802   -3.262456   -0.076246
    122          6           0        2.749438   -4.106854   -0.957927
    123          6           0        4.204896   -4.214861   -0.513767
    124          8           0        4.700715   -3.370481    0.237888
    125          6           0        2.720918   -3.526544   -2.366233
    126          8           0        3.292872   -2.235068   -2.410511
    127          1           0        1.893922   -2.256424   -0.141043
    128          1           0        2.360919   -5.122527   -1.037686
    129          1           0        1.693564   -3.502316   -2.736849
    130          1           0        3.260112   -4.156558   -3.072104
    131          1           0        2.627142   -1.743740   -1.918778
    132          7           0        4.914823   -5.259781   -0.941604
    133          6           0        6.358358   -5.289020   -0.863168
    134          6           0        7.105675   -4.012859   -1.200555
    135          8           0        7.958467   -3.584511   -0.426822
    136          6           0        6.925787   -6.464338   -1.657052
    137          1           0        4.512308   -5.841166   -1.670283
    138          1           0        6.637606   -5.541428    0.160801
    139          1           0        6.311788   -7.347286   -1.487325
    140          1           0        6.876212   -6.362868   -2.739062
    141          1           0        7.958448   -6.553052   -1.301045
    142          7           0        6.781075   -3.343811   -2.300377
    143          6           0        7.308453   -2.031695   -2.643631
    144          6           0        7.011534   -0.928042   -1.640490
    145          8           0        7.858744   -0.082380   -1.355550
    146          6           0        6.753612   -1.683200   -4.013887
    147          1           0        6.168403   -3.815163   -2.947649
    148          1           0        8.399096   -2.050960   -2.586815
    149          1           0        5.686551   -1.460861   -3.931761
    150          1           0        7.351185   -0.879499   -4.428461
    151          1           0        6.917877   -2.488394   -4.726124
    152          7           0        5.816960   -0.896532   -1.049813
    153          6           0        5.420342    0.072390   -0.049471
    154          6           0        6.274641   -0.168335    1.186581
    155          8           0        6.681716    0.765960    1.878739
    156          6           0        3.911686   -0.081919    0.165808
    157          6           0        3.223580    0.726075   -0.926417
    158          6           0        1.720251    0.520895   -0.881678
    159          8           0        1.281721   -0.653174   -0.773262
    160          8           0        0.971948    1.517706   -0.844114
    161          1           0        5.071691   -1.536237   -1.303289
    162          1           0        5.641550    1.068891   -0.411345
    163          1           0        3.621843    0.275342    1.153156
    164          1           0        3.736448   -1.146497    0.023447
    165          1           0        3.567831    0.457262   -1.928481
    166          1           0        3.469616    1.777068   -0.794212
    167          7           0        6.495685   -1.421874    1.597893
    168          6           0        7.269195   -1.673303    2.797087
    169          1           0        8.331773   -1.608240    2.563184
    170          1           0        7.018323   -0.930768    3.554569
    171          1           0        7.040905   -2.669808    3.175570
    172          1           0        5.983239   -2.133883    1.104697
    173         20           0       -1.069479    0.093203   -1.718450
    174          8           0       -0.795993   -2.121861   -2.944336
    175          1           0       -0.864244   -3.030190   -2.628614
    176          1           0       -0.385996   -2.202446   -3.808748
 ---------------------------------------------------------------------
 Rotational constants (GHZ):           0.0212974           0.0160905           0.0112434
 Standard basis: SVP (5D, 7F)
 There are  1809 symmetry adapted cartesian basis functions of A   symmetry.
 There are  1717 symmetry adapted basis functions of A   symmetry.
  1717 basis functions,  2922 primitive gaussians,  1809 cartesian basis functions
   358 alpha electrons      358 beta electrons
       nuclear repulsion energy     21733.9492191237 Hartrees.
 NAtoms=  176 NActive=  176 NUniq=  176 SFac= 1.00D+00 NAtFMM=   60 NAOKFM=T Big=T
 Integral buffers will be    131072 words long.
 Raffenetti 2 integral format.
 Two-electron integral symmetry is turned on.
 One-electron integrals computed using PRISM.
 NBasis=  1717 RedAO= T EigKep=  2.80D-04  NBF=  1717
 NBsUse=  1717 1.00D-06 EigRej= -1.00D+00 NBFU=  1717
 ExpMin= 1.98D-02 ExpMax= 3.51D+04 ExpMxC= 5.28D+03 IAcc=3 IRadAn=         5 AccDes= 0.00D+00
 Harris functional with IExCor=  402 and IRadAn=       5 diagonalized for initial guess.
 HarFok:  IExCor=  402 AccDes= 0.00D+00 IRadAn=         5 IDoV= 1 UseB2=F ITyADJ=14
 ICtDFT=  3500011 ScaDFX=  1.000000  1.000000  1.000000  1.000000
 FoFCou: FMM=F IPFlag=           0 FMFlag=      100000 FMFlg1=        2001
         NFxFlg=           0 DoJE=T BraDBF=F KetDBF=T FulRan=T
         wScrn=  0.000000 ICntrl=       500 IOpCl=  0 I1Cent=   200000004 NGrid=           0
         NMat0=    1 NMatS0=      1 NMatT0=    0 NMatD0=    1 NMtDS0=    0 NMtDT0=    0
 Petite list used in FoFCou.
 Requested convergence on RMS density matrix=1.00D-08 within 128 cycles.
 Requested convergence on MAX density matrix=1.00D-06.
 Requested convergence on             energy=1.00D-06.
 No special actions if energy rises.
 EnCoef did     1 forward-backward iterations
 EnCoef did     2 forward-backward iterations
 EnCoef did     2 forward-backward iterations
 SCF Done:  E(RB3LYP) =  -5333.57693055     A.U. after   20 cycles
            NFock= 20  Conv=0.51D-08     -V/T= 2.0081
 SCF density gives NOpUse=  1 NOpAll=  1.
 Hyperfine terms turned off by default for NAtoms > 100.

 **********************************************************************

            Population analysis using the SCF density.

 **********************************************************************

 Orbital symmetries:
 BldTbl:  Degeneracy threshold= 1.00D-02
       Occupied  (A) (A) (A) (A) (A) (A) (A) (A) (A) (A) (A) (A)
                 (A) (A) (A) (A) (A) (A) (A) (A) (A) (A) (A) (A)
                 (A) (A) (A) (A) (A) (A) (A) (A) (A) (A) (A) (A)
                 (A) (A) (A) (A) (A) (A) (A) (A) (A) (A) (A) (A)
                 (A) (A) (A) (A) (A) (A) (A) (A) (A) (A) (A) (A)
                 (A) (A) (A) (A) (A) (A) (A) (A) (A) (A) (A) (A)
                 (A) (A) (A) (A) (A) (A) (A) (A) (A) (A) (A) (A)
                 (A) (A) (A) (A) (A) (A) (A) (A) (A) (A) (A) (A)
                 (A) (A) (A) (A) (A) (A) (A) (A) (A) (A) (A) (A)
                 (A) (A) (A) (A) (A) (A) (A) (A) (A) (A) (A) (A)
                 (A) (A) (A) (A) (A) (A) (A) (A) (A) (A) (A) (A)
                 (A) (A) (A) (A) (A) (A) (A) (A) (A) (A) (A) (A)
                 (A) (A) (A) (A) (A) (A) (A) (A) (A) (A) (A) (A)
                 (A) (A) (A) (A) (A) (A) (A) (A) (A) (A) (A) (A)
                 (A) (A) (A) (A) (A) (A) (A) (A) (A) (A) (A) (A)
                 (A) (A) (A) (A) (A) (A) (A) (A) (A) (A) (A) (A)
                 (A) (A) (A) (A) (A) (A) (A) (A) (A) (A) (A) (A)
                 (A) (A) (A) (A) (A) (A) (A) (A) (A) (A) (A) (A)
                 (A) (A) (A) (A) (A) (A) (A) (A) (A) (A) (A) (A)
                 (A) (A) (A) (A) (A) (A) (A) (A) (A) (A) (A) (A)
                 (A) (A) (A) (A) (A) (A) (A) (A) (A) (A) (A) (A)
                 (A) (A) (A) (A) (A) (A) (A) (A) (A) (A) (A) (A)
                 (A) (A) (A) (A) (A) (A) (A) (A) (A) (A) (A) (A)
                 (A) (A) (A) (A) (A) (A) (A) (A) (A) (A) (A) (A)
                 (A) (A) (A) (A) (A) (A) (A) (A) (A) (A) (A) (A)
                 (A) (A) (A) (A) (A) (A) (A) (A) (A) (A) (A) (A)
                 (A) (A) (A) (A) (A) (A) (A) (A) (A) (A) (A) (A)
                 (A) (A) (A) (A) (A) (A) (A) (A) (A) (A) (A) (A)
                 (A) (A) (A) (A) (A) (A) (A) (A) (A) (A) (A) (A)
                 (A) (A) (A) (A) (A) (A) (A) (A) (A) (A)
       Virtual   (A) (A) (A) (A) (A) (A) (A) (A) (A) (A) (A) (A)
                 (A) (A) (A) (A) (A) (A) (A) (A) (A) (A) (A) (A)
                 (A) (A) (A) (A) (A) (A) (A) (A) (A) (A) (A) (A)
                 (A) (A) (A) (A) (A) (A) (A) (A) (A) (A) (A) (A)
                 (A) (A) (A) (A) (A) (A) (A) (A) (A) (A) (A) (A)
                 (A) (A) (A) (A) (A) (A) (A) (A) (A) (A) (A) (A)
                 (A) (A) (A) (A) (A) (A) (A) (A) (A) (A) (A) (A)
                 (A) (A) (A) (A) (A) (A) (A) (A) (A) (A) (A) (A)
                 (A) (A) (A) (A) (A) (A) (A) (A) (A) (A) (A) (A)
                 (A) (A) (A) (A) (A) (A) (A) (A) (A) (A) (A) (A)
                 (A) (A) (A) (A) (A) (A) (A) (A) (A) (A) (A) (A)
                 (A) (A) (A) (A) (A) (A) (A) (A) (A) (A) (A) (A)
                 (A) (A) (A) (A) (A) (A) (A) (A) (A) (A) (A) (A)
                 (A) (A) (A) (A) (A) (A) (A) (A) (A) (A) (A) (A)
                 (A) (A) (A) (A) (A) (A) (A) (A) (A) (A) (A) (A)
                 (A) (A) (A) (A) (A) (A) (A) (A) (A) (A) (A) (A)
                 (A) (A) (A) (A) (A) (A) (A) (A) (A) (A) (A) (A)
                 (A) (A) (A) (A) (A) (A) (A) (A) (A) (A) (A) (A)
                 (A) (A) (A) (A) (A) (A) (A) (A) (A) (A) (A) (A)
                 (A) (A) (A) (A) (A) (A) (A) (A) (A) (A) (A) (A)
                 (A) (A) (A) (A) (A) (A) (A) (A) (A) (A) (A) (A)
                 (A) (A) (A) (A) (A) (A) (A) (A) (A) (A) (A) (A)
                 (A) (A) (A) (A) (A) (A) (A) (A) (A) (A) (A) (A)
                 (A) (A) (A) (A) (A) (A) (A) (A) (A) (A) (A) (A)
                 (A) (A) (A) (A) (A) (A) (A) (A) (A) (A) (A) (A)
                 (A) (A) (A) (A) (A) (A) (A) (A) (A) (A) (A) (A)
                 (A) (A) (A) (A) (A) (A) (A) (A) (A) (A) (A) (A)
                 (A) (A) (A) (A) (A) (A) (A) (A) (A) (A) (A) (A)
                 (A) (A) (A) (A) (A) (A) (A) (A) (A) (A) (A) (A)
                 (A) (A) (A) (A) (A) (A) (A) (A) (A) (A) (A) (A)
                 (A) (A) (A) (A) (A) (A) (A) (A) (A) (A) (A) (A)
                 (A) (A) (A) (A) (A) (A) (A) (A) (A) (A) (A) (A)
                 (A) (A) (A) (A) (A) (A) (A) (A) (A) (A) (A) (A)
                 (A) (A) (A) (A) (A) (A) (A) (A) (A) (A) (A) (A)
                 (A) (A) (A) (A) (A) (A) (A) (A) (A) (A) (A) (A)
                 (A) (A) (A) (A) (A) (A) (A) (A) (A) (A) (A) (A)
                 (A) (A) (A) (A) (A) (A) (A) (A) (A) (A) (A) (A)
                 (A) (A) (A) (A) (A) (A) (A) (A) (A) (A) (A) (A)
                 (A) (A) (A) (A) (A) (A) (A) (A) (A) (A) (A) (A)
                 (A) (A) (A) (A) (A) (A) (A) (A) (A) (A) (A) (A)
                 (A) (A) (A) (A) (A) (A) (A) (A) (A) (A) (A) (A)
                 (A) (A) (A) (A) (A) (A) (A) (A) (A) (A) (A) (A)
                 (A) (A) (A) (A) (A) (A) (A) (A) (A) (A) (A) (A)
                 (A) (A) (A) (A) (A) (A) (A) (A) (A) (A) (A) (A)
                 (A) (A) (A) (A) (A) (A) (A) (A) (A) (A) (A) (A)
                 (A) (A) (A) (A) (A) (A) (A) (A) (A) (A) (A) (A)
                 (A) (A) (A) (A) (A) (A) (A) (A) (A) (A) (A) (A)
                 (A) (A) (A) (A) (A) (A) (A) (A) (A) (A) (A) (A)
                 (A) (A) (A) (A) (A) (A) (A) (A) (A) (A) (A) (A)
                 (A) (A) (A) (A) (A) (A) (A) (A) (A) (A) (A) (A)
                 (A) (A) (A) (A) (A) (A) (A) (A) (A) (A) (A) (A)
                 (A) (A) (A) (A) (A) (A) (A) (A) (A) (A) (A) (A)
                 (A) (A) (A) (A) (A) (A) (A) (A) (A) (A) (A) (A)
                 (A) (A) (A) (A) (A) (A) (A) (A) (A) (A) (A) (A)
                 (A) (A) (A) (A) (A) (A) (A) (A) (A) (A) (A) (A)
                 (A) (A) (A) (A) (A) (A) (A) (A) (A) (A) (A) (A)
                 (A) (A) (A) (A) (A) (A) (A) (A) (A) (A) (A) (A)
                 (A) (A) (A) (A) (A) (A) (A) (A) (A) (A) (A) (A)
                 (A) (A) (A) (A) (A) (A) (A) (A) (A) (A) (A) (A)
                 (A) (A) (A) (A) (A) (A) (A) (A) (A) (A) (A) (A)
                 (A) (A) (A) (A) (A) (A) (A) (A) (A) (A) (A) (A)
                 (A) (A) (A) (A) (A) (A) (A) (A) (A) (A) (A) (A)
                 (A) (A) (A) (A) (A) (A) (A) (A) (A) (A) (A) (A)
                 (A) (A) (A) (A) (A) (A) (A) (A) (A) (A) (A) (A)
                 (A) (A) (A) (A) (A) (A) (A) (A) (A) (A) (A) (A)
                 (A) (A) (A) (A) (A) (A) (A) (A) (A) (A) (A) (A)
                 (A) (A) (A) (A) (A) (A) (A) (A) (A) (A) (A) (A)
                 (A) (A) (A) (A) (A) (A) (A) (A) (A) (A) (A) (A)
                 (A) (A) (A) (A) (A) (A) (A) (A) (A) (A) (A) (A)
                 (A) (A) (A) (A) (A) (A) (A) (A) (A) (A) (A) (A)
                 (A) (A) (A) (A) (A) (A) (A) (A) (A) (A) (A) (A)
                 (A) (A) (A) (A) (A) (A) (A) (A) (A) (A) (A) (A)
                 (A) (A) (A) (A) (A) (A) (A) (A) (A) (A) (A) (A)
                 (A) (A) (A) (A) (A) (A) (A) (A) (A) (A) (A) (A)
                 (A) (A) (A) (A) (A) (A) (A) (A) (A) (A) (A) (A)
                 (A) (A) (A) (A) (A) (A) (A) (A) (A) (A) (A) (A)
                 (A) (A) (A) (A) (A) (A) (A) (A) (A) (A) (A) (A)
                 (A) (A) (A) (A) (A) (A) (A) (A) (A) (A) (A) (A)
                 (A) (A) (A) (A) (A) (A) (A) (A) (A) (A) (A) (A)
                 (A) (A) (A) (A) (A) (A) (A) (A) (A) (A) (A) (A)
                 (A) (A) (A) (A) (A) (A) (A) (A) (A) (A) (A) (A)
                 (A) (A) (A) (A) (A) (A) (A) (A) (A) (A) (A) (A)
                 (A) (A) (A) (A) (A) (A) (A) (A) (A) (A) (A) (A)
                 (A) (A) (A) (A) (A) (A) (A) (A) (A) (A) (A) (A)
                 (A) (A) (A) (A) (A) (A) (A) (A) (A) (A) (A) (A)
                 (A) (A) (A) (A) (A) (A) (A) (A) (A) (A) (A) (A)
                 (A) (A) (A) (A) (A) (A) (A) (A) (A) (A) (A) (A)
                 (A) (A) (A) (A) (A) (A) (A) (A) (A) (A) (A) (A)
                 (A) (A) (A) (A) (A) (A) (A) (A) (A) (A) (A) (A)
                 (A) (A) (A) (A) (A) (A) (A) (A) (A) (A) (A) (A)
                 (A) (A) (A) (A) (A) (A) (A) (A) (A) (A) (A) (A)
                 (A) (A) (A) (A) (A) (A) (A) (A) (A) (A) (A) (A)
                 (A) (A) (A) (A) (A) (A) (A) (A) (A) (A) (A) (A)
                 (A) (A) (A) (A) (A) (A) (A) (A) (A) (A) (A) (A)
                 (A) (A) (A) (A) (A) (A) (A) (A) (A) (A) (A) (A)
                 (A) (A) (A) (A) (A) (A) (A) (A) (A) (A) (A) (A)
                 (A) (A) (A) (A) (A) (A) (A) (A) (A) (A) (A) (A)
                 (A) (A) (A) (A) (A) (A) (A) (A) (A) (A) (A) (A)
                 (A) (A) (A) (A) (A) (A) (A) (A) (A) (A) (A) (A)
                 (A) (A) (A) (A) (A) (A) (A) (A) (A) (A) (A) (A)
                 (A) (A) (A) (A) (A) (A) (A) (A) (A) (A) (A) (A)
                 (A) (A) (A) (A) (A) (A) (A) (A) (A) (A) (A) (A)
                 (A) (A) (A) (A) (A) (A) (A) (A) (A) (A) (A) (A)
                 (A) (A) (A) (A) (A) (A) (A) (A) (A) (A) (A) (A)
                 (A) (A) (A) (A) (A) (A) (A) (A) (A) (A) (A) (A)
                 (A) (A) (A) (A) (A) (A) (A) (A) (A) (A) (A) (A)
                 (A) (A) (A) (A) (A) (A) (A) (A) (A) (A) (A) (A)
                 (A) (A) (A) (A) (A) (A) (A) (A) (A) (A) (A) (A)
                 (A) (A) (A) (A) (A) (A) (A) (A) (A) (A) (A) (A)
                 (A) (A) (A) (A) (A) (A) (A) (A) (A) (A) (A) (A)
                 (A) (A) (A) (A) (A) (A) (A) (A) (A) (A) (A) (A)
                 (A) (A) (A) (A) (A) (A) (A) (A) (A) (A) (A) (A)
                 (A) (A) (A) (A) (A) (A) (A) (A) (A) (A) (A) (A)
                 (A) (A) (A)
 The electronic state is 1-A.
 Alpha  occ. eigenvalues -- -145.35881 -19.20441 -19.15570 -19.12974 -19.12340
 Alpha  occ. eigenvalues --  -19.10641 -19.10635 -19.10494 -19.09189 -19.09001
 Alpha  occ. eigenvalues --  -19.08608 -19.07908 -19.07816 -19.06545 -19.06238
 Alpha  occ. eigenvalues --  -19.04679 -19.04355 -19.04041 -19.03812 -19.03527
 Alpha  occ. eigenvalues --  -19.02922 -19.02859 -19.02373 -19.00962 -15.41643
 Alpha  occ. eigenvalues --  -14.59736 -14.38551 -14.36140 -14.36039 -14.35902
 Alpha  occ. eigenvalues --  -14.35451 -14.34443 -14.33528 -14.32890 -14.31906
 Alpha  occ. eigenvalues --  -14.30753 -14.29832 -14.29056 -14.28677 -14.28364
 Alpha  occ. eigenvalues --  -12.55257 -12.55227 -12.55191 -10.35797 -10.30645
 Alpha  occ. eigenvalues --  -10.29438 -10.28767 -10.28689 -10.28095 -10.27922
 Alpha  occ. eigenvalues --  -10.27385 -10.26626 -10.26562 -10.26434 -10.25781
 Alpha  occ. eigenvalues --  -10.25348 -10.25236 -10.24607 -10.24027 -10.23490
 Alpha  occ. eigenvalues --  -10.23471 -10.23201 -10.23037 -10.22756 -10.22556
 Alpha  occ. eigenvalues --  -10.22215 -10.22183 -10.22047 -10.22042 -10.22028
 Alpha  occ. eigenvalues --  -10.21637 -10.21247 -10.21110 -10.20436 -10.20117
 Alpha  occ. eigenvalues --  -10.19617 -10.19268 -10.19127 -10.19012 -10.18909
 Alpha  occ. eigenvalues --  -10.18536 -10.18217 -10.17970 -10.17878 -10.17837
 Alpha  occ. eigenvalues --  -10.17110 -10.17078 -10.16644 -10.16388 -10.16273
 Alpha  occ. eigenvalues --  -10.15747 -10.15723 -10.15704 -10.15443 -10.15284
 Alpha  occ. eigenvalues --  -10.14888 -10.14467  -1.78508  -1.14954  -1.06878
 Alpha  occ. eigenvalues --   -1.06238  -1.05966  -1.05709  -1.05055  -1.04145
 Alpha  occ. eigenvalues --   -1.03717  -1.03501  -1.03194  -1.02519  -1.02083
 Alpha  occ. eigenvalues --   -1.01916  -1.01509  -1.01460  -1.00477  -0.99718
 Alpha  occ. eigenvalues --   -0.98311  -0.97694  -0.97560  -0.97148  -0.97075
 Alpha  occ. eigenvalues --   -0.96305  -0.96046  -0.95146  -0.92667  -0.92355
 Alpha  occ. eigenvalues --   -0.92285  -0.92190  -0.91587  -0.91105  -0.90580
 Alpha  occ. eigenvalues --   -0.89955  -0.89451  -0.89198  -0.88650  -0.88003
 Alpha  occ. eigenvalues --   -0.86715  -0.85805  -0.85540  -0.85434  -0.84822
 Alpha  occ. eigenvalues --   -0.82903  -0.81721  -0.81582  -0.80772  -0.78059
 Alpha  occ. eigenvalues --   -0.77617  -0.77173  -0.76381  -0.76347  -0.75970
 Alpha  occ. eigenvalues --   -0.75605  -0.75320  -0.73996  -0.73808  -0.72237
 Alpha  occ. eigenvalues --   -0.71660  -0.71151  -0.70862  -0.69771  -0.69606
 Alpha  occ. eigenvalues --   -0.68743  -0.68486  -0.68049  -0.67515  -0.66601
 Alpha  occ. eigenvalues --   -0.65774  -0.64787  -0.64514  -0.64317  -0.63777
 Alpha  occ. eigenvalues --   -0.63327  -0.63204  -0.63145  -0.61755  -0.61652
 Alpha  occ. eigenvalues --   -0.60096  -0.59729  -0.59508  -0.59302  -0.59245
 Alpha  occ. eigenvalues --   -0.59127  -0.58749  -0.58065  -0.57395  -0.57014
 Alpha  occ. eigenvalues --   -0.56916  -0.56237  -0.56187  -0.56119  -0.55480
 Alpha  occ. eigenvalues --   -0.55340  -0.54781  -0.54404  -0.54050  -0.53938
 Alpha  occ. eigenvalues --   -0.53362  -0.53021  -0.52579  -0.52550  -0.52455
 Alpha  occ. eigenvalues --   -0.52303  -0.51786  -0.51698  -0.51511  -0.50738
 Alpha  occ. eigenvalues --   -0.50699  -0.50452  -0.50238  -0.49872  -0.49561
 Alpha  occ. eigenvalues --   -0.49180  -0.48809  -0.48716  -0.48170  -0.48131
 Alpha  occ. eigenvalues --   -0.47975  -0.47432  -0.47309  -0.47264  -0.47014
 Alpha  occ. eigenvalues --   -0.46813  -0.46796  -0.46619  -0.46339  -0.45527
 Alpha  occ. eigenvalues --   -0.45376  -0.45266  -0.45082  -0.44961  -0.44756
 Alpha  occ. eigenvalues --   -0.44602  -0.44239  -0.44178  -0.43936  -0.43786
 Alpha  occ. eigenvalues --   -0.43491  -0.43336  -0.43151  -0.42930  -0.42740
 Alpha  occ. eigenvalues --   -0.42618  -0.42467  -0.42078  -0.41939  -0.41817
 Alpha  occ. eigenvalues --   -0.41740  -0.41638  -0.41451  -0.41385  -0.41092
 Alpha  occ. eigenvalues --   -0.40943  -0.40704  -0.40550  -0.40433  -0.40286
 Alpha  occ. eigenvalues --   -0.40277  -0.40136  -0.39965  -0.39816  -0.39479
 Alpha  occ. eigenvalues --   -0.39424  -0.39316  -0.39293  -0.39190  -0.39106
 Alpha  occ. eigenvalues --   -0.38926  -0.38762  -0.38648  -0.38637  -0.38476
 Alpha  occ. eigenvalues --   -0.38452  -0.38431  -0.38373  -0.38100  -0.37927
 Alpha  occ. eigenvalues --   -0.37865  -0.37691  -0.37650  -0.37555  -0.37507
 Alpha  occ. eigenvalues --   -0.37412  -0.37323  -0.37122  -0.36962  -0.36846
 Alpha  occ. eigenvalues --   -0.36631  -0.36514  -0.36365  -0.35952  -0.35696
 Alpha  occ. eigenvalues --   -0.35649  -0.35456  -0.35387  -0.35232  -0.35185
 Alpha  occ. eigenvalues --   -0.34824  -0.34376  -0.34315  -0.34056  -0.33977
 Alpha  occ. eigenvalues --   -0.33718  -0.33519  -0.33429  -0.33297  -0.32991
 Alpha  occ. eigenvalues --   -0.32882  -0.32621  -0.32559  -0.32450  -0.31651
 Alpha  occ. eigenvalues --   -0.31315  -0.31285  -0.31085  -0.30915  -0.30514
 Alpha  occ. eigenvalues --   -0.30290  -0.30114  -0.29949  -0.29481  -0.29340
 Alpha  occ. eigenvalues --   -0.28315  -0.27988  -0.27750  -0.27586  -0.26912
 Alpha  occ. eigenvalues --   -0.26701  -0.26385  -0.26138  -0.25866  -0.25771
 Alpha  occ. eigenvalues --   -0.25374  -0.25094  -0.24856  -0.24818  -0.24415
 Alpha  occ. eigenvalues --   -0.23704  -0.23330  -0.23241  -0.23037  -0.22717
 Alpha  occ. eigenvalues --   -0.22503  -0.22364  -0.22319  -0.22141  -0.21508
 Alpha  occ. eigenvalues --   -0.20935  -0.20738  -0.20601  -0.20411  -0.19540
 Alpha  occ. eigenvalues --   -0.19238  -0.19192  -0.19039  -0.18917  -0.18730
 Alpha  occ. eigenvalues --   -0.18205  -0.17556  -0.16367
 Alpha virt. eigenvalues --   -0.11399  -0.05664  -0.05076  -0.02989  -0.02280
 Alpha virt. eigenvalues --   -0.01142  -0.00071   0.00408   0.00952   0.01029
 Alpha virt. eigenvalues --    0.01137   0.01429   0.01692   0.01821   0.02412
 Alpha virt. eigenvalues --    0.02612   0.03221   0.03460   0.04128   0.04272
 Alpha virt. eigenvalues --    0.04629   0.05075   0.05217   0.05377   0.05398
 Alpha virt. eigenvalues --    0.05569   0.05648   0.06305   0.06453   0.06892
 Alpha virt. eigenvalues --    0.07019   0.07109   0.07261   0.07417   0.07578
 Alpha virt. eigenvalues --    0.07790   0.08035   0.08240   0.08395   0.08467
 Alpha virt. eigenvalues --    0.08584   0.08720   0.08995   0.09275   0.09335
 Alpha virt. eigenvalues --    0.09707   0.10026   0.10324   0.10500   0.10810
 Alpha virt. eigenvalues --    0.11003   0.11339   0.11520   0.11826   0.11943
 Alpha virt. eigenvalues --    0.12198   0.12374   0.12480   0.12597   0.12780
 Alpha virt. eigenvalues --    0.12861   0.13085   0.13143   0.13220   0.13446
 Alpha virt. eigenvalues --    0.13505   0.13699   0.13929   0.14143   0.14288
 Alpha virt. eigenvalues --    0.14415   0.14569   0.14847   0.14906   0.15294
 Alpha virt. eigenvalues --    0.15442   0.15732   0.15784   0.15992   0.16168
 Alpha virt. eigenvalues --    0.16328   0.16521   0.16795   0.16877   0.17086
 Alpha virt. eigenvalues --    0.17206   0.17421   0.17521   0.17762   0.17925
 Alpha virt. eigenvalues --    0.18021   0.18239   0.18300   0.18404   0.18547
 Alpha virt. eigenvalues --    0.18696   0.18848   0.18976   0.19166   0.19478
 Alpha virt. eigenvalues --    0.19649   0.19871   0.20000   0.20224   0.20388
 Alpha virt. eigenvalues --    0.20536   0.20872   0.20991   0.21103   0.21384
 Alpha virt. eigenvalues --    0.21632   0.21727   0.21941   0.22123   0.22341
 Alpha virt. eigenvalues --    0.22657   0.22693   0.23010   0.23184   0.23349
 Alpha virt. eigenvalues --    0.23410   0.23602   0.23931   0.24077   0.24287
 Alpha virt. eigenvalues --    0.24555   0.24736   0.24864   0.25334   0.25633
 Alpha virt. eigenvalues --    0.25694   0.25993   0.26125   0.26269   0.26791
 Alpha virt. eigenvalues --    0.27039   0.27171   0.27339   0.27479   0.27743
 Alpha virt. eigenvalues --    0.27890   0.28089   0.28383   0.28620   0.28776
 Alpha virt. eigenvalues --    0.29114   0.29202   0.29311   0.29523   0.29723
 Alpha virt. eigenvalues --    0.29918   0.30172   0.30509   0.31045   0.31146
 Alpha virt. eigenvalues --    0.31226   0.31896   0.32142   0.32286   0.32417
 Alpha virt. eigenvalues --    0.32685   0.32760   0.33224   0.33444   0.33516
 Alpha virt. eigenvalues --    0.33828   0.33988   0.34253   0.34855   0.35070
 Alpha virt. eigenvalues --    0.35237   0.35394   0.35833   0.36222   0.36352
 Alpha virt. eigenvalues --    0.37324   0.37483   0.37591   0.38122   0.38430
 Alpha virt. eigenvalues --    0.38516   0.38723   0.39059   0.39289   0.39325
 Alpha virt. eigenvalues --    0.39868   0.39923   0.40056   0.40497   0.40583
 Alpha virt. eigenvalues --    0.40868   0.41155   0.41332   0.41348   0.41765
 Alpha virt. eigenvalues --    0.41845   0.42093   0.42364   0.42832   0.43088
 Alpha virt. eigenvalues --    0.43146   0.43211   0.43481   0.43918   0.43963
 Alpha virt. eigenvalues --    0.44176   0.44628   0.44695   0.44881   0.45160
 Alpha virt. eigenvalues --    0.45295   0.45466   0.45785   0.45841   0.46116
 Alpha virt. eigenvalues --    0.46360   0.46604   0.46691   0.46861   0.46878
 Alpha virt. eigenvalues --    0.47163   0.47476   0.47561   0.47654   0.47946
 Alpha virt. eigenvalues --    0.48036   0.48311   0.48695   0.48785   0.48880
 Alpha virt. eigenvalues --    0.49073   0.49208   0.49269   0.49411   0.49804
 Alpha virt. eigenvalues --    0.50126   0.50410   0.50657   0.50788   0.51025
 Alpha virt. eigenvalues --    0.51151   0.51224   0.51692   0.51762   0.51975
 Alpha virt. eigenvalues --    0.52306   0.52438   0.52538   0.52745   0.52887
 Alpha virt. eigenvalues --    0.53234   0.53367   0.53488   0.54138   0.54181
 Alpha virt. eigenvalues --    0.54327   0.54445   0.54875   0.55045   0.55296
 Alpha virt. eigenvalues --    0.55456   0.55610   0.55763   0.55952   0.56117
 Alpha virt. eigenvalues --    0.56372   0.56459   0.56636   0.56682   0.56942
 Alpha virt. eigenvalues --    0.56981   0.57062   0.57333   0.57726   0.57808
 Alpha virt. eigenvalues --    0.57968   0.58044   0.58356   0.58495   0.58547
 Alpha virt. eigenvalues --    0.58707   0.58890   0.59035   0.59238   0.59345
 Alpha virt. eigenvalues --    0.59456   0.59805   0.59847   0.60030   0.60217
 Alpha virt. eigenvalues --    0.60376   0.60464   0.60562   0.60696   0.60922
 Alpha virt. eigenvalues --    0.61187   0.61413   0.61490   0.61623   0.61803
 Alpha virt. eigenvalues --    0.62035   0.62282   0.62323   0.62586   0.62683
 Alpha virt. eigenvalues --    0.62820   0.62888   0.62961   0.63119   0.63415
 Alpha virt. eigenvalues --    0.63428   0.63501   0.63591   0.63740   0.63867
 Alpha virt. eigenvalues --    0.64003   0.64173   0.64322   0.64422   0.64490
 Alpha virt. eigenvalues --    0.64682   0.64791   0.64992   0.65054   0.65205
 Alpha virt. eigenvalues --    0.65316   0.65407   0.65500   0.65572   0.65625
 Alpha virt. eigenvalues --    0.65769   0.65806   0.66096   0.66199   0.66295
 Alpha virt. eigenvalues --    0.66362   0.66535   0.66602   0.66878   0.66985
 Alpha virt. eigenvalues --    0.67049   0.67231   0.67261   0.67372   0.67507
 Alpha virt. eigenvalues --    0.67606   0.67665   0.67770   0.67923   0.67936
 Alpha virt. eigenvalues --    0.68037   0.68255   0.68388   0.68467   0.68591
 Alpha virt. eigenvalues --    0.68725   0.68765   0.68852   0.68954   0.69098
 Alpha virt. eigenvalues --    0.69261   0.69278   0.69320   0.69416   0.69550
 Alpha virt. eigenvalues --    0.69733   0.69823   0.69877   0.69921   0.70119
 Alpha virt. eigenvalues --    0.70247   0.70464   0.70543   0.70589   0.70918
 Alpha virt. eigenvalues --    0.71059   0.71151   0.71276   0.71357   0.71555
 Alpha virt. eigenvalues --    0.71706   0.71739   0.71951   0.71993   0.72147
 Alpha virt. eigenvalues --    0.72333   0.72452   0.72555   0.72693   0.72849
 Alpha virt. eigenvalues --    0.73373   0.73452   0.73689   0.73740   0.74081
 Alpha virt. eigenvalues --    0.74214   0.74448   0.74564   0.74731   0.74907
 Alpha virt. eigenvalues --    0.74994   0.75271   0.75624   0.75753   0.75831
 Alpha virt. eigenvalues --    0.76067   0.76141   0.76426   0.76531   0.76814
 Alpha virt. eigenvalues --    0.77075   0.77256   0.77356   0.77555   0.77834
 Alpha virt. eigenvalues --    0.78047   0.78083   0.78233   0.78806   0.79308
 Alpha virt. eigenvalues --    0.79356   0.79633   0.80109   0.80214   0.80590
 Alpha virt. eigenvalues --    0.80835   0.80959   0.80996   0.81259   0.81590
 Alpha virt. eigenvalues --    0.81768   0.81969   0.82653   0.82756   0.83082
 Alpha virt. eigenvalues --    0.83401   0.83513   0.83883   0.84327   0.84536
 Alpha virt. eigenvalues --    0.84815   0.85008   0.85307   0.85579   0.85728
 Alpha virt. eigenvalues --    0.86144   0.86421   0.86539   0.86807   0.86961
 Alpha virt. eigenvalues --    0.87331   0.87402   0.87606   0.87993   0.88197
 Alpha virt. eigenvalues --    0.88574   0.89229   0.89398   0.89477   0.89940
 Alpha virt. eigenvalues --    0.90141   0.90489   0.90843   0.91144   0.91327
 Alpha virt. eigenvalues --    0.91894   0.92144   0.92344   0.92616   0.93168
 Alpha virt. eigenvalues --    0.93459   0.93495   0.94410   0.94610   0.95132
 Alpha virt. eigenvalues --    0.95535   0.95636   0.95683   0.95965   0.96231
 Alpha virt. eigenvalues --    0.96432   0.96678   0.97081   0.97104   0.97593
 Alpha virt. eigenvalues --    0.97902   0.98259   0.98388   0.98492   0.98604
 Alpha virt. eigenvalues --    0.99099   0.99179   0.99326   0.99566   0.99777
 Alpha virt. eigenvalues --    1.00138   1.00463   1.00598   1.00655   1.00778
 Alpha virt. eigenvalues --    1.01392   1.01624   1.01791   1.02225   1.02493
 Alpha virt. eigenvalues --    1.03267   1.03708   1.04055   1.04152   1.04627
 Alpha virt. eigenvalues --    1.04723   1.04962   1.05276   1.05406   1.05637
 Alpha virt. eigenvalues --    1.05962   1.06409   1.06527   1.06823   1.07175
 Alpha virt. eigenvalues --    1.07372   1.07873   1.08146   1.08271   1.08796
 Alpha virt. eigenvalues --    1.09029   1.09065   1.09239   1.09457   1.09928
 Alpha virt. eigenvalues --    1.10354   1.10603   1.10700   1.11095   1.11729
 Alpha virt. eigenvalues --    1.11860   1.12177   1.12350   1.12661   1.12803
 Alpha virt. eigenvalues --    1.13063   1.13553   1.13869   1.14311   1.14533
 Alpha virt. eigenvalues --    1.14696   1.14885   1.15135   1.15429   1.15852
 Alpha virt. eigenvalues --    1.16092   1.16297   1.16586   1.16932   1.17015
 Alpha virt. eigenvalues --    1.17585   1.17747   1.18258   1.18379   1.18597
 Alpha virt. eigenvalues --    1.19236   1.19251   1.19615   1.19685   1.20216
 Alpha virt. eigenvalues --    1.20555   1.20686   1.20934   1.21041   1.21281
 Alpha virt. eigenvalues --    1.21600   1.21945   1.22214   1.22736   1.22882
 Alpha virt. eigenvalues --    1.23198   1.23337   1.23946   1.24131   1.24353
 Alpha virt. eigenvalues --    1.24582   1.24835   1.25259   1.25822   1.25870
 Alpha virt. eigenvalues --    1.26191   1.26213   1.26418   1.26546   1.26884
 Alpha virt. eigenvalues --    1.26980   1.27145   1.27522   1.27762   1.28053
 Alpha virt. eigenvalues --    1.28231   1.28501   1.28582   1.28765   1.28955
 Alpha virt. eigenvalues --    1.29403   1.29540   1.29647   1.29900   1.30205
 Alpha virt. eigenvalues --    1.30464   1.30679   1.30881   1.31007   1.31404
 Alpha virt. eigenvalues --    1.31623   1.31668   1.32003   1.32078   1.32382
 Alpha virt. eigenvalues --    1.32507   1.32963   1.33299   1.33564   1.33769
 Alpha virt. eigenvalues --    1.33945   1.34030   1.34472   1.34753   1.34803
 Alpha virt. eigenvalues --    1.35396   1.35532   1.35935   1.36107   1.36293
 Alpha virt. eigenvalues --    1.36523   1.37106   1.37289   1.37420   1.37779
 Alpha virt. eigenvalues --    1.38007   1.38132   1.38645   1.39170   1.39251
 Alpha virt. eigenvalues --    1.39601   1.39890   1.40073   1.40366   1.40595
 Alpha virt. eigenvalues --    1.40935   1.41356   1.41546   1.41667   1.42026
 Alpha virt. eigenvalues --    1.42492   1.42674   1.42982   1.43418   1.43664
 Alpha virt. eigenvalues --    1.43908   1.44574   1.44962   1.45414   1.45533
 Alpha virt. eigenvalues --    1.45836   1.46096   1.46221   1.46732   1.46977
 Alpha virt. eigenvalues --    1.47285   1.47649   1.48269   1.48549   1.48719
 Alpha virt. eigenvalues --    1.48911   1.49592   1.49659   1.49852   1.50258
 Alpha virt. eigenvalues --    1.50755   1.50869   1.51245   1.51304   1.51471
 Alpha virt. eigenvalues --    1.51684   1.51821   1.52209   1.52471   1.52630
 Alpha virt. eigenvalues --    1.52794   1.53020   1.53389   1.53652   1.54133
 Alpha virt. eigenvalues --    1.55071   1.55246   1.55557   1.55750   1.56223
 Alpha virt. eigenvalues --    1.56407   1.56563   1.57060   1.57315   1.57591
 Alpha virt. eigenvalues --    1.57747   1.57910   1.58254   1.58459   1.58682
 Alpha virt. eigenvalues --    1.58920   1.59023   1.59391   1.59734   1.60345
 Alpha virt. eigenvalues --    1.60532   1.60962   1.61430   1.61647   1.61951
 Alpha virt. eigenvalues --    1.62369   1.62808   1.63155   1.63395   1.63664
 Alpha virt. eigenvalues --    1.63775   1.64623   1.64681   1.64914   1.65198
 Alpha virt. eigenvalues --    1.65365   1.65539   1.65807   1.65995   1.66303
 Alpha virt. eigenvalues --    1.66696   1.66796   1.67317   1.67820   1.68222
 Alpha virt. eigenvalues --    1.68263   1.68877   1.69201   1.69415   1.69656
 Alpha virt. eigenvalues --    1.69901   1.70402   1.70928   1.71147   1.71456
 Alpha virt. eigenvalues --    1.71652   1.71957   1.72063   1.72463   1.72591
 Alpha virt. eigenvalues --    1.72821   1.72883   1.73208   1.73449   1.73705
 Alpha virt. eigenvalues --    1.73893   1.74058   1.74167   1.74484   1.74620
 Alpha virt. eigenvalues --    1.74755   1.75008   1.75301   1.75554   1.75671
 Alpha virt. eigenvalues --    1.75814   1.76104   1.76230   1.76298   1.76771
 Alpha virt. eigenvalues --    1.77087   1.77144   1.77290   1.77373   1.77561
 Alpha virt. eigenvalues --    1.77777   1.77816   1.78078   1.78416   1.78563
 Alpha virt. eigenvalues --    1.78788   1.78843   1.78918   1.79094   1.79455
 Alpha virt. eigenvalues --    1.79484   1.79711   1.79844   1.79953   1.80095
 Alpha virt. eigenvalues --    1.80444   1.80710   1.80986   1.81068   1.81199
 Alpha virt. eigenvalues --    1.81220   1.81354   1.81605   1.81762   1.81971
 Alpha virt. eigenvalues --    1.82065   1.82136   1.82277   1.82574   1.82678
 Alpha virt. eigenvalues --    1.82778   1.82935   1.83057   1.83187   1.83284
 Alpha virt. eigenvalues --    1.83349   1.83442   1.83567   1.83869   1.84355
 Alpha virt. eigenvalues --    1.84407   1.84486   1.84588   1.84865   1.85083
 Alpha virt. eigenvalues --    1.85243   1.85373   1.85598   1.85697   1.85905
 Alpha virt. eigenvalues --    1.86032   1.86232   1.86456   1.86659   1.86768
 Alpha virt. eigenvalues --    1.87026   1.87352   1.87469   1.87617   1.87915
 Alpha virt. eigenvalues --    1.88095   1.88220   1.88647   1.88719   1.88902
 Alpha virt. eigenvalues --    1.89081   1.89191   1.89347   1.89431   1.89523
 Alpha virt. eigenvalues --    1.89899   1.89958   1.90141   1.90284   1.90611
 Alpha virt. eigenvalues --    1.91056   1.91265   1.91481   1.91751   1.91906
 Alpha virt. eigenvalues --    1.92139   1.92297   1.92632   1.92738   1.92985
 Alpha virt. eigenvalues --    1.93074   1.93338   1.93472   1.93736   1.93818
 Alpha virt. eigenvalues --    1.94152   1.94375   1.94489   1.94766   1.94916
 Alpha virt. eigenvalues --    1.95121   1.95636   1.95888   1.96123   1.96153
 Alpha virt. eigenvalues --    1.96446   1.96572   1.96725   1.97364   1.97660
 Alpha virt. eigenvalues --    1.97844   1.97949   1.98346   1.98460   1.98532
 Alpha virt. eigenvalues --    1.99003   1.99204   1.99516   1.99670   1.99951
 Alpha virt. eigenvalues --    2.00204   2.00232   2.00328   2.00472   2.00904
 Alpha virt. eigenvalues --    2.01132   2.01259   2.01606   2.01823   2.01927
 Alpha virt. eigenvalues --    2.02252   2.02481   2.02657   2.02983   2.03141
 Alpha virt. eigenvalues --    2.03912   2.04436   2.04754   2.04771   2.04929
 Alpha virt. eigenvalues --    2.05185   2.05411   2.05647   2.05757   2.05944
 Alpha virt. eigenvalues --    2.06155   2.06466   2.06631   2.06785   2.07008
 Alpha virt. eigenvalues --    2.07255   2.07774   2.07896   2.08304   2.08498
 Alpha virt. eigenvalues --    2.08803   2.08950   2.09169   2.09363   2.09670
 Alpha virt. eigenvalues --    2.09893   2.10081   2.10342   2.10581   2.10622
 Alpha virt. eigenvalues --    2.10915   2.11261   2.11316   2.11832   2.11887
 Alpha virt. eigenvalues --    2.12228   2.12478   2.13098   2.13344   2.13619
 Alpha virt. eigenvalues --    2.14145   2.14404   2.14617   2.14869   2.15264
 Alpha virt. eigenvalues --    2.15436   2.15884   2.16390   2.16608   2.16970
 Alpha virt. eigenvalues --    2.17259   2.17616   2.17697   2.17802   2.18094
 Alpha virt. eigenvalues --    2.18355   2.18815   2.18868   2.19065   2.19529
 Alpha virt. eigenvalues --    2.19772   2.20170   2.20439   2.20532   2.20765
 Alpha virt. eigenvalues --    2.20887   2.21016   2.21131   2.21154   2.21487
 Alpha virt. eigenvalues --    2.21850   2.22220   2.22435   2.23003   2.23121
 Alpha virt. eigenvalues --    2.23525   2.23762   2.24118   2.24714   2.24938
 Alpha virt. eigenvalues --    2.25460   2.25666   2.26090   2.26368   2.26935
 Alpha virt. eigenvalues --    2.27342   2.27551   2.27937   2.28163   2.28237
 Alpha virt. eigenvalues --    2.28755   2.29118   2.29289   2.29724   2.30264
 Alpha virt. eigenvalues --    2.30973   2.31279   2.31618   2.31775   2.32137
 Alpha virt. eigenvalues --    2.32246   2.32852   2.33083   2.33206   2.33706
 Alpha virt. eigenvalues --    2.33920   2.34176   2.34571   2.34733   2.34952
 Alpha virt. eigenvalues --    2.35358   2.35584   2.36155   2.36362   2.36650
 Alpha virt. eigenvalues --    2.36698   2.37176   2.37947   2.38063   2.38547
 Alpha virt. eigenvalues --    2.38799   2.38914   2.39248   2.39474   2.39738
 Alpha virt. eigenvalues --    2.40235   2.40401   2.40843   2.41096   2.41237
 Alpha virt. eigenvalues --    2.41417   2.41558   2.41699   2.42222   2.43047
 Alpha virt. eigenvalues --    2.43687   2.43786   2.44058   2.44402   2.44660
 Alpha virt. eigenvalues --    2.44833   2.45295   2.45632   2.45711   2.46250
 Alpha virt. eigenvalues --    2.46626   2.46753   2.46998   2.47472   2.47948
 Alpha virt. eigenvalues --    2.48067   2.48244   2.48502   2.48915   2.49073
 Alpha virt. eigenvalues --    2.49327   2.49380   2.49769   2.49850   2.50221
 Alpha virt. eigenvalues --    2.50450   2.51787   2.52372   2.52504   2.52816
 Alpha virt. eigenvalues --    2.53017   2.53751   2.53861   2.54342   2.54408
 Alpha virt. eigenvalues --    2.54446   2.55008   2.55404   2.55898   2.56184
 Alpha virt. eigenvalues --    2.56553   2.56778   2.57144   2.57305   2.57603
 Alpha virt. eigenvalues --    2.58117   2.58904   2.59186   2.59334   2.59785
 Alpha virt. eigenvalues --    2.60070   2.60207   2.60357   2.61195   2.61314
 Alpha virt. eigenvalues --    2.61572   2.61855   2.62215   2.62373   2.62721
 Alpha virt. eigenvalues --    2.63094   2.63528   2.63761   2.64179   2.64226
 Alpha virt. eigenvalues --    2.64281   2.64783   2.65048   2.65684   2.66432
 Alpha virt. eigenvalues --    2.66544   2.66749   2.67117   2.67403   2.67606
 Alpha virt. eigenvalues --    2.68276   2.68665   2.68947   2.69601   2.69745
 Alpha virt. eigenvalues --    2.70321   2.70704   2.70955   2.71177   2.71379
 Alpha virt. eigenvalues --    2.72069   2.72180   2.72282   2.72337   2.72637
 Alpha virt. eigenvalues --    2.72989   2.73371   2.73449   2.73643   2.73850
 Alpha virt. eigenvalues --    2.74055   2.74204   2.74321   2.74662   2.75155
 Alpha virt. eigenvalues --    2.75660   2.75676   2.75810   2.75909   2.76027
 Alpha virt. eigenvalues --    2.76459   2.76566   2.76735   2.76944   2.77123
 Alpha virt. eigenvalues --    2.77319   2.77749   2.78005   2.78418   2.78485
 Alpha virt. eigenvalues --    2.78588   2.79000   2.79413   2.79628   2.79739
 Alpha virt. eigenvalues --    2.80204   2.80381   2.80733   2.81038   2.81255
 Alpha virt. eigenvalues --    2.81310   2.81729   2.81865   2.82143   2.82680
 Alpha virt. eigenvalues --    2.82849   2.82907   2.83139   2.83276   2.83525
 Alpha virt. eigenvalues --    2.83832   2.84246   2.84954   2.85144   2.85395
 Alpha virt. eigenvalues --    2.86041   2.86207   2.86255   2.86441   2.86680
 Alpha virt. eigenvalues --    2.86850   2.87077   2.87438   2.87886   2.87991
 Alpha virt. eigenvalues --    2.88506   2.88965   2.89190   2.89292   2.89360
 Alpha virt. eigenvalues --    2.89966   2.90321   2.90688   2.91078   2.91282
 Alpha virt. eigenvalues --    2.91779   2.92157   2.92337   2.92651   2.92729
 Alpha virt. eigenvalues --    2.92993   2.93099   2.93218   2.93706   2.94180
 Alpha virt. eigenvalues --    2.94216   2.94815   2.94911   2.95361   2.95527
 Alpha virt. eigenvalues --    2.95788   2.95875   2.96214   2.96391   2.96500
 Alpha virt. eigenvalues --    2.96772   2.97935   2.98454   2.98676   2.99401
 Alpha virt. eigenvalues --    2.99487   2.99653   2.99967   3.00429   3.00652
 Alpha virt. eigenvalues --    3.00815   3.00939   3.01561   3.01725   3.02086
 Alpha virt. eigenvalues --    3.02511   3.02829   3.02890   3.03206   3.04159
 Alpha virt. eigenvalues --    3.04486   3.04560   3.05067   3.05460   3.05692
 Alpha virt. eigenvalues --    3.06009   3.06339   3.06493   3.06998   3.07128
 Alpha virt. eigenvalues --    3.07376   3.07688   3.08275   3.08880   3.09543
 Alpha virt. eigenvalues --    3.10621   3.10866   3.11327   3.11682   3.12108
 Alpha virt. eigenvalues --    3.13188   3.13523   3.14253   3.14516   3.14777
 Alpha virt. eigenvalues --    3.15715   3.15997   3.16694   3.17174   3.17997
 Alpha virt. eigenvalues --    3.18263   3.18766   3.18909   3.19245   3.19438
 Alpha virt. eigenvalues --    3.19530   3.20011   3.20100   3.20387   3.20550
 Alpha virt. eigenvalues --    3.21130   3.22043   3.22098   3.22196   3.22545
 Alpha virt. eigenvalues --    3.23136   3.23545   3.23891   3.24189   3.24903
 Alpha virt. eigenvalues --    3.25072   3.25517   3.25782   3.25837   3.26461
 Alpha virt. eigenvalues --    3.27646   3.27859   3.28054   3.28197   3.28818
 Alpha virt. eigenvalues --    3.28853   3.29525   3.30420   3.30515   3.31078
 Alpha virt. eigenvalues --    3.31446   3.31821   3.32069   3.32392   3.32798
 Alpha virt. eigenvalues --    3.34723   3.35329   3.36502   3.36738   3.37481
 Alpha virt. eigenvalues --    3.40062   3.41267   3.44950   3.48020   3.51319
 Alpha virt. eigenvalues --    3.52257   3.54287   3.54673   3.55531   3.56308
 Alpha virt. eigenvalues --    3.58575   3.59416   3.60361   3.61430   3.63064
 Alpha virt. eigenvalues --    3.63495   3.63616   3.64723   3.65350   3.66688
 Alpha virt. eigenvalues --    3.67864   3.68042   3.68388   3.69559   3.69713
 Alpha virt. eigenvalues --    3.69836   3.70589   3.70794   3.71361   3.71775
 Alpha virt. eigenvalues --    3.71944   3.72116   3.72639   3.72961   3.73172
 Alpha virt. eigenvalues --    3.73458   3.73930   3.74759   3.75368   3.76494
 Alpha virt. eigenvalues --    3.77507   3.81440   3.81725   3.87322
          Condensed to atoms (all electrons):
 Mulliken charges:
               1
     1  C    0.040348
     2  C    0.052945
     3  O   -0.295251
     4  H    0.048668
     5  H    0.024231
     6  H    0.030690
     7  N   -0.138646
     8  C    0.081877
     9  C    0.071559
    10  O   -0.300868
    11  C    0.075439
    12  C    0.160268
    13  O   -0.445985
    14  O   -0.396650
    15  H    0.120323
    16  H    0.054805
    17  H   -0.002653
    18  H   -0.004346
    19  N   -0.125524
    20  C    0.157173
    21  C    0.041931
    22  O   -0.288802
    23  C    0.021314
    24  C   -0.026898
    25  C   -0.081034
    26  C    0.093472
    27  N    0.062550
    28  H    0.143357
    29  H    0.002695
    30  H    0.020853
    31  H    0.016133
    32  H    0.017597
    33  H    0.024219
    34  H    0.027653
    35  H    0.050999
    36  H    0.085022
    37  H    0.053625
    38  H    0.187587
    39  H    0.201558
    40  H    0.196866
    41  N   -0.137981
    42  C    0.091635
    43  C    0.066652
    44  O   -0.292349
    45  C    0.145585
    46  C    0.060452
    47  O   -0.373507
    48  O   -0.446249
    49  H    0.156300
    50  H    0.014780
    51  H   -0.028256
    52  H    0.019473
    53  N   -0.149642
    54  C    0.238148
    55  C    0.023329
    56  O   -0.302595
    57  H    0.142318
    58  H    0.018424
    59  H    0.028564
    60  N   -0.177203
    61  C    0.135694
    62  C    0.015278
    63  O   -0.314734
    64  C    0.158761
    65  C    0.011640
    66  N   -0.011874
    67  O   -0.344231
    68  H    0.150676
    69  H    0.023832
    70  H    0.062076
    71  H   -0.009359
    72  H    0.130909
    73  H    0.120794
    74  N   -0.131578
    75  C    0.270753
    76  C    0.016211
    77  O   -0.299314
    78  H    0.158645
    79  H    0.027929
    80  H    0.028069
    81  N   -0.162173
    82  C    0.167962
    83  C    0.119606
    84  O   -0.355363
    85  C    0.173881
    86  C   -0.059544
    87  C   -0.006517
    88  C    0.000092
    89  C   -0.013838
    90  C   -0.038498
    91  C    0.167358
    92  O   -0.212191
    93  H    0.150678
    94  H   -0.025728
    95  H   -0.022572
    96  H   -0.048428
    97  H   -0.044300
    98  H   -0.012608
    99  H   -0.041693
   100  H   -0.024339
   101  H    0.178776
   102  N   -0.112728
   103  C    0.150144
   104  C    0.047424
   105  O   -0.290079
   106  C   -0.102370
   107  C    0.015694
   108  C    0.061217
   109  C    0.026450
   110  H    0.133330
   111  H    0.013116
   112  H   -0.018165
   113  H    0.009872
   114  H   -0.003418
   115  H    0.034081
   116  H    0.003058
   117  H   -0.004935
   118  H    0.002340
   119  H    0.010920
   120  H   -0.002423
   121  N   -0.138478
   122  C    0.086018
   123  C    0.096315
   124  O   -0.270386
   125  C    0.259699
   126  O   -0.318005
   127  H    0.166885
   128  H    0.009479
   129  H   -0.045250
   130  H   -0.022917
   131  H    0.165682
   132  N   -0.079400
   133  C    0.079163
   134  C    0.043850
   135  O   -0.251324
   136  C    0.021844
   137  H    0.111385
   138  H    0.019308
   139  H    0.018440
   140  H    0.002487
   141  H    0.053968
   142  N   -0.121026
   143  C    0.107213
   144  C    0.059263
   145  O   -0.271512
   146  C    0.037896
   147  H    0.097375
   148  H    0.015782
   149  H    0.032539
   150  H    0.025840
   151  H    0.000366
   152  N   -0.166401
   153  C    0.146023
   154  C    0.047614
   155  O   -0.302345
   156  C   -0.027172
   157  C    0.085972
   158  C    0.126844
   159  O   -0.461956
   160  O   -0.357487
   161  H    0.130109
   162  H   -0.018537
   163  H    0.053645
   164  H   -0.015063
   165  H    0.002109
   166  H   -0.005821
   167  N   -0.162921
   168  C    0.162438
   169  H    0.022466
   170  H    0.011312
   171  H   -0.004845
   172  H    0.126699
   173  Ca   1.292142
   174  O   -0.296503
   175  H    0.204237
   176  H    0.193702
 Sum of Mulliken charges =  -0.00000
 Mulliken charges with hydrogens summed into heavy atoms:
               1
     1  C    0.143936
     2  C    0.052945
     3  O   -0.295251
     7  N   -0.018323
     8  C    0.136681
     9  C    0.071559
    10  O   -0.300868
    11  C    0.068440
    12  C    0.160268
    13  O   -0.445985
    14  O   -0.396650
    19  N    0.017833
    20  C    0.159868
    21  C    0.041931
    22  O   -0.288802
    23  C    0.058300
    24  C    0.014918
    25  C   -0.002382
    26  C    0.232120
    27  N    0.648561
    41  N    0.018320
    42  C    0.106416
    43  C    0.066652
    44  O   -0.292349
    45  C    0.136802
    46  C    0.060452
    47  O   -0.373507
    48  O   -0.446249
    53  N   -0.007324
    54  C    0.285136
    55  C    0.023329
    56  O   -0.302595
    60  N   -0.026527
    61  C    0.159527
    62  C    0.015278
    63  O   -0.314734
    64  C    0.211477
    65  C    0.011640
    66  N    0.239829
    67  O   -0.344231
    74  N    0.027067
    75  C    0.326750
    76  C    0.016211
    77  O   -0.299314
    81  N   -0.011494
    82  C    0.142233
    83  C    0.119606
    84  O   -0.355363
    85  C    0.102880
    86  C   -0.059544
    87  C   -0.050817
    88  C   -0.012516
    89  C   -0.055530
    90  C   -0.062837
    91  C    0.167358
    92  O   -0.033415
   102  N    0.020602
   103  C    0.163260
   104  C    0.047424
   105  O   -0.290079
   106  C   -0.120535
   107  C    0.022148
   108  C    0.093420
   109  C    0.037287
   121  N    0.028406
   122  C    0.095497
   123  C    0.096315
   124  O   -0.270386
   125  C    0.191532
   126  O   -0.152322
   132  N    0.031985
   133  C    0.098471
   134  C    0.043850
   135  O   -0.251324
   136  C    0.096739
   142  N   -0.023651
   143  C    0.122995
   144  C    0.059263
   145  O   -0.271512
   146  C    0.096641
   152  N   -0.036291
   153  C    0.127486
   154  C    0.047614
   155  O   -0.302345
   156  C    0.011410
   157  C    0.082260
   158  C    0.126844
   159  O   -0.461956
   160  O   -0.357487
   167  N   -0.036221
   168  C    0.191371
   173  Ca   1.292142
   174  O    0.101435
 DipInt: DoE/N= T F RetVal/Mat= T F Init=T NMatP=  1 IDeriv=0 Min/MaxMlt=  0  4
 Entering OneElI...
 OneElI was handed  1333951383 working-precision words.
 Multipole integrals L=0 to 4 MinM= 0 MaxM= 0.
 Requested accuracy = 0.1000D-12
 ShPair: Thresh= 1.00D-13 NBox=     0 BxSize= 0.00D+00 RnKept= 2.55D+01
         NSMCal=               327645 NSMKep=              158544
 PrmmSu-InSpLW:  IPartL=    0 NPrtUS=    1 NPrtUL=    1 DoSpLW=F IThBeg=    0 IThEnd=    0 NThAct=    1.
 PrsmSu:  NPrtUS=   1 ThrOK=F IAlg=1 NPAlg=1 LenDen=           0 ISkipM=0 DoSpLW=F IThBeg=    0 IThEnd=    0.
 Prism:   IPart=     0 DynPar=F LinDyn=F Incr=         512.
 PRISM was handed  1323937591 working-precision words and158544 shell-pairs
 IPart=  0 NShTot=      158544 NBatch=         367 AvBLen=       432.0
 PrsmSu-ThDecC:  IPartSL=    0    0 NPrtUSL=    1    1 IThBeg=    0 IThEnd=    0 CPU=   -1 GPU=   -1 NThAct=    1.
 PrSmSu:  NxtVal=            513.
 Electronic moments (au):
       -716.00000000          9.84324397          8.00805435         -2.80677141
     -50475.23985512     -36343.68128503     -10532.30066518        126.75357717
         -0.77176950         37.19022145     -16931.20870034    -129776.74435543
     -11931.72306109     -34120.01326713     137917.44265929      30538.52136627
     -13991.13467917       2343.23348950       6711.11723778     -28505.40340799
   -7273772.54234302   -5124902.39213266    -459755.01605381     -75159.33983814
     266203.59147073   -1051171.47846231     -21098.47510103     -50276.73879656
      47618.40670125   -2497573.91632746    -553467.49701392    -298676.54243182
    -152548.38504466      68106.85820098      94781.76595786
 Electronic spatial extent (au):  <R**2>=          97351.2218
 DipInt: DoE/N= F T RetVal/Mat= T F Init=T NMatP=  1 IDeriv=0 Min/MaxMlt=  0  4
 Nuclear    moments (au):
        716.00000000         -0.00000000          0.00000000         -0.00000000
      49963.92784362      36196.84583375      10147.46810819         -0.00000000
         -0.00000000          0.00000000      16992.08387075     135171.46588700
      11908.34738010      37535.14868036    -137130.79245548     -31084.36322624
      14121.46941989      -2475.32444066      -7156.39861681      28416.34390920
    7072880.03475919    5106507.17618723     424638.25225112      82952.27906706
    -266635.57471887    1097394.43219442      18582.57631510      51139.58685431
     -45241.05845453    2465476.72863468     519756.80774386     273243.44117738
     154239.38826122     -71510.07746607     -94846.53418551
 Total      moments (au):
          0.00000000          9.84324397          8.00805435         -2.80677141
       -511.31201151       -146.83545128       -384.83255699        126.75357717
         -0.77176950         37.19022145         60.87517041       5394.72153158
        -23.37568099       3415.13541323        786.65020381       -545.84185997
        130.33474071       -132.09095116       -445.28137903        -89.05949878
    -200892.50758383     -18395.21594543     -35116.76380270       7792.93922892
       -431.98324815      46222.95373211      -2515.89878594        862.84805775
       2377.34824672     -32097.18769278     -33710.68927006     -25433.10125443
       1691.00321656      -3403.21926509        -64.76822765
 Traceless Quadrup. (au):
       -163.65200491        200.82455531        -37.17255040        126.75357717
         -0.77176950         37.19022145
 Charge=              0.0000 electrons
 Dipole moment (field-independent basis, Debye):
    X=             25.0190    Y=             20.3544    Z=             -7.1341  Tot=             33.0326
 Quadrupole moment (field-independent basis, Debye-Ang):
   XX=           -687.7322   YY=           -197.4987   ZZ=           -517.6130
   XY=            170.4879   XZ=             -1.0381   YZ=             50.0221
 Traceless Quadrupole moment (field-independent basis, Debye-Ang):
   XX=           -220.1176   YY=            270.1159   ZZ=            -49.9984
   XY=            170.4879   XZ=             -1.0381   YZ=             50.0221
 Octapole moment (field-independent basis, Debye-Ang**2):
  XXX=             43.3286  YYY=           3839.7549  ZZZ=            -16.6379  XYY=           2430.7618
  XXY=            559.9073  XXZ=           -388.5092  XZZ=             92.7672  YZZ=            -94.0173
  YYZ=           -316.9341  XYZ=            -63.3891
 Hexadecapole moment (field-independent basis, Debye-Ang**3):
 XXXX=         -75665.7515 YYYY=          -6928.5204 ZZZZ=         -13226.6572 XXXY=           2935.1946
 XXXZ=           -162.7056 YYYX=          17409.7808 YYYZ=           -947.6081 ZZZX=            324.9900
 ZZZY=            895.4233 XXYY=         -12089.3400 XXZZ=         -12697.0621 YYZZ=          -9579.3255
 XXYZ=            636.9129 YYXZ=          -1281.8156 ZZXY=            -24.3948
 N-N= 2.173394921912D+04 E-N=-5.595623081385D+04  KE= 5.290564790506D+03
 Leave Link  601 at Sat Sep 14 23:57:09 2019, MaxMem=  1342177280 cpu:              47.8 elap:               1.2
 FitSet:  NAtFit=   176 NAtPot=   176 NAtFrz=     0 MDM=   180 TotChg=   0.00000
 Merz-Kollman atomic radii used.
 Read replacement radii for each type of atom:
 Rad(20) =   1.700000000000D+00
 Atom Element Radius
    1     6    1.50
    2     6    1.50
    3     8    1.40
    4     1    1.20
    5     1    1.20
    6     1    1.20
    7     7    1.50
    8     6    1.50
    9     6    1.50
   10     8    1.40
   11     6    1.50
   12     6    1.50
   13     8    1.40
   14     8    1.40
   15     1    1.20
   16     1    1.20
   17     1    1.20
   18     1    1.20
   19     7    1.50
   20     6    1.50
   21     6    1.50
   22     8    1.40
   23     6    1.50
   24     6    1.50
   25     6    1.50
   26     6    1.50
   27     7    1.50
   28     1    1.20
   29     1    1.20
   30     1    1.20
   31     1    1.20
   32     1    1.20
   33     1    1.20
   34     1    1.20
   35     1    1.20
   36     1    1.20
   37     1    1.20
   38     1    1.20
   39     1    1.20
   40     1    1.20
   41     7    1.50
   42     6    1.50
   43     6    1.50
   44     8    1.40
   45     6    1.50
   46     6    1.50
   47     8    1.40
   48     8    1.40
   49     1    1.20
   50     1    1.20
   51     1    1.20
   52     1    1.20
   53     7    1.50
   54     6    1.50
   55     6    1.50
   56     8    1.40
   57     1    1.20
   58     1    1.20
   59     1    1.20
   60     7    1.50
   61     6    1.50
   62     6    1.50
   63     8    1.40
   64     6    1.50
   65     6    1.50
   66     7    1.50
   67     8    1.40
   68     1    1.20
   69     1    1.20
   70     1    1.20
   71     1    1.20
   72     1    1.20
   73     1    1.20
   74     7    1.50
   75     6    1.50
   76     6    1.50
   77     8    1.40
   78     1    1.20
   79     1    1.20
   80     1    1.20
   81     7    1.50
   82     6    1.50
   83     6    1.50
   84     8    1.40
   85     6    1.50
   86     6    1.50
   87     6    1.50
   88     6    1.50
   89     6    1.50
   90     6    1.50
   91     6    1.50
   92     8    1.40
   93     1    1.20
   94     1    1.20
   95     1    1.20
   96     1    1.20
   97     1    1.20
   98     1    1.20
   99     1    1.20
  100     1    1.20
  101     1    1.20
  102     7    1.50
  103     6    1.50
  104     6    1.50
  105     8    1.40
  106     6    1.50
  107     6    1.50
  108     6    1.50
  109     6    1.50
  110     1    1.20
  111     1    1.20
  112     1    1.20
  113     1    1.20
  114     1    1.20
  115     1    1.20
  116     1    1.20
  117     1    1.20
  118     1    1.20
  119     1    1.20
  120     1    1.20
  121     7    1.50
  122     6    1.50
  123     6    1.50
  124     8    1.40
  125     6    1.50
  126     8    1.40
  127     1    1.20
  128     1    1.20
  129     1    1.20
  130     1    1.20
  131     1    1.20
  132     7    1.50
  133     6    1.50
  134     6    1.50
  135     8    1.40
  136     6    1.50
  137     1    1.20
  138     1    1.20
  139     1    1.20
  140     1    1.20
  141     1    1.20
  142     7    1.50
  143     6    1.50
  144     6    1.50
  145     8    1.40
  146     6    1.50
  147     1    1.20
  148     1    1.20
  149     1    1.20
  150     1    1.20
  151     1    1.20
  152     7    1.50
  153     6    1.50
  154     6    1.50
  155     8    1.40
  156     6    1.50
  157     6    1.50
  158     6    1.50
  159     8    1.40
  160     8    1.40
  161     1    1.20
  162     1    1.20
  163     1    1.20
  164     1    1.20
  165     1    1.20
  166     1    1.20
  167     7    1.50
  168     6    1.50
  169     1    1.20
  170     1    1.20
[...]
 **** Fit      -0.024079
 **** Fit      -0.030458
 **** Fit      -0.036111
 **** Fit      -0.037749
 **** Fit      -0.010291
 **** Fit      -0.012133
 **** Fit      -0.014571
 **** Fit      -0.018176
 **** Fit      -0.022830
 **** Fit      -0.027098
 **** Fit      -0.028189
 **** Fit      -0.024017
 **** Fit      -0.016335
 **** Fit      -0.009798
 **** Fit      -0.011087
 **** Fit      -0.013935
 **** Fit      -0.017584
 **** Fit      -0.020595
 **** Fit      -0.019923
 **** Fit      -0.015140
 **** Fit      -0.010732
 **** Fit      -0.010103
 **** Fit      -0.012945
 **** Fit      -0.015426
 **** Fit      -0.013473
 **** Fit      -0.010533
 **** Fit      -0.009398
 **** Fit      -0.011715
 **** Fit      -0.020228
 **** Fit      -0.014528
 **** Fit      -0.009522
 **** Fit      -0.004684
 **** Fit      -0.006817
 **** Fit      -0.002055
 **** Fit       0.001293
 **** Fit      -0.005128
 **** Fit      -0.000851
 **** Fit       0.002131
 **** Fit      -0.008135
 **** Fit      -0.003831
 **** Fit      -0.000383
 **** Fit       0.001588
 **** Fit       0.001583
 **** Fit      -0.007166
 **** Fit      -0.003772
 **** Fit      -0.001596
 **** Fit      -0.001262
 **** Fit      -0.003327
 **** Fit      -0.010622
 **** Fit      -0.007635
 **** Fit      -0.005537
 **** Fit      -0.004996
 **** Fit      -0.006651
 **** Fit      -0.011101
 **** Fit      -0.018904
 **** Fit      -0.030516
 **** Fit      -0.013065
 **** Fit      -0.010742
 **** Fit      -0.009173
 **** Fit      -0.009173
 **** Fit      -0.011533
 **** Fit      -0.016974
 **** Fit      -0.026060
 **** Fit      -0.039028
 **** Fit      -0.012549
 **** Fit      -0.013101
 **** Fit      -0.016020
 **** Fit      -0.022103
 **** Fit      -0.031776
 **** Fit      -0.012545
 **** Fit      -0.011254
 **** Fit      -0.011697
 **** Fit      -0.013154
 **** Fit      -0.010705
 **** Fit      -0.010580
 **** Fit      -0.010828
 **** Fit      -0.011435
 **** Fit      -0.012263
 **** Fit      -0.013855
 **** Fit      -0.014768
 **** Fit      -0.010300
 **** Fit      -0.010025
 **** Fit      -0.009941
 **** Fit      -0.010559
 **** Fit      -0.011254
 **** Fit      -0.012068
 **** Fit      -0.012940
 **** Fit      -0.014654
 **** Fit      -0.015704
 **** Fit      -0.016780
 **** Fit      -0.010143
 **** Fit      -0.009708
 **** Fit      -0.011048
 **** Fit      -0.011919
 **** Fit      -0.012792
 **** Fit      -0.013689
 **** Fit      -0.015550
 **** Fit      -0.016644
 **** Fit      -0.017879
 **** Fit      -0.009757
 **** Fit      -0.009282
 **** Fit      -0.012064
 **** Fit      -0.012924
 **** Fit      -0.013747
 **** Fit      -0.014600
 **** Fit      -0.016535
 **** Fit      -0.017714
 **** Fit      -0.019134
 **** Fit      -0.020777
 **** Fit      -0.013116
 **** Fit      -0.013950
 **** Fit      -0.014735
 **** Fit      -0.015565
 **** Fit      -0.017590
 **** Fit      -0.018816
 **** Fit      -0.020370
 **** Fit      -0.022266
 **** Fit      -0.024489
 **** Fit      -0.013565
 **** Fit      -0.014440
 **** Fit      -0.015180
 **** Fit      -0.015876
 **** Fit      -0.016641
 **** Fit      -0.026491
 **** Fit      -0.029630
 **** Fit      -0.015178
 **** Fit      -0.015945
 **** Fit      -0.016557
 **** Fit      -0.032024
 **** Fit      -0.036440
 **** Fit      -0.041764
 **** Fit      -0.016319
 **** Fit      -0.017167
 **** Fit      -0.017753
 **** Fit      -0.039935
 **** Fit      -0.018874
 **** Fit      -0.019543
 **** Fit      -0.020991
 **** Fit      -0.021999
 **** Fit      -0.025455
 **** Fit      -0.026320
 **** Fit      -0.031948
 **** Fit      -0.032434
 **** Fit      -0.018051
 **** Fit      -0.019333
 **** Fit      -0.017144
 **** Fit      -0.018749
 **** Fit      -0.019978
 **** Fit      -0.021703
 **** Fit      -0.024019
 **** Fit      -0.016973
 **** Fit      -0.017363
 **** Fit      -0.017914
 **** Fit      -0.019699
 **** Fit      -0.020850
 **** Fit      -0.022494
 **** Fit      -0.024744
 **** Fit      -0.027739
 **** Fit      -0.018046
 **** Fit      -0.018223
 **** Fit      -0.018483
 **** Fit      -0.018941
 **** Fit      -0.020998
 **** Fit      -0.022141
 **** Fit      -0.023820
 **** Fit      -0.026166
 **** Fit      -0.029359
 **** Fit      -0.033663
 **** Fit      -0.019823
 **** Fit      -0.019813
 **** Fit      -0.019800
 **** Fit      -0.019922
 **** Fit      -0.020289
 **** Fit      -0.022755
 **** Fit      -0.023865
 **** Fit      -0.025539
 **** Fit      -0.027906
 **** Fit      -0.031155
 **** Fit      -0.035583
 **** Fit      -0.041664
 **** Fit      -0.022444
 **** Fit      -0.022131
 **** Fit      -0.021892
 **** Fit      -0.021852
 **** Fit      -0.022111
 **** Fit      -0.025090
 **** Fit      -0.026185
 **** Fit      -0.027897
 **** Fit      -0.030352
 **** Fit      -0.033743
 **** Fit      -0.038383
 **** Fit      -0.044799
 **** Fit      -0.026689
 **** Fit      -0.025958
 **** Fit      -0.025229
 **** Fit      -0.024673
 **** Fit      -0.024408
 **** Fit      -0.024522
 **** Fit      -0.028147
 **** Fit      -0.029280
 **** Fit      -0.031164
 **** Fit      -0.033933
 **** Fit      -0.037802
 **** Fit      -0.043137
 **** Fit      -0.032655
 **** Fit      -0.031058
 **** Fit      -0.029595
 **** Fit      -0.028470
 **** Fit      -0.027805
 **** Fit      -0.027677
 **** Fit      -0.032093
 **** Fit      -0.033286
 **** Fit      -0.035442
 **** Fit      -0.038696
 **** Fit      -0.043279
 **** Fit      -0.049602
 **** Fit      -0.035868
 **** Fit      -0.033707
 **** Fit      -0.032336
 **** Fit      -0.031790
 **** Fit      -0.037127
 **** Fit      -0.038350
 **** Fit      -0.040804
 **** Fit      -0.044586
 **** Fit      -0.049880
 **** Fit      -0.057001
 **** Fit      -0.040809
 **** Fit      -0.038308
 **** Fit      -0.037105
 **** Fit      -0.043460
 **** Fit      -0.044815
 **** Fit      -0.047962
 **** Fit      -0.052912
 **** Fit      -0.059695
 **** Fit      -0.043967
 **** Fit      -0.051247
 **** Fit      -0.052734
 **** Fit      -0.056801
 **** Fit      -0.012248
 **** Fit      -0.013008
 **** Fit      -0.013371
 **** Fit      -0.012649
 **** Fit      -0.011643
 **** Fit      -0.011503
 **** Fit      -0.012135
 **** Fit      -0.013942
 **** Fit      -0.014681
 **** Fit      -0.014981
 **** Fit      -0.014568
 **** Fit      -0.013464
 **** Fit      -0.012144
 **** Fit      -0.011185
 **** Fit      -0.010857
 **** Fit      -0.011047
 **** Fit      -0.011526
 **** Fit      -0.012209
 **** Fit      -0.013051
 **** Fit      -0.015071
 **** Fit      -0.016005
 **** Fit      -0.016782
 **** Fit      -0.017213
 **** Fit      -0.017081
 **** Fit      -0.016256
 **** Fit      -0.014857
 **** Fit      -0.013252
 **** Fit      -0.011843
 **** Fit      -0.010884
 **** Fit      -0.010467
 **** Fit      -0.010510
 **** Fit      -0.017567
 **** Fit      -0.018689
 **** Fit      -0.019667
 **** Fit      -0.020317
 **** Fit      -0.020408
 **** Fit      -0.019744
 **** Fit      -0.018310
 **** Fit      -0.016368
 **** Fit      -0.014350
 **** Fit      -0.012597
 **** Fit      -0.011277
 **** Fit      -0.010460
 **** Fit      -0.010173
 **** Fit      -0.019417
 **** Fit      -0.020902
 **** Fit      -0.022387
 **** Fit      -0.023735
 **** Fit      -0.024720
 **** Fit      -0.025048
 **** Fit      -0.024441
 **** Fit      -0.022798
 **** Fit      -0.020353
 **** Fit      -0.017651
 **** Fit      -0.015201
 **** Fit      -0.013202
 **** Fit      -0.011678
 **** Fit      -0.010635
 **** Fit      -0.010139
 **** Fit      -0.023387
 **** Fit      -0.025381
 **** Fit      -0.027427
 **** Fit      -0.029361
 **** Fit      -0.030905
 **** Fit      -0.031680
 **** Fit      -0.031295
 **** Fit      -0.029519
 **** Fit      -0.026496
 **** Fit      -0.016678
 **** Fit      -0.014478
 **** Fit      -0.012759
 **** Fit      -0.029169
 **** Fit      -0.032134
 **** Fit      -0.035222
 **** Fit      -0.038152
 **** Fit      -0.016923
 **** Fit      -0.020505
 **** Fit      -0.009457
 **** Fit      -0.009938
 **** Fit      -0.009588
 **** Fit      -0.008889
 **** Fit      -0.008693
 **** Fit      -0.008955
 **** Fit      -0.009637
 **** Fit      -0.010592
 **** Fit      -0.009230
 **** Fit      -0.008552
 **** Fit      -0.008234
 **** Fit      -0.008158
 **** Fit      -0.008333
 **** Fit      -0.008798
 **** Fit      -0.009534
 **** Fit      -0.010453
 **** Fit      -0.008559
 **** Fit      -0.008167
 **** Fit      -0.007971
 **** Fit      -0.007871
 **** Fit      -0.007917
 **** Fit      -0.008187
 **** Fit      -0.008722
 **** Fit      -0.009498
 **** Fit      -0.010440
 **** Fit      -0.011450
 **** Fit      -0.008101
 **** Fit      -0.007943
 **** Fit      -0.007826
 **** Fit      -0.007859
 **** Fit      -0.008137
 **** Fit      -0.008697
 **** Fit      -0.009515
 **** Fit      -0.010515
 **** Fit      -0.011601
 **** Fit      -0.012680
 **** Fit      -0.008683
 **** Fit      -0.008452
 **** Fit      -0.008180
 **** Fit      -0.007988
 **** Fit      -0.007990
 **** Fit      -0.008273
 **** Fit      -0.008870
 **** Fit      -0.009746
 **** Fit      -0.010824
 **** Fit      -0.012000
 **** Fit      -0.013177
 **** Fit      -0.009383
 **** Fit      -0.008910
 **** Fit      -0.008499
 **** Fit      -0.008283
 **** Fit      -0.008394
 **** Fit      -0.008899
 **** Fit      -0.009785
 **** Fit      -0.010965
 **** Fit      -0.012315
 **** Fit      -0.013704
 **** Fit      -0.015019
 **** Fit      -0.010112
 **** Fit      -0.009436
 **** Fit      -0.008930
 **** Fit      -0.008788
 **** Fit      -0.009135
 **** Fit      -0.009992
 **** Fit      -0.011273
 **** Fit      -0.012825
 **** Fit      -0.014476
 **** Fit      -0.016070
 **** Fit      -0.011345
 **** Fit      -0.010343
 **** Fit      -0.009657
 **** Fit      -0.009554
 **** Fit      -0.010163
 **** Fit      -0.011445
 **** Fit      -0.013224
 **** Fit      -0.015254
 **** Fit      -0.017293
 **** Fit      -0.019148
 **** Fit      -0.014326
 **** Fit      -0.012553
 **** Fit      -0.011148
 **** Fit      -0.010591
 **** Fit      -0.011148
 **** Fit      -0.012794
 **** Fit      -0.015223
 **** Fit      -0.017998
 **** Fit      -0.020709
 **** Fit      -0.017435
 **** Fit      -0.021401
 **** Fit      -0.025255
 **** Fit      -0.004055
 **** Fit       0.008209
 **** Fit      -0.003123
 **** Fit       0.011448
 **** Fit      -0.001993
 **** Fit      -0.000823
 **** Fit      -0.002566
 **** Fit       0.006559
 **** Fit       0.013854
 **** Fit       0.000226
 **** Fit      -0.014250
 **** Fit      -0.001808
 **** Fit       0.008518
 **** Fit       0.000968
 **** Fit      -0.013940
 **** Fit      -0.000739
 **** Fit       0.010928
 **** Fit       0.001248
 **** Fit      -0.012488
 **** Fit       0.000285
 **** Fit       0.012444
 **** Fit       0.001002
 **** Fit       0.036927
 **** Fit       0.038877
 **** Fit       0.014110
 **** Fit       0.034699
 **** Fit       0.037289
 **** Fit       0.040258
 **** Fit       0.043525
 **** Fit       0.015365
 **** Fit       0.016191
 **** Fit       0.017426
 **** Fit       0.019301
 **** Fit       0.029219
 **** Fit       0.032581
 **** Fit       0.035797
 **** Fit       0.039151
 **** Fit       0.019914
 **** Fit       0.021171
 **** Fit       0.023238
 **** Fit       0.026116
 **** Fit       0.029535
 **** Fit       0.017840
 **** Fit       0.023028
 **** Fit       0.023861
 **** Fit       0.025044
 **** Fit       0.026968
 **** Fit       0.028366
 **** Fit       0.030004
 **** Fit       0.032252
 **** Fit       0.028594
 **** Fit       0.029781
 **** Fit       0.031289
 **** Fit       0.033041
 **** Fit       0.035157
 **** Fit       0.037852
 **** Fit       0.032028
 **** Fit       0.031835
 **** Fit       0.032737
 **** Fit       0.034216
 **** Fit       0.036067
 **** Fit       0.038286
 **** Fit       0.040961
 **** Fit       0.035971
 **** Fit       0.034767
 **** Fit       0.035049
 **** Fit       0.036225
 **** Fit       0.037953
 **** Fit       0.040091
 **** Fit       0.042617
 **** Fit       0.037323
 **** Fit       0.037187
 **** Fit       0.038009
 **** Fit       0.039509
 **** Fit       0.041490
 **** Fit       0.043855
 **** Fit       0.046551
 **** Fit       0.039042
 **** Fit       0.040021
 **** Fit       0.041646
 **** Fit       0.043797
 **** Fit       0.046373
 **** Fit       0.049297
 **** Fit       0.041924
 **** Fit       0.043790
 **** Fit       0.046197
 **** Fit       0.049114
 **** Fit       0.015285
 **** Fit       0.020200
 **** Fit       0.018035
 **** Fit       0.015694
 **** Fit       0.013042
 **** Fit       0.048175
 **** Fit       0.048981
 **** Fit       0.049314
 **** Fit       0.030211
 **** Fit       0.026236
 **** Fit       0.022987
 **** Fit       0.020053
 **** Fit       0.017050
 **** Fit       0.014018
 **** Fit       0.011523
 **** Fit       0.010446
 **** Fit       0.040810
 **** Fit       0.042953
 **** Fit       0.044652
 **** Fit       0.045856
 **** Fit       0.046557
 **** Fit       0.046731
 **** Fit       0.046278
 **** Fit       0.031923
 **** Fit       0.028182
 **** Fit       0.024740
 **** Fit       0.021459
 **** Fit       0.018301
 **** Fit       0.015617
 **** Fit       0.014074
 **** Fit       0.014137
 **** Fit       0.015545
 **** Fit       0.017545
 **** Fit       0.019586
 **** Fit       0.021595
 **** Fit       0.029549
 **** Fit       0.032684
 **** Fit       0.035597
 **** Fit       0.038186
 **** Fit       0.040413
 **** Fit       0.042214
 **** Fit       0.043513
 **** Fit       0.044245
 **** Fit       0.044329
 **** Fit       0.043629
 **** Fit       0.041984
 **** Fit       0.039316
 **** Fit       0.035803
 **** Fit       0.032853
 **** Fit       0.029390
 **** Fit       0.026029
 **** Fit       0.022877
 **** Fit       0.020198
 **** Fit       0.018484
 **** Fit       0.018132
 **** Fit       0.019041
 **** Fit       0.020717
 **** Fit       0.022757
 **** Fit       0.025053
 **** Fit       0.027643
 **** Fit       0.030462
 **** Fit       0.033291
 **** Fit       0.035918
 **** Fit       0.038211
 **** Fit       0.040072
 **** Fit       0.041394
 **** Fit       0.042070
 **** Fit       0.041976
 **** Fit       0.040982
 **** Fit       0.039018
 **** Fit       0.036195
 **** Fit       0.033235
 **** Fit       0.029974
 **** Fit       0.026819
 **** Fit       0.024172
 **** Fit       0.022541
 **** Fit       0.022279
 **** Fit       0.023259
 **** Fit       0.025064
 **** Fit       0.027376
 **** Fit       0.030008
 **** Fit       0.032739
 **** Fit       0.035303
 **** Fit       0.037469
 **** Fit       0.039042
 **** Fit       0.039837
 **** Fit       0.039681
 **** Fit       0.038456
 **** Fit       0.036208
 **** Fit       0.033227
 **** Fit       0.030057
 **** Fit       0.027364
 **** Fit       0.026048
 **** Fit       0.026490
 **** Fit       0.028318
 **** Fit       0.030911
 **** Fit       0.033669
 **** Fit       0.036001
 **** Fit       0.037386
 **** Fit       0.037420
 **** Fit       0.035935
 **** Fit       0.032930
 **** Fit       0.030104
 **** Fit       0.029569
 **** Fit       0.031725
 **** Fit       0.034350
 **** Fit       0.035017
 **** Fit       0.032412
 -----------------------------------------------------------------
 Leave Link  602 at Sat Sep 14 23:57:12 2019, MaxMem=  1342177280 cpu:             113.3 elap:               2.4

 Test job not archived.
 1\1\GINC-C478-022\SP\RB3LYP\SVP\C54H83Ca1N15O23\PENGZHI\14-Sep-2019\0\
 \#b3lyp/svp scf=(tight,noincore) Test #IOP(5/87=12) Density=Current Po
 p=(MK,readradii) iop(6/33=2) iop(6/42=6)\\CaMKII_loop3_71.0\\0,1\C,0,7
 5.42,43.72,21.87\C,0,74.19,42.89,22.18\O,0,74.12,41.67,22.03\H,0,76.24
 6,43.06,21.607\H,0,75.208,44.386,21.034\H,0,75.691,44.31,22.746\N,0,73
 .16,43.65,22.57\C,0,71.94,43.05,23.07\C,0,71.07,42.75,21.86\O,0,70.05,
 43.41,21.64\C,0,71.3,43.92,24.15\C,0,70.14,43.21,24.83\O,0,69.99,41.99
 ,24.6\O,0,69.38,43.9,25.55\H,0,73.21,44.66,22.53\H,0,72.16,42.14,23.61
 \H,0,70.93,44.83,23.68\H,0,71.98,44.27,24.93\N,0,71.51,41.87,20.95\C,0
 ,70.91,41.61,19.65\C,0,69.47,41.12,19.66\O,0,68.74,41.4,18.72\C,0,71.8
 1,40.7,18.82\C,0,71.71,41.08,17.35\C,0,72.49,39.98,16.62\C,0,72.57,40.
 22,15.12\N,0,71.99,39.09,14.37\H,0,72.41,41.48,21.19\H,0,70.89,42.54,1
 9.08\H,0,71.57,39.65,18.99\H,0,72.86,40.84,19.07\H,0,72.17,42.05,17.15
 \H,0,70.68,41.15,17.\H,0,72.02,39.05,16.93\H,0,73.51,40.02,17.\H,0,73.
 55,40.56,14.78\H,0,71.95,41.07,14.86\H,0,72.08,39.12,13.37\H,0,72.3,38
 .24,14.82\H,0,70.98,39.12,14.47\N,0,68.99,40.52,20.76\C,0,67.65,40.07,
 21.04\C,0,66.98,41.02,22.03\O,0,65.79,40.91,22.3\C,0,67.68,38.66,21.62
 \C,0,68.53,38.55,22.87\O,0,69.35,37.61,22.99\O,0,68.29,39.26,23.88\H,0
 ,69.71,40.37,21.45\H,0,66.97,40.12,20.19\H,0,68.16,37.98,20.91\H,0,66.
 64,38.36,21.72\N,0,67.68,42.05,22.51\C,0,67.,43.25,22.97\C,0,66.37,43.
 32,24.36\O,0,65.74,44.28,24.8\H,0,68.68,42.08,22.41\H,0,66.29,43.59,22
 .22\H,0,67.76,44.01,23.15\N,0,66.49,42.28,25.19\C,0,65.76,42.,26.41\C,
 0,66.15,42.98,27.51\O,0,65.51,43.,28.56\C,0,65.92,40.53,26.78\C,0,67.1
 9,40.39,27.6\N,0,67.17,39.92,28.85\O,0,68.27,40.61,27.05\H,0,67.23,41.
 62,24.98\H,0,64.73,42.24,26.17\H,0,66.05,39.85,25.94\H,0,65.02,40.2,27
 .31\H,0,66.34,39.59,29.31\H,0,68.08,39.77,29.26\N,0,67.09,43.9,27.27\C
 ,0,67.63,44.96,28.09\C,0,68.95,44.55,28.73\O,0,69.32,45.17,29.72\H,0,6
 7.65,43.65,26.47\H,0,66.94,45.21,28.9\H,0,67.88,45.9,27.6\N,0,69.54,43
 .4,28.36\C,0,70.69,42.85,29.05\C,0,71.7,42.19,28.13\O,0,71.36,41.25,27
 .42\C,0,70.28,41.81,30.1\C,0,69.33,42.35,31.14\C,0,69.75,42.74,32.42\C
 ,0,67.98,42.49,30.8\C,0,68.8,43.26,33.3\C,0,67.03,43.13,31.61\C,0,67.4
 6,43.48,32.91\O,0,66.56,44.13,33.7\H,0,69.3,43.05,27.45\H,0,71.26,43.6
 8,29.47\H,0,71.14,41.52,30.71\H,0,69.82,40.93,29.66\H,0,70.8,42.67,32.
 69\H,0,67.73,42.26,29.78\H,0,69.11,43.51,34.3\H,0,65.98,43.15,31.36\H,
 0,65.74,44.37,33.25\N,0,72.96,42.62,28.19\C,0,74.06,41.97,27.5\C,0,74.
 5,40.74,28.27\O,0,74.83,40.88,29.44\C,0,75.24,42.86,27.13\C,0,74.77,44
 .1,26.36\C,0,76.33,42.12,26.37\C,0,75.91,45.12,26.42\H,0,73.17,43.33,2
 8.88\H,0,73.66,41.7,26.52\H,0,75.68,43.18,28.07\H,0,73.88,44.56,26.78\
 H,0,74.59,43.91,25.3\H,0,76.84,41.34,26.95\H,0,75.88,41.68,25.48\H,0,7
 7.12,42.8,26.05\H,0,76.12,45.32,27.47\H,0,76.83,44.81,25.93\H,0,75.6,4
 6.05,25.95\N,0,74.66,39.58,27.61\C,0,75.22,38.4,28.22\C,0,76.67,38.18,
 27.8\O,0,77.12,38.71,26.78\C,0,74.41,37.18,27.8\O,0,74.44,36.99,26.4\H
 ,0,74.22,39.63,26.7\H,0,75.2,38.42,29.31\H,0,73.38,37.28,28.15\H,0,74.
 78,36.27,28.27\H,0,73.92,37.75,26.12\N,0,77.44,37.42,28.58\C,0,78.7,36
 .88,28.12\C,0,78.76,36.35,26.7\O,0,79.66,36.72,25.95\C,0,79.24,35.84,2
 9.1\H,0,76.99,36.89,29.32\H,0,79.45,37.67,28.18\H,0,79.09,36.19,30.12\
 H,0,78.71,34.89,29.11\H,0,80.29,35.72,28.81\N,0,77.8,35.54,26.27\C,0,7
 7.66,35.1,24.89\C,0,77.46,36.21,23.87\O,0,78.01,36.17,22.77\C,0,76.5,3
 4.12,24.86\H,0,77.17,35.18,26.97\H,0,78.61,34.69,24.54\H,0,75.56,34.66
 ,25.\H,0,76.56,33.55,23.94\H,0,76.61,33.35,25.62\N,0,76.69,37.25,24.19
 \C,0,76.45,38.39,23.33\C,0,77.77,39.13,23.17\O,0,78.09,39.65,22.1\C,0,
 75.32,39.21,23.96\C,0,74.01,38.57,23.52\C,0,72.83,39.23,24.21\O,0,72.9
 ,39.43,25.45\O,0,71.88,39.65,23.52\H,0,76.17,37.29,25.06\H,0,76.15,38.
 04,22.35\H,0,75.37,40.25,23.64\H,0,75.47,39.08,25.03\H,0,73.97,37.5,23
 .74\H,0,73.92,38.66,22.44\N,0,78.55,39.32,24.24\C,0,79.79,40.06,24.12\
 H,0,80.566,39.405,23.724\H,0,79.647,40.903,23.444\H,0,80.091,40.428,25
 .101\H,0,78.15,39.04,25.12\Ca,0,70.27,39.62,25.61\O,0,70.73,38.24,27.7
 \H,0,71.11,38.49,28.55\H,0,70.74,37.28,27.71\\Version=ES64L-G16RevA.03
 \State=1-A\HF=-5333.5769305\RMSD=5.144e-09\Dipole=4.4329685,-6.1228833
 ,-10.5714447\Quadrupole=-183.0870568,-60.6991056,243.7861624,54.202978
 7,10.9293095,-17.9285259\PG=C01 [X(C54H83Ca1N15O23)]\\@


 Discoveries are often made by not following instructions,
 by going off the main road, by trying the untried.
 -- Frank Tyger
 Job cpu time:       0 days 10 hours  4 minutes 11.9 seconds.
 Elapsed time:       0 days  0 hours 12 minutes 43.5 seconds.
 File lengths (MBytes):  RWF=   1517 Int=      0 D2E=      0 Chk=    171 Scr=      1
 Normal termination of Gaussian 16 at Sat Sep 14 23:57:14 2019.
