 Entering Gaussian System, Link 0=g09
 Initial command:
 /home/pcieplak/g09/g09/l1.exe "/scratch1/pcieplak/fullloop_0.0/Gau-7845.inp" -scrdir="/scratch1/pcieplak/fullloop_0.0/"
 Entering Link 1 = /home/pcieplak/g09/g09/l1.exe PID=      7846.
  
 Copyright (c) 1988,1990,1992,1993,1995,1998,2003,2009,2013,
            Gaussian, Inc.  All Rights Reserved.
  
 This is part of the Gaussian(R) 09 program.  It is based on
 the Gaussian(R) 03 system (copyright 2003, Gaussian, Inc.),
 the Gaussian(R) 98 system (copyright 1998, Gaussian, Inc.),
 the Gaussian(R) 94 system (copyright 1995, Gaussian, Inc.),
 the Gaussian 92(TM) system (copyright 1992, Gaussian, Inc.),
 the Gaussian 90(TM) system (copyright 1990, Gaussian, Inc.),
 the Gaussian 88(TM) system (copyright 1988, Gaussian, Inc.),
 the Gaussian 86(TM) system (copyright 1986, Carnegie Mellon
 University), and the Gaussian 82(TM) system (copyright 1983,
 Carnegie Mellon University). Gaussian is a federally registered
 trademark of Gaussian, Inc.
  
 This software contains proprietary and confidential information,
 including trade secrets, belonging to Gaussian, Inc.
  
 This software is provided under written license and may be
 used, copied, transmitted, or stored only in accord with that
 written license.
  
 The following legend is applicable only to US Government
 contracts under FAR:
  
                    RESTRICTED RIGHTS LEGEND
  
 Use, reproduction and disclosure by the US Government is
 subject to restrictions as set forth in subparagraphs (a)
 and (c) of the Commercial Computer Software - Restricted
 Rights clause in FAR 52.227-19.
  
 Gaussian, Inc.
 340 Quinnipiac St., Bldg. 40, Wallingford CT 06492
  
  
 ---------------------------------------------------------------
 Warning -- This program may not be used in any manner that
 competes with the business of Gaussian, Inc. or will provide
 assistance to any competitor of Gaussian, Inc.  The licensee
 of this program is prohibited from giving any competitor of
 Gaussian, Inc. access to this program.  By using this program,
 the user acknowledges that Gaussian, Inc. is engaged in the
 business of creating and licensing software in the field of
 computational chemistry and represents and warrants to the
 licensee that it is not a competitor of Gaussian, Inc. and that
 it will not use this program in any manner prohibited above.
 ---------------------------------------------------------------
  

 Cite this work as:
 Gaussian 09, Revision D.01,
 M. J. Frisch, G. W. Trucks, H. B. Schlegel, G. E. Scuseria, 
 M. A. Robb, J. R. Cheeseman, G. Scalmani, V. Barone, B. Mennucci, 
 G. A. Petersson, H. Nakatsuji, M. Caricato, X. Li, H. P. Hratchian, 
 A. F. Izmaylov, J. Bloino, G. Zheng, J. L. Sonnenberg, M. Hada, 
 M. Ehara, K. Toyota, R. Fukuda, J. Hasegawa, M. Ishida, T. Nakajima, 
 Y. Honda, O. Kitao, H. Nakai, T. Vreven, J. A. Montgomery, Jr., 
 J. E. Peralta, F. Ogliaro, M. Bearpark, J. J. Heyd, E. Brothers, 
 K. N. Kudin, V. N. Staroverov, T. Keith, R. Kobayashi, J. Normand, 
 K. Raghavachari, A. Rendell, J. C. Burant, S. S. Iyengar, J. Tomasi, 
 M. Cossi, N. Rega, J. M. Millam, M. Klene, J. E. Knox, J. B. Cross, 
 V. Bakken, C. Adamo, J. Jaramillo, R. Gomperts, R. E. Stratmann, 
 O. Yazyev, A. J. Austin, R. Cammi, C. Pomelli, J. W. Ochterski, 
 R. L. Martin, K. Morokuma, V. G. Zakrzewski, G. A. Voth, 
 P. Salvador, J. J. Dannenberg, S. Dapprich, A. D. Daniels, 
 O. Farkas, J. B. Foresman, J. V. Ortiz, J. Cioslowski, 
 and D. J. Fox, Gaussian, Inc., Wallingford CT, 2013.
 
 ******************************************
 Gaussian 09:  ES64L-G09RevD.01 24-Apr-2013
                16-Sep-2019 
 ******************************************
 %Nproc=12
 Will use up to   12 processors via shared memory.
 %chk=chk1mol
 %mem=32GB
 ----------------------------------------------------------------------
 #maxdisk=50GB #B3LYP/SVP Density=Current scf=(tight) #IOP(5/87=12)Pop=
 (MK,readradii) iop(6/33=2) iop(6/42=6)
 ----------------------------------------------------------------------
 1/30=1,38=1/1;
 2/12=2,17=6,18=5,40=1/2;
 3/5=18,7=101,11=2,16=1,25=1,30=1,74=-5/1,2,3;
 4//1;
 5/5=2,32=2,38=5,87=12/2;
 6/7=2,8=2,9=2,10=2,15=8,20=101,22=-1,28=1,33=2,42=6/1,2;
 99/5=1,9=1/99;
 ------------
 SOL molecule
 ------------
 Symbolic Z-matrix:
 Charge =  0 Multiplicity = 1
 C                     82.15     56.28     15.97 
 C                     82.12     54.97     15.2 
 O                     83.02     54.72     14.39 
 H                     82.278    57.108    15.273 
 H                     81.213    56.404    16.513 
 H                     82.981    56.269    16.675 
 N                     81.13     54.14     15.54 
 C                     81.07     52.85     14.88 
 C                     80.54     53.1      13.47 
 O                     79.34     53.09     13.23 
 C                     80.33     51.9      15.81 
 C                     80.08     50.55     15.17 
 O                     79.19     49.82     15.67 
 O                     80.86     50.17     14.27 
 H                     80.64     54.3      16.41 
 H                     82.04     52.43     14.62 
 H                     79.39     52.35     16.12 
 H                     80.87     51.69     16.74 
 N                     81.43     53.18     12.48 
 C                     81.19     53.77     11.17 
 C                     80.28     52.94     10.28 
 O                     79.54     53.42     9.43 
 C                     82.51     54.1      10.49 
 C                     82.49     55.45     9.79 
 C                     83.8      56.15     9.44 
 C                     84.52     55.53     8.24 
 N                     85.82     56.18     8.02 
 H                     82.4      53.05     12.69 
 H                     80.6      54.67     11.35 
 H                     82.79     53.32     9.77 
 H                     83.31     54.12     11.23 
 H                     81.92     56.13     10.43 
 H                     81.8      55.34     8.95 
 H                     84.56     56.15     10.22 
 H                     83.51     57.19     9.27 
 H                     83.85     55.56     7.38 
 H                     84.6      54.46     8.44 
 H                     86.51     55.76     8.63 
 H                     86.19     56.02     7.1 
 H                     85.8      57.19     8.13 
 N                     80.29     51.63     10.55 
 C                     79.6      50.58     9.84 
 C                     78.42     49.94     10.56 
 O                     77.58     49.3      9.95 
 C                     80.53     49.52     9.25 
 C                     81.35     48.76     10.28 
 O                     81.98     47.76     9.88 
 O                     81.37     49.15     11.47 
 H                     80.95     51.38     11.28 
 H                     79.18     50.89     8.88 
 H                     81.16     49.98     8.48 
 H                     79.93     48.79     8.71 
 N                     78.3      50.3      11.84 
 C                     77.27     50.1      12.83 
 C                     77.32     48.7      13.44 
 O                     76.42     48.33     14.2 
 H                     79.16     50.61     12.28 
 H                     76.26     50.14     12.41 
 H                     77.2      50.94     13.52 
 N                     78.34     47.88     13.19 
 C                     78.45     46.47     13.54 
 C                     78.49     46.19     15.03 
 O                     78.41     45.04     15.44 
 C                     79.7      45.89     12.87 
 C                     80.92     45.77     13.77 
 N                     81.34     44.53     14.04 
 O                     81.55     46.75     14.17 
 H                     79.1      48.32     12.71 
 H                     77.58     45.98     13.12 
 H                     80.       46.55     12.06 
 H                     79.42     44.95     12.4 
 H                     80.94     43.71     13.63 
 H                     82.26     44.34     14.42 
 N                     78.64     47.22     15.88 
 C                     78.55     47.09     17.32 
 C                     79.88     47.11     18.06 
 O                     79.9      47.12     19.29 
 H                     78.81     48.14     15.51 
 H                     77.97     46.19     17.54 
 H                     77.99     47.93     17.73 
 N                     80.96     47.27     17.29 
 C                     82.3      47.54     17.78 
 C                     82.89     48.73     17.04 
 O                     82.99     48.84     15.82 
 C                     83.09     46.26     17.54 
 C                     82.62     45.06     18.34 
 C                     83.09     44.89     19.65 
 C                     81.66     44.19     17.82 
 C                     82.67     43.79     20.41 
 C                     81.17     43.13     18.59 
 C                     81.66     42.95     19.9 
 O                     81.01     42.12     20.77 
 H                     80.87     47.19     16.29 
 H                     82.36     47.73     18.85 
 H                     84.11     46.45     17.85 
 H                     83.16     45.94     16.5 
 H                     83.75     45.63     20.08 
 H                     81.26     44.36     16.83 
 H                     82.87     43.69     21.46 
 H                     80.48     42.39     18.22 
 H                     80.29     41.61     20.38 
 N                     83.42     49.68     17.81 
 C                     84.36     50.69     17.37 
 C                     85.71     50.01     17.25 
 O                     86.24     49.45     18.21 
 C                     84.33     51.86     18.35 
 C                     82.94     52.48     18.43 
 C                     85.34     52.94     17.96 
 C                     82.7      53.51     19.54 
 H                     83.36     49.64     18.82 
 H                     83.99     51.26     16.52 
 H                     84.57     51.49     19.34 
 H                     82.29     51.63     18.64 
 H                     82.71     52.9      17.45 
 H                     85.22     53.3      16.94 
 H                     85.31     53.84     18.58 
 H                     86.33     52.53     18.11 
 H                     82.91     53.05     20.51 
 H                     83.34     54.38     19.44 
 H                     81.67     53.83     19.36 
 N                     86.32     50.28     16.09 
 C                     87.74     50.1      15.9 
 C                     88.64     51.27     16.27 
 O                     88.14     52.36     16.52 
 C                     87.98     49.56     14.49 
 O                     88.13     50.53     13.48 
 H                     85.8      50.76     15.37 
 H                     88.14     49.36     16.6 
 H                     87.16     48.94     14.15 
 H                     88.85     48.9      14.48 
 H                     88.47     50.12     12.68 
 N                     89.96     51.06     16.27 
 C                     90.92     52.13     16.39 
 C                     90.84     53.06     15.19 
 O                     90.8      54.26     15.45 
 C                     92.23     51.39     16.62 
 H                     90.36     50.16     16.04 
 H                     90.77     52.65     17.34 
 H                     92.23     50.87     17.58 
 H                     92.36     50.6      15.87 
 H                     93.05     52.12     16.63 
 N                     90.83     52.61     13.93 
 C                     90.77     53.54     12.82 
 C                     89.54     54.43     12.71 
 O                     89.71     55.55     12.23 
 C                     90.9      52.92     11.44 
 H                     90.97     51.64     13.69 
 H                     91.62     54.22     12.88 
 H                     90.82     53.66     10.65 
 H                     91.8      52.3      11.44 
 H                     89.99     52.34     11.3 
 N                     88.46     53.93     13.32 
 C                     87.18     54.61     13.4 
 C                     87.15     55.69     14.48 
 O                     86.54     56.74     14.29 
 C                     86.13     53.54     13.68 
 C                     85.86     52.65     12.48 
 C                     84.85     51.53     12.72 
 O                     83.76     51.42     12.11 
 O                     85.04     50.8      13.72 
 H                     88.54     53.02     13.75 
 H                     86.86     55.07     12.46 
 H                     85.25     54.08     14.03 
 H                     86.5      52.89     14.47 
 H                     86.77     52.17     12.13 
 H                     85.5      53.31     11.69 
 N                     87.76     55.4      15.63 
 C                     87.98     56.37     16.69 
 H                     88.762    57.066    16.388 
 H                     87.058    56.92     16.877 
 H                     88.286    55.852    17.599 
 H                     88.07     54.46     15.81 
 CA                    83.08     49.15     13.25 
 O                     84.38     46.96     13.82 
 H                     84.2      46.11     13.43 
 H                     85.03     46.78     14.5 
 
 Stoichiometry    C54H83CaN15O23
 Framework group  C1[X(C54H83CaN15O23)]
 Deg. of freedom   522
 Full point group                 C1      NOp   1
 Largest Abelian subgroup         C1      NOp   1
 Largest concise Abelian subgroup C1      NOp   1
                         Standard orientation:                         
 ---------------------------------------------------------------------
 Center     Atomic      Atomic             Coordinates (Angstroms)
 Number     Number       Type             X           Y           Z
 ---------------------------------------------------------------------
      1          6           0        2.626163    1.802857    5.080188
      2          6           0        1.874250    1.871455    3.761165
      3          8           0        2.507436    1.865940    2.699259
      4          1           0        3.404014    2.566081    5.094827
      5          1           0        1.932678    1.975341    5.903306
      6          1           0        3.082632    0.819169    5.188348
      7          7           0        0.543031    1.849116    3.870509
      8          6           0       -0.237906    1.861645    2.648511
      9          6           0       -0.184603    3.287726    2.105417
     10          8           0       -1.008456    4.128001    2.441428
     11          6           0       -1.581433    1.220838    2.963635
     12          6           0       -2.542872    1.301067    1.795817
     13          8           0       -3.765627    1.144906    2.031365
     14          8           0       -2.065852    1.377490    0.642816
     15          1           0        0.133013    1.547126    4.744172
     16          1           0        0.227713    1.347666    1.809509
     17          1           0       -2.014892    1.693205    3.841805
     18          1           0       -1.509871    0.156535    3.214111
     19          7           0        0.696213    3.548723    1.138647
     20          6           0        1.166453    4.872983    0.755228
     21          6           0        0.125729    5.707332    0.027316
     22          8           0        0.075835    6.929996    0.083031
     23          6           0        2.464870    4.765119   -0.029743
     24          6           0        3.486042    5.817107    0.374520
     25          6           0        4.962238    5.617712    0.043330
     26          6           0        5.292427    5.853510   -1.432534
     27          7           0        6.703367    5.544877   -1.706202
     28          1           0        1.266773    2.803777    0.790197
     29          1           0        1.310203    5.421655    1.687320
     30          1           0        2.280825    4.831696   -1.109972
     31          1           0        2.913160    3.785173    0.133790
     32          1           0        3.409887    5.931554    1.459879
     33          1           0        3.075571    6.773864    0.042964
     34          1           0        5.360819    4.622914    0.237004
     35          1           0        5.481581    6.310502    0.710356
     36          1           0        4.993762    6.868532   -1.696973
     37          1           0        4.596377    5.243964   -2.011557
     38          1           0        6.802912    4.549377   -1.860057
     39          1           0        7.036594    5.950337   -2.562626
     40          1           0        7.343698    5.870399   -0.987445
     41          7           0       -0.794426    4.991625   -0.628563
     42          6           0       -1.858246    5.485522   -1.469428
     43          6           0       -3.270945    5.364873   -0.912539
     44          8           0       -4.187304    6.029378   -1.366431
     45          6           0       -1.786939    4.985332   -2.912108
     46          6           0       -1.900911    3.476723   -3.060468
     47          8           0       -2.041120    3.027864   -4.216222
     48          8           0       -1.851091    2.746167   -2.044394
     49          1           0       -0.625473    3.991390   -0.584024
     50          1           0       -1.770976    6.544080   -1.726212
     51          1           0       -0.880533    5.378543   -3.386674
     52          1           0       -2.604229    5.429684   -3.476986
     53          7           0       -3.358877    4.634612    0.201637
     54          6           0       -4.420595    4.404659    1.150782
     55          6           0       -5.436597    3.382354    0.643600
     56          8           0       -6.475002    3.182041    1.280852
     57          1           0       -2.616662    3.954476    0.327460
     58          1           0       -5.040328    5.290557    1.321708
     59          1           0       -4.039777    4.266570    2.161974
     60          7           0       -5.204471    2.676772   -0.462551
     61          6           0       -6.134780    1.807646   -1.170961
     62          6           0       -6.575542    0.584117   -0.390700
     63          8           0       -7.479896   -0.121474   -0.816475
     64          6           0       -5.497235    1.375565   -2.495591
     65          6           0       -4.870973   -0.010282   -2.490709
     66          7           0       -5.449578   -0.926961   -3.272895
     67          8           0       -3.838385   -0.270994   -1.871766
     68          1           0       -4.272923    2.777270   -0.814288
     69          1           0       -7.008366    2.408304   -1.393350
     70          1           0       -4.686704    2.060091   -2.732578
     71          1           0       -6.238211    1.508280   -3.280602
     72          1           0       -6.207919   -0.724447   -3.892901
     73          1           0       -4.987294   -1.792086   -3.527359
     74          7           0       -5.939800    0.280569    0.753673
     75          6           0       -6.364213   -0.775260    1.650166
     76          6           0       -5.534930   -2.050386    1.593215
     77          8           0       -5.746852   -2.958858    2.395193
     78          1           0       -5.132162    0.816780    1.022744
     79          1           0       -7.424791   -0.965395    1.466256
     80          1           0       -6.282596   -0.435286    2.682181
     81          7           0       -4.505696   -2.025121    0.741782
     82          6           0       -3.454656   -3.024869    0.675315
     83          6           0       -2.094422   -2.345879    0.698515
     84          8           0       -1.717870   -1.464640   -0.070982
     85          6           0       -3.697434   -3.789574   -0.619438
     86          6           0       -4.989459   -4.583271   -0.659662
     87          6           0       -5.013443   -5.871378   -0.106395
     88          6           0       -6.162965   -4.007823   -1.150216
     89          6           0       -6.195063   -6.624506   -0.130343
     90          6           0       -7.370044   -4.713649   -1.113219
     91          6           0       -7.386340   -6.016806   -0.574594
     92          8           0       -8.573542   -6.616847   -0.260263
     93          1           0       -4.434481   -1.273563    0.075006
     94          1           0       -3.487122   -3.767991    1.469869
     95          1           0       -2.895840   -4.510496   -0.721015
     96          1           0       -3.664151   -3.191676   -1.530651
     97          1           0       -4.125497   -6.264637    0.367945
     98          1           0       -6.149275   -2.993172   -1.523439
     99          1           0       -6.317069   -7.544356    0.409555
    100          1           0       -8.290922   -4.347645   -1.535860
    101          1           0       -9.358359   -6.129533   -0.538087
    102          7           0       -1.223870   -2.833735    1.581938
    103          6           0        0.210742   -2.639884    1.541828
    104          6           0        0.749105   -3.569761    0.471878
    105          8           0        0.573696   -4.787352    0.524848
    106          6           0        0.786105   -2.883687    2.934566
    107          6           0        0.186433   -1.925687    3.957078
    108          6           0        2.308386   -2.738083    2.942273
    109          6           0        0.492573   -2.202535    5.433640
    110          1           0       -1.485071   -3.556007    2.241784
    111          1           0        0.487021   -1.588094    1.500520
    112          1           0        0.523628   -3.887441    3.247907
    113          1           0       -0.889128   -2.049955    3.827363
    114          1           0        0.487648   -0.915276    3.677724
    115          1           0        2.656121   -1.783091    2.553080
    116          1           0        2.771350   -2.823696    3.929003
    117          1           0        2.717409   -3.559705    2.369265
    118          1           0        0.152121   -3.210123    5.689489
    119          1           0        1.553486   -2.145475    5.652059
    120          1           0        0.000281   -1.371850    5.946779
    121          7           0        1.587925   -2.953955   -0.369409
    122          6           0        2.524295   -3.675992   -1.198127
    123          6           0        3.883740   -3.990794   -0.590994
    124          8           0        4.206010   -3.469233    0.469533
    125          6           0        2.602722   -2.987704   -2.560995
    126          8           0        3.550654   -1.951861   -2.670322
    127          1           0        1.671554   -1.949072   -0.320242
    128          1           0        2.184290   -4.701065   -1.374821
    129          1           0        1.662973   -2.524350   -2.834080
    130          1           0        2.788575   -3.723025   -3.346718
    131          1           0        3.672370   -1.715386   -3.593883
    132          7           0        4.692169   -4.808085   -1.272887
    133          6           0        6.075214   -5.012231   -0.917346
    134          6           0        6.867046   -3.724717   -1.080472
    135          8           0        7.591669   -3.423660   -0.135228
    136          6           0        6.478395   -6.199746   -1.779815
    137          1           0        4.421308   -5.214302   -2.158619
    138          1           0        6.135242   -5.421415    0.094764
    139          1           0        5.948746   -7.106513   -1.481074
    140          1           0        6.185516   -6.031556   -2.823575
    141          1           0        7.554226   -6.378285   -1.652887
    142          7           0        6.797542   -2.971905   -2.184393
    143          6           0        7.586703   -1.761474   -2.297012
    144          6           0        7.318629   -0.647780   -1.294554
    145          8           0        8.280874    0.047244   -0.970941
    146          6           0        7.526864   -1.065190   -3.645087
    147          1           0        6.294853   -3.253364   -3.012756
    148          1           0        8.641186   -2.012911   -2.181492
    149          1           0        8.113951   -0.152394   -3.660342
    150          1           0        7.759143   -1.808904   -4.411466
    151          1           0        6.511289   -0.682611   -3.724716
    152          7           0        6.092292   -0.688774   -0.762656
    153          6           0        5.611825    0.231425    0.252029
    154          6           0        6.108049   -0.120845    1.653231
    155          8           0        6.407836    0.768732    2.446629
    156          6           0        4.088315    0.192609    0.195384
    157          6           0        3.526247    0.874193   -1.039332
    158          6           0        2.005625    0.822854   -1.170374
    159          8           0        1.264045    1.833863   -1.185191
    160          8           0        1.464522   -0.301166   -1.057293
    161          1           0        5.459691   -1.404274   -1.090187
    162          1           0        5.867520    1.278296    0.061549
    163          1           0        3.750607    0.637447    1.131638
    164          1           0        3.769893   -0.846504    0.146897
    165          1           0        3.925652    0.436111   -1.950134
    166          1           0        3.858546    1.911647   -0.988683
    167          7           0        6.134749   -1.416618    1.967810
    168          6           0        6.740901   -1.936488    3.182394
    169          1           0        7.825774   -1.878552    3.099700
    170          1           0        6.410566   -1.344914    4.035900
    171          1           0        6.442221   -2.975529    3.321767
    172          1           0        5.694775   -2.088767    1.362221
    173         20           0       -0.959017    0.489554   -1.592287
    174          8           0       -1.597268   -1.508569   -3.145071
    175          1           0       -2.221315   -1.454970   -3.862492
    176          1           0       -1.379213   -2.439224   -3.084799
 ---------------------------------------------------------------------
 Rotational constants (GHZ):      0.0237867      0.0154867      0.0117131
 Standard basis: SVP (5D, 7F)
 There are  1809 symmetry adapted cartesian basis functions of A   symmetry.
 There are  1717 symmetry adapted basis functions of A   symmetry.
  1717 basis functions,  2922 primitive gaussians,  1809 cartesian basis functions
   358 alpha electrons      358 beta electrons
       nuclear repulsion energy     21811.6102980266 Hartrees.
 NAtoms=  176 NActive=  176 NUniq=  176 SFac= 1.00D+00 NAtFMM=   60 NAOKFM=T Big=T
 Integral buffers will be    131072 words long.
 Raffenetti 2 integral format.
 Two-electron integral symmetry is turned on.
 One-electron integrals computed using PRISM.
 NBasis=  1717 RedAO= T EigKep=  2.91D-04  NBF=  1717
 NBsUse=  1717 1.00D-06 EigRej= -1.00D+00 NBFU=  1717
 ExpMin= 1.98D-02 ExpMax= 3.51D+04 ExpMxC= 5.28D+03 IAcc=3 IRadAn=         5 AccDes= 0.00D+00
 Harris functional with IExCor=  402 and IRadAn=       5 diagonalized for initial guess.
 HarFok:  IExCor=  402 AccDes= 0.00D+00 IRadAn=         5 IDoV= 1 UseB2=F ITyADJ=14
 ICtDFT=  3500011 ScaDFX=  1.000000  1.000000  1.000000  1.000000
 FoFCou: FMM=F IPFlag=           0 FMFlag=      100000 FMFlg1=        2001
         NFxFlg=           0 DoJE=T BraDBF=F KetDBF=T FulRan=T
         wScrn=  0.000000 ICntrl=     500 IOpCl=  0 I1Cent=   200000004 NGrid=           0
         NMat0=    1 NMatS0=      1 NMatT0=    0 NMatD0=    1 NMtDS0=    0 NMtDT0=    0
 Petite list used in FoFCou.
 Requested convergence on RMS density matrix=1.00D-08 within 128 cycles.
 Requested convergence on MAX density matrix=1.00D-06.
 Requested convergence on             energy=1.00D-06.
 No special actions if energy rises.
 EnCoef did     4 forward-backward iterations
 SCF Done:  E(RB3LYP) =  -5333.57233185     A.U. after   18 cycles
            NFock= 18  Conv=0.38D-08     -V/T= 2.0082

 **********************************************************************

            Population analysis using the SCF density.

 **********************************************************************

 Orbital symmetries:
 BldTbl:  Degeneracy threshold= 1.00D-02
       Occupied  (A) (A) (A) (A) (A) (A) (A) (A) (A) (A) (A) (A)
                 (A) (A) (A) (A) (A) (A) (A) (A) (A) (A) (A) (A)
                 (A) (A) (A) (A) (A) (A) (A) (A) (A) (A) (A) (A)
                 (A) (A) (A) (A) (A) (A) (A) (A) (A) (A) (A) (A)
                 (A) (A) (A) (A) (A) (A) (A) (A) (A) (A) (A) (A)
                 (A) (A) (A) (A) (A) (A) (A) (A) (A) (A) (A) (A)
                 (A) (A) (A) (A) (A) (A) (A) (A) (A) (A) (A) (A)
                 (A) (A) (A) (A) (A) (A) (A) (A) (A) (A) (A) (A)
                 (A) (A) (A) (A) (A) (A) (A) (A) (A) (A) (A) (A)
                 (A) (A) (A) (A) (A) (A) (A) (A) (A) (A) (A) (A)
                 (A) (A) (A) (A) (A) (A) (A) (A) (A) (A) (A) (A)
                 (A) (A) (A) (A) (A) (A) (A) (A) (A) (A) (A) (A)
                 (A) (A) (A) (A) (A) (A) (A) (A) (A) (A) (A) (A)
                 (A) (A) (A) (A) (A) (A) (A) (A) (A) (A) (A) (A)
                 (A) (A) (A) (A) (A) (A) (A) (A) (A) (A) (A) (A)
                 (A) (A) (A) (A) (A) (A) (A) (A) (A) (A) (A) (A)
                 (A) (A) (A) (A) (A) (A) (A) (A) (A) (A) (A) (A)
                 (A) (A) (A) (A) (A) (A) (A) (A) (A) (A) (A) (A)
                 (A) (A) (A) (A) (A) (A) (A) (A) (A) (A) (A) (A)
                 (A) (A) (A) (A) (A) (A) (A) (A) (A) (A) (A) (A)
                 (A) (A) (A) (A) (A) (A) (A) (A) (A) (A) (A) (A)
                 (A) (A) (A) (A) (A) (A) (A) (A) (A) (A) (A) (A)
                 (A) (A) (A) (A) (A) (A) (A) (A) (A) (A) (A) (A)
                 (A) (A) (A) (A) (A) (A) (A) (A) (A) (A) (A) (A)
                 (A) (A) (A) (A) (A) (A) (A) (A) (A) (A) (A) (A)
                 (A) (A) (A) (A) (A) (A) (A) (A) (A) (A) (A) (A)
                 (A) (A) (A) (A) (A) (A) (A) (A) (A) (A) (A) (A)
                 (A) (A) (A) (A) (A) (A) (A) (A) (A) (A) (A) (A)
                 (A) (A) (A) (A) (A) (A) (A) (A) (A) (A) (A) (A)
                 (A) (A) (A) (A) (A) (A) (A) (A) (A) (A)
       Virtual   (A) (A) (A) (A) (A) (A) (A) (A) (A) (A) (A) (A)
                 (A) (A) (A) (A) (A) (A) (A) (A) (A) (A) (A) (A)
                 (A) (A) (A) (A) (A) (A) (A) (A) (A) (A) (A) (A)
                 (A) (A) (A) (A) (A) (A) (A) (A) (A) (A) (A) (A)
                 (A) (A) (A) (A) (A) (A) (A) (A) (A) (A) (A) (A)
                 (A) (A) (A) (A) (A) (A) (A) (A) (A) (A) (A) (A)
                 (A) (A) (A) (A) (A) (A) (A) (A) (A) (A) (A) (A)
                 (A) (A) (A) (A) (A) (A) (A) (A) (A) (A) (A) (A)
                 (A) (A) (A) (A) (A) (A) (A) (A) (A) (A) (A) (A)
                 (A) (A) (A) (A) (A) (A) (A) (A) (A) (A) (A) (A)
                 (A) (A) (A) (A) (A) (A) (A) (A) (A) (A) (A) (A)
                 (A) (A) (A) (A) (A) (A) (A) (A) (A) (A) (A) (A)
                 (A) (A) (A) (A) (A) (A) (A) (A) (A) (A) (A) (A)
                 (A) (A) (A) (A) (A) (A) (A) (A) (A) (A) (A) (A)
                 (A) (A) (A) (A) (A) (A) (A) (A) (A) (A) (A) (A)
                 (A) (A) (A) (A) (A) (A) (A) (A) (A) (A) (A) (A)
                 (A) (A) (A) (A) (A) (A) (A) (A) (A) (A) (A) (A)
                 (A) (A) (A) (A) (A) (A) (A) (A) (A) (A) (A) (A)
                 (A) (A) (A) (A) (A) (A) (A) (A) (A) (A) (A) (A)
                 (A) (A) (A) (A) (A) (A) (A) (A) (A) (A) (A) (A)
                 (A) (A) (A) (A) (A) (A) (A) (A) (A) (A) (A) (A)
                 (A) (A) (A) (A) (A) (A) (A) (A) (A) (A) (A) (A)
                 (A) (A) (A) (A) (A) (A) (A) (A) (A) (A) (A) (A)
                 (A) (A) (A) (A) (A) (A) (A) (A) (A) (A) (A) (A)
                 (A) (A) (A) (A) (A) (A) (A) (A) (A) (A) (A) (A)
                 (A) (A) (A) (A) (A) (A) (A) (A) (A) (A) (A) (A)
                 (A) (A) (A) (A) (A) (A) (A) (A) (A) (A) (A) (A)
                 (A) (A) (A) (A) (A) (A) (A) (A) (A) (A) (A) (A)
                 (A) (A) (A) (A) (A) (A) (A) (A) (A) (A) (A) (A)
                 (A) (A) (A) (A) (A) (A) (A) (A) (A) (A) (A) (A)
                 (A) (A) (A) (A) (A) (A) (A) (A) (A) (A) (A) (A)
                 (A) (A) (A) (A) (A) (A) (A) (A) (A) (A) (A) (A)
                 (A) (A) (A) (A) (A) (A) (A) (A) (A) (A) (A) (A)
                 (A) (A) (A) (A) (A) (A) (A) (A) (A) (A) (A) (A)
                 (A) (A) (A) (A) (A) (A) (A) (A) (A) (A) (A) (A)
                 (A) (A) (A) (A) (A) (A) (A) (A) (A) (A) (A) (A)
                 (A) (A) (A) (A) (A) (A) (A) (A) (A) (A) (A) (A)
                 (A) (A) (A) (A) (A) (A) (A) (A) (A) (A) (A) (A)
                 (A) (A) (A) (A) (A) (A) (A) (A) (A) (A) (A) (A)
                 (A) (A) (A) (A) (A) (A) (A) (A) (A) (A) (A) (A)
                 (A) (A) (A) (A) (A) (A) (A) (A) (A) (A) (A) (A)
                 (A) (A) (A) (A) (A) (A) (A) (A) (A) (A) (A) (A)
                 (A) (A) (A) (A) (A) (A) (A) (A) (A) (A) (A) (A)
                 (A) (A) (A) (A) (A) (A) (A) (A) (A) (A) (A) (A)
                 (A) (A) (A) (A) (A) (A) (A) (A) (A) (A) (A) (A)
                 (A) (A) (A) (A) (A) (A) (A) (A) (A) (A) (A) (A)
                 (A) (A) (A) (A) (A) (A) (A) (A) (A) (A) (A) (A)
                 (A) (A) (A) (A) (A) (A) (A) (A) (A) (A) (A) (A)
                 (A) (A) (A) (A) (A) (A) (A) (A) (A) (A) (A) (A)
                 (A) (A) (A) (A) (A) (A) (A) (A) (A) (A) (A) (A)
                 (A) (A) (A) (A) (A) (A) (A) (A) (A) (A) (A) (A)
                 (A) (A) (A) (A) (A) (A) (A) (A) (A) (A) (A) (A)
                 (A) (A) (A) (A) (A) (A) (A) (A) (A) (A) (A) (A)
                 (A) (A) (A) (A) (A) (A) (A) (A) (A) (A) (A) (A)
                 (A) (A) (A) (A) (A) (A) (A) (A) (A) (A) (A) (A)
                 (A) (A) (A) (A) (A) (A) (A) (A) (A) (A) (A) (A)
                 (A) (A) (A) (A) (A) (A) (A) (A) (A) (A) (A) (A)
                 (A) (A) (A) (A) (A) (A) (A) (A) (A) (A) (A) (A)
                 (A) (A) (A) (A) (A) (A) (A) (A) (A) (A) (A) (A)
                 (A) (A) (A) (A) (A) (A) (A) (A) (A) (A) (A) (A)
                 (A) (A) (A) (A) (A) (A) (A) (A) (A) (A) (A) (A)
                 (A) (A) (A) (A) (A) (A) (A) (A) (A) (A) (A) (A)
                 (A) (A) (A) (A) (A) (A) (A) (A) (A) (A) (A) (A)
                 (A) (A) (A) (A) (A) (A) (A) (A) (A) (A) (A) (A)
                 (A) (A) (A) (A) (A) (A) (A) (A) (A) (A) (A) (A)
                 (A) (A) (A) (A) (A) (A) (A) (A) (A) (A) (A) (A)
                 (A) (A) (A) (A) (A) (A) (A) (A) (A) (A) (A) (A)
                 (A) (A) (A) (A) (A) (A) (A) (A) (A) (A) (A) (A)
                 (A) (A) (A) (A) (A) (A) (A) (A) (A) (A) (A) (A)
                 (A) (A) (A) (A) (A) (A) (A) (A) (A) (A) (A) (A)
                 (A) (A) (A) (A) (A) (A) (A) (A) (A) (A) (A) (A)
                 (A) (A) (A) (A) (A) (A) (A) (A) (A) (A) (A) (A)
                 (A) (A) (A) (A) (A) (A) (A) (A) (A) (A) (A) (A)
                 (A) (A) (A) (A) (A) (A) (A) (A) (A) (A) (A) (A)
                 (A) (A) (A) (A) (A) (A) (A) (A) (A) (A) (A) (A)
                 (A) (A) (A) (A) (A) (A) (A) (A) (A) (A) (A) (A)
                 (A) (A) (A) (A) (A) (A) (A) (A) (A) (A) (A) (A)
                 (A) (A) (A) (A) (A) (A) (A) (A) (A) (A) (A) (A)
                 (A) (A) (A) (A) (A) (A) (A) (A) (A) (A) (A) (A)
                 (A) (A) (A) (A) (A) (A) (A) (A) (A) (A) (A) (A)
                 (A) (A) (A) (A) (A) (A) (A) (A) (A) (A) (A) (A)
                 (A) (A) (A) (A) (A) (A) (A) (A) (A) (A) (A) (A)
                 (A) (A) (A) (A) (A) (A) (A) (A) (A) (A) (A) (A)
                 (A) (A) (A) (A) (A) (A) (A) (A) (A) (A) (A) (A)
                 (A) (A) (A) (A) (A) (A) (A) (A) (A) (A) (A) (A)
                 (A) (A) (A) (A) (A) (A) (A) (A) (A) (A) (A) (A)
                 (A) (A) (A) (A) (A) (A) (A) (A) (A) (A) (A) (A)
                 (A) (A) (A) (A) (A) (A) (A) (A) (A) (A) (A) (A)
                 (A) (A) (A) (A) (A) (A) (A) (A) (A) (A) (A) (A)
                 (A) (A) (A) (A) (A) (A) (A) (A) (A) (A) (A) (A)
                 (A) (A) (A) (A) (A) (A) (A) (A) (A) (A) (A) (A)
                 (A) (A) (A) (A) (A) (A) (A) (A) (A) (A) (A) (A)
                 (A) (A) (A) (A) (A) (A) (A) (A) (A) (A) (A) (A)
                 (A) (A) (A) (A) (A) (A) (A) (A) (A) (A) (A) (A)
                 (A) (A) (A) (A) (A) (A) (A) (A) (A) (A) (A) (A)
                 (A) (A) (A) (A) (A) (A) (A) (A) (A) (A) (A) (A)
                 (A) (A) (A) (A) (A) (A) (A) (A) (A) (A) (A) (A)
                 (A) (A) (A) (A) (A) (A) (A) (A) (A) (A) (A) (A)
                 (A) (A) (A) (A) (A) (A) (A) (A) (A) (A) (A) (A)
                 (A) (A) (A) (A) (A) (A) (A) (A) (A) (A) (A) (A)
                 (A) (A) (A) (A) (A) (A) (A) (A) (A) (A) (A) (A)
                 (A) (A) (A) (A) (A) (A) (A) (A) (A) (A) (A) (A)
                 (A) (A) (A) (A) (A) (A) (A) (A) (A) (A) (A) (A)
                 (A) (A) (A) (A) (A) (A) (A) (A) (A) (A) (A) (A)
                 (A) (A) (A) (A) (A) (A) (A) (A) (A) (A) (A) (A)
                 (A) (A) (A) (A) (A) (A) (A) (A) (A) (A) (A) (A)
                 (A) (A) (A) (A) (A) (A) (A) (A) (A) (A) (A) (A)
                 (A) (A) (A) (A) (A) (A) (A) (A) (A) (A) (A) (A)
                 (A) (A) (A) (A) (A) (A) (A) (A) (A) (A) (A) (A)
                 (A) (A) (A) (A) (A) (A) (A) (A) (A) (A) (A) (A)
                 (A) (A) (A) (A) (A) (A) (A) (A) (A) (A) (A) (A)
                 (A) (A) (A) (A) (A) (A) (A) (A) (A) (A) (A) (A)
                 (A) (A) (A) (A) (A) (A) (A) (A) (A) (A) (A) (A)
                 (A) (A) (A)
 The electronic state is 1-A.
 Alpha  occ. eigenvalues -- -145.36862 -19.19313 -19.18201 -19.14272 -19.13808
 Alpha  occ. eigenvalues --  -19.12288 -19.11159 -19.10871 -19.10588 -19.10358
 Alpha  occ. eigenvalues --  -19.09891 -19.09408 -19.09353 -19.07871 -19.06728
 Alpha  occ. eigenvalues --  -19.06080 -19.04691 -19.04340 -19.04287 -19.03980
 Alpha  occ. eigenvalues --  -19.03354 -19.02497 -19.01780 -19.01451 -15.42666
 Alpha  occ. eigenvalues --  -14.59174 -14.39746 -14.39670 -14.36596 -14.35995
 Alpha  occ. eigenvalues --  -14.35941 -14.35412 -14.35317 -14.33405 -14.32525
 Alpha  occ. eigenvalues --  -14.31300 -14.30795 -14.29434 -14.29295 -14.27908
 Alpha  occ. eigenvalues --  -12.56285 -12.56239 -12.56211 -10.34625 -10.32186
 Alpha  occ. eigenvalues --  -10.31372 -10.29339 -10.29303 -10.29248 -10.28765
 Alpha  occ. eigenvalues --  -10.28750 -10.27934 -10.27892 -10.27278 -10.26802
 Alpha  occ. eigenvalues --  -10.26547 -10.26336 -10.25306 -10.25076 -10.24636
 Alpha  occ. eigenvalues --  -10.23610 -10.23307 -10.23271 -10.23134 -10.22905
 Alpha  occ. eigenvalues --  -10.22828 -10.22675 -10.22592 -10.22560 -10.22318
 Alpha  occ. eigenvalues --  -10.22293 -10.22045 -10.21979 -10.21898 -10.20718
 Alpha  occ. eigenvalues --  -10.20692 -10.20662 -10.20152 -10.19565 -10.19152
 Alpha  occ. eigenvalues --  -10.18851 -10.18557 -10.18090 -10.18068 -10.18026
 Alpha  occ. eigenvalues --  -10.17961 -10.17865 -10.17505 -10.17299 -10.17119
 Alpha  occ. eigenvalues --  -10.17080 -10.17004 -10.16913 -10.16730 -10.16692
 Alpha  occ. eigenvalues --  -10.15427 -10.14016  -1.79543  -1.14189  -1.07444
 Alpha  occ. eigenvalues --   -1.07307  -1.07191  -1.06919  -1.06206  -1.05611
 Alpha  occ. eigenvalues --   -1.05167  -1.04362  -1.04136  -1.03228  -1.02885
 Alpha  occ. eigenvalues --   -1.02800  -1.02605  -1.02040  -1.00606  -1.00206
 Alpha  occ. eigenvalues --   -0.98864  -0.97989  -0.97582  -0.97382  -0.97129
 Alpha  occ. eigenvalues --   -0.97036  -0.96961  -0.95740  -0.95666  -0.93962
 Alpha  occ. eigenvalues --   -0.93597  -0.92984  -0.92941  -0.91928  -0.90658
 Alpha  occ. eigenvalues --   -0.90384  -0.89615  -0.89000  -0.88546  -0.88094
 Alpha  occ. eigenvalues --   -0.87420  -0.87233  -0.86877  -0.85749  -0.84811
 Alpha  occ. eigenvalues --   -0.82847  -0.82822  -0.81824  -0.81093  -0.81041
 Alpha  occ. eigenvalues --   -0.79542  -0.78482  -0.76998  -0.76916  -0.75705
 Alpha  occ. eigenvalues --   -0.75458  -0.74308  -0.73853  -0.73433  -0.73191
 Alpha  occ. eigenvalues --   -0.72374  -0.72179  -0.71763  -0.71155  -0.70419
 Alpha  occ. eigenvalues --   -0.69700  -0.68947  -0.68656  -0.68358  -0.68029
 Alpha  occ. eigenvalues --   -0.67401  -0.66470  -0.65107  -0.64700  -0.63896
 Alpha  occ. eigenvalues --   -0.63822  -0.63769  -0.63346  -0.62840  -0.62637
 Alpha  occ. eigenvalues --   -0.62229  -0.60867  -0.60639  -0.60629  -0.60313
 Alpha  occ. eigenvalues --   -0.59785  -0.59502  -0.59263  -0.58598  -0.58083
 Alpha  occ. eigenvalues --   -0.57181  -0.57021  -0.56942  -0.56731  -0.56580
 Alpha  occ. eigenvalues --   -0.55778  -0.55458  -0.54920  -0.54773  -0.54517
 Alpha  occ. eigenvalues --   -0.54376  -0.53501  -0.53450  -0.53010  -0.52821
 Alpha  occ. eigenvalues --   -0.52511  -0.52426  -0.52377  -0.51990  -0.51930
 Alpha  occ. eigenvalues --   -0.51600  -0.51248  -0.50910  -0.50257  -0.50191
 Alpha  occ. eigenvalues --   -0.49910  -0.49323  -0.49058  -0.48713  -0.48573
 Alpha  occ. eigenvalues --   -0.48401  -0.48200  -0.47998  -0.47717  -0.47531
 Alpha  occ. eigenvalues --   -0.47225  -0.47128  -0.46708  -0.46670  -0.46501
 Alpha  occ. eigenvalues --   -0.46289  -0.45981  -0.45796  -0.45692  -0.45564
 Alpha  occ. eigenvalues --   -0.45462  -0.45309  -0.44943  -0.44868  -0.44686
 Alpha  occ. eigenvalues --   -0.44636  -0.44549  -0.44207  -0.43991  -0.43906
 Alpha  occ. eigenvalues --   -0.43845  -0.43522  -0.43490  -0.43249  -0.42949
 Alpha  occ. eigenvalues --   -0.42916  -0.42748  -0.42582  -0.42188  -0.42163
 Alpha  occ. eigenvalues --   -0.41878  -0.41747  -0.41673  -0.41578  -0.41270
 Alpha  occ. eigenvalues --   -0.40991  -0.40938  -0.40799  -0.40777  -0.40582
 Alpha  occ. eigenvalues --   -0.40284  -0.40114  -0.39963  -0.39906  -0.39861
 Alpha  occ. eigenvalues --   -0.39681  -0.39576  -0.39302  -0.39199  -0.39008
 Alpha  occ. eigenvalues --   -0.38928  -0.38898  -0.38807  -0.38751  -0.38461
 Alpha  occ. eigenvalues --   -0.38336  -0.38125  -0.38061  -0.37884  -0.37778
 Alpha  occ. eigenvalues --   -0.37715  -0.37634  -0.37434  -0.37388  -0.36959
 Alpha  occ. eigenvalues --   -0.36749  -0.36689  -0.36600  -0.36429  -0.36331
 Alpha  occ. eigenvalues --   -0.36135  -0.36005  -0.35915  -0.35787  -0.35586
 Alpha  occ. eigenvalues --   -0.35361  -0.35264  -0.35174  -0.34843  -0.34594
 Alpha  occ. eigenvalues --   -0.34400  -0.34347  -0.34133  -0.34092  -0.33824
 Alpha  occ. eigenvalues --   -0.33383  -0.33206  -0.32930  -0.32764  -0.32348
 Alpha  occ. eigenvalues --   -0.32162  -0.32012  -0.31857  -0.31481  -0.31240
 Alpha  occ. eigenvalues --   -0.31173  -0.31005  -0.30704  -0.30221  -0.30172
 Alpha  occ. eigenvalues --   -0.29467  -0.29290  -0.28652  -0.28490  -0.28372
 Alpha  occ. eigenvalues --   -0.28055  -0.27707  -0.27352  -0.27224  -0.27042
 Alpha  occ. eigenvalues --   -0.26649  -0.26010  -0.25932  -0.25704  -0.25357
 Alpha  occ. eigenvalues --   -0.25054  -0.24275  -0.23961  -0.23881  -0.23655
 Alpha  occ. eigenvalues --   -0.23323  -0.22992  -0.22432  -0.22005  -0.21863
 Alpha  occ. eigenvalues --   -0.21663  -0.21455  -0.21187  -0.20622  -0.20342
 Alpha  occ. eigenvalues --   -0.20141  -0.19949  -0.19223  -0.19103  -0.18811
 Alpha  occ. eigenvalues --   -0.18114  -0.17521  -0.17467
 Alpha virt. eigenvalues --   -0.10735  -0.05341  -0.04543  -0.03435  -0.02352
 Alpha virt. eigenvalues --   -0.02094  -0.01393  -0.01137   0.00017   0.00141
 Alpha virt. eigenvalues --    0.00341   0.00850   0.01032   0.01382   0.01734
 Alpha virt. eigenvalues --    0.01899   0.02253   0.02286   0.02925   0.03132
 Alpha virt. eigenvalues --    0.03318   0.03902   0.04167   0.04377   0.04749
 Alpha virt. eigenvalues --    0.04887   0.05122   0.05197   0.05328   0.05848
 Alpha virt. eigenvalues --    0.06314   0.06446   0.06530   0.06560   0.06659
 Alpha virt. eigenvalues --    0.06885   0.07042   0.07282   0.07526   0.08000
 Alpha virt. eigenvalues --    0.08064   0.08306   0.08503   0.08582   0.08981
 Alpha virt. eigenvalues --    0.09187   0.09320   0.09528   0.09651   0.09732
 Alpha virt. eigenvalues --    0.09849   0.09965   0.10298   0.10442   0.10610
 Alpha virt. eigenvalues --    0.11006   0.11132   0.11355   0.11494   0.11538
 Alpha virt. eigenvalues --    0.11672   0.11933   0.12245   0.12480   0.12628
 Alpha virt. eigenvalues --    0.12780   0.12995   0.13115   0.13236   0.13296
 Alpha virt. eigenvalues --    0.13491   0.13768   0.13917   0.14097   0.14249
 Alpha virt. eigenvalues --    0.14356   0.14532   0.14580   0.15031   0.15194
 Alpha virt. eigenvalues --    0.15293   0.15487   0.15568   0.15769   0.15829
 Alpha virt. eigenvalues --    0.16130   0.16373   0.16574   0.16732   0.16963
 Alpha virt. eigenvalues --    0.17148   0.17401   0.17437   0.17704   0.17723
 Alpha virt. eigenvalues --    0.18098   0.18157   0.18484   0.18665   0.18780
 Alpha virt. eigenvalues --    0.18974   0.19117   0.19341   0.19455   0.19561
 Alpha virt. eigenvalues --    0.19617   0.19859   0.20071   0.20150   0.20256
 Alpha virt. eigenvalues --    0.20557   0.20723   0.21009   0.21334   0.21779
 Alpha virt. eigenvalues --    0.21933   0.22086   0.22327   0.22462   0.22567
 Alpha virt. eigenvalues --    0.22946   0.23145   0.23359   0.23391   0.23577
 Alpha virt. eigenvalues --    0.23757   0.23959   0.24054   0.24233   0.24620
 Alpha virt. eigenvalues --    0.24789   0.25049   0.25383   0.25422   0.25772
 Alpha virt. eigenvalues --    0.25967   0.26228   0.26333   0.26624   0.26824
 Alpha virt. eigenvalues --    0.26976   0.27325   0.27410   0.27552   0.27836
 Alpha virt. eigenvalues --    0.27981   0.28515   0.28883   0.29259   0.29310
 Alpha virt. eigenvalues --    0.29655   0.30082   0.30352   0.30497   0.30705
 Alpha virt. eigenvalues --    0.30999   0.31292   0.31589   0.31739   0.31934
 Alpha virt. eigenvalues --    0.32144   0.32323   0.32366   0.32621   0.32897
 Alpha virt. eigenvalues --    0.33180   0.33309   0.33448   0.33553   0.33693
 Alpha virt. eigenvalues --    0.33866   0.34301   0.34499   0.34663   0.35267
 Alpha virt. eigenvalues --    0.35646   0.36048   0.36482   0.36490   0.36634
 Alpha virt. eigenvalues --    0.36979   0.37120   0.37459   0.38011   0.38335
 Alpha virt. eigenvalues --    0.38537   0.39035   0.39173   0.39379   0.39456
 Alpha virt. eigenvalues --    0.39907   0.40075   0.40259   0.40808   0.41032
 Alpha virt. eigenvalues --    0.41428   0.41595   0.41721   0.42177   0.42423
 Alpha virt. eigenvalues --    0.42448   0.42755   0.42953   0.43232   0.43514
 Alpha virt. eigenvalues --    0.43637   0.44048   0.44072   0.44376   0.44498
 Alpha virt. eigenvalues --    0.44711   0.44978   0.45038   0.45240   0.45460
 Alpha virt. eigenvalues --    0.45653   0.45937   0.46026   0.46076   0.46559
 Alpha virt. eigenvalues --    0.46708   0.47004   0.47171   0.47298   0.47377
 Alpha virt. eigenvalues --    0.47536   0.47696   0.47810   0.47886   0.48118
 Alpha virt. eigenvalues --    0.48276   0.48870   0.49041   0.49117   0.49729
 Alpha virt. eigenvalues --    0.49825   0.49963   0.49999   0.50295   0.50611
 Alpha virt. eigenvalues --    0.50672   0.50870   0.51102   0.51189   0.51326
 Alpha virt. eigenvalues --    0.51526   0.51644   0.51790   0.51866   0.52261
 Alpha virt. eigenvalues --    0.52388   0.52412   0.52747   0.53001   0.53085
 Alpha virt. eigenvalues --    0.53302   0.53641   0.53848   0.53970   0.54145
 Alpha virt. eigenvalues --    0.54192   0.54310   0.54655   0.54744   0.54810
 Alpha virt. eigenvalues --    0.55033   0.55071   0.55453   0.55605   0.55705
 Alpha virt. eigenvalues --    0.56040   0.56088   0.56224   0.56572   0.56844
 Alpha virt. eigenvalues --    0.56906   0.56979   0.57227   0.57542   0.57710
 Alpha virt. eigenvalues --    0.58058   0.58081   0.58133   0.58353   0.58378
 Alpha virt. eigenvalues --    0.58717   0.58916   0.59030   0.59406   0.59502
 Alpha virt. eigenvalues --    0.59693   0.59838   0.59951   0.60070   0.60197
 Alpha virt. eigenvalues --    0.60376   0.60421   0.60535   0.60649   0.60761
 Alpha virt. eigenvalues --    0.60895   0.61071   0.61145   0.61572   0.61722
 Alpha virt. eigenvalues --    0.61842   0.62092   0.62158   0.62313   0.62472
 Alpha virt. eigenvalues --    0.62586   0.62674   0.62857   0.63012   0.63157
 Alpha virt. eigenvalues --    0.63248   0.63440   0.63585   0.63742   0.63816
 Alpha virt. eigenvalues --    0.63844   0.63955   0.64035   0.64170   0.64317
 Alpha virt. eigenvalues --    0.64343   0.64470   0.64627   0.64680   0.64766
 Alpha virt. eigenvalues --    0.65015   0.65145   0.65152   0.65310   0.65456
 Alpha virt. eigenvalues --    0.65597   0.65754   0.65793   0.65887   0.65961
 Alpha virt. eigenvalues --    0.66198   0.66297   0.66523   0.66633   0.66911
 Alpha virt. eigenvalues --    0.67015   0.67184   0.67247   0.67309   0.67371
 Alpha virt. eigenvalues --    0.67430   0.67550   0.67651   0.67778   0.67795
 Alpha virt. eigenvalues --    0.67914   0.67961   0.68163   0.68251   0.68391
 Alpha virt. eigenvalues --    0.68490   0.68741   0.68770   0.68934   0.69181
 Alpha virt. eigenvalues --    0.69363   0.69420   0.69445   0.69610   0.69748
 Alpha virt. eigenvalues --    0.69885   0.69968   0.70190   0.70262   0.70462
 Alpha virt. eigenvalues --    0.70479   0.70541   0.70584   0.70750   0.70848
 Alpha virt. eigenvalues --    0.70936   0.71190   0.71467   0.71554   0.71683
 Alpha virt. eigenvalues --    0.71912   0.72004   0.72129   0.72256   0.72304
 Alpha virt. eigenvalues --    0.72524   0.72680   0.72849   0.73007   0.73519
 Alpha virt. eigenvalues --    0.73659   0.74000   0.74037   0.74097   0.74256
 Alpha virt. eigenvalues --    0.74309   0.74715   0.74757   0.74887   0.75356
 Alpha virt. eigenvalues --    0.75463   0.75709   0.75779   0.76058   0.76085
 Alpha virt. eigenvalues --    0.76317   0.76542   0.76734   0.77017   0.77115
 Alpha virt. eigenvalues --    0.77234   0.77445   0.77657   0.77834   0.78029
 Alpha virt. eigenvalues --    0.78317   0.78462   0.78843   0.79069   0.79124
 Alpha virt. eigenvalues --    0.79406   0.79624   0.79848   0.80204   0.80375
 Alpha virt. eigenvalues --    0.80605   0.80778   0.81514   0.81661   0.81701
 Alpha virt. eigenvalues --    0.81999   0.82198   0.82582   0.82902   0.83113
 Alpha virt. eigenvalues --    0.83282   0.83514   0.83886   0.84138   0.84411
 Alpha virt. eigenvalues --    0.84675   0.85024   0.85071   0.85563   0.85761
 Alpha virt. eigenvalues --    0.85817   0.86081   0.86349   0.86419   0.86752
 Alpha virt. eigenvalues --    0.87391   0.87592   0.87929   0.88231   0.88467
 Alpha virt. eigenvalues --    0.88933   0.89108   0.89637   0.89663   0.90231
 Alpha virt. eigenvalues --    0.90646   0.91153   0.91308   0.91408   0.91697
 Alpha virt. eigenvalues --    0.91969   0.92060   0.92192   0.92850   0.93230
 Alpha virt. eigenvalues --    0.93614   0.93913   0.94006   0.94113   0.94435
 Alpha virt. eigenvalues --    0.94512   0.94930   0.95150   0.95394   0.95925
 Alpha virt. eigenvalues --    0.96156   0.96581   0.96869   0.97304   0.97680
 Alpha virt. eigenvalues --    0.97974   0.98112   0.98532   0.98670   0.98874
 Alpha virt. eigenvalues --    0.99018   0.99176   0.99744   0.99950   1.00379
 Alpha virt. eigenvalues --    1.00565   1.00615   1.00745   1.01279   1.01531
 Alpha virt. eigenvalues --    1.01744   1.02227   1.02322   1.02547   1.02752
 Alpha virt. eigenvalues --    1.02891   1.03840   1.04456   1.04590   1.04787
 Alpha virt. eigenvalues --    1.04957   1.05125   1.05810   1.05923   1.06039
 Alpha virt. eigenvalues --    1.06184   1.06435   1.06826   1.07142   1.07445
 Alpha virt. eigenvalues --    1.07756   1.07996   1.08222   1.08336   1.08778
 Alpha virt. eigenvalues --    1.09153   1.09570   1.09717   1.09872   1.10034
 Alpha virt. eigenvalues --    1.10452   1.11052   1.11087   1.11648   1.12009
 Alpha virt. eigenvalues --    1.12190   1.12746   1.12889   1.12989   1.13412
 Alpha virt. eigenvalues --    1.13691   1.13897   1.13936   1.14455   1.14728
 Alpha virt. eigenvalues --    1.14939   1.15234   1.15373   1.15577   1.15922
 Alpha virt. eigenvalues --    1.16079   1.16311   1.16700   1.16888   1.17273
 Alpha virt. eigenvalues --    1.17434   1.17793   1.18000   1.18335   1.18506
 Alpha virt. eigenvalues --    1.18897   1.19025   1.19188   1.19675   1.19766
 Alpha virt. eigenvalues --    1.19987   1.20180   1.20535   1.21015   1.21256
 Alpha virt. eigenvalues --    1.21772   1.21867   1.22064   1.22355   1.22747
 Alpha virt. eigenvalues --    1.22797   1.22920   1.23224   1.23387   1.23539
 Alpha virt. eigenvalues --    1.23614   1.23855   1.24282   1.24543   1.24602
 Alpha virt. eigenvalues --    1.24991   1.25082   1.25335   1.25746   1.26173
 Alpha virt. eigenvalues --    1.26276   1.26822   1.27080   1.27282   1.27449
 Alpha virt. eigenvalues --    1.27690   1.28189   1.28546   1.28874   1.28974
 Alpha virt. eigenvalues --    1.29234   1.29472   1.29889   1.30086   1.30542
 Alpha virt. eigenvalues --    1.30591   1.30862   1.30991   1.31308   1.31603
 Alpha virt. eigenvalues --    1.31813   1.32173   1.32438   1.32626   1.32783
 Alpha virt. eigenvalues --    1.33108   1.33126   1.33451   1.33811   1.34104
 Alpha virt. eigenvalues --    1.34428   1.34582   1.34984   1.35135   1.35319
 Alpha virt. eigenvalues --    1.35439   1.35952   1.36254   1.36363   1.36675
 Alpha virt. eigenvalues --    1.36815   1.37093   1.37230   1.37514   1.37753
 Alpha virt. eigenvalues --    1.38349   1.38616   1.38782   1.39138   1.39249
 Alpha virt. eigenvalues --    1.39365   1.39691   1.39904   1.40036   1.40693
 Alpha virt. eigenvalues --    1.40971   1.41457   1.41946   1.42252   1.42699
 Alpha virt. eigenvalues --    1.42822   1.42895   1.43344   1.43723   1.43949
 Alpha virt. eigenvalues --    1.44452   1.44996   1.45374   1.45726   1.46058
 Alpha virt. eigenvalues --    1.46308   1.46450   1.46727   1.47170   1.47327
 Alpha virt. eigenvalues --    1.47867   1.48013   1.48267   1.48311   1.48514
 Alpha virt. eigenvalues --    1.48648   1.48919   1.49260   1.49675   1.50136
 Alpha virt. eigenvalues --    1.50442   1.50610   1.50963   1.51195   1.51754
 Alpha virt. eigenvalues --    1.51932   1.52286   1.52318   1.52445   1.52660
 Alpha virt. eigenvalues --    1.53085   1.53141   1.53302   1.53764   1.53921
 Alpha virt. eigenvalues --    1.54278   1.54451   1.54678   1.55108   1.55235
 Alpha virt. eigenvalues --    1.55406   1.55842   1.56194   1.56465   1.57354
 Alpha virt. eigenvalues --    1.57723   1.58247   1.58572   1.58803   1.59060
 Alpha virt. eigenvalues --    1.59211   1.59472   1.59728   1.60442   1.60868
 Alpha virt. eigenvalues --    1.60946   1.61295   1.61698   1.62114   1.62473
 Alpha virt. eigenvalues --    1.62670   1.63115   1.63224   1.63420   1.63731
 Alpha virt. eigenvalues --    1.63808   1.64248   1.64585   1.64949   1.65110
 Alpha virt. eigenvalues --    1.65340   1.65585   1.65827   1.66460   1.66602
 Alpha virt. eigenvalues --    1.66743   1.67312   1.67633   1.67791   1.68509
 Alpha virt. eigenvalues --    1.68781   1.68906   1.69241   1.69329   1.69977
 Alpha virt. eigenvalues --    1.70029   1.70159   1.70461   1.70656   1.70853
 Alpha virt. eigenvalues --    1.71019   1.71341   1.71522   1.71631   1.71892
 Alpha virt. eigenvalues --    1.72381   1.72458   1.72640   1.72913   1.73532
 Alpha virt. eigenvalues --    1.73687   1.73907   1.74111   1.74497   1.74680
 Alpha virt. eigenvalues --    1.74696   1.74937   1.74967   1.75336   1.75675
 Alpha virt. eigenvalues --    1.75745   1.75882   1.76000   1.76074   1.76472
 Alpha virt. eigenvalues --    1.76675   1.76885   1.77120   1.77261   1.77410
 Alpha virt. eigenvalues --    1.77550   1.77829   1.77879   1.78014   1.78179
 Alpha virt. eigenvalues --    1.78600   1.78668   1.78905   1.79108   1.79274
 Alpha virt. eigenvalues --    1.79502   1.79694   1.79819   1.79895   1.80038
 Alpha virt. eigenvalues --    1.80113   1.80386   1.80611   1.80669   1.80729
 Alpha virt. eigenvalues --    1.80816   1.80909   1.81097   1.81208   1.81507
 Alpha virt. eigenvalues --    1.81512   1.81743   1.81956   1.82060   1.82293
 Alpha virt. eigenvalues --    1.82572   1.82634   1.82681   1.82819   1.83016
 Alpha virt. eigenvalues --    1.83308   1.83405   1.83580   1.83755   1.84148
 Alpha virt. eigenvalues --    1.84392   1.84663   1.84768   1.85201   1.85300
 Alpha virt. eigenvalues --    1.85586   1.85620   1.85946   1.85963   1.86068
 Alpha virt. eigenvalues --    1.86260   1.86334   1.86599   1.86768   1.87004
 Alpha virt. eigenvalues --    1.87398   1.87496   1.87692   1.87900   1.88175
 Alpha virt. eigenvalues --    1.88198   1.88443   1.88605   1.88783   1.89026
 Alpha virt. eigenvalues --    1.89347   1.89455   1.89491   1.90075   1.90110
 Alpha virt. eigenvalues --    1.90308   1.90483   1.90554   1.90854   1.90944
 Alpha virt. eigenvalues --    1.91226   1.91572   1.91684   1.91781   1.92030
 Alpha virt. eigenvalues --    1.92133   1.92547   1.92594   1.92929   1.93001
 Alpha virt. eigenvalues --    1.93264   1.93459   1.93558   1.93847   1.94073
 Alpha virt. eigenvalues --    1.94405   1.94688   1.94860   1.95033   1.95335
 Alpha virt. eigenvalues --    1.95470   1.95727   1.95914   1.96112   1.96359
 Alpha virt. eigenvalues --    1.96617   1.96780   1.96952   1.97423   1.97573
 Alpha virt. eigenvalues --    1.97656   1.97819   1.98064   1.98279   1.98288
 Alpha virt. eigenvalues --    1.98621   1.98866   1.99054   1.99465   1.99754
 Alpha virt. eigenvalues --    2.00370   2.00522   2.00574   2.00803   2.01005
 Alpha virt. eigenvalues --    2.01040   2.01311   2.01571   2.01597   2.01931
 Alpha virt. eigenvalues --    2.02278   2.02692   2.03087   2.03169   2.03433
 Alpha virt. eigenvalues --    2.03869   2.03910   2.04376   2.04511   2.04837
 Alpha virt. eigenvalues --    2.05035   2.05195   2.05329   2.05678   2.06127
 Alpha virt. eigenvalues --    2.06340   2.06519   2.06595   2.06857   2.07408
 Alpha virt. eigenvalues --    2.07693   2.07834   2.08181   2.08679   2.08788
 Alpha virt. eigenvalues --    2.09132   2.09587   2.09827   2.10036   2.10216
 Alpha virt. eigenvalues --    2.10396   2.10501   2.10648   2.10925   2.11425
 Alpha virt. eigenvalues --    2.11674   2.11757   2.11904   2.12078   2.12593
 Alpha virt. eigenvalues --    2.13064   2.13475   2.13746   2.14089   2.14201
 Alpha virt. eigenvalues --    2.14424   2.14701   2.14844   2.15237   2.15556
 Alpha virt. eigenvalues --    2.15745   2.16441   2.16654   2.16985   2.17098
 Alpha virt. eigenvalues --    2.17405   2.17794   2.17827   2.18393   2.18588
 Alpha virt. eigenvalues --    2.19153   2.19391   2.19709   2.20014   2.20165
 Alpha virt. eigenvalues --    2.20275   2.20663   2.20856   2.20987   2.21229
 Alpha virt. eigenvalues --    2.21711   2.22146   2.22246   2.22300   2.22443
 Alpha virt. eigenvalues --    2.22696   2.23081   2.23355   2.23670   2.23775
 Alpha virt. eigenvalues --    2.24410   2.24583   2.24748   2.24871   2.25207
 Alpha virt. eigenvalues --    2.25510   2.25598   2.26206   2.26389   2.27257
 Alpha virt. eigenvalues --    2.27588   2.27750   2.28208   2.28861   2.29678
 Alpha virt. eigenvalues --    2.29849   2.30626   2.31122   2.31169   2.31299
 Alpha virt. eigenvalues --    2.31404   2.31492   2.31637   2.32307   2.32355
 Alpha virt. eigenvalues --    2.32587   2.33615   2.33808   2.34394   2.34550
 Alpha virt. eigenvalues --    2.34717   2.34794   2.34949   2.35314   2.35922
 Alpha virt. eigenvalues --    2.36231   2.36819   2.37173   2.37253   2.37469
 Alpha virt. eigenvalues --    2.37768   2.37817   2.38049   2.38405   2.38639
 Alpha virt. eigenvalues --    2.39031   2.39135   2.39353   2.39681   2.40885
 Alpha virt. eigenvalues --    2.40915   2.41064   2.41182   2.41764   2.42031
 Alpha virt. eigenvalues --    2.42318   2.42356   2.42701   2.43514   2.43721
 Alpha virt. eigenvalues --    2.43953   2.44440   2.44840   2.45176   2.45341
 Alpha virt. eigenvalues --    2.46047   2.46463   2.46921   2.46942   2.47186
 Alpha virt. eigenvalues --    2.47332   2.47720   2.47952   2.48240   2.48470
 Alpha virt. eigenvalues --    2.48700   2.48903   2.49202   2.49222   2.49788
 Alpha virt. eigenvalues --    2.50904   2.51254   2.51438   2.51850   2.52707
 Alpha virt. eigenvalues --    2.53080   2.53328   2.53534   2.53845   2.54290
 Alpha virt. eigenvalues --    2.54823   2.54988   2.55065   2.55546   2.56041
 Alpha virt. eigenvalues --    2.56374   2.56402   2.56550   2.56649   2.56929
 Alpha virt. eigenvalues --    2.57459   2.57988   2.58241   2.58567   2.58669
 Alpha virt. eigenvalues --    2.58760   2.58978   2.59788   2.60242   2.60335
 Alpha virt. eigenvalues --    2.60643   2.60755   2.60875   2.61115   2.61802
 Alpha virt. eigenvalues --    2.62339   2.62914   2.63340   2.63663   2.63958
 Alpha virt. eigenvalues --    2.64055   2.64194   2.64520   2.64843   2.65193
 Alpha virt. eigenvalues --    2.65254   2.65571   2.65745   2.66631   2.66859
 Alpha virt. eigenvalues --    2.66992   2.67237   2.67482   2.67743   2.68047
 Alpha virt. eigenvalues --    2.68386   2.68804   2.68988   2.69142   2.69552
 Alpha virt. eigenvalues --    2.69719   2.70152   2.70282   2.70600   2.70832
 Alpha virt. eigenvalues --    2.70864   2.71446   2.71884   2.72027   2.72250
 Alpha virt. eigenvalues --    2.72528   2.72773   2.73001   2.73397   2.73490
 Alpha virt. eigenvalues --    2.73781   2.74110   2.74182   2.74452   2.74549
 Alpha virt. eigenvalues --    2.74974   2.75057   2.75338   2.75688   2.75827
 Alpha virt. eigenvalues --    2.76060   2.76620   2.76781   2.76844   2.77069
 Alpha virt. eigenvalues --    2.77254   2.77595   2.78057   2.78108   2.78464
 Alpha virt. eigenvalues --    2.78912   2.79128   2.79190   2.79378   2.79574
 Alpha virt. eigenvalues --    2.80288   2.80443   2.80736   2.81015   2.81681
 Alpha virt. eigenvalues --    2.81818   2.82063   2.82892   2.83170   2.83285
 Alpha virt. eigenvalues --    2.83600   2.83916   2.84406   2.84438   2.84618
 Alpha virt. eigenvalues --    2.84747   2.84857   2.85000   2.85424   2.85897
 Alpha virt. eigenvalues --    2.86177   2.86392   2.87236   2.87572   2.87764
 Alpha virt. eigenvalues --    2.88202   2.88523   2.88659   2.88779   2.89085
 Alpha virt. eigenvalues --    2.89393   2.89540   2.89598   2.89867   2.90144
 Alpha virt. eigenvalues --    2.90309   2.90978   2.91022   2.91793   2.92199
 Alpha virt. eigenvalues --    2.92362   2.92817   2.93186   2.93502   2.93701
 Alpha virt. eigenvalues --    2.93827   2.93931   2.94143   2.94343   2.94404
 Alpha virt. eigenvalues --    2.94634   2.95006   2.95953   2.96232   2.96344
 Alpha virt. eigenvalues --    2.96875   2.97273   2.97500   2.97894   2.97977
 Alpha virt. eigenvalues --    2.98285   2.98711   2.98813   2.99338   2.99594
 Alpha virt. eigenvalues --    3.00075   3.00665   3.00891   3.01164   3.01721
 Alpha virt. eigenvalues --    3.01814   3.02075   3.02395   3.02758   3.03236
 Alpha virt. eigenvalues --    3.03436   3.03630   3.04450   3.05138   3.05356
 Alpha virt. eigenvalues --    3.05484   3.05637   3.06106   3.06407   3.06950
 Alpha virt. eigenvalues --    3.07094   3.07661   3.07771   3.08605   3.08676
 Alpha virt. eigenvalues --    3.09014   3.09430   3.09947   3.10298   3.11256
 Alpha virt. eigenvalues --    3.11734   3.11911   3.12367   3.12475   3.12808
 Alpha virt. eigenvalues --    3.13347   3.13834   3.15186   3.15213   3.15801
 Alpha virt. eigenvalues --    3.16155   3.16402   3.17688   3.17837   3.18049
 Alpha virt. eigenvalues --    3.18397   3.18720   3.18889   3.19228   3.19354
 Alpha virt. eigenvalues --    3.19404   3.19676   3.19948   3.20909   3.21472
 Alpha virt. eigenvalues --    3.21752   3.22198   3.22810   3.22970   3.23439
 Alpha virt. eigenvalues --    3.24229   3.25272   3.25483   3.25719   3.27027
 Alpha virt. eigenvalues --    3.27431   3.27701   3.27868   3.28462   3.29991
 Alpha virt. eigenvalues --    3.30197   3.30396   3.30854   3.31682   3.32219
 Alpha virt. eigenvalues --    3.32713   3.33323   3.34083   3.34182   3.35106
 Alpha virt. eigenvalues --    3.35886   3.36692   3.37305   3.40046   3.41009
 Alpha virt. eigenvalues --    3.41630   3.42206   3.46070   3.47117   3.50892
 Alpha virt. eigenvalues --    3.51921   3.52142   3.53790   3.54789   3.54895
 Alpha virt. eigenvalues --    3.55958   3.56597   3.58229   3.58458   3.61405
 Alpha virt. eigenvalues --    3.62321   3.63068   3.63766   3.64066   3.64928
 Alpha virt. eigenvalues --    3.65385   3.66456   3.66984   3.67832   3.68164
 Alpha virt. eigenvalues --    3.68296   3.69197   3.69937   3.70662   3.71007
 Alpha virt. eigenvalues --    3.71593   3.71726   3.72164   3.72485   3.73082
 Alpha virt. eigenvalues --    3.73233   3.73483   3.74039   3.74455   3.75025
 Alpha virt. eigenvalues --    3.77100   3.79722   3.81198   3.81466
          Condensed to atoms (all electrons):
 Mulliken charges:
               1
     1  C    0.070756
     2  C    0.034768
     3  O   -0.299404
     4  H    0.036288
     5  H   -0.004842
     6  H    0.043037
     7  N   -0.126458
     8  C    0.100342
     9  C    0.049178
    10  O   -0.267869
    11  C    0.082657
    12  C    0.154268
    13  O   -0.380737
    14  O   -0.454832
    15  H    0.133100
    16  H   -0.006878
    17  H   -0.001039
    18  H    0.003872
    19  N   -0.124488
    20  C    0.086558
    21  C    0.031304
    22  O   -0.278529
    23  C    0.079249
    24  C   -0.015340
    25  C   -0.010155
    26  C   -0.003353
    27  N    0.090398
    28  H    0.149716
    29  H    0.009291
    30  H    0.004543
    31  H    0.018217
    32  H    0.020553
    33  H    0.021300
    34  H    0.028519
    35  H    0.031529
    36  H    0.075547
    37  H    0.087426
    38  H    0.203898
    39  H    0.181762
    40  H    0.199485
    41  N   -0.125156
    42  C    0.140960
    43  C    0.046815
    44  O   -0.264755
    45  C    0.021092
    46  C    0.131397
    47  O   -0.381454
    48  O   -0.489459
    49  H    0.150065
    50  H    0.007361
    51  H   -0.010628
    52  H    0.020372
    53  N   -0.179080
    54  C    0.229262
    55  C    0.030641
    56  O   -0.311922
    57  H    0.158925
    58  H    0.016142
    59  H    0.044366
    60  N   -0.151288
    61  C    0.148730
    62  C    0.040809
    63  O   -0.304767
    64  C    0.121356
    65  C    0.035127
    66  N   -0.027636
    67  O   -0.299885
    68  H    0.130945
    69  H    0.020549
    70  H    0.049689
    71  H   -0.009118
    72  H    0.120227
    73  H    0.109807
    74  N   -0.169853
    75  C    0.235776
    76  C    0.034019
    77  O   -0.301578
    78  H    0.154376
    79  H    0.026034
    80  H    0.033499
    81  N   -0.164264
    82  C    0.158424
    83  C    0.183331
    84  O   -0.357761
    85  C    0.131896
    86  C   -0.029814
    87  C    0.001307
    88  C    0.001488
    89  C   -0.000654
    90  C   -0.023805
    91  C    0.141051
    92  O   -0.212105
    93  H    0.161829
    94  H   -0.011955
    95  H   -0.029023
    96  H   -0.039117
    97  H   -0.033843
    98  H   -0.035066
    99  H   -0.025776
   100  H   -0.044051
   101  H    0.176063
   102  N   -0.129518
   103  C    0.100496
   104  C    0.107953
   105  O   -0.284839
   106  C   -0.112797
   107  C   -0.032521
   108  C    0.055726
   109  C    0.057902
   110  H    0.135489
   111  H    0.015424
   112  H   -0.024112
   113  H    0.013033
   114  H   -0.001074
   115  H    0.012161
   116  H   -0.006790
   117  H    0.024797
   118  H    0.014443
   119  H    0.003863
   120  H    0.010873
   121  N   -0.132882
   122  C    0.101279
   123  C    0.103571
   124  O   -0.259899
   125  C    0.227670
   126  O   -0.304329
   127  H    0.165186
   128  H    0.021431
   129  H   -0.006521
   130  H   -0.027787
   131  H    0.176622
   132  N   -0.139736
   133  C    0.104068
   134  C    0.078077
   135  O   -0.247774
   136  C    0.016626
   137  H    0.111460
   138  H    0.028563
   139  H    0.039393
   140  H   -0.006396
   141  H    0.044893
   142  N   -0.121360
   143  C    0.069153
   144  C    0.048859
   145  O   -0.279555
   146  C    0.060756
   147  H    0.096710
   148  H    0.022556
   149  H    0.028101
   150  H    0.022544
   151  H   -0.022746
   152  N   -0.145529
   153  C    0.118976
   154  C    0.080028
   155  O   -0.280277
   156  C   -0.050920
   157  C    0.144508
   158  C    0.124208
   159  O   -0.397556
   160  O   -0.448340
   161  H    0.149049
   162  H   -0.046534
   163  H    0.055812
   164  H    0.005144
   165  H   -0.030360
   166  H   -0.064430
   167  N   -0.168427
   168  C    0.146262
   169  H    0.026265
   170  H    0.021763
   171  H    0.014408
   172  H    0.133496
   173  Ca   1.317043
   174  O   -0.285870
   175  H    0.181668
   176  H    0.187013
 Sum of Mulliken charges =   0.00000
 Mulliken charges with hydrogens summed into heavy atoms:
               1
     1  C    0.145239
     2  C    0.034768
     3  O   -0.299404
     7  N    0.006643
     8  C    0.093464
     9  C    0.049178
    10  O   -0.267869
    11  C    0.085490
    12  C    0.154268
    13  O   -0.380737
    14  O   -0.454832
    19  N    0.025228
    20  C    0.095850
    21  C    0.031304
    22  O   -0.278529
    23  C    0.102009
    24  C    0.026514
    25  C    0.049893
    26  C    0.159620
    27  N    0.675543
    41  N    0.024908
    42  C    0.148321
    43  C    0.046815
    44  O   -0.264755
    45  C    0.030836
    46  C    0.131397
    47  O   -0.381454
    48  O   -0.489459
    53  N   -0.020155
    54  C    0.289770
    55  C    0.030641
    56  O   -0.311922
    60  N   -0.020343
    61  C    0.169279
    62  C    0.040809
    63  O   -0.304767
    64  C    0.161927
    65  C    0.035127
    66  N    0.202398
    67  O   -0.299885
    74  N   -0.015477
    75  C    0.295309
    76  C    0.034019
    77  O   -0.301578
    81  N   -0.002435
    82  C    0.146469
    83  C    0.183331
    84  O   -0.357761
    85  C    0.063756
    86  C   -0.029814
    87  C   -0.032536
    88  C   -0.033579
    89  C   -0.026430
    90  C   -0.067856
    91  C    0.141051
    92  O   -0.036042
   102  N    0.005971
   103  C    0.115919
   104  C    0.107953
   105  O   -0.284839
   106  C   -0.136909
   107  C   -0.020562
   108  C    0.085893
   109  C    0.087081
   121  N    0.032305
   122  C    0.122710
   123  C    0.103571
   124  O   -0.259899
   125  C    0.193363
   126  O   -0.127707
   132  N   -0.028276
   133  C    0.132631
   134  C    0.078077
   135  O   -0.247774
   136  C    0.094515
   142  N   -0.024650
   143  C    0.091709
   144  C    0.048859
   145  O   -0.279555
   146  C    0.088655
   152  N    0.003520
   153  C    0.072442
   154  C    0.080028
   155  O   -0.280277
   156  C    0.010036
   157  C    0.049718
   158  C    0.124208
   159  O   -0.397556
   160  O   -0.448340
   167  N   -0.034931
   168  C    0.208699
   173  Ca   1.317043
   174  O    0.082811
 DipInt: DoE/N= T F RetVal/Mat= T F Init=T NMatP=  1 IDeriv=0 Min/MaxMlt=  0  4
 Entering OneElI...
 OneElI was handed  4286741430 working-precision words.
 Multipole integrals L=0 to 4 MinM= 0 MaxM= 0.
 Requested accuracy = 0.1000D-12
 ShPair: Thresh= 1.00D-13 NBox=     0 BxSize= 0.00D+00 RnKept= 2.55D+01
         NSMCal=               327645 NSMKep=              162876
 PrsmSu:  NPrtUS=   1 ThrOK=F IAlg=1 NPAlg=1 LenDen=           0.
 Prism:   IPart=     0 DynPar=F LinDyn=F Incr=         512.
 PRISM was handed  4276576236 working-precision words and162876 shell-pairs
 IPart=  0 NShTot=      162876 NBatch=         455 AvBLen=       358.0
 PrSmSu:  NxtVal=            513.
 Electronic moments (au):
       -716.00000000         14.35707272         -1.19275289         -7.02989257
     -52353.21297394     -30828.62504407     -11061.88013527        111.11483552
        -36.42491724         10.34290324     -33110.96629668     -20987.71776959
     -18043.86501728      21512.45936545     105365.34220806      40582.18473613
     -13391.41495242      -1649.95640766      17900.61126983     -10655.18448396
   -7540846.27319802   -2897926.85909574    -505687.20236782    -378892.73304498
     252210.17815860    -493951.51434189      25276.37794037     -82385.38600079
      34106.19673157   -2426488.80292498    -605137.82283813    -283867.75335576
    -132512.28780038      66186.29962936      72685.48140134
 Electronic spatial extent (au):  <R**2>=          94243.7182
 DipInt: DoE/N= F T RetVal/Mat= T F Init=T NMatP=  1 IDeriv=0 Min/MaxMlt=  0  4
 Nuclear    moments (au):
        716.00000000          0.00000000          0.00000000          0.00000000
      51949.94541414      30439.99448416      10685.79497105          0.00000000
          0.00000000          0.00000000      34458.64206511      21146.19992498
      17966.64793414     -19490.16709897    -104505.50803098     -41842.72474216
      13697.88567669       1477.19391204     -18349.86304130      10270.23636903
    7359128.66253351    2789160.31698943     469169.98942391     398703.82539847
    -256618.44592629     505580.29496390     -26735.69118734      81971.42541999
     -32144.55210958    2392573.82563062     572201.09705448     260775.41166116
     130718.61841628     -71458.42494844     -71711.78261292
 Total      moments (au):
          0.00000000         14.35707272         -1.19275289         -7.02989257
       -403.26755980       -388.63055991       -376.08516422        111.11483552
        -36.42491724         10.34290324       1347.67576843        158.48215539
        -77.21708314       2022.29226648        859.83417707      -1260.54000603
        306.47072427       -172.76249562       -449.25177147       -384.94811493
    -181717.61066451    -108766.54210631     -36517.21294391      19811.09235349
      -4408.26776769      11628.78062201      -1459.31324697       -413.96058080
       1961.64462199     -33914.97729435     -32936.72578365     -23092.34169460
      -1793.66938410      -5272.12531907        973.69878842
 Traceless Quadrup. (au):
        -13.93979849          0.69720140         13.24259709        111.11483552
        -36.42491724         10.34290324
 Charge=              0.0000 electrons
 Dipole moment (field-independent basis, Debye):
    X=             36.4920    Y=             -3.0317    Z=            -17.8682  Tot=             40.7447
 Quadrupole moment (field-independent basis, Debye-Ang):
   XX=           -542.4086   YY=           -522.7214   ZZ=           -505.8474
   XY=            149.4533   XZ=            -48.9928   YZ=             13.9116
 Traceless Quadrupole moment (field-independent basis, Debye-Ang):
   XX=            -18.7495   YY=              0.9378   ZZ=             17.8117
   XY=            149.4533   XZ=            -48.9928   YZ=             13.9116
 Octapole moment (field-independent basis, Debye-Ang**2):
  XXX=            959.2236  YYY=            112.8015  ZZZ=            -54.9601  XYY=           1439.3896
  XXY=            611.9968  XXZ=           -897.2038  XZZ=            218.1340  YZZ=           -122.9657
  YYZ=           -319.7601  XYZ=           -273.9912
 Hexadecapole moment (field-independent basis, Debye-Ang**3):
 XXXX=         -68443.5613 YYYY=         -40966.6926 ZZZZ=         -13754.1325 XXXY=           7461.8069
 XXXZ=          -1660.3649 YYYX=           4379.9561 YYYZ=           -549.6473 ZZZX=           -155.9174
 ZZZY=            738.8494 XXYY=         -12774.0059 XXZZ=         -12405.5495 YYZZ=          -8697.6826
 XXYZ=           -675.5819 YYXZ=          -1985.7351 ZZXY=            366.7416
 N-N= 2.181161029803D+04 E-N=-5.610605132873D+04  KE= 5.290403976951D+03
 Leave Link  601 at Mon Sep 16 12:13:20 2019, MaxMem=  4294967296 cpu:        22.2
 FitSet:  NAtFit=   176 NAtPot=   176 NAtFrz=     0 MDM=   180 TotChg=   0.00000
 Merz-Kollman atomic radii used.
 Read replacement radii for each type of atom:
 Rad(20) =   1.700000000000D+00
 Atom Element Radius
    1     6    1.50
    2     6    1.50
    3     8    1.40
    4     1    1.20
    5     1    1.20
    6     1    1.20
    7     7    1.50
    8     6    1.50
    9     6    1.50
   10     8    1.40
   11     6    1.50
   12     6    1.50
   13     8    1.40
   14     8    1.40
   15     1    1.20
   16     1    1.20
   17     1    1.20
   18     1    1.20
   19     7    1.50
   20     6    1.50
   21     6    1.50
   22     8    1.40
   23     6    1.50
   24     6    1.50
   25     6    1.50
   26     6    1.50
   27     7    1.50
   28     1    1.20
   29     1    1.20
   30     1    1.20
   31     1    1.20
   32     1    1.20
   33     1    1.20
   34     1    1.20
   35     1    1.20
   36     1    1.20
   37     1    1.20
   38     1    1.20
   39     1    1.20
   40     1    1.20
   41     7    1.50
   42     6    1.50
   43     6    1.50
   44     8    1.40
   45     6    1.50
   46     6    1.50
   47     8    1.40
   48     8    1.40
   49     1    1.20
   50     1    1.20
   51     1    1.20
   52     1    1.20
   53     7    1.50
   54     6    1.50
   55     6    1.50
   56     8    1.40
   57     1    1.20
   58     1    1.20
   59     1    1.20
   60     7    1.50
   61     6    1.50
   62     6    1.50
   63     8    1.40
   64     6    1.50
   65     6    1.50
   66     7    1.50
   67     8    1.40
   68     1    1.20
   69     1    1.20
   70     1    1.20
   71     1    1.20
   72     1    1.20
   73     1    1.20
   74     7    1.50
   75     6    1.50
   76     6    1.50
   77     8    1.40
   78     1    1.20
   79     1    1.20
   80     1    1.20
   81     7    1.50
   82     6    1.50
   83     6    1.50
   84     8    1.40
   85     6    1.50
   86     6    1.50
   87     6    1.50
   88     6    1.50
   89     6    1.50
   90     6    1.50
   91     6    1.50
   92     8    1.40
   93     1    1.20
   94     1    1.20
   95     1    1.20
   96     1    1.20
   97     1    1.20
   98     1    1.20
   99     1    1.20
  100     1    1.20
  101     1    1.20
  102     7    1.50
  103     6    1.50
  104     6    1.50
  105     8    1.40
  106     6    1.50
  107     6    1.50
  108     6    1.50
  109     6    1.50
  110     1    1.20
  111     1    1.20
  112     1    1.20
  113     1    1.20
  114     1    1.20
  115     1    1.20
  116     1    1.20
  117     1    1.20
  118     1    1.20
  119     1    1.20
  120     1    1.20
  121     7    1.50
  122     6    1.50
  123     6    1.50
  124     8    1.40
  125     6    1.50
  126     8    1.40
  127     1    1.20
  128     1    1.20
  129     1    1.20
  130     1    1.20
  131     1    1.20
  132     7    1.50
  133     6    1.50
  134     6    1.50
  135     8    1.40
  136     6    1.50
  137     1    1.20
  138     1    1.20
  139     1    1.20
  140     1    1.20
  141     1    1.20
  142     7    1.50
  143     6    1.50
  144     6    1.50
  145     8    1.40
  146     6    1.50
  147     1    1.20
  148     1    1.20
  149     1    1.20
  150     1    1.20
  151     1    1.20
  152     7    1.50
  153     6    1.50
  154     6    1.50
  155     8    1.40
  156     6    1.50
  157     6    1.50
  158     6    1.50
  159     8    1.40
  160     8    1.40
  161     1    1.20
  162     1    1.20
  163     1    1.20
  164     1    1.20
  165     1    1.20
  166     1    1.20
  167     7    1.50
  168     6    1.50
  169     1    1.20
  170     1    1.20
  171     1    1.20
  172     1    1.20
  173    20    1.70
  174     8    1.40
  175     1    1.20
  176     1    1.20
 Generate VDW surfaces: Layer= 4 Dens= 6 Start= 1.400 Inc= 0.200

 **********************************************************************

            Electrostatic Properties Using The SCF Density

 **********************************************************************

       Atomic Center    1 is at   2.626163  1.802857  5.080188
       Atomic Center    2 is at   1.874250  1.871455  3.761165
       Atomic Center    3 is at   2.507436  1.865940  2.699259
[...]
 **** Fit       0.056047
 **** Fit       0.053281
 **** Fit       0.047411
 **** Fit       0.038936
 **** Fit       0.028837
 **** Fit       0.046850
 **** Fit       0.040883
 **** Fit       0.032822
 **** Fit       0.024209
 **** Fit       0.037895
 **** Fit       0.031212
 **** Fit       0.030523
 **** Fit       0.021022
 **** Fit       0.019849
 **** Fit       0.011376
 **** Fit       0.027671
 **** Fit       0.021068
 **** Fit       0.013701
 **** Fit       0.033950
 **** Fit       0.028572
 **** Fit       0.022033
 **** Fit       0.015760
 **** Fit       0.013121
 **** Fit       0.016828
 **** Fit       0.032754
 **** Fit       0.035805
 **** Fit       0.030084
 **** Fit       0.023945
 **** Fit       0.020310
 **** Fit       0.024314
 **** Fit       0.029695
 **** Fit       0.032435
 **** Fit       0.026607
 **** Fit       0.021327
 **** Fit       0.017791
 **** Fit       0.012530
 **** Fit       0.005683
 **** Fit      -0.002335
 **** Fit      -0.010919
 **** Fit       0.014979
 **** Fit       0.009679
 **** Fit       0.002933
 **** Fit      -0.004949
 **** Fit      -0.013355
 **** Fit       0.007511
 **** Fit       0.000345
 **** Fit      -0.007862
 **** Fit      -0.016187
 **** Fit       0.007036
 **** Fit      -0.000592
 **** Fit      -0.008793
 **** Fit      -0.014890
 **** Fit       0.000511
 **** Fit      -0.005306
 **** Fit       0.004200
 **** Fit       0.017678
 **** Fit       0.030310
 **** Fit       0.012340
 **** Fit       0.029103
 **** Fit       0.044355
 **** Fit       0.039867
 **** Fit       0.058254
 **** Fit       0.053459
 **** Fit       0.056083
 **** Fit       0.054406
 **** Fit       0.054449
 **** Fit       0.051257
 **** Fit       0.049171
 **** Fit       0.044939
 **** Fit       0.049514
 **** Fit       0.047127
 **** Fit       0.043218
 **** Fit       0.038335
 **** Fit       0.034070
 **** Fit       0.032157
 **** Fit       0.049508
 **** Fit       0.046208
 **** Fit       0.042202
 **** Fit       0.038790
 **** Fit       0.038460
 **** Fit       0.047169
 **** Fit       0.044062
 **** Fit       0.074439
 **** Fit       0.074546
 **** Fit       0.037760
 **** Fit       0.062356
 **** Fit       0.054947
 **** Fit       0.043212
 **** Fit      -0.001525
 **** Fit       0.000750
 **** Fit       0.000628
 **** Fit       0.000192
 **** Fit      -0.000557
 **** Fit      -0.001952
 **** Fit       0.001159
 **** Fit       0.001277
 **** Fit       0.001275
 **** Fit       0.001054
 **** Fit       0.000594
 **** Fit      -0.000071
 **** Fit      -0.000923
 **** Fit      -0.002326
 **** Fit      -0.003636
 **** Fit       0.001568
 **** Fit       0.001755
 **** Fit       0.001893
 **** Fit       0.001848
 **** Fit       0.001561
 **** Fit       0.001066
 **** Fit       0.000426
 **** Fit      -0.000332
 **** Fit      -0.001233
 **** Fit      -0.002634
 **** Fit      -0.003964
 **** Fit      -0.005573
 **** Fit      -0.007411
 **** Fit       0.001859
 **** Fit       0.002032
 **** Fit       0.001950
 **** Fit       0.001371
 **** Fit       0.000724
 **** Fit       0.000039
 **** Fit      -0.000705
 **** Fit      -0.001569
 **** Fit      -0.002867
 **** Fit      -0.004258
 **** Fit      -0.006040
 **** Fit      -0.008218
 **** Fit      -0.010748
 **** Fit       0.002206
 **** Fit       0.002268
 **** Fit       0.001808
 **** Fit       0.001077
 **** Fit       0.000376
 **** Fit      -0.000297
 **** Fit      -0.000994
 **** Fit      -0.001812
 **** Fit      -0.011628
 **** Fit      -0.015111
 **** Fit       0.001300
 **** Fit       0.000520
 **** Fit      -0.000147
 **** Fit      -0.000732
 **** Fit      -0.016553
 **** Fit      -0.021592
 **** Fit       0.000573
 **** Fit      -0.000201
 **** Fit      -0.000788
 **** Fit      -0.023236
 **** Fit       0.000432
 **** Fit      -0.000532
 **** Fit      -0.001227
 **** Fit      -0.001024
 **** Fit      -0.001986
 **** Fit      -0.002807
 **** Fit      -0.003885
 **** Fit      -0.005559
 **** Fit      -0.006747
 **** Fit      -0.009823
 **** Fit      -0.011078
 **** Fit      -0.003074
 **** Fit      -0.004490
 **** Fit      -0.001993
 **** Fit      -0.003210
 **** Fit      -0.004519
 **** Fit      -0.006281
 **** Fit      -0.008551
 **** Fit      -0.001500
 **** Fit      -0.002245
 **** Fit      -0.003412
 **** Fit      -0.004633
 **** Fit      -0.006328
 **** Fit      -0.008630
 **** Fit      -0.011662
 **** Fit      -0.001365
 **** Fit      -0.001897
 **** Fit      -0.002540
 **** Fit      -0.003784
 **** Fit      -0.004890
 **** Fit      -0.006445
 **** Fit      -0.008595
 **** Fit      -0.011536
 **** Fit      -0.015504
 **** Fit      -0.001661
 **** Fit      -0.002050
 **** Fit      -0.002464
 **** Fit      -0.003009
 **** Fit      -0.004429
 **** Fit      -0.005487
 **** Fit      -0.007008
 **** Fit      -0.009155
 **** Fit      -0.012167
 **** Fit      -0.016401
 **** Fit      -0.022372
 **** Fit      -0.002343
 **** Fit      -0.002676
 **** Fit      -0.002940
 **** Fit      -0.003253
 **** Fit      -0.003718
 **** Fit      -0.005462
 **** Fit      -0.006452
 **** Fit      -0.007903
 **** Fit      -0.009966
 **** Fit      -0.012878
 **** Fit      -0.017030
 **** Fit      -0.023065
 **** Fit      -0.003657
 **** Fit      -0.003982
 **** Fit      -0.004134
 **** Fit      -0.004252
 **** Fit      -0.004450
 **** Fit      -0.004824
 **** Fit      -0.007012
 **** Fit      -0.007958
 **** Fit      -0.009380
 **** Fit      -0.011416
 **** Fit      -0.014291
 **** Fit      -0.018395
 **** Fit      -0.006214
 **** Fit      -0.006283
 **** Fit      -0.006206
 **** Fit      -0.006133
 **** Fit      -0.006181
 **** Fit      -0.006447
 **** Fit      -0.009234
 **** Fit      -0.010188
 **** Fit      -0.011697
 **** Fit      -0.013891
 **** Fit      -0.016990
 **** Fit      -0.021412
 **** Fit      -0.009996
 **** Fit      -0.009699
 **** Fit      -0.009252
 **** Fit      -0.008854
 **** Fit      -0.008649
 **** Fit      -0.008747
 **** Fit      -0.012315
 **** Fit      -0.013296
 **** Fit      -0.014973
 **** Fit      -0.017440
 **** Fit      -0.020875
 **** Fit      -0.025643
 **** Fit      -0.015047
 **** Fit      -0.013868
 **** Fit      -0.012844
 **** Fit      -0.012167
 **** Fit      -0.011962
 **** Fit      -0.016471
 **** Fit      -0.017435
 **** Fit      -0.019285
 **** Fit      -0.022017
 **** Fit      -0.025627
 **** Fit      -0.018660
 **** Fit      -0.017130
 **** Fit      -0.016380
 **** Fit      -0.021916
 **** Fit      -0.022838
 **** Fit      -0.025052
 **** Fit      -0.028288
 **** Fit      -0.022418
 **** Fit      -0.029323
 **** Fit      -0.001616
 **** Fit      -0.002141
 **** Fit      -0.002963
 **** Fit      -0.002368
 **** Fit      -0.001088
 **** Fit      -0.000598
 **** Fit      -0.001043
 **** Fit      -0.002689
 **** Fit      -0.003930
 **** Fit      -0.004740
 **** Fit      -0.004604
 **** Fit      -0.003407
 **** Fit      -0.001765
 **** Fit      -0.000522
 **** Fit       0.000058
 **** Fit       0.000173
 **** Fit      -0.000024
 **** Fit      -0.000560
 **** Fit      -0.001478
 **** Fit      -0.003277
 **** Fit      -0.004711
 **** Fit      -0.006079
 **** Fit      -0.007075
 **** Fit      -0.007324
 **** Fit      -0.006566
 **** Fit      -0.004885
 **** Fit      -0.002787
 **** Fit      -0.000993
 **** Fit       0.000109
 **** Fit       0.000616
 **** Fit       0.000772
 **** Fit       0.000770
 **** Fit       0.000673
 **** Fit      -0.001968
 **** Fit      -0.003910
 **** Fit      -0.005575
 **** Fit      -0.007340
 **** Fit      -0.009024
 **** Fit      -0.010327
 **** Fit      -0.010873
 **** Fit      -0.010348
 **** Fit      -0.008675
 **** Fit      -0.006105
 **** Fit      -0.003251
 **** Fit      -0.000949
 **** Fit       0.000404
 **** Fit       0.001039
 **** Fit       0.001265
 **** Fit       0.001285
 **** Fit       0.001261
 **** Fit      -0.008726
 **** Fit      -0.011044
 **** Fit      -0.013268
 **** Fit      -0.015026
 **** Fit      -0.015852
 **** Fit      -0.015359
 **** Fit      -0.013425
 **** Fit      -0.010227
 **** Fit       0.001089
 **** Fit       0.001568
 **** Fit       0.001753
 **** Fit       0.001727
 **** Fit      -0.013052
 **** Fit      -0.016186
 **** Fit      -0.019238
 **** Fit      -0.021721
 **** Fit      -0.023024
 **** Fit      -0.020449
 **** Fit      -0.016643
 **** Fit       0.001712
 **** Fit      -0.020130
 **** Fit       0.002384
 **** Fit       0.002425
 **** Fit       0.002238
 **** Fit       0.002516
 **** Fit       0.002758
 **** Fit       0.002878
 **** Fit       0.002782
 **** Fit       0.002459
 **** Fit       0.002426
 **** Fit       0.002633
 **** Fit       0.002921
 **** Fit       0.003174
 **** Fit       0.003261
 **** Fit       0.003111
 **** Fit       0.002734
 **** Fit       0.002208
 **** Fit       0.002381
 **** Fit       0.002696
 **** Fit       0.003119
 **** Fit       0.003462
 **** Fit       0.003588
 **** Fit       0.003436
 **** Fit       0.003020
 **** Fit       0.002416
 **** Fit       0.002010
 **** Fit       0.002613
 **** Fit       0.003231
 **** Fit       0.003683
 **** Fit       0.003852
 **** Fit       0.003694
 **** Fit       0.003230
 **** Fit       0.002540
 **** Fit       0.001737
 **** Fit       0.000801
 **** Fit       0.001762
 **** Fit       0.002747
 **** Fit       0.003538
 **** Fit       0.003984
 **** Fit       0.004006
 **** Fit       0.003607
 **** Fit       0.002861
 **** Fit       0.001893
 **** Fit       0.000854
 **** Fit       0.000281
 **** Fit       0.001770
 **** Fit       0.003032
 **** Fit       0.003875
 **** Fit       0.004179
 **** Fit       0.003920
 **** Fit       0.003164
 **** Fit       0.002047
 **** Fit       0.000742
 **** Fit      -0.000564
 **** Fit      -0.000664
 **** Fit       0.001413
 **** Fit       0.003049
 **** Fit       0.004015
 **** Fit       0.004201
 **** Fit       0.003630
 **** Fit       0.002442
 **** Fit       0.000849
 **** Fit      -0.000909
 **** Fit      -0.002593
 **** Fit      -0.000840
 **** Fit       0.001890
 **** Fit       0.003628
 **** Fit       0.004155
 **** Fit       0.003485
 **** Fit       0.001843
 **** Fit      -0.000419
 **** Fit      -0.002915
 **** Fit      -0.005284
 **** Fit       0.001898
 **** Fit       0.003709
 **** Fit       0.003441
 **** Fit       0.001386
 **** Fit      -0.001839
 **** Fit      -0.005536
 **** Fit       0.028547
 **** Fit       0.022386
 **** Fit       0.014446
 **** Fit       0.004910
 **** Fit      -0.006237
 **** Fit       0.036019
 **** Fit       0.032999
 **** Fit       0.026504
 **** Fit       0.019678
 **** Fit       0.010650
 **** Fit      -0.000824
 **** Fit       0.033918
 **** Fit       0.031233
 **** Fit       0.023033
 **** Fit       0.015316
 **** Fit       0.004562
 **** Fit       0.027998
 **** Fit       0.018465
 **** Fit       0.008956
 **** Fit       0.024023
 **** Fit       0.013226
 **** Fit       0.001030
 **** Fit       0.007842
 **** Fit       0.034447
 **** Fit       0.031528
 **** Fit       0.038662
 **** Fit       0.034873
 **** Fit       0.030986
 **** Fit       0.026976
 **** Fit       0.022288
 **** Fit       0.046998
 **** Fit       0.044791
 **** Fit       0.042042
 **** Fit       0.036062
 **** Fit       0.032218
 **** Fit       0.028059
 **** Fit       0.023481
 **** Fit       0.018142
 **** Fit       0.011838
 **** Fit       0.005226
 **** Fit       0.046821
 **** Fit       0.044807
 **** Fit       0.042377
 **** Fit       0.039476
 **** Fit       0.034303
 **** Fit       0.030318
 **** Fit       0.025981
 **** Fit       0.021298
 **** Fit       0.016423
 **** Fit       0.012194
 **** Fit       0.047309
 **** Fit       0.045654
 **** Fit       0.043536
 **** Fit       0.040942
 **** Fit       0.037865
 **** Fit       0.033568
 **** Fit       0.029383
 **** Fit       0.025110
 **** Fit       0.021310
 **** Fit       0.043496
 **** Fit       0.040720
 **** Fit       0.037396
 **** Fit       0.033935
 **** Fit       0.038052
 **** Fit       0.046979
 **** Fit       0.047441
 **** Fit       0.047713
 **** Fit      -0.001929
 **** Fit       0.047598
 **** Fit       0.046901
 **** Fit       0.047569
 **** Fit       0.049207
 **** Fit       0.005109
 **** Fit      -0.000744
 **** Fit      -0.002390
 **** Fit       0.000903
 **** Fit       0.007502
 **** Fit       0.015257
 **** Fit       0.046181
 **** Fit       0.045805
 **** Fit       0.046170
 **** Fit       0.047145
 **** Fit       0.048255
 **** Fit       0.018764
 **** Fit       0.013099
 **** Fit       0.008828
 **** Fit       0.007779
 **** Fit       0.010531
 **** Fit       0.015975
 **** Fit       0.022536
 **** Fit       0.029169
 **** Fit       0.039886
 **** Fit       0.042577
 **** Fit       0.043633
 **** Fit       0.044010
 **** Fit       0.044425
 **** Fit       0.045020
 **** Fit       0.045492
 **** Fit       0.045327
 **** Fit       0.044076
 **** Fit       0.033504
 **** Fit       0.028955
 **** Fit       0.024065
 **** Fit       0.019456
 **** Fit       0.016483
 **** Fit       0.016582
 **** Fit       0.019871
 **** Fit       0.025093
 **** Fit       0.030756
 **** Fit       0.035695
 **** Fit       0.039135
 **** Fit       0.041039
 **** Fit       0.042017
 **** Fit       0.042594
 **** Fit       0.042770
 **** Fit       0.042163
 **** Fit       0.040400
 **** Fit       0.037427
 **** Fit       0.033165
 **** Fit       0.028611
 **** Fit       0.024566
 **** Fit       0.022963
 **** Fit       0.025006
 **** Fit       0.029560
 **** Fit       0.034341
 **** Fit       0.037734
 **** Fit       0.039498
 **** Fit       0.040036
 **** Fit       0.039298
 **** Fit       0.036964
 **** Fit       0.033009
 **** Fit       0.029126
 **** Fit       0.029378
 **** Fit       0.033521
 **** Fit       0.036544
 **** Fit       0.036350
 **** Fit       0.033106
 **** Fit       0.026469
 **** Fit       0.028485
 **** Fit       0.029054
 **** Fit       0.030790
 **** Fit       0.032924
 **** Fit       0.035798
 **** Fit       0.030357
 **** Fit       0.031930
 **** Fit       0.033704
 **** Fit       0.035739
 **** Fit       0.038215
 **** Fit       0.041275
 **** Fit       0.033781
 **** Fit       0.034203
 **** Fit       0.035351
 **** Fit       0.036943
 **** Fit       0.038899
 **** Fit       0.041263
 **** Fit       0.044073
 **** Fit       0.041982
 **** Fit       0.039148
 **** Fit       0.038151
 **** Fit       0.038371
 **** Fit       0.039375
 **** Fit       0.040920
 **** Fit       0.042904
 **** Fit       0.045270
 **** Fit       0.047903
 **** Fit       0.045631
 **** Fit       0.042867
 **** Fit       0.041780
 **** Fit       0.041849
 **** Fit       0.042702
 **** Fit       0.044105
 **** Fit       0.045897
 **** Fit       0.047913
 **** Fit       0.049910
 **** Fit       0.047460
 **** Fit       0.045232
 **** Fit       0.044511
 **** Fit       0.044819
 **** Fit       0.045798
 **** Fit       0.047167
 **** Fit       0.048634
 **** Fit       0.049838
 **** Fit       0.048547
 **** Fit       0.046903
 **** Fit       0.046529
 **** Fit       0.046944
 **** Fit       0.047722
 **** Fit       0.048426
 **** Fit       0.048575
 **** Fit       0.047667
 **** Fit       0.049724
 **** Fit       0.048111
 **** Fit       0.047654
 **** Fit       0.047680
 **** Fit       0.047514
 **** Fit       0.048701
 **** Fit       0.047678
 -----------------------------------------------------------------
 Leave Link  602 at Mon Sep 16 12:13:34 2019, MaxMem=  4294967296 cpu:       157.0

 Test job not archived.
 1\1\GINC-N006\SP\RB3LYP\SVP\C54H83Ca1N15O23\PCIEPLAK\16-Sep-2019\0\\#m
 axdisk=50GB #B3LYP/SVP Density=Current scf=(tight) #IOP(5/87=12)Pop=(M
 K,readradii) iop(6/33=2) iop(6/42=6)\\SOL molecule\\0,1\C,0,82.15,56.2
 8,15.97\C,0,82.12,54.97,15.2\O,0,83.02,54.72,14.39\H,0,82.278,57.108,1
 5.273\H,0,81.213,56.404,16.513\H,0,82.981,56.269,16.675\N,0,81.13,54.1
 4,15.54\C,0,81.07,52.85,14.88\C,0,80.54,53.1,13.47\O,0,79.34,53.09,13.
 23\C,0,80.33,51.9,15.81\C,0,80.08,50.55,15.17\O,0,79.19,49.82,15.67\O,
 0,80.86,50.17,14.27\H,0,80.64,54.3,16.41\H,0,82.04,52.43,14.62\H,0,79.
 39,52.35,16.12\H,0,80.87,51.69,16.74\N,0,81.43,53.18,12.48\C,0,81.19,5
 3.77,11.17\C,0,80.28,52.94,10.28\O,0,79.54,53.42,9.43\C,0,82.51,54.1,1
 0.49\C,0,82.49,55.45,9.79\C,0,83.8,56.15,9.44\C,0,84.52,55.53,8.24\N,0
 ,85.82,56.18,8.02\H,0,82.4,53.05,12.69\H,0,80.6,54.67,11.35\H,0,82.79,
 53.32,9.77\H,0,83.31,54.12,11.23\H,0,81.92,56.13,10.43\H,0,81.8,55.34,
 8.95\H,0,84.56,56.15,10.22\H,0,83.51,57.19,9.27\H,0,83.85,55.56,7.38\H
 ,0,84.6,54.46,8.44\H,0,86.51,55.76,8.63\H,0,86.19,56.02,7.1\H,0,85.8,5
 7.19,8.13\N,0,80.29,51.63,10.55\C,0,79.6,50.58,9.84\C,0,78.42,49.94,10
 .56\O,0,77.58,49.3,9.95\C,0,80.53,49.52,9.25\C,0,81.35,48.76,10.28\O,0
 ,81.98,47.76,9.88\O,0,81.37,49.15,11.47\H,0,80.95,51.38,11.28\H,0,79.1
 8,50.89,8.88\H,0,81.16,49.98,8.48\H,0,79.93,48.79,8.71\N,0,78.3,50.3,1
 1.84\C,0,77.27,50.1,12.83\C,0,77.32,48.7,13.44\O,0,76.42,48.33,14.2\H,
 0,79.16,50.61,12.28\H,0,76.26,50.14,12.41\H,0,77.2,50.94,13.52\N,0,78.
 34,47.88,13.19\C,0,78.45,46.47,13.54\C,0,78.49,46.19,15.03\O,0,78.41,4
 5.04,15.44\C,0,79.7,45.89,12.87\C,0,80.92,45.77,13.77\N,0,81.34,44.53,
 14.04\O,0,81.55,46.75,14.17\H,0,79.1,48.32,12.71\H,0,77.58,45.98,13.12
 \H,0,80.,46.55,12.06\H,0,79.42,44.95,12.4\H,0,80.94,43.71,13.63\H,0,82
 .26,44.34,14.42\N,0,78.64,47.22,15.88\C,0,78.55,47.09,17.32\C,0,79.88,
 47.11,18.06\O,0,79.9,47.12,19.29\H,0,78.81,48.14,15.51\H,0,77.97,46.19
 ,17.54\H,0,77.99,47.93,17.73\N,0,80.96,47.27,17.29\C,0,82.3,47.54,17.7
 8\C,0,82.89,48.73,17.04\O,0,82.99,48.84,15.82\C,0,83.09,46.26,17.54\C,
 0,82.62,45.06,18.34\C,0,83.09,44.89,19.65\C,0,81.66,44.19,17.82\C,0,82
 .67,43.79,20.41\C,0,81.17,43.13,18.59\C,0,81.66,42.95,19.9\O,0,81.01,4
 2.12,20.77\H,0,80.87,47.19,16.29\H,0,82.36,47.73,18.85\H,0,84.11,46.45
 ,17.85\H,0,83.16,45.94,16.5\H,0,83.75,45.63,20.08\H,0,81.26,44.36,16.8
 3\H,0,82.87,43.69,21.46\H,0,80.48,42.39,18.22\H,0,80.29,41.61,20.38\N,
 0,83.42,49.68,17.81\C,0,84.36,50.69,17.37\C,0,85.71,50.01,17.25\O,0,86
 .24,49.45,18.21\C,0,84.33,51.86,18.35\C,0,82.94,52.48,18.43\C,0,85.34,
 52.94,17.96\C,0,82.7,53.51,19.54\H,0,83.36,49.64,18.82\H,0,83.99,51.26
 ,16.52\H,0,84.57,51.49,19.34\H,0,82.29,51.63,18.64\H,0,82.71,52.9,17.4
 5\H,0,85.22,53.3,16.94\H,0,85.31,53.84,18.58\H,0,86.33,52.53,18.11\H,0
 ,82.91,53.05,20.51\H,0,83.34,54.38,19.44\H,0,81.67,53.83,19.36\N,0,86.
 32,50.28,16.09\C,0,87.74,50.1,15.9\C,0,88.64,51.27,16.27\O,0,88.14,52.
 36,16.52\C,0,87.98,49.56,14.49\O,0,88.13,50.53,13.48\H,0,85.8,50.76,15
 .37\H,0,88.14,49.36,16.6\H,0,87.16,48.94,14.15\H,0,88.85,48.9,14.48\H,
 0,88.47,50.12,12.68\N,0,89.96,51.06,16.27\C,0,90.92,52.13,16.39\C,0,90
 .84,53.06,15.19\O,0,90.8,54.26,15.45\C,0,92.23,51.39,16.62\H,0,90.36,5
 0.16,16.04\H,0,90.77,52.65,17.34\H,0,92.23,50.87,17.58\H,0,92.36,50.6,
 15.87\H,0,93.05,52.12,16.63\N,0,90.83,52.61,13.93\C,0,90.77,53.54,12.8
 2\C,0,89.54,54.43,12.71\O,0,89.71,55.55,12.23\C,0,90.9,52.92,11.44\H,0
 ,90.97,51.64,13.69\H,0,91.62,54.22,12.88\H,0,90.82,53.66,10.65\H,0,91.
 8,52.3,11.44\H,0,89.99,52.34,11.3\N,0,88.46,53.93,13.32\C,0,87.18,54.6
 1,13.4\C,0,87.15,55.69,14.48\O,0,86.54,56.74,14.29\C,0,86.13,53.54,13.
 68\C,0,85.86,52.65,12.48\C,0,84.85,51.53,12.72\O,0,83.76,51.42,12.11\O
 ,0,85.04,50.8,13.72\H,0,88.54,53.02,13.75\H,0,86.86,55.07,12.46\H,0,85
 .25,54.08,14.03\H,0,86.5,52.89,14.47\H,0,86.77,52.17,12.13\H,0,85.5,53
 .31,11.69\N,0,87.76,55.4,15.63\C,0,87.98,56.37,16.69\H,0,88.762,57.066
 ,16.388\H,0,87.058,56.92,16.877\H,0,88.286,55.852,17.599\H,0,88.07,54.
 46,15.81\Ca,0,83.08,49.15,13.25\O,0,84.38,46.96,13.82\H,0,84.2,46.11,1
 3.43\H,0,85.03,46.78,14.5\\Version=ES64L-G09RevD.01\State=1-A\HF=-5333
 .5723319\RMSD=3.761e-09\Dipole=13.9094252,4.6919498,-6.4405811\Quadrup
 ole=-67.0894077,31.6011703,35.4882374,-32.2354622,-68.8201024,-69.3577
 093\PG=C01 [X(C54H83Ca1N15O23)]\\@


 BOOKS ARE LIGHTHOUSES ERECTED IN THE GREAT SEA OF TIME.
     -- E.P.WHIPPLE
 Job cpu time:       0 days 16 hours 18 minutes 15.2 seconds.
 File lengths (MBytes):  RWF=   1513 Int=      0 D2E=      0 Chk=    103 Scr=      1
 Normal termination of Gaussian 09 at Mon Sep 16 12:13:34 2019.
