 Entering Gaussian System, Link 0=g16
 Initial command:
 /home1/apps/gaussian/16rA.03/g16/l1.exe "/scratch/01990/pengzhi/4329065/Gau-173426.inp" -scrdir="/scratch/01990/pengzhi/4329065/"
 Entering Link 1 = /home1/apps/gaussian/16rA.03/g16/l1.exe PID=    173427.
  
 Copyright (c) 1988,1990,1992,1993,1995,1998,2003,2009,2016,
            Gaussian, Inc.  All Rights Reserved.
  
 This is part of the Gaussian(R) 16 program.  It is based on
 the Gaussian(R) 09 system (copyright 2009, Gaussian, Inc.),
 the Gaussian(R) 03 system (copyright 2003, Gaussian, Inc.),
 the Gaussian(R) 98 system (copyright 1998, Gaussian, Inc.),
 the Gaussian(R) 94 system (copyright 1995, Gaussian, Inc.),
 the Gaussian 92(TM) system (copyright 1992, Gaussian, Inc.),
 the Gaussian 90(TM) system (copyright 1990, Gaussian, Inc.),
 the Gaussian 88(TM) system (copyright 1988, Gaussian, Inc.),
 the Gaussian 86(TM) system (copyright 1986, Carnegie Mellon
 University), and the Gaussian 82(TM) system (copyright 1983,
 Carnegie Mellon University). Gaussian is a federally registered
 trademark of Gaussian, Inc.
  
 This software contains proprietary and confidential information,
 including trade secrets, belonging to Gaussian, Inc.
  
 This software is provided under written license and may be
 used, copied, transmitted, or stored only in accord with that
 written license.
  
 The following legend is applicable only to US Government
 contracts under FAR:
  
                    RESTRICTED RIGHTS LEGEND
  
 Use, reproduction and disclosure by the US Government is
 subject to restrictions as set forth in subparagraphs (a)
 and (c) of the Commercial Computer Software - Restricted
 Rights clause in FAR 52.227-19.
  
 Gaussian, Inc.
 340 Quinnipiac St., Bldg. 40, Wallingford CT 06492
  
  
 ---------------------------------------------------------------
 Warning -- This program may not be used in any manner that
 competes with the business of Gaussian, Inc. or will provide
 assistance to any competitor of Gaussian, Inc.  The licensee
 of this program is prohibited from giving any competitor of
 Gaussian, Inc. access to this program.  By using this program,
 the user acknowledges that Gaussian, Inc. is engaged in the
 business of creating and licensing software in the field of
 computational chemistry and represents and warrants to the
 licensee that it is not a competitor of Gaussian, Inc. and that
 it will not use this program in any manner prohibited above.
 ---------------------------------------------------------------
  

 Cite this work as:
 Gaussian 16, Revision A.03,
 M. J. Frisch, G. W. Trucks, H. B. Schlegel, G. E. Scuseria, 
 M. A. Robb, J. R. Cheeseman, G. Scalmani, V. Barone, 
 G. A. Petersson, H. Nakatsuji, X. Li, M. Caricato, A. V. Marenich, 
 J. Bloino, B. G. Janesko, R. Gomperts, B. Mennucci, H. P. Hratchian, 
 J. V. Ortiz, A. F. Izmaylov, J. L. Sonnenberg, D. Williams-Young, 
 F. Ding, F. Lipparini, F. Egidi, J. Goings, B. Peng, A. Petrone, 
 T. Henderson, D. Ranasinghe, V. G. Zakrzewski, J. Gao, N. Rega, 
 G. Zheng, W. Liang, M. Hada, M. Ehara, K. Toyota, R. Fukuda, 
 J. Hasegawa, M. Ishida, T. Nakajima, Y. Honda, O. Kitao, H. Nakai, 
 T. Vreven, K. Throssell, J. A. Montgomery, Jr., J. E. Peralta, 
 F. Ogliaro, M. J. Bearpark, J. J. Heyd, E. N. Brothers, K. N. Kudin, 
 V. N. Staroverov, T. A. Keith, R. Kobayashi, J. Normand, 
 K. Raghavachari, A. P. Rendell, J. C. Burant, S. S. Iyengar, 
 J. Tomasi, M. Cossi, J. M. Millam, M. Klene, C. Adamo, R. Cammi, 
 J. W. Ochterski, R. L. Martin, K. Morokuma, O. Farkas, 
 J. B. Foresman, and D. J. Fox, Gaussian, Inc., Wallingford CT, 2016.
 
 ******************************************
 Gaussian 16:  ES64L-G16RevA.03 25-Dec-2016
                15-Sep-2019 
 ******************************************
 %chk=CaMKII_loop3_79.0.chk
 %nprocshared=48
 Will use up to   48 processors via shared memory.
 %mem=10GB
 %nosave
 ----------------------------------------------------------------------
 #b3lyp/svp scf=(tight,noincore) Test #IOP(5/87=12) Density=Current Pop
 =(MK,readradii) iop(6/33=2) iop(6/42=6)
 ----------------------------------------------------------------------
 1/30=1,38=1,172=1/1;
 2/12=2,17=6,18=5,40=1/2;
 3/5=18,7=101,11=2,25=1,30=1,74=-5/1,2,3;
 4//1;
 5/5=4,32=2,38=5,87=12/2;
 6/7=2,8=2,9=2,10=2,15=8,20=101,22=-1,28=1,33=2,42=6/1,2;
 99/5=1,9=1/99;
 -----------------
 CaMKII_loop3_79.0
 -----------------
 Symbolic Z-matrix:
 Charge =  0 Multiplicity = 1
 C                     71.23     44.12     20.93 
 C                     69.9      43.4      21.12 
 O                     69.88     42.19     20.94 
 H                     71.99     43.403    20.619 
 H                     71.122    44.888    20.164 
 H                     71.531    44.583    21.87 
 N                     68.88     44.16     21.53 
 C                     67.63     43.65     22.06 
 C                     66.68     43.33     20.92 
 O                     65.74     44.09     20.68 
 C                     67.04     44.68     23.02 
 C                     65.74     44.19     23.64 
 O                     65.62     42.97     23.88 
 O                     64.83     45.       23.94 
 H                     69.04     45.16     21.61 
 H                     67.82     42.77     22.66 
 H                     66.86     45.65     22.57 
 H                     67.81     44.8      23.79 
 N                     66.87     42.3      20.09 
 C                     66.21     42.       18.84 
 C                     64.75     41.61     19.05 
 O                     63.95     41.86     18.15 
 C                     66.97     40.87     18.16 
 C                     66.51     40.85     16.7 
 C                     67.16     39.78     15.82 
 C                     66.91     40.18     14.37 
 N                     67.56     39.3      13.39 
 H                     67.42     41.61     20.59 
 H                     66.24     42.87     18.19 
 H                     66.73     39.94     18.68 
 H                     68.05     41.03     18.16 
 H                     66.8      41.79     16.23 
 H                     65.43     40.75     16.67 
 H                     66.71     38.83     16.13 
 H                     68.23     39.83     15.98 
 H                     67.26     41.21     14.26 
 H                     65.83     40.16     14.2 
 H                     67.13     38.39     13.42 
 H                     67.45     39.64     12.44 
 H                     68.55     39.34     13.58 
 N                     64.48     40.96     20.18 
 C                     63.16     40.65     20.7 
 C                     62.28     41.78     21.22 
 O                     61.08     41.72     21.47 
 C                     63.2      39.59     21.79 
 C                     64.05     40.       22.98 
 O                     65.2      40.43     22.73 
 O                     63.64     39.92     24.16 
 H                     65.22     40.92     20.86 
 H                     62.67     40.24     19.81 
 H                     63.52     38.61     21.45 
 H                     62.16     39.49     22.1 
 N                     62.9      42.96     21.36 
 C                     62.34     44.19     21.87 
 C                     61.93     44.23     23.34 
 O                     61.25     45.21     23.63 
 H                     63.88     42.93     21.1 
 H                     61.49     44.58     21.32 
 H                     63.05     45.       21.68 
 N                     62.26     43.27     24.21 
 C                     61.65     43.27     25.52 
 C                     62.03     44.37     26.5 
 O                     61.43     44.41     27.57 
 C                     61.81     41.86     26.09 
 C                     63.09     41.62     26.88 
 N                     63.04     40.86     27.97 
 O                     64.2      42.05     26.56 
 H                     62.98     42.61     23.94 
 H                     60.59     43.44     25.35 
 H                     61.62     41.11     25.32 
 H                     61.02     41.8      26.84 
 H                     62.22     40.36     28.3 
 H                     63.89     40.87     28.52 
 N                     63.02     45.22     26.2 
 C                     63.62     46.2      27.07 
 C                     64.82     45.85     27.94 
 O                     65.18     46.71     28.74 
 H                     63.48     45.15     25.3 
 H                     62.8      46.52     27.72 
 H                     63.81     47.15     26.57 
 N                     65.39     44.66     27.73 
 C                     66.62     44.26     28.4 
 C                     67.62     43.51     27.54 
 O                     67.32     42.75     26.62 
 C                     66.34     43.41     29.64 
 C                     65.44     43.98     30.71 
 C                     65.95     44.56     31.87 
 C                     64.05     43.84     30.53 
 C                     65.01     44.96     32.82 
 C                     63.11     44.36     31.43 
 C                     63.61     44.88     32.64 
 O                     62.72     45.46     33.5 
 H                     64.93     44.06     27.07 
 H                     67.18     45.07     28.87 
 H                     67.33     43.3      30.07 
 H                     66.07     42.4      29.34 
 H                     67.02     44.65     31.99 
 H                     63.7      43.3      29.66 
 H                     65.44     45.47     33.67 
 H                     62.06     44.18     31.28 
 H                     61.86     45.33     33.09 
 N                     68.88     43.63     27.95 
 C                     70.       42.81     27.53 
 C                     70.02     41.67     28.54 
 O                     69.99     41.85     29.75 
 C                     71.36     43.48     27.35 
 C                     71.17     44.88     26.76 
 C                     72.29     42.7      26.42 
 C                     72.37     45.72     26.36 
 H                     69.18     44.37     28.56 
 H                     69.71     42.43     26.55 
 H                     71.82     43.49     28.34 
 H                     70.5      45.5      27.35 
 H                     70.66     44.74     25.8 
 H                     72.39     41.63     26.62 
 H                     71.94     42.81     25.39 
 H                     73.27     43.16     26.47 
 H                     73.12     45.64     27.15 
 H                     72.78     45.35     25.42 
 H                     72.23     46.77     26.13 
 N                     70.07     40.43     28.03 
 C                     70.5      39.2      28.67 
 C                     71.82     38.72     28.1 
 O                     72.14     39.19     27.01 
 C                     69.41     38.13     28.68 
 O                     69.2      37.77     27.34 
 H                     70.08     40.36     27.03 
 H                     70.71     39.43     29.72 
 H                     68.46     38.56     29. 
 H                     69.68     37.33     29.37 
 H                     68.86     38.53     26.87 
 N                     72.64     37.89     28.75 
 C                     74.01     37.65     28.34 
 C                     74.21     37.15     26.91 
 O                     75.09     37.67     26.23 
 C                     74.69     36.74     29.35 
 H                     72.37     37.53     29.65 
 H                     74.56     38.59     28.4 
 H                     74.45     35.7      29.12 
 H                     75.76     36.93     29.29 
 H                     74.31     36.96     30.35 
 N                     73.34     36.26     26.43 
 C                     73.45     35.72     25.09 
 C                     73.38     36.79     24.01 
 O                     73.76     36.6      22.85 
 C                     72.37     34.65     24.94 
 H                     72.5      36.       26.93 
 H                     74.4      35.2      25.01 
 H                     71.46     35.2      24.69 
 H                     72.7      33.96     24.16 
 H                     72.38     34.03     25.84 
 N                     72.8      37.96     24.28 
 C                     72.44     38.94     23.27 
 C                     73.7      39.78     23.08 
 O                     74.1      40.09     21.96 
 C                     71.3      39.84     23.72 
 C                     69.96     39.12     23.84 
 C                     68.85     39.98     24.43 
 O                     68.66     39.9      25.67 
 O                     68.21     40.85     23.81 
 H                     72.56     38.17     25.24 
 H                     72.21     38.46     22.32 
 H                     71.15     40.6      22.95 
 H                     71.52     40.36     24.66 
 H                     70.07     38.21     24.43 
 H                     69.7      38.86     22.82 
 N                     74.47     40.13     24.11 
 C                     75.78     40.73     24.13 
 H                     76.48     40.092    23.591 
 H                     75.739    41.709    23.652 
 H                     76.113    40.843    25.162 
 H                     74.06     39.89     25.01 
 Ca                    66.14     40.91     25.2 
 O                     66.04     38.3      24.58 
 H                     66.24     37.55     24.01 
 H                     65.28     38.02     25.09 
 
 Stoichiometry    C54H83CaN15O23
 Framework group  C1[X(C54H83CaN15O23)]
 Deg. of freedom   522
 Full point group                 C1      NOp   1
 Largest Abelian subgroup         C1      NOp   1
 Largest concise Abelian subgroup C1      NOp   1
                         Standard orientation:                         
 ---------------------------------------------------------------------
 Center     Atomic      Atomic             Coordinates (Angstroms)
 Number     Number       Type             X           Y           Z
 ---------------------------------------------------------------------
      1          6           0        2.094505    3.097413    4.528995
      2          6           0        1.247642    3.135992    3.262214
      3          8           0        1.794109    3.488599    2.225902
      4          1           0        3.105107    3.436542    4.300772
      5          1           0        1.654310    3.752112    5.281219
      6          1           0        2.131811    2.077060    4.911170
      7          7           0       -0.014721    2.717121    3.392930
      8          6           0       -0.893397    2.383203    2.288427
      9          6           0       -1.568800    3.639976    1.769915
     10          8           0       -2.750298    3.854222    2.047337
     11          6           0       -1.908645    1.344039    2.757478
     12          6           0       -2.842272    0.923182    1.632436
     13          8           0       -2.386203    0.872584    0.470610
     14          8           0       -4.028712    0.595395    1.875577
     15          1           0       -0.338214    2.480237    4.326332
     16          1           0       -0.326052    1.900567    1.503773
     17          1           0       -2.511201    1.665051    3.599902
     18          1           0       -1.294178    0.497112    3.082046
     19          7           0       -0.909840    4.587921    1.096809
     20          6           0       -1.335972    5.923481    0.746394
     21          6           0       -2.451398    5.907049   -0.294449
     22          8           0       -3.262105    6.831819   -0.287159
     23          6           0       -0.128066    6.685396    0.219755
     24          6           0       -0.503735    8.169321    0.240744
     25          6           0        0.581983    9.129856   -0.249552
     26          6           0        0.197291   10.524378    0.232442
     27          7           0        1.196393   11.556223   -0.074789
     28          1           0       -0.110253    4.143402    0.659014
     29          1           0       -1.703050    6.436536    1.630887
     30          1           0        0.082852    6.328400   -0.790674
     31          1           0        0.754269    6.562894    0.851005
     32          1           0       -0.675778    8.471006    1.274179
     33          1           0       -1.413447    8.312786   -0.332965
     34          1           0        0.619415    9.002015   -1.337374
     35          1           0        1.504035    8.866379    0.253837
     36          1           0        0.031090   10.452899    1.310760
     37          1           0       -0.747384   10.794332   -0.247574
     38          1           0        1.237291   11.696712   -1.071027
     39          1           0        0.955841   12.453748    0.333601
     40          1           0        2.051766   11.271994    0.378368
     41          7           0       -2.406356    4.911614   -1.177276
     42          6           0       -3.439673    4.565344   -2.137095
     43          6           0       -4.751401    3.972152   -1.637901
     44          8           0       -5.790269    3.845044   -2.278757
     45          6           0       -2.929214    3.639498   -3.230502
     46          6           0       -2.384910    2.329779   -2.687298
     47          8           0       -1.561999    2.408476   -1.745744
     48          8           0       -2.729104    1.216302   -3.144024
     49          1           0       -1.742839    4.179065   -0.990953
     50          1           0       -3.669740    5.546259   -2.567415
     51          1           0       -2.185855    4.085458   -3.883905
     52          1           0       -3.808733    3.444247   -3.843710
     53          7           0       -4.751905    3.607941   -0.348037
     54          6           0       -5.826447    2.980769    0.385866
     55          6           0       -6.230783    1.564336   -0.015172
     56          8           0       -7.292230    1.200836    0.482923
     57          1           0       -3.865982    3.778083    0.115744
     58          1           0       -6.751786    3.545206    0.433397
     59          1           0       -5.570484    2.986455    1.449234
     60          7           0       -5.506477    0.814205   -0.851881
     61          6           0       -6.066934   -0.420396   -1.351731
     62          6           0       -6.255825   -1.578731   -0.383547
     63          8           0       -6.822288   -2.583496   -0.803151
     64          6           0       -5.279791   -0.794756   -2.608258
     65          6           0       -4.046887   -1.656823   -2.369748
     66          7           0       -3.755335   -2.617362   -3.241850
     67          8           0       -3.258326   -1.505462   -1.434514
     68          1           0       -4.558382    1.108453   -1.055433
     69          1           0       -7.082049   -0.179514   -1.656553
     70          1           0       -5.088239    0.088977   -3.219670
     71          1           0       -5.963215   -1.452352   -3.147423
     72          1           0       -4.254714   -2.795283   -4.108028
     73          1           0       -3.015586   -3.239120   -2.939708
     74          7           0       -5.768728   -1.496201    0.860850
     75          6           0       -5.705391   -2.549232    1.842896
     76          6           0       -4.493538   -3.466990    1.935272
     77          8           0       -4.586018   -4.411721    2.715099
     78          1           0       -5.314963   -0.641743    1.161682
     79          1           0       -6.590157   -3.159980    1.639241
     80          1           0       -5.970183   -2.210199    2.844666
     81          7           0       -3.433317   -3.142085    1.189975
     82          6           0       -2.168615   -3.858369    1.286232
     83          6           0       -0.921677   -2.995668    1.231524
     84          8           0       -0.820604   -1.952554    0.586778
     85          6           0       -2.041329   -4.932612    0.205353
     86          6           0       -3.119413   -5.985667    0.112569
     87          6           0       -2.954666   -7.258838    0.654781
     88          6           0       -4.282828   -5.660082   -0.611696
     89          6           0       -3.987455   -8.165600    0.415552
     90          6           0       -5.370524   -6.534771   -0.737539
     91          6           0       -5.187565   -7.847691   -0.260813
     92          8           0       -6.258199   -8.696172   -0.304667
     93          1           0       -3.552198   -2.363345    0.568178
     94          1           0       -2.055672   -4.489201    2.169349
     95          1           0       -1.120055   -5.431836    0.486654
     96          1           0       -1.807237   -4.467371   -0.749504
     97          1           0       -2.050557   -7.488632    1.199925
     98          1           0       -4.328885   -4.693154   -1.095357
     99          1           0       -3.856313   -9.115898    0.912780
    100          1           0       -6.214699   -6.264362   -1.347168
    101          1           0       -6.953283   -8.194249   -0.740018
    102          7           0        0.132333   -3.533037    1.840126
    103          6           0        1.511260   -3.104934    1.704154
    104          6           0        2.042354   -3.938642    0.545289
    105          8           0        1.913636   -5.153975    0.483653
    106          6           0        2.407739   -3.148968    2.939179
    107          6           0        1.598973   -2.750702    4.176709
    108          6           0        3.607674   -2.206538    2.838276
    109          6           0        2.278250   -2.587563    5.524881
    110          1           0        0.045313   -4.267819    2.519996
    111          1           0        1.445803   -2.058074    1.406329
    112          1           0        2.795284   -4.168333    2.989208
    113          1           0        0.708795   -3.359148    4.313738
    114          1           0        1.226997   -1.737658    3.985196
    115          1           0        4.189620   -2.259499    1.914460
    116          1           0        3.262496   -1.175095    2.949985
    117          1           0        4.261476   -2.412079    3.677797
    118          1           0        2.967489   -3.423693    5.662120
    119          1           0        2.827537   -1.646090    5.547498
    120          1           0        1.670617   -2.498486    6.418105
    121          7           0        2.669822   -3.263016   -0.429397
    122          6           0        3.611514   -3.757040   -1.417606
    123          6           0        5.012142   -3.248293   -1.139904
    124          8           0        5.094286   -2.271089   -0.398470
    125          6           0        3.142386   -3.513065   -2.850608
    126          8           0        3.144049   -2.121712   -3.033458
    127          1           0        2.726555   -2.268532   -0.316338
    128          1           0        3.674633   -4.844005   -1.299185
    129          1           0        2.096520   -3.802417   -2.961249
    130          1           0        3.742084   -4.103226   -3.544201
    131          1           0        2.497522   -1.736148   -2.444015
    132          7           0        6.113519   -3.845448   -1.602694
    133          6           0        7.444615   -3.533363   -1.119593
    134          6           0        7.875764   -2.071065   -1.223012
    135          8           0        8.424396   -1.556662   -0.252656
    136          6           0        8.453566   -4.460882   -1.777108
    137          1           0        6.027549   -4.655804   -2.192977
    138          1           0        7.494697   -3.777898   -0.057804
    139          1           0        8.727071   -4.063084   -2.756420
    140          1           0        9.314049   -4.527639   -1.113999
    141          1           0        7.999523   -5.442748   -1.927384
    142          7           0        7.525521   -1.390334   -2.315411
    143          6           0        7.894129   -0.002690   -2.510020
    144          6           0        7.352305    0.914635   -1.423217
    145          8           0        7.794893    2.049863   -1.219563
    146          6           0        7.436321    0.398023   -3.911319
    147          1           0        6.894456   -1.768317   -3.009735
    148          1           0        8.978057    0.063069   -2.518783
    149          1           0        6.378984    0.649451   -3.802129
    150          1           0        8.060760    1.235068   -4.231991
    151          1           0        7.718985   -0.400890   -4.601493
    152          7           0        6.291582    0.534396   -0.710136
    153          6           0        5.533581    1.422380    0.154166
    154          6           0        6.262767    1.373058    1.494000
    155          8           0        6.490466    2.395375    2.137056
    156          6           0        4.099360    0.955095    0.345882
    157          6           0        3.244717    1.063573   -0.913570
    158          6           0        1.853471    0.461301   -0.766930
    159          8           0        1.703210   -0.731582   -1.133742
    160          8           0        0.892502    1.006568   -0.192367
    161          1           0        5.966794   -0.419530   -0.798668
    162          1           0        5.567203    2.448477   -0.208869
    163          1           0        3.625738    1.618754    1.072682
    164          1           0        4.038476   -0.065958    0.741032
    165          1           0        3.755279    0.602464   -1.759150
    166          1           0        3.150771    2.129885   -1.086056
    167          7           0        6.766517    0.236974    1.975507
    168          6           0        7.648109    0.010506    3.092649
    169          1           0        8.572425    0.568511    2.944880
    170          1           0        7.164923    0.345002    4.010935
    171          1           0        7.874732   -1.053297    3.167809
    172          1           0        6.500870   -0.577670    1.426429
    173         20           0       -0.990168   -0.180852   -1.317617
    174          8           0        0.141783    0.813319   -3.539511
    175          1           0        0.675684    1.464019   -4.007420
    176          1           0       -0.409300    0.420972   -4.216617
 ---------------------------------------------------------------------
 Rotational constants (GHZ):           0.0190222           0.0161720           0.0106263
 Standard basis: SVP (5D, 7F)
 There are  1809 symmetry adapted cartesian basis functions of A   symmetry.
 There are  1717 symmetry adapted basis functions of A   symmetry.
  1717 basis functions,  2922 primitive gaussians,  1809 cartesian basis functions
   358 alpha electrons      358 beta electrons
       nuclear repulsion energy     21282.0228393611 Hartrees.
 NAtoms=  176 NActive=  176 NUniq=  176 SFac= 1.00D+00 NAtFMM=   60 NAOKFM=T Big=T
 Integral buffers will be    131072 words long.
 Raffenetti 2 integral format.
 Two-electron integral symmetry is turned on.
 One-electron integrals computed using PRISM.
 NBasis=  1717 RedAO= T EigKep=  2.92D-04  NBF=  1717
 NBsUse=  1717 1.00D-06 EigRej= -1.00D+00 NBFU=  1717
 ExpMin= 1.98D-02 ExpMax= 3.51D+04 ExpMxC= 5.28D+03 IAcc=3 IRadAn=         5 AccDes= 0.00D+00
 Harris functional with IExCor=  402 and IRadAn=       5 diagonalized for initial guess.
 HarFok:  IExCor=  402 AccDes= 0.00D+00 IRadAn=         5 IDoV= 1 UseB2=F ITyADJ=14
 ICtDFT=  3500011 ScaDFX=  1.000000  1.000000  1.000000  1.000000
 FoFCou: FMM=F IPFlag=           0 FMFlag=      100000 FMFlg1=        2001
         NFxFlg=           0 DoJE=T BraDBF=F KetDBF=T FulRan=T
         wScrn=  0.000000 ICntrl=       500 IOpCl=  0 I1Cent=   200000004 NGrid=           0
         NMat0=    1 NMatS0=      1 NMatT0=    0 NMatD0=    1 NMtDS0=    0 NMtDT0=    0
 Petite list used in FoFCou.
 Requested convergence on RMS density matrix=1.00D-08 within 128 cycles.
 Requested convergence on MAX density matrix=1.00D-06.
 Requested convergence on             energy=1.00D-06.
 No special actions if energy rises.
 EnCoef did     4 forward-backward iterations
 SCF Done:  E(RB3LYP) =  -5333.58109333     A.U. after   18 cycles
            NFock= 18  Conv=0.30D-08     -V/T= 2.0081
 SCF density gives NOpUse=  1 NOpAll=  1.
 Hyperfine terms turned off by default for NAtoms > 100.

 **********************************************************************

            Population analysis using the SCF density.

 **********************************************************************

 Orbital symmetries:
 BldTbl:  Degeneracy threshold= 1.00D-02
       Occupied  (A) (A) (A) (A) (A) (A) (A) (A) (A) (A) (A) (A)
                 (A) (A) (A) (A) (A) (A) (A) (A) (A) (A) (A) (A)
                 (A) (A) (A) (A) (A) (A) (A) (A) (A) (A) (A) (A)
                 (A) (A) (A) (A) (A) (A) (A) (A) (A) (A) (A) (A)
                 (A) (A) (A) (A) (A) (A) (A) (A) (A) (A) (A) (A)
                 (A) (A) (A) (A) (A) (A) (A) (A) (A) (A) (A) (A)
                 (A) (A) (A) (A) (A) (A) (A) (A) (A) (A) (A) (A)
                 (A) (A) (A) (A) (A) (A) (A) (A) (A) (A) (A) (A)
                 (A) (A) (A) (A) (A) (A) (A) (A) (A) (A) (A) (A)
                 (A) (A) (A) (A) (A) (A) (A) (A) (A) (A) (A) (A)
                 (A) (A) (A) (A) (A) (A) (A) (A) (A) (A) (A) (A)
                 (A) (A) (A) (A) (A) (A) (A) (A) (A) (A) (A) (A)
                 (A) (A) (A) (A) (A) (A) (A) (A) (A) (A) (A) (A)
                 (A) (A) (A) (A) (A) (A) (A) (A) (A) (A) (A) (A)
                 (A) (A) (A) (A) (A) (A) (A) (A) (A) (A) (A) (A)
                 (A) (A) (A) (A) (A) (A) (A) (A) (A) (A) (A) (A)
                 (A) (A) (A) (A) (A) (A) (A) (A) (A) (A) (A) (A)
                 (A) (A) (A) (A) (A) (A) (A) (A) (A) (A) (A) (A)
                 (A) (A) (A) (A) (A) (A) (A) (A) (A) (A) (A) (A)
                 (A) (A) (A) (A) (A) (A) (A) (A) (A) (A) (A) (A)
                 (A) (A) (A) (A) (A) (A) (A) (A) (A) (A) (A) (A)
                 (A) (A) (A) (A) (A) (A) (A) (A) (A) (A) (A) (A)
                 (A) (A) (A) (A) (A) (A) (A) (A) (A) (A) (A) (A)
                 (A) (A) (A) (A) (A) (A) (A) (A) (A) (A) (A) (A)
                 (A) (A) (A) (A) (A) (A) (A) (A) (A) (A) (A) (A)
                 (A) (A) (A) (A) (A) (A) (A) (A) (A) (A) (A) (A)
                 (A) (A) (A) (A) (A) (A) (A) (A) (A) (A) (A) (A)
                 (A) (A) (A) (A) (A) (A) (A) (A) (A) (A) (A) (A)
                 (A) (A) (A) (A) (A) (A) (A) (A) (A) (A) (A) (A)
                 (A) (A) (A) (A) (A) (A) (A) (A) (A) (A)
       Virtual   (A) (A) (A) (A) (A) (A) (A) (A) (A) (A) (A) (A)
                 (A) (A) (A) (A) (A) (A) (A) (A) (A) (A) (A) (A)
                 (A) (A) (A) (A) (A) (A) (A) (A) (A) (A) (A) (A)
                 (A) (A) (A) (A) (A) (A) (A) (A) (A) (A) (A) (A)
                 (A) (A) (A) (A) (A) (A) (A) (A) (A) (A) (A) (A)
                 (A) (A) (A) (A) (A) (A) (A) (A) (A) (A) (A) (A)
                 (A) (A) (A) (A) (A) (A) (A) (A) (A) (A) (A) (A)
                 (A) (A) (A) (A) (A) (A) (A) (A) (A) (A) (A) (A)
                 (A) (A) (A) (A) (A) (A) (A) (A) (A) (A) (A) (A)
                 (A) (A) (A) (A) (A) (A) (A) (A) (A) (A) (A) (A)
                 (A) (A) (A) (A) (A) (A) (A) (A) (A) (A) (A) (A)
                 (A) (A) (A) (A) (A) (A) (A) (A) (A) (A) (A) (A)
                 (A) (A) (A) (A) (A) (A) (A) (A) (A) (A) (A) (A)
                 (A) (A) (A) (A) (A) (A) (A) (A) (A) (A) (A) (A)
                 (A) (A) (A) (A) (A) (A) (A) (A) (A) (A) (A) (A)
                 (A) (A) (A) (A) (A) (A) (A) (A) (A) (A) (A) (A)
                 (A) (A) (A) (A) (A) (A) (A) (A) (A) (A) (A) (A)
                 (A) (A) (A) (A) (A) (A) (A) (A) (A) (A) (A) (A)
                 (A) (A) (A) (A) (A) (A) (A) (A) (A) (A) (A) (A)
                 (A) (A) (A) (A) (A) (A) (A) (A) (A) (A) (A) (A)
                 (A) (A) (A) (A) (A) (A) (A) (A) (A) (A) (A) (A)
                 (A) (A) (A) (A) (A) (A) (A) (A) (A) (A) (A) (A)
                 (A) (A) (A) (A) (A) (A) (A) (A) (A) (A) (A) (A)
                 (A) (A) (A) (A) (A) (A) (A) (A) (A) (A) (A) (A)
                 (A) (A) (A) (A) (A) (A) (A) (A) (A) (A) (A) (A)
                 (A) (A) (A) (A) (A) (A) (A) (A) (A) (A) (A) (A)
                 (A) (A) (A) (A) (A) (A) (A) (A) (A) (A) (A) (A)
                 (A) (A) (A) (A) (A) (A) (A) (A) (A) (A) (A) (A)
                 (A) (A) (A) (A) (A) (A) (A) (A) (A) (A) (A) (A)
                 (A) (A) (A) (A) (A) (A) (A) (A) (A) (A) (A) (A)
                 (A) (A) (A) (A) (A) (A) (A) (A) (A) (A) (A) (A)
                 (A) (A) (A) (A) (A) (A) (A) (A) (A) (A) (A) (A)
                 (A) (A) (A) (A) (A) (A) (A) (A) (A) (A) (A) (A)
                 (A) (A) (A) (A) (A) (A) (A) (A) (A) (A) (A) (A)
                 (A) (A) (A) (A) (A) (A) (A) (A) (A) (A) (A) (A)
                 (A) (A) (A) (A) (A) (A) (A) (A) (A) (A) (A) (A)
                 (A) (A) (A) (A) (A) (A) (A) (A) (A) (A) (A) (A)
                 (A) (A) (A) (A) (A) (A) (A) (A) (A) (A) (A) (A)
                 (A) (A) (A) (A) (A) (A) (A) (A) (A) (A) (A) (A)
                 (A) (A) (A) (A) (A) (A) (A) (A) (A) (A) (A) (A)
                 (A) (A) (A) (A) (A) (A) (A) (A) (A) (A) (A) (A)
                 (A) (A) (A) (A) (A) (A) (A) (A) (A) (A) (A) (A)
                 (A) (A) (A) (A) (A) (A) (A) (A) (A) (A) (A) (A)
                 (A) (A) (A) (A) (A) (A) (A) (A) (A) (A) (A) (A)
                 (A) (A) (A) (A) (A) (A) (A) (A) (A) (A) (A) (A)
                 (A) (A) (A) (A) (A) (A) (A) (A) (A) (A) (A) (A)
                 (A) (A) (A) (A) (A) (A) (A) (A) (A) (A) (A) (A)
                 (A) (A) (A) (A) (A) (A) (A) (A) (A) (A) (A) (A)
                 (A) (A) (A) (A) (A) (A) (A) (A) (A) (A) (A) (A)
                 (A) (A) (A) (A) (A) (A) (A) (A) (A) (A) (A) (A)
                 (A) (A) (A) (A) (A) (A) (A) (A) (A) (A) (A) (A)
                 (A) (A) (A) (A) (A) (A) (A) (A) (A) (A) (A) (A)
                 (A) (A) (A) (A) (A) (A) (A) (A) (A) (A) (A) (A)
                 (A) (A) (A) (A) (A) (A) (A) (A) (A) (A) (A) (A)
                 (A) (A) (A) (A) (A) (A) (A) (A) (A) (A) (A) (A)
                 (A) (A) (A) (A) (A) (A) (A) (A) (A) (A) (A) (A)
                 (A) (A) (A) (A) (A) (A) (A) (A) (A) (A) (A) (A)
                 (A) (A) (A) (A) (A) (A) (A) (A) (A) (A) (A) (A)
                 (A) (A) (A) (A) (A) (A) (A) (A) (A) (A) (A) (A)
                 (A) (A) (A) (A) (A) (A) (A) (A) (A) (A) (A) (A)
                 (A) (A) (A) (A) (A) (A) (A) (A) (A) (A) (A) (A)
                 (A) (A) (A) (A) (A) (A) (A) (A) (A) (A) (A) (A)
                 (A) (A) (A) (A) (A) (A) (A) (A) (A) (A) (A) (A)
                 (A) (A) (A) (A) (A) (A) (A) (A) (A) (A) (A) (A)
                 (A) (A) (A) (A) (A) (A) (A) (A) (A) (A) (A) (A)
                 (A) (A) (A) (A) (A) (A) (A) (A) (A) (A) (A) (A)
                 (A) (A) (A) (A) (A) (A) (A) (A) (A) (A) (A) (A)
                 (A) (A) (A) (A) (A) (A) (A) (A) (A) (A) (A) (A)
                 (A) (A) (A) (A) (A) (A) (A) (A) (A) (A) (A) (A)
                 (A) (A) (A) (A) (A) (A) (A) (A) (A) (A) (A) (A)
                 (A) (A) (A) (A) (A) (A) (A) (A) (A) (A) (A) (A)
                 (A) (A) (A) (A) (A) (A) (A) (A) (A) (A) (A) (A)
                 (A) (A) (A) (A) (A) (A) (A) (A) (A) (A) (A) (A)
                 (A) (A) (A) (A) (A) (A) (A) (A) (A) (A) (A) (A)
                 (A) (A) (A) (A) (A) (A) (A) (A) (A) (A) (A) (A)
                 (A) (A) (A) (A) (A) (A) (A) (A) (A) (A) (A) (A)
                 (A) (A) (A) (A) (A) (A) (A) (A) (A) (A) (A) (A)
                 (A) (A) (A) (A) (A) (A) (A) (A) (A) (A) (A) (A)
                 (A) (A) (A) (A) (A) (A) (A) (A) (A) (A) (A) (A)
                 (A) (A) (A) (A) (A) (A) (A) (A) (A) (A) (A) (A)
                 (A) (A) (A) (A) (A) (A) (A) (A) (A) (A) (A) (A)
                 (A) (A) (A) (A) (A) (A) (A) (A) (A) (A) (A) (A)
                 (A) (A) (A) (A) (A) (A) (A) (A) (A) (A) (A) (A)
                 (A) (A) (A) (A) (A) (A) (A) (A) (A) (A) (A) (A)
                 (A) (A) (A) (A) (A) (A) (A) (A) (A) (A) (A) (A)
                 (A) (A) (A) (A) (A) (A) (A) (A) (A) (A) (A) (A)
                 (A) (A) (A) (A) (A) (A) (A) (A) (A) (A) (A) (A)
                 (A) (A) (A) (A) (A) (A) (A) (A) (A) (A) (A) (A)
                 (A) (A) (A) (A) (A) (A) (A) (A) (A) (A) (A) (A)
                 (A) (A) (A) (A) (A) (A) (A) (A) (A) (A) (A) (A)
                 (A) (A) (A) (A) (A) (A) (A) (A) (A) (A) (A) (A)
                 (A) (A) (A) (A) (A) (A) (A) (A) (A) (A) (A) (A)
                 (A) (A) (A) (A) (A) (A) (A) (A) (A) (A) (A) (A)
                 (A) (A) (A) (A) (A) (A) (A) (A) (A) (A) (A) (A)
                 (A) (A) (A) (A) (A) (A) (A) (A) (A) (A) (A) (A)
                 (A) (A) (A) (A) (A) (A) (A) (A) (A) (A) (A) (A)
                 (A) (A) (A) (A) (A) (A) (A) (A) (A) (A) (A) (A)
                 (A) (A) (A) (A) (A) (A) (A) (A) (A) (A) (A) (A)
                 (A) (A) (A) (A) (A) (A) (A) (A) (A) (A) (A) (A)
                 (A) (A) (A) (A) (A) (A) (A) (A) (A) (A) (A) (A)
                 (A) (A) (A) (A) (A) (A) (A) (A) (A) (A) (A) (A)
                 (A) (A) (A) (A) (A) (A) (A) (A) (A) (A) (A) (A)
                 (A) (A) (A) (A) (A) (A) (A) (A) (A) (A) (A) (A)
                 (A) (A) (A) (A) (A) (A) (A) (A) (A) (A) (A) (A)
                 (A) (A) (A) (A) (A) (A) (A) (A) (A) (A) (A) (A)
                 (A) (A) (A) (A) (A) (A) (A) (A) (A) (A) (A) (A)
                 (A) (A) (A) (A) (A) (A) (A) (A) (A) (A) (A) (A)
                 (A) (A) (A) (A) (A) (A) (A) (A) (A) (A) (A) (A)
                 (A) (A) (A) (A) (A) (A) (A) (A) (A) (A) (A) (A)
                 (A) (A) (A) (A) (A) (A) (A) (A) (A) (A) (A) (A)
                 (A) (A) (A) (A) (A) (A) (A) (A) (A) (A) (A) (A)
                 (A) (A) (A) (A) (A) (A) (A) (A) (A) (A) (A) (A)
                 (A) (A) (A) (A) (A) (A) (A) (A) (A) (A) (A) (A)
                 (A) (A) (A)
 The electronic state is 1-A.
 Alpha  occ. eigenvalues -- -145.34584 -19.15215 -19.13875 -19.12122 -19.10634
 Alpha  occ. eigenvalues --  -19.10625 -19.10526 -19.10305 -19.08670 -19.07953
 Alpha  occ. eigenvalues --  -19.07453 -19.06730 -19.06581 -19.06474 -19.05429
 Alpha  occ. eigenvalues --  -19.04689 -19.04503 -19.04388 -19.04378 -19.04328
 Alpha  occ. eigenvalues --  -19.03798 -19.02653 -19.01024 -18.99912 -15.40327
 Alpha  occ. eigenvalues --  -14.60152 -14.38573 -14.36404 -14.36136 -14.35361
 Alpha  occ. eigenvalues --  -14.33443 -14.33439 -14.32875 -14.32400 -14.32331
 Alpha  occ. eigenvalues --  -14.31523 -14.31235 -14.29558 -14.29001 -14.28688
 Alpha  occ. eigenvalues --  -12.53935 -12.53901 -12.53889 -10.35934 -10.30592
 Alpha  occ. eigenvalues --  -10.29499 -10.29075 -10.28883 -10.28027 -10.27171
 Alpha  occ. eigenvalues --  -10.26324 -10.26149 -10.25840 -10.25205 -10.25115
 Alpha  occ. eigenvalues --  -10.24866 -10.23870 -10.23672 -10.23545 -10.23532
 Alpha  occ. eigenvalues --  -10.23526 -10.23283 -10.23241 -10.23046 -10.23038
 Alpha  occ. eigenvalues --  -10.23010 -10.22667 -10.22058 -10.21758 -10.21720
 Alpha  occ. eigenvalues --  -10.21578 -10.21252 -10.20549 -10.20429 -10.20414
 Alpha  occ. eigenvalues --  -10.19665 -10.19477 -10.19456 -10.19190 -10.19155
 Alpha  occ. eigenvalues --  -10.17881 -10.17662 -10.17161 -10.17144 -10.17118
 Alpha  occ. eigenvalues --  -10.16927 -10.16887 -10.16775 -10.16628 -10.16385
 Alpha  occ. eigenvalues --  -10.16352 -10.16304 -10.16291 -10.16189 -10.15772
 Alpha  occ. eigenvalues --  -10.15588 -10.13901  -1.77270  -1.15386  -1.05753
 Alpha  occ. eigenvalues --   -1.05117  -1.04871  -1.04662  -1.03559  -1.03385
 Alpha  occ. eigenvalues --   -1.03282  -1.02696  -1.01649  -1.01265  -1.01168
 Alpha  occ. eigenvalues --   -1.01070  -1.00372  -0.99955  -0.99916  -0.99644
 Alpha  occ. eigenvalues --   -0.98853  -0.97919  -0.97791  -0.97566  -0.97180
 Alpha  occ. eigenvalues --   -0.95834  -0.95121  -0.95090  -0.93178  -0.92490
 Alpha  occ. eigenvalues --   -0.91133  -0.90678  -0.90408  -0.90232  -0.90143
 Alpha  occ. eigenvalues --   -0.90040  -0.89354  -0.89209  -0.88634  -0.88304
 Alpha  occ. eigenvalues --   -0.86829  -0.86648  -0.85618  -0.85239  -0.84847
 Alpha  occ. eigenvalues --   -0.82267  -0.82064  -0.81430  -0.80532  -0.77762
 Alpha  occ. eigenvalues --   -0.77143  -0.76957  -0.76514  -0.75991  -0.75972
 Alpha  occ. eigenvalues --   -0.75189  -0.74861  -0.74779  -0.73428  -0.73275
 Alpha  occ. eigenvalues --   -0.71823  -0.71250  -0.70697  -0.69829  -0.69201
 Alpha  occ. eigenvalues --   -0.68397  -0.68205  -0.67815  -0.67245  -0.67008
 Alpha  occ. eigenvalues --   -0.65514  -0.64503  -0.64385  -0.64124  -0.63548
 Alpha  occ. eigenvalues --   -0.63142  -0.62863  -0.62049  -0.61756  -0.61132
 Alpha  occ. eigenvalues --   -0.60808  -0.59714  -0.59447  -0.59153  -0.58850
 Alpha  occ. eigenvalues --   -0.58203  -0.57655  -0.57170  -0.57014  -0.56840
 Alpha  occ. eigenvalues --   -0.56811  -0.56259  -0.55632  -0.55144  -0.55057
 Alpha  occ. eigenvalues --   -0.54892  -0.54829  -0.54066  -0.53741  -0.53429
 Alpha  occ. eigenvalues --   -0.53257  -0.52942  -0.52413  -0.52090  -0.52027
 Alpha  occ. eigenvalues --   -0.52007  -0.51636  -0.51356  -0.51062  -0.50793
 Alpha  occ. eigenvalues --   -0.50390  -0.49851  -0.49652  -0.49558  -0.49004
 Alpha  occ. eigenvalues --   -0.48603  -0.48367  -0.48108  -0.47840  -0.47473
 Alpha  occ. eigenvalues --   -0.47327  -0.47274  -0.47135  -0.46949  -0.46803
 Alpha  occ. eigenvalues --   -0.46168  -0.46039  -0.45869  -0.45606  -0.45468
 Alpha  occ. eigenvalues --   -0.45128  -0.45029  -0.44983  -0.44575  -0.44140
 Alpha  occ. eigenvalues --   -0.43960  -0.43584  -0.43387  -0.43316  -0.43234
 Alpha  occ. eigenvalues --   -0.42900  -0.42797  -0.42649  -0.42544  -0.42396
 Alpha  occ. eigenvalues --   -0.42251  -0.42108  -0.42035  -0.42017  -0.41828
 Alpha  occ. eigenvalues --   -0.41669  -0.41494  -0.41326  -0.41308  -0.41113
 Alpha  occ. eigenvalues --   -0.40869  -0.40798  -0.40630  -0.40155  -0.39994
 Alpha  occ. eigenvalues --   -0.39898  -0.39801  -0.39675  -0.39643  -0.39561
 Alpha  occ. eigenvalues --   -0.39411  -0.39132  -0.39104  -0.39033  -0.38845
 Alpha  occ. eigenvalues --   -0.38806  -0.38627  -0.38534  -0.38515  -0.38400
 Alpha  occ. eigenvalues --   -0.38298  -0.38143  -0.38060  -0.37843  -0.37581
 Alpha  occ. eigenvalues --   -0.37553  -0.37531  -0.37369  -0.37294  -0.37236
 Alpha  occ. eigenvalues --   -0.37197  -0.36869  -0.36602  -0.36512  -0.36138
 Alpha  occ. eigenvalues --   -0.35999  -0.35878  -0.35733  -0.35453  -0.35269
 Alpha  occ. eigenvalues --   -0.35205  -0.35086  -0.34974  -0.34732  -0.34525
 Alpha  occ. eigenvalues --   -0.34455  -0.34049  -0.33923  -0.33809  -0.33763
 Alpha  occ. eigenvalues --   -0.33501  -0.33062  -0.32943  -0.32357  -0.32293
 Alpha  occ. eigenvalues --   -0.32215  -0.32065  -0.31918  -0.31819  -0.31682
 Alpha  occ. eigenvalues --   -0.31469  -0.31426  -0.31363  -0.31114  -0.30556
 Alpha  occ. eigenvalues --   -0.30079  -0.29508  -0.29466  -0.28783  -0.28522
 Alpha  occ. eigenvalues --   -0.28230  -0.27875  -0.26957  -0.26804  -0.26428
 Alpha  occ. eigenvalues --   -0.26322  -0.26242  -0.25877  -0.25526  -0.25255
 Alpha  occ. eigenvalues --   -0.24803  -0.24556  -0.24309  -0.24235  -0.23837
 Alpha  occ. eigenvalues --   -0.23233  -0.23185  -0.23027  -0.22406  -0.22384
 Alpha  occ. eigenvalues --   -0.22248  -0.22130  -0.22034  -0.21728  -0.21541
 Alpha  occ. eigenvalues --   -0.21301  -0.21238  -0.21119  -0.20145  -0.19861
 Alpha  occ. eigenvalues --   -0.19582  -0.19554  -0.19277  -0.18943  -0.18382
 Alpha  occ. eigenvalues --   -0.18048  -0.17918  -0.15771
 Alpha virt. eigenvalues --   -0.12057  -0.05996  -0.05490  -0.01985  -0.01157
 Alpha virt. eigenvalues --   -0.00611   0.00532   0.00852   0.00951   0.01364
 Alpha virt. eigenvalues --    0.01513   0.01796   0.01914   0.02676   0.03021
 Alpha virt. eigenvalues --    0.03347   0.03426   0.03707   0.03827   0.04146
 Alpha virt. eigenvalues --    0.04636   0.04956   0.05329   0.05469   0.05634
 Alpha virt. eigenvalues --    0.05993   0.06421   0.06566   0.06637   0.06950
 Alpha virt. eigenvalues --    0.07172   0.07185   0.07294   0.07526   0.07602
 Alpha virt. eigenvalues --    0.08000   0.08074   0.08249   0.08541   0.08752
 Alpha virt. eigenvalues --    0.08937   0.09221   0.09377   0.09443   0.09847
 Alpha virt. eigenvalues --    0.10173   0.10257   0.10357   0.10637   0.10825
 Alpha virt. eigenvalues --    0.10903   0.11245   0.11362   0.11531   0.11688
 Alpha virt. eigenvalues --    0.11881   0.12010   0.12155   0.12476   0.12656
 Alpha virt. eigenvalues --    0.12926   0.12996   0.13195   0.13385   0.13510
 Alpha virt. eigenvalues --    0.13698   0.13882   0.14010   0.14076   0.14316
 Alpha virt. eigenvalues --    0.14473   0.14716   0.14825   0.15146   0.15191
 Alpha virt. eigenvalues --    0.15518   0.15566   0.15607   0.15796   0.15939
 Alpha virt. eigenvalues --    0.16224   0.16388   0.16596   0.16790   0.16914
 Alpha virt. eigenvalues --    0.17015   0.17157   0.17385   0.17713   0.17818
 Alpha virt. eigenvalues --    0.17962   0.18214   0.18449   0.18471   0.18605
 Alpha virt. eigenvalues --    0.18767   0.18965   0.19112   0.19240   0.19418
 Alpha virt. eigenvalues --    0.19701   0.19777   0.19918   0.20339   0.20431
 Alpha virt. eigenvalues --    0.20584   0.20910   0.21013   0.21241   0.21413
 Alpha virt. eigenvalues --    0.21598   0.21750   0.22106   0.22347   0.22490
 Alpha virt. eigenvalues --    0.22612   0.22829   0.22895   0.23039   0.23304
 Alpha virt. eigenvalues --    0.23546   0.23639   0.24066   0.24145   0.24283
 Alpha virt. eigenvalues --    0.24692   0.24950   0.25174   0.25211   0.25692
 Alpha virt. eigenvalues --    0.25937   0.26074   0.26161   0.26615   0.26882
 Alpha virt. eigenvalues --    0.27124   0.27237   0.27549   0.27677   0.27741
 Alpha virt. eigenvalues --    0.28005   0.28337   0.28609   0.28790   0.28952
 Alpha virt. eigenvalues --    0.29076   0.29244   0.29537   0.29652   0.30000
 Alpha virt. eigenvalues --    0.30083   0.30311   0.30478   0.30698   0.31147
 Alpha virt. eigenvalues --    0.31245   0.31410   0.31506   0.31879   0.32068
 Alpha virt. eigenvalues --    0.32392   0.32855   0.32901   0.33125   0.33303
 Alpha virt. eigenvalues --    0.33434   0.33705   0.33867   0.34108   0.34204
 Alpha virt. eigenvalues --    0.34879   0.35014   0.35225   0.35590   0.36124
 Alpha virt. eigenvalues --    0.36625   0.36789   0.36840   0.37019   0.37468
 Alpha virt. eigenvalues --    0.37957   0.38135   0.38782   0.38884   0.39127
 Alpha virt. eigenvalues --    0.39305   0.39580   0.39782   0.40070   0.40141
 Alpha virt. eigenvalues --    0.40526   0.40891   0.41086   0.41232   0.41576
 Alpha virt. eigenvalues --    0.41714   0.41942   0.42144   0.42461   0.42622
 Alpha virt. eigenvalues --    0.42721   0.43419   0.43545   0.43868   0.44126
 Alpha virt. eigenvalues --    0.44819   0.44921   0.45000   0.45482   0.45542
 Alpha virt. eigenvalues --    0.45828   0.45906   0.46035   0.46105   0.46295
 Alpha virt. eigenvalues --    0.46397   0.46735   0.46823   0.47231   0.47349
 Alpha virt. eigenvalues --    0.47548   0.47665   0.47811   0.47967   0.48076
 Alpha virt. eigenvalues --    0.48245   0.48488   0.48678   0.49062   0.49114
 Alpha virt. eigenvalues --    0.49209   0.49531   0.49679   0.49906   0.50097
 Alpha virt. eigenvalues --    0.50215   0.50308   0.50629   0.50976   0.51050
 Alpha virt. eigenvalues --    0.51373   0.51460   0.51513   0.51876   0.51932
 Alpha virt. eigenvalues --    0.52153   0.52235   0.52299   0.52686   0.52717
 Alpha virt. eigenvalues --    0.52955   0.53271   0.53521   0.53554   0.53869
 Alpha virt. eigenvalues --    0.54019   0.54226   0.54574   0.54590   0.54635
 Alpha virt. eigenvalues --    0.54862   0.55129   0.55269   0.55511   0.55851
 Alpha virt. eigenvalues --    0.55908   0.56129   0.56198   0.56211   0.56380
 Alpha virt. eigenvalues --    0.56573   0.56783   0.56985   0.57427   0.57647
 Alpha virt. eigenvalues --    0.57752   0.58078   0.58368   0.58397   0.58675
 Alpha virt. eigenvalues --    0.58916   0.59133   0.59182   0.59319   0.59602
 Alpha virt. eigenvalues --    0.59661   0.59749   0.60019   0.60156   0.60251
 Alpha virt. eigenvalues --    0.60277   0.60306   0.60521   0.61047   0.61169
 Alpha virt. eigenvalues --    0.61316   0.61353   0.61577   0.61693   0.61833
 Alpha virt. eigenvalues --    0.61916   0.62137   0.62240   0.62373   0.62479
 Alpha virt. eigenvalues --    0.62754   0.62773   0.62892   0.63038   0.63377
 Alpha virt. eigenvalues --    0.63450   0.63560   0.63620   0.63785   0.63873
 Alpha virt. eigenvalues --    0.64130   0.64171   0.64389   0.64496   0.64649
 Alpha virt. eigenvalues --    0.64746   0.64805   0.64888   0.65060   0.65154
 Alpha virt. eigenvalues --    0.65269   0.65484   0.65590   0.65857   0.65920
 Alpha virt. eigenvalues --    0.66123   0.66162   0.66273   0.66401   0.66459
 Alpha virt. eigenvalues --    0.66562   0.66581   0.66801   0.66941   0.66991
 Alpha virt. eigenvalues --    0.67094   0.67161   0.67241   0.67351   0.67480
 Alpha virt. eigenvalues --    0.67560   0.67606   0.67710   0.67778   0.67913
 Alpha virt. eigenvalues --    0.68120   0.68170   0.68234   0.68272   0.68379
 Alpha virt. eigenvalues --    0.68498   0.68712   0.68733   0.68828   0.68963
 Alpha virt. eigenvalues --    0.69031   0.69209   0.69311   0.69478   0.69625
 Alpha virt. eigenvalues --    0.69682   0.69744   0.69992   0.70053   0.70159
 Alpha virt. eigenvalues --    0.70327   0.70445   0.70574   0.70736   0.70866
 Alpha virt. eigenvalues --    0.70913   0.70967   0.71171   0.71290   0.71406
 Alpha virt. eigenvalues --    0.71507   0.71621   0.71647   0.71787   0.72188
 Alpha virt. eigenvalues --    0.72232   0.72340   0.72456   0.72524   0.72719
 Alpha virt. eigenvalues --    0.72844   0.73133   0.73303   0.73454   0.73553
 Alpha virt. eigenvalues --    0.73784   0.73954   0.74164   0.74233   0.74420
 Alpha virt. eigenvalues --    0.74524   0.74702   0.74954   0.75094   0.75376
 Alpha virt. eigenvalues --    0.75700   0.75759   0.75972   0.76027   0.76178
 Alpha virt. eigenvalues --    0.76209   0.76425   0.76644   0.76928   0.77177
 Alpha virt. eigenvalues --    0.77316   0.77641   0.77801   0.78081   0.78179
 Alpha virt. eigenvalues --    0.78513   0.78730   0.79035   0.79076   0.79256
 Alpha virt. eigenvalues --    0.79499   0.79580   0.79917   0.80272   0.80487
 Alpha virt. eigenvalues --    0.80594   0.80831   0.81599   0.81754   0.81923
 Alpha virt. eigenvalues --    0.82060   0.82392   0.82674   0.83032   0.83306
 Alpha virt. eigenvalues --    0.83510   0.83894   0.83935   0.84171   0.84548
 Alpha virt. eigenvalues --    0.84792   0.85623   0.85939   0.86205   0.86484
 Alpha virt. eigenvalues --    0.86795   0.86974   0.87390   0.87420   0.87511
 Alpha virt. eigenvalues --    0.87727   0.88162   0.88317   0.88719   0.89288
 Alpha virt. eigenvalues --    0.89869   0.90104   0.90331   0.90482   0.90634
 Alpha virt. eigenvalues --    0.90864   0.91295   0.91684   0.91897   0.92404
 Alpha virt. eigenvalues --    0.92666   0.93042   0.93610   0.93724   0.93914
 Alpha virt. eigenvalues --    0.94342   0.94453   0.94924   0.95199   0.95436
 Alpha virt. eigenvalues --    0.95643   0.96036   0.96272   0.96631   0.96775
 Alpha virt. eigenvalues --    0.97056   0.97283   0.97489   0.97581   0.97799
 Alpha virt. eigenvalues --    0.98268   0.98448   0.98658   0.98953   0.99303
 Alpha virt. eigenvalues --    0.99603   0.99781   1.00622   1.00840   1.01019
 Alpha virt. eigenvalues --    1.01122   1.01500   1.01763   1.01870   1.02002
 Alpha virt. eigenvalues --    1.02531   1.02860   1.03292   1.03559   1.03655
 Alpha virt. eigenvalues --    1.04070   1.04600   1.05087   1.05251   1.05529
 Alpha virt. eigenvalues --    1.05772   1.06094   1.06457   1.06635   1.06857
 Alpha virt. eigenvalues --    1.07334   1.07576   1.08046   1.08142   1.08375
 Alpha virt. eigenvalues --    1.08649   1.08956   1.08984   1.09204   1.09595
 Alpha virt. eigenvalues --    1.10101   1.10302   1.10517   1.10873   1.11019
 Alpha virt. eigenvalues --    1.11120   1.11667   1.11763   1.12110   1.12501
 Alpha virt. eigenvalues --    1.12937   1.13007   1.13329   1.13623   1.13709
 Alpha virt. eigenvalues --    1.14120   1.14535   1.14803   1.15091   1.15323
 Alpha virt. eigenvalues --    1.15730   1.15795   1.16155   1.16292   1.16779
 Alpha virt. eigenvalues --    1.17192   1.17426   1.17659   1.17855   1.18196
 Alpha virt. eigenvalues --    1.18551   1.18751   1.18979   1.19240   1.19400
 Alpha virt. eigenvalues --    1.19708   1.19739   1.19935   1.20492   1.20769
 Alpha virt. eigenvalues --    1.20855   1.21254   1.21351   1.21799   1.22011
 Alpha virt. eigenvalues --    1.22289   1.22438   1.22692   1.23171   1.23243
 Alpha virt. eigenvalues --    1.23717   1.24141   1.24438   1.24686   1.24807
 Alpha virt. eigenvalues --    1.24934   1.25352   1.25757   1.25889   1.25954
 Alpha virt. eigenvalues --    1.26231   1.26379   1.26782   1.26982   1.27229
 Alpha virt. eigenvalues --    1.27283   1.27583   1.27927   1.28180   1.28267
 Alpha virt. eigenvalues --    1.28421   1.28561   1.28646   1.28866   1.29112
 Alpha virt. eigenvalues --    1.29391   1.29936   1.30160   1.30199   1.30735
 Alpha virt. eigenvalues --    1.30925   1.31273   1.31619   1.31891   1.32177
 Alpha virt. eigenvalues --    1.32423   1.32720   1.33024   1.33318   1.33528
 Alpha virt. eigenvalues --    1.33622   1.34013   1.34409   1.34638   1.34859
 Alpha virt. eigenvalues --    1.34970   1.35325   1.35573   1.35800   1.35913
 Alpha virt. eigenvalues --    1.36204   1.36425   1.36779   1.36874   1.37241
 Alpha virt. eigenvalues --    1.37379   1.38185   1.38286   1.38720   1.38760
 Alpha virt. eigenvalues --    1.38918   1.39452   1.39614   1.39885   1.40208
 Alpha virt. eigenvalues --    1.41163   1.41507   1.41747   1.41885   1.42270
 Alpha virt. eigenvalues --    1.42455   1.42854   1.43296   1.43535   1.43659
 Alpha virt. eigenvalues --    1.43922   1.44077   1.44420   1.44586   1.45152
 Alpha virt. eigenvalues --    1.45683   1.46125   1.46204   1.46474   1.46792
 Alpha virt. eigenvalues --    1.47111   1.47346   1.47812   1.48128   1.48294
 Alpha virt. eigenvalues --    1.48552   1.48711   1.48950   1.49049   1.49334
 Alpha virt. eigenvalues --    1.50092   1.50105   1.50415   1.50567   1.51270
 Alpha virt. eigenvalues --    1.51351   1.51602   1.51804   1.52164   1.52502
 Alpha virt. eigenvalues --    1.52968   1.53417   1.53468   1.53695   1.53965
 Alpha virt. eigenvalues --    1.54148   1.54578   1.54787   1.54896   1.54942
 Alpha virt. eigenvalues --    1.55210   1.55856   1.56323   1.56516   1.56821
 Alpha virt. eigenvalues --    1.56893   1.57152   1.57632   1.57993   1.58792
 Alpha virt. eigenvalues --    1.58903   1.59411   1.60079   1.60485   1.60829
 Alpha virt. eigenvalues --    1.61488   1.61819   1.62182   1.62457   1.62787
 Alpha virt. eigenvalues --    1.62852   1.63157   1.63287   1.63437   1.63962
 Alpha virt. eigenvalues --    1.64399   1.64564   1.65077   1.65291   1.65334
 Alpha virt. eigenvalues --    1.65567   1.65920   1.66351   1.66494   1.66841
 Alpha virt. eigenvalues --    1.66997   1.67430   1.67731   1.67820   1.67980
 Alpha virt. eigenvalues --    1.68267   1.68733   1.69029   1.69353   1.69580
 Alpha virt. eigenvalues --    1.69659   1.69691   1.69911   1.70233   1.70406
 Alpha virt. eigenvalues --    1.70727   1.70885   1.71191   1.71934   1.72101
 Alpha virt. eigenvalues --    1.72230   1.72531   1.72668   1.72850   1.73015
 Alpha virt. eigenvalues --    1.73227   1.73364   1.73481   1.73777   1.73924
 Alpha virt. eigenvalues --    1.74256   1.74437   1.74534   1.74735   1.75002
 Alpha virt. eigenvalues --    1.75024   1.75327   1.75432   1.75546   1.75700
 Alpha virt. eigenvalues --    1.76067   1.76167   1.76512   1.76659   1.76909
 Alpha virt. eigenvalues --    1.77050   1.77252   1.77266   1.77501   1.77840
 Alpha virt. eigenvalues --    1.78105   1.78176   1.78229   1.78599   1.78741
 Alpha virt. eigenvalues --    1.78872   1.78982   1.79500   1.79528   1.79618
 Alpha virt. eigenvalues --    1.79878   1.79942   1.79973   1.80143   1.80269
 Alpha virt. eigenvalues --    1.80476   1.80588   1.80744   1.80860   1.80981
 Alpha virt. eigenvalues --    1.81080   1.81168   1.81556   1.81632   1.81968
 Alpha virt. eigenvalues --    1.81983   1.82258   1.82318   1.82584   1.82671
 Alpha virt. eigenvalues --    1.82870   1.83238   1.83382   1.83490   1.83661
 Alpha virt. eigenvalues --    1.83688   1.83853   1.83948   1.84263   1.84533
 Alpha virt. eigenvalues --    1.84781   1.84968   1.85020   1.85119   1.85325
 Alpha virt. eigenvalues --    1.85611   1.85909   1.86111   1.86192   1.86596
 Alpha virt. eigenvalues --    1.86672   1.86900   1.87280   1.87408   1.87434
 Alpha virt. eigenvalues --    1.87654   1.87841   1.87897   1.88051   1.88183
 Alpha virt. eigenvalues --    1.88355   1.88787   1.89065   1.89322   1.89514
 Alpha virt. eigenvalues --    1.89612   1.89891   1.90069   1.90506   1.90748
 Alpha virt. eigenvalues --    1.90955   1.91161   1.91353   1.91616   1.91869
 Alpha virt. eigenvalues --    1.92095   1.92305   1.92684   1.92872   1.93063
 Alpha virt. eigenvalues --    1.93207   1.93414   1.93506   1.93573   1.93980
 Alpha virt. eigenvalues --    1.94342   1.94480   1.94709   1.94858   1.94974
 Alpha virt. eigenvalues --    1.95134   1.95329   1.95443   1.95701   1.96090
 Alpha virt. eigenvalues --    1.96681   1.96822   1.97204   1.97327   1.97541
 Alpha virt. eigenvalues --    1.97707   1.97836   1.98074   1.98244   1.98403
 Alpha virt. eigenvalues --    1.98649   1.99058   1.99153   1.99245   1.99381
 Alpha virt. eigenvalues --    1.99870   2.00075   2.00256   2.00534   2.00667
 Alpha virt. eigenvalues --    2.00826   2.01074   2.01406   2.01614   2.01820
 Alpha virt. eigenvalues --    2.01990   2.02083   2.02568   2.02736   2.02987
 Alpha virt. eigenvalues --    2.03160   2.03548   2.03762   2.04030   2.04182
 Alpha virt. eigenvalues --    2.04310   2.04750   2.04838   2.04943   2.05286
 Alpha virt. eigenvalues --    2.05506   2.05797   2.06118   2.06177   2.06349
 Alpha virt. eigenvalues --    2.06657   2.06886   2.07064   2.07165   2.07383
 Alpha virt. eigenvalues --    2.07640   2.07886   2.08037   2.08240   2.08442
 Alpha virt. eigenvalues --    2.09435   2.09672   2.09882   2.10314   2.10576
 Alpha virt. eigenvalues --    2.10909   2.11198   2.11299   2.11496   2.11799
 Alpha virt. eigenvalues --    2.11989   2.12276   2.12410   2.12601   2.13125
 Alpha virt. eigenvalues --    2.13462   2.13734   2.14446   2.14509   2.15094
 Alpha virt. eigenvalues --    2.15137   2.15534   2.15893   2.15907   2.16335
 Alpha virt. eigenvalues --    2.16656   2.17003   2.17244   2.17341   2.17477
 Alpha virt. eigenvalues --    2.17915   2.18572   2.18766   2.19141   2.19380
 Alpha virt. eigenvalues --    2.19747   2.19847   2.20011   2.20405   2.20659
 Alpha virt. eigenvalues --    2.20736   2.20813   2.20998   2.21177   2.21430
 Alpha virt. eigenvalues --    2.22222   2.22433   2.22589   2.22893   2.23373
 Alpha virt. eigenvalues --    2.23518   2.23601   2.23822   2.24119   2.24359
 Alpha virt. eigenvalues --    2.24640   2.25833   2.26031   2.26197   2.26586
 Alpha virt. eigenvalues --    2.26777   2.27686   2.27989   2.28281   2.28378
 Alpha virt. eigenvalues --    2.28573   2.28765   2.28918   2.29347   2.29453
 Alpha virt. eigenvalues --    2.29695   2.29904   2.30245   2.30534   2.30792
 Alpha virt. eigenvalues --    2.31302   2.32244   2.32480   2.32582   2.33405
 Alpha virt. eigenvalues --    2.33620   2.33657   2.33960   2.34218   2.34456
 Alpha virt. eigenvalues --    2.34872   2.35132   2.35163   2.36112   2.36868
 Alpha virt. eigenvalues --    2.37231   2.37435   2.37491   2.37599   2.38103
 Alpha virt. eigenvalues --    2.38451   2.38670   2.38874   2.39237   2.39320
 Alpha virt. eigenvalues --    2.39765   2.40112   2.40438   2.40543   2.40820
 Alpha virt. eigenvalues --    2.41102   2.41365   2.41608   2.41774   2.41854
 Alpha virt. eigenvalues --    2.42332   2.42491   2.43275   2.43422   2.43622
 Alpha virt. eigenvalues --    2.44606   2.44782   2.45101   2.45667   2.45937
 Alpha virt. eigenvalues --    2.46093   2.46445   2.46698   2.47227   2.47393
 Alpha virt. eigenvalues --    2.47746   2.47918   2.48458   2.48884   2.49325
 Alpha virt. eigenvalues --    2.49599   2.50131   2.50205   2.50539   2.50717
 Alpha virt. eigenvalues --    2.50855   2.51685   2.52013   2.52488   2.52786
 Alpha virt. eigenvalues --    2.53033   2.53420   2.53955   2.54691   2.55514
 Alpha virt. eigenvalues --    2.55828   2.55968   2.56742   2.57178   2.57363
 Alpha virt. eigenvalues --    2.57481   2.57677   2.57797   2.58045   2.58504
 Alpha virt. eigenvalues --    2.58542   2.58982   2.59086   2.59539   2.59574
 Alpha virt. eigenvalues --    2.59650   2.60267   2.60427   2.60858   2.61086
 Alpha virt. eigenvalues --    2.61519   2.61819   2.62040   2.62216   2.62580
 Alpha virt. eigenvalues --    2.62874   2.63121   2.63425   2.63456   2.64266
 Alpha virt. eigenvalues --    2.64562   2.65214   2.65305   2.65434   2.65625
 Alpha virt. eigenvalues --    2.66267   2.66650   2.66811   2.67527   2.67623
 Alpha virt. eigenvalues --    2.67814   2.68531   2.68614   2.68943   2.69182
 Alpha virt. eigenvalues --    2.69572   2.69971   2.70139   2.70302   2.70355
 Alpha virt. eigenvalues --    2.70477   2.70736   2.71446   2.71786   2.71874
 Alpha virt. eigenvalues --    2.72173   2.72255   2.72319   2.72901   2.73152
 Alpha virt. eigenvalues --    2.73291   2.73711   2.73941   2.74155   2.74350
 Alpha virt. eigenvalues --    2.74684   2.74945   2.75034   2.75372   2.75416
 Alpha virt. eigenvalues --    2.76088   2.76166   2.76273   2.76745   2.77288
 Alpha virt. eigenvalues --    2.77420   2.77838   2.77929   2.78204   2.78343
 Alpha virt. eigenvalues --    2.78623   2.78923   2.78986   2.79263   2.79455
 Alpha virt. eigenvalues --    2.79504   2.80175   2.80574   2.80668   2.80766
 Alpha virt. eigenvalues --    2.80957   2.81525   2.81842   2.81917   2.82466
 Alpha virt. eigenvalues --    2.82532   2.82661   2.83071   2.83156   2.83439
 Alpha virt. eigenvalues --    2.83636   2.83746   2.83971   2.84088   2.84683
 Alpha virt. eigenvalues --    2.85184   2.85234   2.85676   2.85823   2.85953
 Alpha virt. eigenvalues --    2.86499   2.86854   2.87315   2.87594   2.87806
 Alpha virt. eigenvalues --    2.87997   2.88742   2.89129   2.89252   2.89348
 Alpha virt. eigenvalues --    2.89859   2.89943   2.90111   2.90983   2.91030
 Alpha virt. eigenvalues --    2.91472   2.91877   2.92094   2.92298   2.92567
 Alpha virt. eigenvalues --    2.92874   2.93407   2.94013   2.94156   2.94467
 Alpha virt. eigenvalues --    2.94684   2.94856   2.95290   2.95477   2.95648
 Alpha virt. eigenvalues --    2.95868   2.96308   2.96658   2.96908   2.97656
 Alpha virt. eigenvalues --    2.97804   2.97884   2.98252   2.98727   2.99040
 Alpha virt. eigenvalues --    2.99071   2.99385   3.00306   3.00828   3.01188
 Alpha virt. eigenvalues --    3.01564   3.01906   3.02160   3.02283   3.02529
 Alpha virt. eigenvalues --    3.02706   3.03484   3.03998   3.04171   3.04456
 Alpha virt. eigenvalues --    3.04887   3.05153   3.05295   3.05479   3.05740
 Alpha virt. eigenvalues --    3.05999   3.06773   3.07057   3.07354   3.07598
 Alpha virt. eigenvalues --    3.07789   3.08406   3.08698   3.08773   3.09304
 Alpha virt. eigenvalues --    3.09490   3.10417   3.11917   3.12313   3.12413
 Alpha virt. eigenvalues --    3.12701   3.13013   3.14089   3.14471   3.14682
 Alpha virt. eigenvalues --    3.15181   3.15806   3.15869   3.16549   3.16776
 Alpha virt. eigenvalues --    3.16980   3.17277   3.17371   3.17718   3.18238
 Alpha virt. eigenvalues --    3.18348   3.19386   3.19808   3.19922   3.20274
 Alpha virt. eigenvalues --    3.21276   3.21623   3.22016   3.22287   3.22761
 Alpha virt. eigenvalues --    3.22828   3.23293   3.23578   3.24664   3.24835
 Alpha virt. eigenvalues --    3.25108   3.25279   3.26319   3.26383   3.26815
 Alpha virt. eigenvalues --    3.27045   3.27165   3.27520   3.28213   3.28694
 Alpha virt. eigenvalues --    3.29645   3.30372   3.31753   3.31795   3.32245
 Alpha virt. eigenvalues --    3.32382   3.32429   3.33112   3.33317   3.34347
 Alpha virt. eigenvalues --    3.35947   3.37460   3.38038   3.38246   3.38973
 Alpha virt. eigenvalues --    3.39439   3.42343   3.50162   3.52095   3.53346
 Alpha virt. eigenvalues --    3.53626   3.54656   3.55592   3.56042   3.56245
 Alpha virt. eigenvalues --    3.56662   3.57903   3.61081   3.61437   3.61542
 Alpha virt. eigenvalues --    3.62213   3.62874   3.63081   3.63592   3.64231
 Alpha virt. eigenvalues --    3.66477   3.68095   3.69050   3.69330   3.69705
 Alpha virt. eigenvalues --    3.70256   3.70908   3.70989   3.71137   3.71452
 Alpha virt. eigenvalues --    3.72015   3.72362   3.72393   3.72616   3.73204
 Alpha virt. eigenvalues --    3.73931   3.74315   3.74942   3.75674   3.76100
 Alpha virt. eigenvalues --    3.79620   3.83648   3.84176   3.86627
          Condensed to atoms (all electrons):
 Mulliken charges:
               1
     1  C    0.029283
     2  C    0.031563
     3  O   -0.283100
     4  H    0.039353
     5  H    0.011498
     6  H    0.024980
     7  N   -0.120729
     8  C    0.061399
     9  C    0.076231
    10  O   -0.301845
    11  C    0.106583
    12  C    0.139778
    13  O   -0.460645
    14  O   -0.379342
    15  H    0.116315
    16  H    0.058851
    17  H   -0.013719
    18  H   -0.010897
    19  N   -0.121474
    20  C    0.124229
    21  C    0.049069
    22  O   -0.287898
    23  C    0.091125
    24  C   -0.070326
    25  C    0.025400
    26  C   -0.037493
    27  N    0.101268
    28  H    0.146416
    29  H    0.001135
    30  H    0.005041
    31  H    0.022080
    32  H   -0.002479
    33  H    0.040654
    34  H    0.041524
    35  H    0.012963
    36  H    0.077733
    37  H    0.082075
    38  H    0.200133
    39  H    0.191815
    40  H    0.197079
    41  N   -0.139519
    42  C    0.105695
    43  C    0.041048
    44  O   -0.272078
    45  C    0.109226
    46  C    0.111016
    47  O   -0.409915
    48  O   -0.423647
    49  H    0.124622
    50  H   -0.001327
    51  H   -0.014821
    52  H    0.008703
    53  N   -0.160026
    54  C    0.241578
    55  C    0.052045
    56  O   -0.316797
    57  H    0.146729
    58  H    0.004707
    59  H    0.033322
    60  N   -0.150852
    61  C    0.153171
    62  C    0.047935
    63  O   -0.307622
    64  C    0.070423
    65  C    0.088437
    66  N   -0.045191
    67  O   -0.361912
    68  H    0.159463
    69  H    0.020570
    70  H    0.071330
    71  H   -0.003531
    72  H    0.131888
    73  H    0.130640
    74  N   -0.147315
    75  C    0.196467
    76  C    0.052526
    77  O   -0.298661
    78  H    0.157380
    79  H    0.017517
    80  H    0.028499
    81  N   -0.136739
    82  C    0.123413
    83  C    0.164506
    84  O   -0.339874
    85  C    0.109040
    86  C    0.003601
    87  C    0.010066
    88  C    0.007882
    89  C   -0.018193
    90  C   -0.035142
    91  C    0.170781
    92  O   -0.190123
    93  H    0.160655
    94  H   -0.013908
    95  H   -0.021495
    96  H   -0.040093
    97  H   -0.036483
    98  H   -0.047611
    99  H   -0.032035
   100  H   -0.031453
   101  H    0.170214
   102  N   -0.126240
   103  C    0.089176
   104  C    0.067785
   105  O   -0.280527
   106  C   -0.037312
   107  C    0.004206
   108  C    0.022832
   109  C    0.032228
   110  H    0.132309
   111  H    0.020675
   112  H   -0.014256
   113  H   -0.013633
   114  H    0.003299
   115  H    0.036466
   116  H    0.018751
   117  H    0.004714
   118  H    0.005612
   119  H    0.005932
   120  H    0.008079
   121  N   -0.118104
   122  C    0.052426
   123  C    0.109265
   124  O   -0.297630
   125  C    0.288684
   126  O   -0.346454
   127  H    0.141514
   128  H    0.001216
   129  H   -0.002449
   130  H   -0.017054
   131  H    0.161669
   132  N   -0.108957
   133  C    0.078205
   134  C    0.064679
   135  O   -0.255007
   136  C    0.044358
   137  H    0.114905
   138  H    0.014594
   139  H    0.013820
   140  H    0.045816
   141  H    0.013767
   142  N   -0.153377
   143  C    0.083107
   144  C    0.074743
   145  O   -0.286450
   146  C    0.044581
   147  H    0.121611
   148  H    0.012559
   149  H    0.037204
   150  H    0.031044
   151  H    0.011710
   152  N   -0.166526
   153  C    0.155405
   154  C    0.039325
   155  O   -0.286316
   156  C   -0.031859
   157  C    0.137851
   158  C    0.134795
   159  O   -0.462275
   160  O   -0.379242
   161  H    0.139929
   162  H   -0.002417
   163  H    0.035364
   164  H   -0.001159
   165  H   -0.022407
   166  H   -0.017269
   167  N   -0.146302
   168  C    0.155578
   169  H    0.026125
   170  H    0.012310
   171  H    0.008684
   172  H    0.110642
   173  Ca   1.285159
   174  O   -0.272210
   175  H    0.181720
   176  H    0.164644
 Sum of Mulliken charges =  -0.00000
 Mulliken charges with hydrogens summed into heavy atoms:
               1
     1  C    0.105114
     2  C    0.031563
     3  O   -0.283100
     7  N   -0.004414
     8  C    0.120250
     9  C    0.076231
    10  O   -0.301845
    11  C    0.081967
    12  C    0.139778
    13  O   -0.460645
    14  O   -0.379342
    19  N    0.024943
    20  C    0.125364
    21  C    0.049069
    22  O   -0.287898
    23  C    0.118245
    24  C   -0.032151
    25  C    0.079887
    26  C    0.122315
    27  N    0.690296
    41  N   -0.014897
    42  C    0.104369
    43  C    0.041048
    44  O   -0.272078
    45  C    0.103109
    46  C    0.111016
    47  O   -0.409915
    48  O   -0.423647
    53  N   -0.013296
    54  C    0.279606
    55  C    0.052045
    56  O   -0.316797
    60  N    0.008611
    61  C    0.173741
    62  C    0.047935
    63  O   -0.307622
    64  C    0.138223
    65  C    0.088437
    66  N    0.217336
    67  O   -0.361912
    74  N    0.010065
    75  C    0.242484
    76  C    0.052526
    77  O   -0.298661
    81  N    0.023916
    82  C    0.109505
    83  C    0.164506
    84  O   -0.339874
    85  C    0.047452
    86  C    0.003601
    87  C   -0.026417
    88  C   -0.039730
    89  C   -0.050228
    90  C   -0.066595
    91  C    0.170781
    92  O   -0.019909
   102  N    0.006069
   103  C    0.109851
   104  C    0.067785
   105  O   -0.280527
   106  C   -0.051568
   107  C   -0.006127
   108  C    0.082764
   109  C    0.051851
   121  N    0.023410
   122  C    0.053642
   123  C    0.109265
   124  O   -0.297630
   125  C    0.269182
   126  O   -0.184785
   132  N    0.005948
   133  C    0.092799
   134  C    0.064679
   135  O   -0.255007
   136  C    0.117761
   142  N   -0.031766
   143  C    0.095665
   144  C    0.074743
   145  O   -0.286450
   146  C    0.124538
   152  N   -0.026597
   153  C    0.152988
   154  C    0.039325
   155  O   -0.286316
   156  C    0.002346
   157  C    0.098175
   158  C    0.134795
   159  O   -0.462275
   160  O   -0.379242
   167  N   -0.035661
   168  C    0.202697
   173  Ca   1.285159
   174  O    0.074154
 DipInt: DoE/N= T F RetVal/Mat= T F Init=T NMatP=  1 IDeriv=0 Min/MaxMlt=  0  4
 Entering OneElI...
 OneElI was handed  1333951383 working-precision words.
 Multipole integrals L=0 to 4 MinM= 0 MaxM= 0.
 Requested accuracy = 0.1000D-12
 ShPair: Thresh= 1.00D-13 NBox=     0 BxSize= 0.00D+00 RnKept= 2.55D+01
         NSMCal=               327645 NSMKep=              151575
 PrmmSu-InSpLW:  IPartL=    0 NPrtUS=    1 NPrtUL=    1 DoSpLW=F IThBeg=    0 IThEnd=    0 NThAct=    1.
 PrsmSu:  NPrtUS=   1 ThrOK=F IAlg=1 NPAlg=1 LenDen=           0 ISkipM=0 DoSpLW=F IThBeg=    0 IThEnd=    0.
 Prism:   IPart=     0 DynPar=F LinDyn=F Incr=         512.
 PRISM was handed  1324226431 working-precision words and151575 shell-pairs
 IPart=  0 NShTot=      151575 NBatch=         349 AvBLen=       434.3
 PrsmSu-ThDecC:  IPartSL=    0    0 NPrtUSL=    1    1 IThBeg=    0 IThEnd=    0 CPU=   -1 GPU=   -1 NThAct=    1.
 PrSmSu:  NxtVal=            513.
 Electronic moments (au):
       -716.00000000          8.62304329         12.36261072         -3.87971937
     -50152.42223604     -41707.42432795     -10621.70038493         10.86142585
         -7.09947705         22.11861279    -145441.60208233    -130204.20775345
     -13172.76137641      86290.64597908      89408.36710280      42229.91182553
     -19223.63790397       2991.32375706      -6342.79768337     -19578.66067931
   -7325296.02094163   -8098538.32351229    -464237.30379846     117621.90107104
     356729.50237422    -964712.22412482       3354.85717751     -74755.78641985
      34213.42122894   -1914408.32364824    -651636.19117531    -304134.90782476
    -102001.62434035      -5227.09279641      57148.87370175
 Electronic spatial extent (au):  <R**2>=         102481.5469
 DipInt: DoE/N= F T RetVal/Mat= T F Init=T NMatP=  1 IDeriv=0 Min/MaxMlt=  0  4
 Nuclear    moments (au):
        716.00000000          0.00000000          0.00000000          0.00000000
      49601.60246176      41645.13088698      10245.01673936          0.00000000
         -0.00000000         -0.00000000     146142.29821528     139372.78323952
      13006.57406350     -84730.22210999     -90289.17049273     -42761.20213230
      19408.39469281      -3007.78532102       6106.29833847      19381.22555260
    7127178.02633750    8141603.35983686     430055.45975105    -124057.70163732
    -360437.63371870     981970.15940178      -1974.27533546      74887.37483349
     -33055.45675532    1859123.88963571     617937.90404867     275427.74569307
     105695.94674943       5051.16190141     -57316.93637226
 Total      moments (au):
          0.00000000          8.62304329         12.36261072         -3.87971937
       -550.81977428        -62.29344097       -376.68364557         10.86142585
         -7.09947705         22.11861279        700.69613295       9168.57548608
       -166.18731290       1560.42386909       -880.80338994       -531.29030677
        184.75678884        -16.46156396       -236.49934490       -197.43512671
    -198117.99460413      43065.03632456     -34181.84404741      -6435.80056629
      -3708.13134448      17257.93527696       1380.58184205        131.58841365
       1157.96447363     -55284.43401252     -33698.28712664     -28707.16213169
       3694.32240908       -175.93089500       -168.06267051
 Traceless Quadrup. (au):
       -220.88748734        267.63884597        -46.75135863         10.86142585
         -7.09947705         22.11861279
 Charge=              0.0000 electrons
 Dipole moment (field-independent basis, Debye):
    X=             21.9176    Y=             31.4226    Z=             -9.8613  Tot=             39.5602
 Quadrupole moment (field-independent basis, Debye-Ang):
   XX=           -740.8715   YY=            -83.7868   ZZ=           -506.6524
   XY=             14.6090   XZ=             -9.5490   YZ=             29.7503
 Traceless Quadrupole moment (field-independent basis, Debye-Ang):
   XX=           -297.1012   YY=            359.9834   ZZ=            -62.8822
   XY=             14.6090   XZ=             -9.5490   YZ=             29.7503
 Octapole moment (field-independent basis, Debye-Ang**2):
  XXX=            498.7285  YYY=           6525.8388  ZZZ=           -118.2857  XYY=           1110.6496
  XXY=           -626.9219  XXZ=           -378.1520  XZZ=            131.5028  YZZ=            -11.7167
  YYZ=           -168.3311  XYZ=           -140.5267
 Hexadecapole moment (field-independent basis, Debye-Ang**3):
 XXXX=         -74620.7368 YYYY=          16220.3577 ZZZZ=         -12874.5215 XXXY=          -2424.0311
 XXXZ=          -1396.6601 YYYX=           6500.1660 YYYZ=            519.9933 ZZZX=             49.5625
 ZZZY=            436.1449 XXYY=         -20822.7688 XXZZ=         -12692.3908 YYZZ=         -10812.4938
 XXYZ=           1391.4590 YYXZ=            -66.2640 ZZXY=            -63.3005
 N-N= 2.128202283936D+04 E-N=-5.505450053736D+04  KE= 5.290465126263D+03
 Leave Link  601 at Sun Sep 15 00:51:36 2019, MaxMem=  1342177280 cpu:              46.0 elap:               1.2
 FitSet:  NAtFit=   176 NAtPot=   176 NAtFrz=     0 MDM=   180 TotChg=   0.00000
 Merz-Kollman atomic radii used.
 Read replacement radii for each type of atom:
 Rad(20) =   1.700000000000D+00
 Atom Element Radius
    1     6    1.50
    2     6    1.50
    3     8    1.40
    4     1    1.20
    5     1    1.20
    6     1    1.20
    7     7    1.50
    8     6    1.50
    9     6    1.50
   10     8    1.40
   11     6    1.50
   12     6    1.50
   13     8    1.40
   14     8    1.40
   15     1    1.20
   16     1    1.20
   17     1    1.20
   18     1    1.20
   19     7    1.50
   20     6    1.50
   21     6    1.50
   22     8    1.40
   23     6    1.50
   24     6    1.50
   25     6    1.50
   26     6    1.50
   27     7    1.50
   28     1    1.20
   29     1    1.20
   30     1    1.20
   31     1    1.20
   32     1    1.20
   33     1    1.20
   34     1    1.20
   35     1    1.20
   36     1    1.20
   37     1    1.20
   38     1    1.20
   39     1    1.20
   40     1    1.20
   41     7    1.50
   42     6    1.50
   43     6    1.50
   44     8    1.40
   45     6    1.50
   46     6    1.50
   47     8    1.40
   48     8    1.40
   49     1    1.20
   50     1    1.20
   51     1    1.20
   52     1    1.20
   53     7    1.50
   54     6    1.50
   55     6    1.50
   56     8    1.40
   57     1    1.20
   58     1    1.20
   59     1    1.20
   60     7    1.50
   61     6    1.50
   62     6    1.50
   63     8    1.40
   64     6    1.50
   65     6    1.50
   66     7    1.50
   67     8    1.40
   68     1    1.20
   69     1    1.20
   70     1    1.20
   71     1    1.20
   72     1    1.20
   73     1    1.20
   74     7    1.50
   75     6    1.50
   76     6    1.50
   77     8    1.40
   78     1    1.20
   79     1    1.20
   80     1    1.20
   81     7    1.50
   82     6    1.50
   83     6    1.50
   84     8    1.40
   85     6    1.50
   86     6    1.50
   87     6    1.50
   88     6    1.50
   89     6    1.50
   90     6    1.50
   91     6    1.50
   92     8    1.40
   93     1    1.20
   94     1    1.20
   95     1    1.20
   96     1    1.20
   97     1    1.20
   98     1    1.20
   99     1    1.20
  100     1    1.20
  101     1    1.20
  102     7    1.50
  103     6    1.50
  104     6    1.50
  105     8    1.40
  106     6    1.50
  107     6    1.50
  108     6    1.50
  109     6    1.50
  110     1    1.20
  111     1    1.20
  112     1    1.20
  113     1    1.20
  114     1    1.20
  115     1    1.20
  116     1    1.20
  117     1    1.20
  118     1    1.20
  119     1    1.20
  120     1    1.20
  121     7    1.50
  122     6    1.50
  123     6    1.50
  124     8    1.40
  125     6    1.50
  126     8    1.40
  127     1    1.20
  128     1    1.20
  129     1    1.20
  130     1    1.20
  131     1    1.20
  132     7    1.50
  133     6    1.50
  134     6    1.50
  135     8    1.40
  136     6    1.50
  137     1    1.20
  138     1    1.20
  139     1    1.20
  140     1    1.20
  141     1    1.20
  142     7    1.50
  143     6    1.50
  144     6    1.50
  145     8    1.40
  146     6    1.50
  147     1    1.20
  148     1    1.20
  149     1    1.20
  150     1    1.20
  151     1    1.20
  152     7    1.50
  153     6    1.50
  154     6    1.50
  155     8    1.40
  156     6    1.50
  157     6    1.50
  158     6    1.50
  159     8    1.40
  160     8    1.40
  161     1    1.20
  162     1    1.20
  163     1    1.20
  164     1    1.20
  165     1    1.20
  166     1    1.20
  167     7    1.50
  168     6    1.50
  169     1    1.20
  170     1    1.20
  171     1    1.20
  172     1    1.20
  173    20    1.70
  174     8    1.40
[...]
 **** Fit       0.001952
 **** Fit       0.003263
 **** Fit      -0.000029
 **** Fit       0.002132
 **** Fit       0.004592
 **** Fit      -0.024338
 **** Fit      -0.008686
 **** Fit      -0.009989
 **** Fit      -0.011352
 **** Fit      -0.006910
 **** Fit      -0.007233
 **** Fit      -0.007885
 **** Fit      -0.008819
 **** Fit      -0.010178
 **** Fit      -0.011580
 **** Fit      -0.013182
 **** Fit      -0.006343
 **** Fit      -0.006094
 **** Fit      -0.006116
 **** Fit      -0.006452
 **** Fit      -0.007077
 **** Fit      -0.007932
 **** Fit      -0.008968
 **** Fit      -0.010430
 **** Fit      -0.011748
 **** Fit      -0.013286
 **** Fit      -0.015074
 **** Fit      -0.017083
 **** Fit      -0.006157
 **** Fit      -0.005646
 **** Fit      -0.005301
 **** Fit      -0.005170
 **** Fit      -0.005749
 **** Fit      -0.006429
 **** Fit      -0.007277
 **** Fit      -0.008232
 **** Fit      -0.009275
 **** Fit      -0.010785
 **** Fit      -0.012064
 **** Fit      -0.013584
 **** Fit      -0.015433
 **** Fit      -0.017652
 **** Fit      -0.020209
 **** Fit      -0.022983
 **** Fit      -0.005826
 **** Fit      -0.005168
 **** Fit      -0.004674
 **** Fit      -0.006541
 **** Fit      -0.007557
 **** Fit      -0.008594
 **** Fit      -0.009655
 **** Fit      -0.011275
 **** Fit      -0.012450
 **** Fit      -0.023984
 **** Fit      -0.027627
 **** Fit      -0.031441
 **** Fit      -0.004068
 **** Fit      -0.007017
 **** Fit      -0.008138
 **** Fit      -0.009199
 **** Fit      -0.010224
 **** Fit      -0.034325
 **** Fit      -0.039726
 **** Fit      -0.008969
 **** Fit      -0.010026
 **** Fit      -0.010989
 **** Fit      -0.010185
 **** Fit      -0.011176
 **** Fit      -0.012025
 **** Fit      -0.011782
 **** Fit      -0.012677
 **** Fit      -0.013830
 **** Fit      -0.014624
 **** Fit      -0.016661
 **** Fit      -0.019988
 **** Fit      -0.020555
 **** Fit      -0.026010
 **** Fit      -0.025953
 **** Fit      -0.025646
 **** Fit      -0.012912
 **** Fit      -0.014333
 **** Fit      -0.016142
 **** Fit      -0.018446
 **** Fit      -0.021285
 **** Fit      -0.013236
 **** Fit      -0.014509
 **** Fit      -0.016163
 **** Fit      -0.018324
 **** Fit      -0.021107
 **** Fit      -0.024601
 **** Fit      -0.028819
 **** Fit      -0.012209
 **** Fit      -0.013825
 **** Fit      -0.014949
 **** Fit      -0.016435
 **** Fit      -0.018399
 **** Fit      -0.020965
 **** Fit      -0.024278
 **** Fit      -0.028499
 **** Fit      -0.033777
 **** Fit      -0.012181
 **** Fit      -0.012946
 **** Fit      -0.014741
 **** Fit      -0.015796
 **** Fit      -0.017242
 **** Fit      -0.019194
 **** Fit      -0.021791
 **** Fit      -0.025207
 **** Fit      -0.029679
 **** Fit      -0.035523
 **** Fit      -0.013333
 **** Fit      -0.013961
 **** Fit      -0.016057
 **** Fit      -0.017033
 **** Fit      -0.018421
 **** Fit      -0.020331
 **** Fit      -0.022896
 **** Fit      -0.026295
 **** Fit      -0.030786
 **** Fit      -0.036758
 **** Fit      -0.014519
 **** Fit      -0.014922
 **** Fit      -0.015390
 **** Fit      -0.017864
 **** Fit      -0.018779
 **** Fit      -0.020157
 **** Fit      -0.022099
 **** Fit      -0.024736
 **** Fit      -0.028251
 **** Fit      -0.032916
 **** Fit      -0.039171
 **** Fit      -0.016902
 **** Fit      -0.017036
 **** Fit      -0.017316
 **** Fit      -0.020272
 **** Fit      -0.021168
 **** Fit      -0.022644
 **** Fit      -0.024807
 **** Fit      -0.027802
 **** Fit      -0.031839
 **** Fit      -0.037256
 **** Fit      -0.044624
 **** Fit      -0.020122
 **** Fit      -0.019854
 **** Fit      -0.019865
 **** Fit      -0.023413
 **** Fit      -0.024290
 **** Fit      -0.025940
 **** Fit      -0.028473
 **** Fit      -0.032046
 **** Fit      -0.036909
 **** Fit      -0.043477
 **** Fit      -0.024623
 **** Fit      -0.023663
 **** Fit      -0.023229
 **** Fit      -0.027440
 **** Fit      -0.028248
 **** Fit      -0.030083
 **** Fit      -0.033031
 **** Fit      -0.037238
 **** Fit      -0.042940
 **** Fit      -0.050531
 **** Fit      -0.030840
 **** Fit      -0.028753
 **** Fit      -0.027614
 **** Fit      -0.032505
 **** Fit      -0.033271
 **** Fit      -0.035583
 **** Fit      -0.039481
 **** Fit      -0.045070
 **** Fit      -0.052498
 **** Fit      -0.033321
 **** Fit      -0.038696
 **** Fit      -0.039357
 **** Fit      -0.042297
 **** Fit      -0.047387
 **** Fit      -0.046464
 **** Fit      -0.010019
 **** Fit      -0.010133
 **** Fit      -0.011271
 **** Fit      -0.011249
 **** Fit      -0.010043
 **** Fit      -0.009058
 **** Fit      -0.009112
 **** Fit      -0.010367
 **** Fit      -0.011720
 **** Fit      -0.012883
 **** Fit      -0.013388
 **** Fit      -0.012935
 **** Fit      -0.011693
 **** Fit      -0.010221
 **** Fit      -0.009033
 **** Fit      -0.008329
 **** Fit      -0.008125
 **** Fit      -0.008419
 **** Fit      -0.009195
 **** Fit      -0.010698
 **** Fit      -0.012129
 **** Fit      -0.013612
 **** Fit      -0.014930
 **** Fit      -0.015798
 **** Fit      -0.015941
 **** Fit      -0.015251
 **** Fit      -0.013882
 **** Fit      -0.012193
 **** Fit      -0.010570
 **** Fit      -0.009270
 **** Fit      -0.008352
 **** Fit      -0.007772
 **** Fit      -0.007495
 **** Fit      -0.007513
 **** Fit      -0.007841
 **** Fit      -0.008492
 **** Fit      -0.009458
 **** Fit      -0.012671
 **** Fit      -0.014390
 **** Fit      -0.016146
 **** Fit      -0.017757
 **** Fit      -0.018965
 **** Fit      -0.019491
 **** Fit      -0.019145
 **** Fit      -0.017943
 **** Fit      -0.016119
 **** Fit      -0.014028
 **** Fit      -0.012014
 **** Fit      -0.010324
 **** Fit      -0.009050
 **** Fit      -0.008134
 **** Fit      -0.007486
 **** Fit      -0.007073
 **** Fit      -0.006884
 **** Fit      -0.006920
 **** Fit      -0.017449
 **** Fit      -0.019665
 **** Fit      -0.021735
 **** Fit      -0.023368
 **** Fit      -0.024229
 **** Fit      -0.024054
 **** Fit      -0.022798
 **** Fit      -0.020682
 **** Fit      -0.018093
 **** Fit      -0.015422
 **** Fit      -0.012987
 **** Fit      -0.010994
 **** Fit      -0.009495
 **** Fit      -0.008386
 **** Fit      -0.007532
 **** Fit      -0.006901
 **** Fit      -0.006490
 **** Fit      -0.024277
 **** Fit      -0.027025
 **** Fit      -0.029309
 **** Fit      -0.030706
 **** Fit      -0.030841
 **** Fit      -0.029574
 **** Fit      -0.027112
 **** Fit      -0.023923
 **** Fit      -0.020500
 **** Fit      -0.017219
 **** Fit      -0.014350
 **** Fit      -0.012041
 **** Fit      -0.010290
 **** Fit      -0.008936
 **** Fit      -0.007791
 **** Fit      -0.006868
 **** Fit      -0.035632
 **** Fit      -0.038716
 **** Fit      -0.033442
 **** Fit      -0.028760
 **** Fit      -0.024103
 **** Fit      -0.019883
 **** Fit      -0.016342
 **** Fit      -0.013577
 **** Fit      -0.011496
 **** Fit      -0.028505
 **** Fit      -0.023215
 **** Fit      -0.018990
 **** Fit      -0.015799
 **** Fit      -0.005178
 **** Fit      -0.004635
 **** Fit      -0.004314
 **** Fit      -0.004373
 **** Fit      -0.004785
 **** Fit      -0.005484
 **** Fit      -0.003961
 **** Fit      -0.003583
 **** Fit      -0.003496
 **** Fit      -0.003699
 **** Fit      -0.004181
 **** Fit      -0.004899
 **** Fit      -0.005787
 **** Fit      -0.003442
 **** Fit      -0.003017
 **** Fit      -0.002813
 **** Fit      -0.002833
 **** Fit      -0.003103
 **** Fit      -0.003627
 **** Fit      -0.004379
 **** Fit      -0.005304
 **** Fit      -0.006333
 **** Fit      -0.002523
 **** Fit      -0.002317
 **** Fit      -0.002231
 **** Fit      -0.002332
 **** Fit      -0.002669
 **** Fit      -0.003249
 **** Fit      -0.004049
 **** Fit      -0.005022
 **** Fit      -0.006106
 **** Fit      -0.007239
 **** Fit      -0.001998
 **** Fit      -0.001862
 **** Fit      -0.001903
 **** Fit      -0.002199
 **** Fit      -0.002777
 **** Fit      -0.003618
 **** Fit      -0.004671
 **** Fit      -0.005870
 **** Fit      -0.007143
 **** Fit      -0.008425
 **** Fit      -0.001775
 **** Fit      -0.001696
 **** Fit      -0.001921
 **** Fit      -0.002487
 **** Fit      -0.003375
 **** Fit      -0.004526
 **** Fit      -0.005861
 **** Fit      -0.007293
 **** Fit      -0.008746
 **** Fit      -0.010155
 **** Fit      -0.002219
 **** Fit      -0.001827
 **** Fit      -0.001822
 **** Fit      -0.002263
 **** Fit      -0.003147
 **** Fit      -0.004407
 **** Fit      -0.005934
 **** Fit      -0.007608
 **** Fit      -0.009320
 **** Fit      -0.010985
 **** Fit      -0.012538
 **** Fit      -0.003004
 **** Fit      -0.002350
 **** Fit      -0.002214
 **** Fit      -0.002733
 **** Fit      -0.003915
 **** Fit      -0.005631
 **** Fit      -0.007683
 **** Fit      -0.009866
 **** Fit      -0.012014
 **** Fit      -0.014011
 **** Fit      -0.015789
 **** Fit      -0.003694
 **** Fit      -0.003214
 **** Fit      -0.003580
 **** Fit      -0.005006
 **** Fit      -0.007340
 **** Fit      -0.010198
 **** Fit      -0.013183
 **** Fit      -0.015994
 **** Fit      -0.018455
 **** Fit      -0.020494
 **** Fit       0.025555
 **** Fit       0.027739
 **** Fit       0.029866
 **** Fit       0.030599
 **** Fit       0.026435
 **** Fit       0.033444
 **** Fit       0.030747
 **** Fit       0.026385
 **** Fit       0.019978
 **** Fit       0.033369
 **** Fit       0.031881
 **** Fit       0.020745
 **** Fit       0.013230
 **** Fit       0.004640
 **** Fit      -0.002623
 **** Fit       0.008211
 **** Fit       0.003358
 **** Fit       0.000752
 **** Fit       0.001072
 **** Fit       0.004070
 **** Fit       0.009522
 **** Fit       0.009231
 **** Fit       0.008458
 **** Fit       0.010087
 **** Fit       0.014841
 **** Fit       0.015187
 **** Fit      -0.013320
 **** Fit      -0.002230
 **** Fit      -0.004591
 **** Fit      -0.008986
 **** Fit       0.004862
 **** Fit       0.005005
 **** Fit       0.004002
 **** Fit       0.001535
 **** Fit      -0.002811
 **** Fit       0.008305
 **** Fit       0.009716
 **** Fit       0.010409
 **** Fit       0.010235
 **** Fit       0.008987
 **** Fit       0.006439
 **** Fit       0.002441
 **** Fit       0.004552
 **** Fit       0.007816
 **** Fit       0.010307
 **** Fit       0.012248
 **** Fit       0.013683
 **** Fit       0.014546
 **** Fit       0.014708
 **** Fit       0.014009
 **** Fit       0.012305
 **** Fit       0.009532
 **** Fit       0.005821
 **** Fit       0.000111
 **** Fit       0.008384
 **** Fit       0.011503
 **** Fit       0.013876
 **** Fit       0.015705
 **** Fit       0.017044
 **** Fit       0.017832
 **** Fit       0.017950
 **** Fit       0.017266
 **** Fit       0.015686
 **** Fit       0.013227
 **** Fit       0.010089
 **** Fit      -0.001123
 **** Fit       0.004225
 **** Fit       0.011816
 **** Fit       0.014681
 **** Fit       0.016883
 **** Fit       0.018553
 **** Fit       0.019713
 **** Fit       0.020298
 **** Fit       0.020196
 **** Fit       0.019307
 **** Fit       0.017599
 **** Fit       0.015159
 **** Fit      -0.001028
 **** Fit       0.003673
 **** Fit       0.008133
 **** Fit       0.014853
 **** Fit       0.017326
 **** Fit       0.019262
 **** Fit       0.020699
 **** Fit       0.021621
 **** Fit       0.021955
 **** Fit       0.021612
 **** Fit       0.020535
 **** Fit       0.018743
 **** Fit       0.016342
 **** Fit       0.013475
 **** Fit       0.005336
 **** Fit       0.008466
 **** Fit       0.011835
 **** Fit       0.017491
 **** Fit       0.019610
 **** Fit       0.021265
 **** Fit       0.022399
 **** Fit       0.022941
 **** Fit       0.022805
 **** Fit       0.021933
 **** Fit       0.020341
 **** Fit       0.018145
 **** Fit       0.015525
 **** Fit       0.012726
 **** Fit       0.010882
 **** Fit       0.012594
 **** Fit       0.015033
 **** Fit       0.019717
 **** Fit       0.021400
 **** Fit       0.022685
 **** Fit       0.023422
 **** Fit       0.023500
 **** Fit       0.022857
 **** Fit       0.021524
 **** Fit       0.019666
 **** Fit       0.017601
 **** Fit       0.015872
 **** Fit       0.016065
 **** Fit       0.016431
 **** Fit       0.017896
 **** Fit       0.021532
 **** Fit       0.022770
 **** Fit       0.023614
 **** Fit       0.023815
 **** Fit       0.023277
 **** Fit       0.022103
 **** Fit       0.020662
 **** Fit       0.019652
 **** Fit       0.020914
 **** Fit       0.019878
 **** Fit       0.020339
 **** Fit       0.022942
 **** Fit       0.023709
 **** Fit       0.023953
 **** Fit       0.023428
 **** Fit       0.022573
 **** Fit       0.022500
 **** Fit       0.023250
 **** Fit       0.022450
 **** Fit       0.023958
 **** Fit       0.024129
 **** Fit       0.023914
 **** Fit       0.024722
 **** Fit       0.025582
 **** Fit       0.024403
 **** Fit       0.024570
 **** Fit       0.030573
 **** Fit       0.024873
 **** Fit       0.028576
 **** Fit       0.027052
 **** Fit       0.023168
 **** Fit       0.017360
 **** Fit       0.022168
 **** Fit       0.024867
 **** Fit       0.025029
 **** Fit       0.023010
 **** Fit       0.019231
 **** Fit       0.014116
 **** Fit       0.005010
 **** Fit       0.012590
 **** Fit       0.018168
 **** Fit       0.021644
 **** Fit       0.023038
 **** Fit       0.022536
 **** Fit       0.020465
 **** Fit       0.017243
 **** Fit       0.013455
 **** Fit       0.010022
 **** Fit       0.010886
 **** Fit       0.003788
 **** Fit      -0.002742
 **** Fit      -0.002796
 **** Fit       0.004004
 **** Fit       0.010661
 **** Fit       0.016055
 **** Fit       0.019683
 **** Fit       0.021436
 **** Fit       0.021461
 **** Fit       0.020096
 **** Fit       0.017851
 **** Fit       0.015459
 **** Fit       0.013886
 **** Fit       0.018721
 **** Fit       0.012695
 **** Fit       0.007160
 **** Fit       0.002853
 **** Fit       0.000763
 **** Fit       0.001592
 **** Fit       0.005034
 **** Fit       0.009829
 **** Fit       0.014535
 **** Fit       0.018145
 **** Fit       0.020217
 **** Fit       0.020757
 **** Fit       0.020093
 **** Fit       0.018813
 **** Fit       0.017727
 **** Fit       0.017715
 **** Fit       0.019384
 **** Fit       0.023049
 **** Fit       0.022377
 **** Fit       0.017699
 **** Fit       0.013044
 **** Fit       0.009538
 **** Fit       0.008186
 **** Fit       0.009388
 **** Fit       0.012448
 **** Fit       0.015964
 **** Fit       0.018708
 **** Fit       0.020125
 **** Fit       0.020329
 **** Fit       0.019940
 **** Fit       0.019855
 **** Fit       0.020851
 **** Fit       0.022670
 **** Fit       0.023854
 **** Fit       0.023070
 **** Fit       0.019991
 **** Fit       0.016211
 **** Fit       0.013812
 **** Fit       0.014040
 **** Fit       0.016303
 **** Fit       0.018754
 **** Fit       0.020138
 **** Fit       0.020627
 **** Fit       0.021273
 **** Fit       0.021640
 **** Fit       0.021191
 **** Fit       0.018483
 **** Fit       0.017462
 **** Fit       0.019152
 **** Fit       0.020636
 **** Fit       0.019936
 -----------------------------------------------------------------
 Leave Link  602 at Sun Sep 15 00:51:39 2019, MaxMem=  1342177280 cpu:             117.8 elap:               2.5

 Test job not archived.
 1\1\GINC-C506-124\SP\RB3LYP\SVP\C54H83Ca1N15O23\PENGZHI\15-Sep-2019\0\
 \#b3lyp/svp scf=(tight,noincore) Test #IOP(5/87=12) Density=Current Po
 p=(MK,readradii) iop(6/33=2) iop(6/42=6)\\CaMKII_loop3_79.0\\0,1\C,0,7
 1.23,44.12,20.93\C,0,69.9,43.4,21.12\O,0,69.88,42.19,20.94\H,0,71.99,4
 3.403,20.619\H,0,71.122,44.888,20.164\H,0,71.531,44.583,21.87\N,0,68.8
 8,44.16,21.53\C,0,67.63,43.65,22.06\C,0,66.68,43.33,20.92\O,0,65.74,44
 .09,20.68\C,0,67.04,44.68,23.02\C,0,65.74,44.19,23.64\O,0,65.62,42.97,
 23.88\O,0,64.83,45.,23.94\H,0,69.04,45.16,21.61\H,0,67.82,42.77,22.66\
 H,0,66.86,45.65,22.57\H,0,67.81,44.8,23.79\N,0,66.87,42.3,20.09\C,0,66
 .21,42.,18.84\C,0,64.75,41.61,19.05\O,0,63.95,41.86,18.15\C,0,66.97,40
 .87,18.16\C,0,66.51,40.85,16.7\C,0,67.16,39.78,15.82\C,0,66.91,40.18,1
 4.37\N,0,67.56,39.3,13.39\H,0,67.42,41.61,20.59\H,0,66.24,42.87,18.19\
 H,0,66.73,39.94,18.68\H,0,68.05,41.03,18.16\H,0,66.8,41.79,16.23\H,0,6
 5.43,40.75,16.67\H,0,66.71,38.83,16.13\H,0,68.23,39.83,15.98\H,0,67.26
 ,41.21,14.26\H,0,65.83,40.16,14.2\H,0,67.13,38.39,13.42\H,0,67.45,39.6
 4,12.44\H,0,68.55,39.34,13.58\N,0,64.48,40.96,20.18\C,0,63.16,40.65,20
 .7\C,0,62.28,41.78,21.22\O,0,61.08,41.72,21.47\C,0,63.2,39.59,21.79\C,
 0,64.05,40.,22.98\O,0,65.2,40.43,22.73\O,0,63.64,39.92,24.16\H,0,65.22
 ,40.92,20.86\H,0,62.67,40.24,19.81\H,0,63.52,38.61,21.45\H,0,62.16,39.
 49,22.1\N,0,62.9,42.96,21.36\C,0,62.34,44.19,21.87\C,0,61.93,44.23,23.
 34\O,0,61.25,45.21,23.63\H,0,63.88,42.93,21.1\H,0,61.49,44.58,21.32\H,
 0,63.05,45.,21.68\N,0,62.26,43.27,24.21\C,0,61.65,43.27,25.52\C,0,62.0
 3,44.37,26.5\O,0,61.43,44.41,27.57\C,0,61.81,41.86,26.09\C,0,63.09,41.
 62,26.88\N,0,63.04,40.86,27.97\O,0,64.2,42.05,26.56\H,0,62.98,42.61,23
 .94\H,0,60.59,43.44,25.35\H,0,61.62,41.11,25.32\H,0,61.02,41.8,26.84\H
 ,0,62.22,40.36,28.3\H,0,63.89,40.87,28.52\N,0,63.02,45.22,26.2\C,0,63.
 62,46.2,27.07\C,0,64.82,45.85,27.94\O,0,65.18,46.71,28.74\H,0,63.48,45
 .15,25.3\H,0,62.8,46.52,27.72\H,0,63.81,47.15,26.57\N,0,65.39,44.66,27
 .73\C,0,66.62,44.26,28.4\C,0,67.62,43.51,27.54\O,0,67.32,42.75,26.62\C
 ,0,66.34,43.41,29.64\C,0,65.44,43.98,30.71\C,0,65.95,44.56,31.87\C,0,6
 4.05,43.84,30.53\C,0,65.01,44.96,32.82\C,0,63.11,44.36,31.43\C,0,63.61
 ,44.88,32.64\O,0,62.72,45.46,33.5\H,0,64.93,44.06,27.07\H,0,67.18,45.0
 7,28.87\H,0,67.33,43.3,30.07\H,0,66.07,42.4,29.34\H,0,67.02,44.65,31.9
 9\H,0,63.7,43.3,29.66\H,0,65.44,45.47,33.67\H,0,62.06,44.18,31.28\H,0,
 61.86,45.33,33.09\N,0,68.88,43.63,27.95\C,0,70.,42.81,27.53\C,0,70.02,
 41.67,28.54\O,0,69.99,41.85,29.75\C,0,71.36,43.48,27.35\C,0,71.17,44.8
 8,26.76\C,0,72.29,42.7,26.42\C,0,72.37,45.72,26.36\H,0,69.18,44.37,28.
 56\H,0,69.71,42.43,26.55\H,0,71.82,43.49,28.34\H,0,70.5,45.5,27.35\H,0
 ,70.66,44.74,25.8\H,0,72.39,41.63,26.62\H,0,71.94,42.81,25.39\H,0,73.2
 7,43.16,26.47\H,0,73.12,45.64,27.15\H,0,72.78,45.35,25.42\H,0,72.23,46
 .77,26.13\N,0,70.07,40.43,28.03\C,0,70.5,39.2,28.67\C,0,71.82,38.72,28
 .1\O,0,72.14,39.19,27.01\C,0,69.41,38.13,28.68\O,0,69.2,37.77,27.34\H,
 0,70.08,40.36,27.03\H,0,70.71,39.43,29.72\H,0,68.46,38.56,29.\H,0,69.6
 8,37.33,29.37\H,0,68.86,38.53,26.87\N,0,72.64,37.89,28.75\C,0,74.01,37
 .65,28.34\C,0,74.21,37.15,26.91\O,0,75.09,37.67,26.23\C,0,74.69,36.74,
 29.35\H,0,72.37,37.53,29.65\H,0,74.56,38.59,28.4\H,0,74.45,35.7,29.12\
 H,0,75.76,36.93,29.29\H,0,74.31,36.96,30.35\N,0,73.34,36.26,26.43\C,0,
 73.45,35.72,25.09\C,0,73.38,36.79,24.01\O,0,73.76,36.6,22.85\C,0,72.37
 ,34.65,24.94\H,0,72.5,36.,26.93\H,0,74.4,35.2,25.01\H,0,71.46,35.2,24.
 69\H,0,72.7,33.96,24.16\H,0,72.38,34.03,25.84\N,0,72.8,37.96,24.28\C,0
 ,72.44,38.94,23.27\C,0,73.7,39.78,23.08\O,0,74.1,40.09,21.96\C,0,71.3,
 39.84,23.72\C,0,69.96,39.12,23.84\C,0,68.85,39.98,24.43\O,0,68.66,39.9
 ,25.67\O,0,68.21,40.85,23.81\H,0,72.56,38.17,25.24\H,0,72.21,38.46,22.
 32\H,0,71.15,40.6,22.95\H,0,71.52,40.36,24.66\H,0,70.07,38.21,24.43\H,
 0,69.7,38.86,22.82\N,0,74.47,40.13,24.11\C,0,75.78,40.73,24.13\H,0,76.
 48,40.092,23.591\H,0,75.739,41.709,23.652\H,0,76.113,40.843,25.162\H,0
 ,74.06,39.89,25.01\Ca,0,66.14,40.91,25.2\O,0,66.04,38.3,24.58\H,0,66.2
 4,37.55,24.01\H,0,65.28,38.02,25.09\\Version=ES64L-G16RevA.03\State=1-
 A\HF=-5333.5810933\RMSD=2.953e-09\Dipole=4.7325382,-9.1640406,-11.6561
 865\Quadrupole=-190.0384809,-76.1203206,266.1588015,67.5779044,13.0195
 553,29.1610769\PG=C01 [X(C54H83Ca1N15O23)]\\@


 KNOWING HOW CONTENTED, FREE, AND JOYFUL IS LIFE IN
 THE REALMS OF SCIENCE, ONE FERVENTLY WISHES THAT
 MANY WOULD ENTER HER PORTALS.
   --  DMITRI IVANOVICH MENDELEEV
 "FIRST PRINCIPLES OF CHEMISTRY", LONGMANS, GREEN,
 AND CO.  LONDON, 1891
 Job cpu time:       0 days  8 hours  1 minutes 37.3 seconds.
 Elapsed time:       0 days  0 hours 10 minutes  9.2 seconds.
 File lengths (MBytes):  RWF=   1517 Int=      0 D2E=      0 Chk=    171 Scr=      1
 Normal termination of Gaussian 16 at Sun Sep 15 00:51:41 2019.
