 Entering Gaussian System, Link 0=g16
 Initial command:
 /home1/apps/gaussian/16rA.03/g16/l1.exe "/scratch/01990/pengzhi/4328823/Gau-7609.inp" -scrdir="/scratch/01990/pengzhi/4328823/"
 Entering Link 1 = /home1/apps/gaussian/16rA.03/g16/l1.exe PID=      7610.
  
 Copyright (c) 1988,1990,1992,1993,1995,1998,2003,2009,2016,
            Gaussian, Inc.  All Rights Reserved.
  
 This is part of the Gaussian(R) 16 program.  It is based on
 the Gaussian(R) 09 system (copyright 2009, Gaussian, Inc.),
 the Gaussian(R) 03 system (copyright 2003, Gaussian, Inc.),
 the Gaussian(R) 98 system (copyright 1998, Gaussian, Inc.),
 the Gaussian(R) 94 system (copyright 1995, Gaussian, Inc.),
 the Gaussian 92(TM) system (copyright 1992, Gaussian, Inc.),
 the Gaussian 90(TM) system (copyright 1990, Gaussian, Inc.),
 the Gaussian 88(TM) system (copyright 1988, Gaussian, Inc.),
 the Gaussian 86(TM) system (copyright 1986, Carnegie Mellon
 University), and the Gaussian 82(TM) system (copyright 1983,
 Carnegie Mellon University). Gaussian is a federally registered
 trademark of Gaussian, Inc.
  
 This software contains proprietary and confidential information,
 including trade secrets, belonging to Gaussian, Inc.
  
 This software is provided under written license and may be
 used, copied, transmitted, or stored only in accord with that
 written license.
  
 The following legend is applicable only to US Government
 contracts under FAR:
  
                    RESTRICTED RIGHTS LEGEND
  
 Use, reproduction and disclosure by the US Government is
 subject to restrictions as set forth in subparagraphs (a)
 and (c) of the Commercial Computer Software - Restricted
 Rights clause in FAR 52.227-19.
  
 Gaussian, Inc.
 340 Quinnipiac St., Bldg. 40, Wallingford CT 06492
  
  
 ---------------------------------------------------------------
 Warning -- This program may not be used in any manner that
 competes with the business of Gaussian, Inc. or will provide
 assistance to any competitor of Gaussian, Inc.  The licensee
 of this program is prohibited from giving any competitor of
 Gaussian, Inc. access to this program.  By using this program,
 the user acknowledges that Gaussian, Inc. is engaged in the
 business of creating and licensing software in the field of
 computational chemistry and represents and warrants to the
 licensee that it is not a competitor of Gaussian, Inc. and that
 it will not use this program in any manner prohibited above.
 ---------------------------------------------------------------
  

 Cite this work as:
 Gaussian 16, Revision A.03,
 M. J. Frisch, G. W. Trucks, H. B. Schlegel, G. E. Scuseria, 
 M. A. Robb, J. R. Cheeseman, G. Scalmani, V. Barone, 
 G. A. Petersson, H. Nakatsuji, X. Li, M. Caricato, A. V. Marenich, 
 J. Bloino, B. G. Janesko, R. Gomperts, B. Mennucci, H. P. Hratchian, 
 J. V. Ortiz, A. F. Izmaylov, J. L. Sonnenberg, D. Williams-Young, 
 F. Ding, F. Lipparini, F. Egidi, J. Goings, B. Peng, A. Petrone, 
 T. Henderson, D. Ranasinghe, V. G. Zakrzewski, J. Gao, N. Rega, 
 G. Zheng, W. Liang, M. Hada, M. Ehara, K. Toyota, R. Fukuda, 
 J. Hasegawa, M. Ishida, T. Nakajima, Y. Honda, O. Kitao, H. Nakai, 
 T. Vreven, K. Throssell, J. A. Montgomery, Jr., J. E. Peralta, 
 F. Ogliaro, M. J. Bearpark, J. J. Heyd, E. N. Brothers, K. N. Kudin, 
 V. N. Staroverov, T. A. Keith, R. Kobayashi, J. Normand, 
 K. Raghavachari, A. P. Rendell, J. C. Burant, S. S. Iyengar, 
 J. Tomasi, M. Cossi, J. M. Millam, M. Klene, C. Adamo, R. Cammi, 
 J. W. Ochterski, R. L. Martin, K. Morokuma, O. Farkas, 
 J. B. Foresman, and D. J. Fox, Gaussian, Inc., Wallingford CT, 2016.
 
 ******************************************
 Gaussian 16:  ES64L-G16RevA.03 25-Dec-2016
                14-Sep-2019 
 ******************************************
 %chk=holoCaM_loop3_84.0.chk
 %nprocshared=48
 Will use up to   48 processors via shared memory.
 %mem=10GB
 %nosave
 ----------------------------------------------------------------------
 #b3lyp/svp scf=(tight,noincore) Test #IOP(5/87=12) Density=Current Pop
 =(MK,readradii) iop(6/33=2) iop(6/42=6)
 ----------------------------------------------------------------------
 1/30=1,38=1,172=1/1;
 2/12=2,17=6,18=5,40=1/2;
 3/5=18,7=101,11=2,25=1,30=1,74=-5/1,2,3;
 4//1;
 5/5=4,32=2,38=5,87=12/2;
 6/7=2,8=2,9=2,10=2,15=8,20=101,22=-1,28=1,33=2,42=6/1,2;
 99/5=1,9=1/99;
 ------------------
 holoCaM_loop3_84.0
 ------------------
 Symbolic Z-matrix:
 Charge =  0 Multiplicity = 1
 C                     73.08     35.74     29.17 
 C                     74.46     35.29     28.73 
 O                     75.08     34.36     29.24 
 H                     72.361    34.943    28.98 
 H                     73.094    35.969    30.236 
 H                     72.792    36.63     28.611 
 N                     75.12     36.1      27.9 
 C                     76.52     35.97     27.55 
 C                     77.44     36.37     28.69 
 O                     77.94     37.49     28.77 
 C                     76.79     36.72     26.25 
 C                     78.25     36.75     25.8 
 O                     79.11     35.91     26.14 
 O                     78.39     37.5      24.81 
 H                     74.68     36.96     27.59 
 H                     76.7      34.94     27.24 
 H                     76.55     37.77     26.42 
 H                     76.16     36.26     25.49 
 N                     77.77     35.42     29.57 
 C                     78.41     35.56     30.86 
 C                     79.84     36.07     30.84 
 O                     80.25     36.69     31.82 
 C                     78.4      34.26     31.65 
 C                     76.97     33.77     31.88 
 C                     75.89     34.67     32.48 
 C                     76.24     35.23     33.85 
 N                     75.11     36.03     34.33 
 H                     77.44     34.47     29.42 
 H                     77.85     36.35     31.36 
 H                     78.89     34.53     32.59 
 H                     78.94     33.42     31.23 
 H                     76.97     32.86     32.47 
 H                     76.55     33.35     30.96 
 H                     74.93     34.16     32.52 
 H                     75.67     35.47     31.77 
 H                     77.17     35.8      33.74 
 H                     76.39     34.33     34.45 
 H                     75.21     36.09     35.34 
 H                     75.15     36.94     33.89 
 H                     74.21     35.59     34.17 
 N                     80.65     35.76     29.82 
 C                     81.94     36.35     29.53 
 C                     81.93     37.48     28.52 
 O                     82.93     38.17     28.31 
 C                     82.99     35.28     29.24 
 C                     82.66     34.4      28.05 
 O                     81.91     34.83     27.14 
 O                     83.13     33.24     27.97 
 H                     80.24     35.21     29.08 
 H                     82.32     36.8      30.44 
 H                     82.87     34.72     30.17 
 H                     84.01     35.66     29.37 
 N                     80.76     37.84     27.98 
 C                     80.53     38.93     27.06 
 C                     81.43     38.95     25.83 
 O                     81.95     40.03     25.54 
 H                     80.       37.21     28.17 
 H                     80.71     39.95     27.41 
 H                     79.48     38.81     26.78 
 N                     81.83     37.82     25.24 
 C                     82.68     37.71     24.07 
 C                     81.84     37.81     22.81 
 O                     82.38     37.93     21.71 
 C                     83.6      36.49     24.15 
 C                     82.83     35.2      23.95 
 N                     83.62     34.13     23.81 
 O                     81.62     34.98     24.07 
 H                     81.51     36.93     25.58 
 H                     83.3      38.6      24.11 
 H                     84.12     36.47     25.11 
 H                     84.43     36.51     23.44 
 H                     84.62     34.27     23.76 
 H                     83.21     33.24     23.57 
 N                     80.51     37.7      22.94 
 C                     79.6      37.99     21.85 
 C                     79.08     36.82     21.04 
 O                     78.57     36.93     19.93 
 H                     80.13     37.71     23.88 
 H                     79.94     38.77     21.16 
 H                     78.69     38.38     22.29 
 N                     79.25     35.6      21.56 
 C                     78.55     34.39     21.16 
 C                     78.15     33.52     22.34 
 O                     78.83     33.48     23.37 
 C                     79.28     33.56     20.11 
 C                     80.78     33.74     20.14 
 C                     81.57     32.92     20.95 
 C                     81.39     34.71     19.33 
 C                     82.96     33.07     20.99 
 C                     82.78     34.87     19.37 
 C                     83.58     34.05     20.19 
 O                     84.94     34.18     20.14 
 H                     79.73     35.47     22.44 
 H                     77.59     34.77     20.83 
 H                     78.93     33.92     19.14 
 H                     79.06     32.5      20.26 
 H                     81.1      32.24     21.64 
 H                     80.8      35.39     18.73 
 H                     83.61     32.39     21.52 
 H                     83.25     35.7      18.86 
 H                     85.22     34.91     19.58 
 N                     77.       32.85     22.32 
 C                     76.51     32.08     23.45 
 C                     77.06     30.66     23.39 
 O                     77.32     30.1      22.33 
 C                     74.99     32.12     23.52 
 C                     74.58     33.47     24.11 
 C                     74.35     31.01     24.34 
 C                     74.92     33.76     25.57 
 H                     76.36     32.96     21.54 
 H                     76.93     32.54     24.34 
 H                     74.53     31.97     22.55 
 H                     73.51     33.63     24.01 
 H                     75.1      34.22     23.5 
 H                     74.43     30.05     23.82 
 H                     74.79     30.98     25.34 
 H                     73.29     31.16     24.54 
 H                     74.42     34.66     25.91 
 H                     74.45     32.97     26.15 
 H                     76.       33.84     25.74 
 N                     77.32     30.07     24.55 
 C                     77.76     28.71     24.82 
 C                     76.88     27.89     25.75 
 O                     75.91     28.36     26.34 
 C                     79.17     28.95     25.36 
 O                     79.24     29.13     26.76 
 H                     77.31     30.61     25.41 
 H                     77.86     28.15     23.89 
 H                     79.66     29.79     24.88 
 H                     79.72     28.01     25.28 
 H                     80.16     29.35     26.96 
 N                     77.16     26.59     25.91 
 C                     76.26     25.66     26.56 
 C                     76.14     25.95     28.05 
 O                     75.05     25.92     28.6 
 C                     76.77     24.24     26.31 
 H                     77.98     26.23     25.44 
 H                     75.3      25.83     26.07 
 H                     76.71     24.05     25.24 
 H                     77.79     24.12     26.7 
 H                     76.12     23.54     26.83 
 N                     77.22     26.3      28.76 
 C                     77.11     26.79     30.11 
 C                     76.22     28.02     30.25 
 O                     75.45     28.12     31.21 
 C                     78.5      27.04     30.69 
 H                     78.11     26.33     28.28 
 H                     76.69     26.02     30.76 
 H                     79.01     27.89     30.23 
 H                     78.42     27.13     31.77 
 H                     79.12     26.16     30.48 
 N                     76.17     28.85     29.22 
 C                     75.31     30.01     29.16 
 C                     73.88     29.63     28.81 
 O                     72.97     30.28     29.31 
 C                     75.93     31.1      28.3 
 C                     77.38     31.45     28.62 
 C                     78.16     32.32     27.64 
 O                     79.09     33.01     28.12 
 O                     78.01     32.21     26.41 
 H                     76.69     28.69     28.36 
 H                     75.25     30.46     30.15 
 H                     75.33     32.       28.42 
 H                     75.97     30.78     27.26 
 H                     77.93     30.51     28.68 
 H                     77.5      31.98     29.57 
 N                     73.6      28.64     27.95 
 C                     72.31     28.27     27.42 
 H                     71.611    29.094    27.559 
 H                     72.403    28.049    26.357 
 H                     71.941    27.388    27.944 
 H                     74.35     28.1      27.53 
 Ca                    80.09     33.55     25.77 
 O                     81.52     31.6      26.93 
 H                     82.11     32.04     27.55 
 H                     81.66     30.67     27.09 
 
 Stoichiometry    C54H83CaN15O23
 Framework group  C1[X(C54H83CaN15O23)]
 Deg. of freedom   522
 Full point group                 C1      NOp   1
 Largest Abelian subgroup         C1      NOp   1
 Largest concise Abelian subgroup C1      NOp   1
                         Standard orientation:                         
 ---------------------------------------------------------------------
 Center     Atomic      Atomic             Coordinates (Angstroms)
 Number     Number       Type             X           Y           Z
 ---------------------------------------------------------------------
      1          6           0        2.741251    3.855114    4.635285
      2          6           0        2.077702    3.198407    3.439902
      3          8           0        2.625345    3.022820    2.354243
      4          1           0        3.573972    3.237664    4.972333
      5          1           0        3.112355    4.840110    4.350581
      6          1           0        2.016307    3.959324    5.442206
      7          7           0        0.757787    3.015544    3.510520
      8          6           0       -0.087729    2.624248    2.400840
      9          6           0       -0.285784    3.749595    1.400655
     10          8           0       -1.273133    4.481405    1.420541
     11          6           0       -1.391065    2.041445    2.936617
     12          6           0       -2.427196    1.666524    1.877907
     13          8           0       -2.155390    1.404775    0.686937
     14          8           0       -3.505015    1.332996    2.415740
     15          1           0        0.260019    3.302919    4.346547
     16          1           0        0.355467    1.747817    1.926662
     17          1           0       -1.885327    2.820377    3.517968
     18          1           0       -1.119400    1.174136    3.536679
     19          7           0        0.617559    3.862696    0.422402
     20          6           0        0.821837    4.956004   -0.502934
     21          6           0       -0.307145    5.214844   -1.484667
     22          8           0       -0.457668    6.359434   -1.909118
     23          6           0        2.100719    4.793342   -1.310524
     24          6           0        3.321266    4.713351   -0.393046
     25          6           0        3.598412    5.763140    0.682841
     26          6           0        3.716055    7.182323    0.148913
     27          7           0        4.027790    8.077319    1.266546
     28          1           0        1.362976    3.174443    0.354859
     29          1           0        0.841635    5.846765    0.124643
     30          1           0        2.123290    5.691517   -1.934521
     31          1           0        2.165558    3.936192   -1.969835
     32          1           0        4.231205    4.628686   -0.977034
     33          1           0        3.372121    3.738174    0.102578
     34          1           0        4.482860    5.508604    1.262724
     35          1           0        2.821885    5.691121    1.447249
     36          1           0        2.772298    7.418494   -0.356504
     37          1           0        4.543006    7.107979   -0.560400
     38          1           0        4.438462    8.913046    0.858369
     39          1           0        3.171241    8.280068    1.765061
     40          1           0        4.732385    7.705086    1.894391
     41          7           0       -1.046776    4.196851   -1.942091
     42          6           0       -2.289076    4.293430   -2.679426
     43          6           0       -3.552365    4.178643   -1.849954
     44          8           0       -4.665131    4.406635   -2.329507
     45          6           0       -2.280024    3.387147   -3.908275
     46          6           0       -2.102266    1.915892   -3.587012
     47          8           0       -2.441884    1.473317   -2.462606
     48          8           0       -1.613227    1.135892   -4.438681
     49          1           0       -0.823454    3.285309   -1.571389
     50          1           0       -2.343536    5.279885   -3.125454
     51          1           0       -1.371408    3.788017   -4.362828
     52          1           0       -3.024087    3.696150   -4.651637
     53          7           0       -3.432101    3.997573   -0.529784
     54          6           0       -4.504190    3.935336    0.436731
     55          6           0       -5.620561    2.948970    0.114090
     56          8           0       -6.776853    3.362277    0.228392
     57          1           0       -2.499852    3.784258   -0.219931
     58          1           0       -5.115585    4.828578    0.590400
     59          1           0       -3.994570    3.666003    1.365734
     60          7           0       -5.369059    1.784091   -0.489902
     61          6           0       -6.340512    0.767584   -0.845559
     62          6           0       -6.583589   -0.151140    0.337682
     63          8           0       -7.507498   -0.964681    0.314356
     64          6           0       -5.974594    0.067049   -2.155733
     65          6           0       -4.786222   -0.856676   -1.978239
     66          7           0       -4.561306   -1.637490   -3.040474
     67          8           0       -3.922253   -0.865323   -1.094846
     68          1           0       -4.424415    1.521011   -0.710209
     69          1           0       -7.257494    1.324918   -1.008722
     70          1           0       -5.762361    0.804130   -2.932951
     71          1           0       -6.792868   -0.504823   -2.599342
     72          1           0       -5.222476   -1.616723   -3.805015
     73          1           0       -3.858127   -2.358752   -2.984622
     74          7           0       -5.723936   -0.082048    1.364387
     75          6           0       -5.972392   -0.748643    2.627011
     76          6           0       -5.305696   -2.089811    2.855448
     77          8           0       -5.659196   -2.891515    3.713707
     78          1           0       -5.054555    0.679547    1.362871
     79          1           0       -7.028685   -0.830728    2.905590
     80          1           0       -5.522853   -0.139970    3.402403
     81          7           0       -4.313437   -2.422613    2.023363
     82          6           0       -3.317089   -3.458204    2.244592
     83          6           0       -1.922328   -3.040378    1.809433
     84          8           0       -1.748212   -2.263824    0.865215
     85          6           0       -3.677130   -4.814042    1.647622
     86          6           0       -4.596082   -4.717775    0.451980
     87          6           0       -4.064708   -4.592565   -0.834319
     88          6           0       -5.986994   -4.786300    0.624510
     89          6           0       -4.898816   -4.503882   -1.953514
     90          6           0       -6.827858   -4.691540   -0.490510
     91          6           0       -6.296896   -4.558639   -1.788669
     92          8           0       -7.146279   -4.552812   -2.859890
     93          1           0       -4.045261   -1.814896    1.261482
     94          1           0       -3.218991   -3.465595    3.324047
     95          1           0       -4.216114   -5.356631    2.427426
     96          1           0       -2.766872   -5.333713    1.337989
     97          1           0       -3.005562   -4.446510   -0.961902
     98          1           0       -6.427035   -4.834816    1.611683
     99          1           0       -4.526295   -4.512409   -2.966902
    100          1           0       -7.898269   -4.603559   -0.362524
    101          1           0       -8.071255   -4.560612   -2.596720
    102          7           0       -0.856918   -3.435094    2.502902
    103          6           0        0.494015   -2.993972    2.202415
    104          6           0        1.125372   -3.918066    1.168037
    105          8           0        0.832477   -5.106193    1.082207
    106          6           0        1.325218   -2.876675    3.472156
    107          6           0        0.930516   -1.577858    4.176418
    108          6           0        2.831955   -2.884551    3.262916
    109          6           0        1.281000   -0.251065    3.507029
    110          1           0       -0.974894   -3.971646    3.356303
    111          1           0        0.401128   -2.018301    1.733866
    112          1           0        1.190326   -3.726480    4.131426
    113          1           0        1.351885   -1.533662    5.176915
    114          1           0       -0.162967   -1.619102    4.263557
    115          1           0        3.176947   -3.882677    2.974604
    116          1           0        3.114284   -2.119825    2.534915
    117          1           0        3.404771   -2.608541    4.147111
    118          1           0        1.113937    0.578058    4.185442
    119          1           0        2.359414   -0.259174    3.371544
    120          1           0        0.727114   -0.094096    2.574145
    121          7           0        1.963537   -3.362211    0.302124
    122          6           0        2.779054   -3.985185   -0.728864
    123          6           0        4.274906   -3.723603   -0.653368
    124          8           0        4.777951   -2.945769    0.153985
    125          6           0        2.123495   -3.445407   -2.000156
    126          8           0        2.664491   -2.226441   -2.467856
    127          1           0        2.034476   -2.351151    0.238679
    128          1           0        2.637858   -5.066180   -0.725194
    129          1           0        1.050508   -3.328028   -1.895172
    130          1           0        2.420593   -4.093684   -2.827181
    131          1           0        2.117695   -1.956641   -3.218204
    132          7           0        5.081505   -4.393493   -1.486823
    133          6           0        6.522397   -4.420526   -1.343646
    134          6           0        7.137017   -3.058594   -1.636875
    135          8           0        8.022800   -2.613404   -0.923647
    136          6           0        7.080349   -5.494456   -2.278721
    137          1           0        4.645432   -5.005533   -2.163689
    138          1           0        6.682298   -4.682539   -0.296564
    139          1           0        6.705811   -6.457795   -1.937696
    140          1           0        6.804142   -5.282914   -3.320767
    141          1           0        8.165429   -5.491067   -2.204627
    142          7           0        6.670932   -2.308901   -2.643714
    143          6           0        7.074981   -0.936807   -2.813425
    144          6           0        6.796140   -0.056300   -1.600348
    145          8           0        7.625946    0.785465   -1.243483
    146          6           0        6.443513   -0.358708   -4.077565
    147          1           0        5.928490   -2.693602   -3.213087
    148          1           0        8.147832   -0.878427   -3.006775
    149          1           0        5.362947   -0.219868   -3.992127
    150          1           0        6.966429    0.555247   -4.346166
    151          1           0        6.597122   -1.075440   -4.893409
    152          7           0        5.747164   -0.368286   -0.855624
    153          6           0        5.399290    0.310185    0.372163
    154          6           0        6.255321   -0.163357    1.536107
    155          8           0        6.559245    0.650944    2.399325
    156          6           0        3.896880    0.274647    0.603687
    157          6           0        3.035272    0.705653   -0.579219
    158          6           0        1.534783    0.437228   -0.532519
    159          8           0        0.805174    1.214659   -1.191816
    160          8           0        1.074888   -0.602286   -0.027142
    161          1           0        5.143319   -1.160979   -1.062046
    162          1           0        5.623152    1.370976    0.268203
    163          1           0        3.673897    0.931599    1.442193
    164          1           0        3.571014   -0.746341    0.796025
    165          1           0        3.402420    0.168506   -1.454648
    166          1           0        3.087594    1.778876   -0.787195
    167          7           0        6.645426   -1.440739    1.655326
    168          6           0        7.328817   -2.054534    2.768040
    169          1           0        7.220297   -1.426247    3.651430
    170          1           0        6.895861   -3.034922    2.965136
    171          1           0        8.386661   -2.165489    2.528631
    172          1           0        6.393876   -2.120751    0.944829
    173         20           0       -1.277029   -0.347213   -0.994110
    174          8           0       -0.153796   -0.646628   -3.411070
    175          1           0       -0.460336    0.098381   -3.937469
    176          1           0        0.478680   -1.088224   -3.972380
 ---------------------------------------------------------------------
 Rotational constants (GHZ):           0.0244869           0.0160614           0.0126428
 Standard basis: SVP (5D, 7F)
 There are  1809 symmetry adapted cartesian basis functions of A   symmetry.
 There are  1717 symmetry adapted basis functions of A   symmetry.
  1717 basis functions,  2922 primitive gaussians,  1809 cartesian basis functions
   358 alpha electrons      358 beta electrons
       nuclear repulsion energy     22108.0433921428 Hartrees.
 NAtoms=  176 NActive=  176 NUniq=  176 SFac= 1.00D+00 NAtFMM=   60 NAOKFM=T Big=T
 Integral buffers will be    131072 words long.
 Raffenetti 2 integral format.
 Two-electron integral symmetry is turned on.
 One-electron integrals computed using PRISM.
 NBasis=  1717 RedAO= T EigKep=  2.55D-04  NBF=  1717
 NBsUse=  1717 1.00D-06 EigRej= -1.00D+00 NBFU=  1717
 ExpMin= 1.98D-02 ExpMax= 3.51D+04 ExpMxC= 5.28D+03 IAcc=3 IRadAn=         5 AccDes= 0.00D+00
 Harris functional with IExCor=  402 and IRadAn=       5 diagonalized for initial guess.
 HarFok:  IExCor=  402 AccDes= 0.00D+00 IRadAn=         5 IDoV= 1 UseB2=F ITyADJ=14
 ICtDFT=  3500011 ScaDFX=  1.000000  1.000000  1.000000  1.000000
 FoFCou: FMM=F IPFlag=           0 FMFlag=      100000 FMFlg1=        2001
         NFxFlg=           0 DoJE=T BraDBF=F KetDBF=T FulRan=T
         wScrn=  0.000000 ICntrl=       500 IOpCl=  0 I1Cent=   200000004 NGrid=           0
         NMat0=    1 NMatS0=      1 NMatT0=    0 NMatD0=    1 NMtDS0=    0 NMtDT0=    0
 Petite list used in FoFCou.
 Requested convergence on RMS density matrix=1.00D-08 within 128 cycles.
 Requested convergence on MAX density matrix=1.00D-06.
 Requested convergence on             energy=1.00D-06.
 No special actions if energy rises.
 EnCoef did     3 forward-backward iterations
 EnCoef did   100 forward-backward iterations
 SCF Done:  E(RB3LYP) =  -5333.59730822     A.U. after   18 cycles
            NFock= 18  Conv=0.45D-08     -V/T= 2.0082
 SCF density gives NOpUse=  1 NOpAll=  1.
 Hyperfine terms turned off by default for NAtoms > 100.

 **********************************************************************

            Population analysis using the SCF density.

 **********************************************************************

 Orbital symmetries:
 BldTbl:  Degeneracy threshold= 1.00D-02
       Occupied  (A) (A) (A) (A) (A) (A) (A) (A) (A) (A) (A) (A)
                 (A) (A) (A) (A) (A) (A) (A) (A) (A) (A) (A) (A)
                 (A) (A) (A) (A) (A) (A) (A) (A) (A) (A) (A) (A)
                 (A) (A) (A) (A) (A) (A) (A) (A) (A) (A) (A) (A)
                 (A) (A) (A) (A) (A) (A) (A) (A) (A) (A) (A) (A)
                 (A) (A) (A) (A) (A) (A) (A) (A) (A) (A) (A) (A)
                 (A) (A) (A) (A) (A) (A) (A) (A) (A) (A) (A) (A)
                 (A) (A) (A) (A) (A) (A) (A) (A) (A) (A) (A) (A)
                 (A) (A) (A) (A) (A) (A) (A) (A) (A) (A) (A) (A)
                 (A) (A) (A) (A) (A) (A) (A) (A) (A) (A) (A) (A)
                 (A) (A) (A) (A) (A) (A) (A) (A) (A) (A) (A) (A)
                 (A) (A) (A) (A) (A) (A) (A) (A) (A) (A) (A) (A)
                 (A) (A) (A) (A) (A) (A) (A) (A) (A) (A) (A) (A)
                 (A) (A) (A) (A) (A) (A) (A) (A) (A) (A) (A) (A)
                 (A) (A) (A) (A) (A) (A) (A) (A) (A) (A) (A) (A)
                 (A) (A) (A) (A) (A) (A) (A) (A) (A) (A) (A) (A)
                 (A) (A) (A) (A) (A) (A) (A) (A) (A) (A) (A) (A)
                 (A) (A) (A) (A) (A) (A) (A) (A) (A) (A) (A) (A)
                 (A) (A) (A) (A) (A) (A) (A) (A) (A) (A) (A) (A)
                 (A) (A) (A) (A) (A) (A) (A) (A) (A) (A) (A) (A)
                 (A) (A) (A) (A) (A) (A) (A) (A) (A) (A) (A) (A)
                 (A) (A) (A) (A) (A) (A) (A) (A) (A) (A) (A) (A)
                 (A) (A) (A) (A) (A) (A) (A) (A) (A) (A) (A) (A)
                 (A) (A) (A) (A) (A) (A) (A) (A) (A) (A) (A) (A)
                 (A) (A) (A) (A) (A) (A) (A) (A) (A) (A) (A) (A)
                 (A) (A) (A) (A) (A) (A) (A) (A) (A) (A) (A) (A)
                 (A) (A) (A) (A) (A) (A) (A) (A) (A) (A) (A) (A)
                 (A) (A) (A) (A) (A) (A) (A) (A) (A) (A) (A) (A)
                 (A) (A) (A) (A) (A) (A) (A) (A) (A) (A) (A) (A)
                 (A) (A) (A) (A) (A) (A) (A) (A) (A) (A)
       Virtual   (A) (A) (A) (A) (A) (A) (A) (A) (A) (A) (A) (A)
                 (A) (A) (A) (A) (A) (A) (A) (A) (A) (A) (A) (A)
                 (A) (A) (A) (A) (A) (A) (A) (A) (A) (A) (A) (A)
                 (A) (A) (A) (A) (A) (A) (A) (A) (A) (A) (A) (A)
                 (A) (A) (A) (A) (A) (A) (A) (A) (A) (A) (A) (A)
                 (A) (A) (A) (A) (A) (A) (A) (A) (A) (A) (A) (A)
                 (A) (A) (A) (A) (A) (A) (A) (A) (A) (A) (A) (A)
                 (A) (A) (A) (A) (A) (A) (A) (A) (A) (A) (A) (A)
                 (A) (A) (A) (A) (A) (A) (A) (A) (A) (A) (A) (A)
                 (A) (A) (A) (A) (A) (A) (A) (A) (A) (A) (A) (A)
                 (A) (A) (A) (A) (A) (A) (A) (A) (A) (A) (A) (A)
                 (A) (A) (A) (A) (A) (A) (A) (A) (A) (A) (A) (A)
                 (A) (A) (A) (A) (A) (A) (A) (A) (A) (A) (A) (A)
                 (A) (A) (A) (A) (A) (A) (A) (A) (A) (A) (A) (A)
                 (A) (A) (A) (A) (A) (A) (A) (A) (A) (A) (A) (A)
                 (A) (A) (A) (A) (A) (A) (A) (A) (A) (A) (A) (A)
                 (A) (A) (A) (A) (A) (A) (A) (A) (A) (A) (A) (A)
                 (A) (A) (A) (A) (A) (A) (A) (A) (A) (A) (A) (A)
                 (A) (A) (A) (A) (A) (A) (A) (A) (A) (A) (A) (A)
                 (A) (A) (A) (A) (A) (A) (A) (A) (A) (A) (A) (A)
                 (A) (A) (A) (A) (A) (A) (A) (A) (A) (A) (A) (A)
                 (A) (A) (A) (A) (A) (A) (A) (A) (A) (A) (A) (A)
                 (A) (A) (A) (A) (A) (A) (A) (A) (A) (A) (A) (A)
                 (A) (A) (A) (A) (A) (A) (A) (A) (A) (A) (A) (A)
                 (A) (A) (A) (A) (A) (A) (A) (A) (A) (A) (A) (A)
                 (A) (A) (A) (A) (A) (A) (A) (A) (A) (A) (A) (A)
                 (A) (A) (A) (A) (A) (A) (A) (A) (A) (A) (A) (A)
                 (A) (A) (A) (A) (A) (A) (A) (A) (A) (A) (A) (A)
                 (A) (A) (A) (A) (A) (A) (A) (A) (A) (A) (A) (A)
                 (A) (A) (A) (A) (A) (A) (A) (A) (A) (A) (A) (A)
                 (A) (A) (A) (A) (A) (A) (A) (A) (A) (A) (A) (A)
                 (A) (A) (A) (A) (A) (A) (A) (A) (A) (A) (A) (A)
                 (A) (A) (A) (A) (A) (A) (A) (A) (A) (A) (A) (A)
                 (A) (A) (A) (A) (A) (A) (A) (A) (A) (A) (A) (A)
                 (A) (A) (A) (A) (A) (A) (A) (A) (A) (A) (A) (A)
                 (A) (A) (A) (A) (A) (A) (A) (A) (A) (A) (A) (A)
                 (A) (A) (A) (A) (A) (A) (A) (A) (A) (A) (A) (A)
                 (A) (A) (A) (A) (A) (A) (A) (A) (A) (A) (A) (A)
                 (A) (A) (A) (A) (A) (A) (A) (A) (A) (A) (A) (A)
                 (A) (A) (A) (A) (A) (A) (A) (A) (A) (A) (A) (A)
                 (A) (A) (A) (A) (A) (A) (A) (A) (A) (A) (A) (A)
                 (A) (A) (A) (A) (A) (A) (A) (A) (A) (A) (A) (A)
                 (A) (A) (A) (A) (A) (A) (A) (A) (A) (A) (A) (A)
                 (A) (A) (A) (A) (A) (A) (A) (A) (A) (A) (A) (A)
                 (A) (A) (A) (A) (A) (A) (A) (A) (A) (A) (A) (A)
                 (A) (A) (A) (A) (A) (A) (A) (A) (A) (A) (A) (A)
                 (A) (A) (A) (A) (A) (A) (A) (A) (A) (A) (A) (A)
                 (A) (A) (A) (A) (A) (A) (A) (A) (A) (A) (A) (A)
                 (A) (A) (A) (A) (A) (A) (A) (A) (A) (A) (A) (A)
                 (A) (A) (A) (A) (A) (A) (A) (A) (A) (A) (A) (A)
                 (A) (A) (A) (A) (A) (A) (A) (A) (A) (A) (A) (A)
                 (A) (A) (A) (A) (A) (A) (A) (A) (A) (A) (A) (A)
                 (A) (A) (A) (A) (A) (A) (A) (A) (A) (A) (A) (A)
                 (A) (A) (A) (A) (A) (A) (A) (A) (A) (A) (A) (A)
                 (A) (A) (A) (A) (A) (A) (A) (A) (A) (A) (A) (A)
                 (A) (A) (A) (A) (A) (A) (A) (A) (A) (A) (A) (A)
                 (A) (A) (A) (A) (A) (A) (A) (A) (A) (A) (A) (A)
                 (A) (A) (A) (A) (A) (A) (A) (A) (A) (A) (A) (A)
                 (A) (A) (A) (A) (A) (A) (A) (A) (A) (A) (A) (A)
                 (A) (A) (A) (A) (A) (A) (A) (A) (A) (A) (A) (A)
                 (A) (A) (A) (A) (A) (A) (A) (A) (A) (A) (A) (A)
                 (A) (A) (A) (A) (A) (A) (A) (A) (A) (A) (A) (A)
                 (A) (A) (A) (A) (A) (A) (A) (A) (A) (A) (A) (A)
                 (A) (A) (A) (A) (A) (A) (A) (A) (A) (A) (A) (A)
                 (A) (A) (A) (A) (A) (A) (A) (A) (A) (A) (A) (A)
                 (A) (A) (A) (A) (A) (A) (A) (A) (A) (A) (A) (A)
                 (A) (A) (A) (A) (A) (A) (A) (A) (A) (A) (A) (A)
                 (A) (A) (A) (A) (A) (A) (A) (A) (A) (A) (A) (A)
                 (A) (A) (A) (A) (A) (A) (A) (A) (A) (A) (A) (A)
                 (A) (A) (A) (A) (A) (A) (A) (A) (A) (A) (A) (A)
                 (A) (A) (A) (A) (A) (A) (A) (A) (A) (A) (A) (A)
                 (A) (A) (A) (A) (A) (A) (A) (A) (A) (A) (A) (A)
                 (A) (A) (A) (A) (A) (A) (A) (A) (A) (A) (A) (A)
                 (A) (A) (A) (A) (A) (A) (A) (A) (A) (A) (A) (A)
                 (A) (A) (A) (A) (A) (A) (A) (A) (A) (A) (A) (A)
                 (A) (A) (A) (A) (A) (A) (A) (A) (A) (A) (A) (A)
                 (A) (A) (A) (A) (A) (A) (A) (A) (A) (A) (A) (A)
                 (A) (A) (A) (A) (A) (A) (A) (A) (A) (A) (A) (A)
                 (A) (A) (A) (A) (A) (A) (A) (A) (A) (A) (A) (A)
                 (A) (A) (A) (A) (A) (A) (A) (A) (A) (A) (A) (A)
                 (A) (A) (A) (A) (A) (A) (A) (A) (A) (A) (A) (A)
                 (A) (A) (A) (A) (A) (A) (A) (A) (A) (A) (A) (A)
                 (A) (A) (A) (A) (A) (A) (A) (A) (A) (A) (A) (A)
                 (A) (A) (A) (A) (A) (A) (A) (A) (A) (A) (A) (A)
                 (A) (A) (A) (A) (A) (A) (A) (A) (A) (A) (A) (A)
                 (A) (A) (A) (A) (A) (A) (A) (A) (A) (A) (A) (A)
                 (A) (A) (A) (A) (A) (A) (A) (A) (A) (A) (A) (A)
                 (A) (A) (A) (A) (A) (A) (A) (A) (A) (A) (A) (A)
                 (A) (A) (A) (A) (A) (A) (A) (A) (A) (A) (A) (A)
                 (A) (A) (A) (A) (A) (A) (A) (A) (A) (A) (A) (A)
                 (A) (A) (A) (A) (A) (A) (A) (A) (A) (A) (A) (A)
                 (A) (A) (A) (A) (A) (A) (A) (A) (A) (A) (A) (A)
                 (A) (A) (A) (A) (A) (A) (A) (A) (A) (A) (A) (A)
                 (A) (A) (A) (A) (A) (A) (A) (A) (A) (A) (A) (A)
                 (A) (A) (A) (A) (A) (A) (A) (A) (A) (A) (A) (A)
                 (A) (A) (A) (A) (A) (A) (A) (A) (A) (A) (A) (A)
                 (A) (A) (A) (A) (A) (A) (A) (A) (A) (A) (A) (A)
                 (A) (A) (A) (A) (A) (A) (A) (A) (A) (A) (A) (A)
                 (A) (A) (A) (A) (A) (A) (A) (A) (A) (A) (A) (A)
                 (A) (A) (A) (A) (A) (A) (A) (A) (A) (A) (A) (A)
                 (A) (A) (A) (A) (A) (A) (A) (A) (A) (A) (A) (A)
                 (A) (A) (A) (A) (A) (A) (A) (A) (A) (A) (A) (A)
                 (A) (A) (A) (A) (A) (A) (A) (A) (A) (A) (A) (A)
                 (A) (A) (A) (A) (A) (A) (A) (A) (A) (A) (A) (A)
                 (A) (A) (A) (A) (A) (A) (A) (A) (A) (A) (A) (A)
                 (A) (A) (A) (A) (A) (A) (A) (A) (A) (A) (A) (A)
                 (A) (A) (A) (A) (A) (A) (A) (A) (A) (A) (A) (A)
                 (A) (A) (A) (A) (A) (A) (A) (A) (A) (A) (A) (A)
                 (A) (A) (A) (A) (A) (A) (A) (A) (A) (A) (A) (A)
                 (A) (A) (A) (A) (A) (A) (A) (A) (A) (A) (A) (A)
                 (A) (A) (A) (A) (A) (A) (A) (A) (A) (A) (A) (A)
                 (A) (A) (A) (A) (A) (A) (A) (A) (A) (A) (A) (A)
                 (A) (A) (A) (A) (A) (A) (A) (A) (A) (A) (A) (A)
                 (A) (A) (A)
 The electronic state is 1-A.
 Alpha  occ. eigenvalues -- -145.36848 -19.16753 -19.15001 -19.14157 -19.12409
 Alpha  occ. eigenvalues --  -19.11975 -19.11514 -19.10792 -19.10500 -19.09562
 Alpha  occ. eigenvalues --  -19.09301 -19.09146 -19.07936 -19.07832 -19.07495
 Alpha  occ. eigenvalues --  -19.05776 -19.05676 -19.05187 -19.04725 -19.04535
 Alpha  occ. eigenvalues --  -19.03497 -19.03307 -19.03216 -19.03028 -15.42578
 Alpha  occ. eigenvalues --  -14.58950 -14.39687 -14.37236 -14.37147 -14.36861
 Alpha  occ. eigenvalues --  -14.35030 -14.34891 -14.34491 -14.34032 -14.32999
 Alpha  occ. eigenvalues --  -14.31485 -14.31478 -14.29522 -14.29281 -14.29215
 Alpha  occ. eigenvalues --  -12.56198 -12.56157 -12.56138 -10.34308 -10.32645
 Alpha  occ. eigenvalues --  -10.30512 -10.29982 -10.29618 -10.28835 -10.28097
 Alpha  occ. eigenvalues --  -10.28076 -10.27037 -10.26938 -10.26931 -10.26745
 Alpha  occ. eigenvalues --  -10.26597 -10.26542 -10.26438 -10.24855 -10.24591
 Alpha  occ. eigenvalues --  -10.24184 -10.23865 -10.23765 -10.23684 -10.23585
 Alpha  occ. eigenvalues --  -10.23094 -10.22986 -10.22680 -10.22615 -10.22462
 Alpha  occ. eigenvalues --  -10.22399 -10.22343 -10.22307 -10.22275 -10.21906
 Alpha  occ. eigenvalues --  -10.21026 -10.20354 -10.19860 -10.19693 -10.19371
 Alpha  occ. eigenvalues --  -10.19367 -10.18711 -10.18197 -10.18025 -10.17981
 Alpha  occ. eigenvalues --  -10.17812 -10.17665 -10.17429 -10.17419 -10.17412
 Alpha  occ. eigenvalues --  -10.17265 -10.17191 -10.17044 -10.17043 -10.16941
 Alpha  occ. eigenvalues --  -10.16796 -10.15281  -1.79410  -1.14017  -1.07606
 Alpha  occ. eigenvalues --   -1.07184  -1.06880  -1.06763  -1.05055  -1.04891
 Alpha  occ. eigenvalues --   -1.04794  -1.04579  -1.03385  -1.03124  -1.02698
 Alpha  occ. eigenvalues --   -1.02621  -1.02499  -1.00948  -1.00789  -0.99538
 Alpha  occ. eigenvalues --   -0.99057  -0.98952  -0.98725  -0.98242  -0.97493
 Alpha  occ. eigenvalues --   -0.96773  -0.96472  -0.95840  -0.93673  -0.93384
 Alpha  occ. eigenvalues --   -0.93219  -0.93027  -0.92522  -0.92343  -0.90901
 Alpha  occ. eigenvalues --   -0.89786  -0.89484  -0.89021  -0.88871  -0.88300
 Alpha  occ. eigenvalues --   -0.88109  -0.87685  -0.87418  -0.85661  -0.85180
 Alpha  occ. eigenvalues --   -0.83192  -0.82602  -0.81774  -0.81398  -0.78970
 Alpha  occ. eigenvalues --   -0.78877  -0.78056  -0.77371  -0.77137  -0.76603
 Alpha  occ. eigenvalues --   -0.75470  -0.74612  -0.74244  -0.74009  -0.73919
 Alpha  occ. eigenvalues --   -0.72736  -0.72499  -0.72153  -0.71526  -0.70436
 Alpha  occ. eigenvalues --   -0.69645  -0.69054  -0.68774  -0.67980  -0.67743
 Alpha  occ. eigenvalues --   -0.67214  -0.65619  -0.65233  -0.64867  -0.64559
 Alpha  occ. eigenvalues --   -0.64139  -0.62837  -0.62818  -0.62494  -0.61912
 Alpha  occ. eigenvalues --   -0.61403  -0.60764  -0.60411  -0.60325  -0.60159
 Alpha  occ. eigenvalues --   -0.59813  -0.59141  -0.59014  -0.58103  -0.57873
 Alpha  occ. eigenvalues --   -0.57794  -0.56932  -0.56661  -0.55819  -0.55625
 Alpha  occ. eigenvalues --   -0.55268  -0.54995  -0.54836  -0.54465  -0.54304
 Alpha  occ. eigenvalues --   -0.54235  -0.53619  -0.53317  -0.53231  -0.52975
 Alpha  occ. eigenvalues --   -0.52729  -0.52623  -0.52328  -0.51756  -0.51696
 Alpha  occ. eigenvalues --   -0.51326  -0.50714  -0.50568  -0.50335  -0.50201
 Alpha  occ. eigenvalues --   -0.49798  -0.49586  -0.49444  -0.49074  -0.48720
 Alpha  occ. eigenvalues --   -0.48412  -0.48172  -0.48005  -0.47759  -0.47551
 Alpha  occ. eigenvalues --   -0.47370  -0.47038  -0.46819  -0.46544  -0.46357
 Alpha  occ. eigenvalues --   -0.46285  -0.46179  -0.46013  -0.45840  -0.45641
 Alpha  occ. eigenvalues --   -0.45575  -0.45355  -0.44911  -0.44851  -0.44800
 Alpha  occ. eigenvalues --   -0.44053  -0.43858  -0.43787  -0.43562  -0.43535
 Alpha  occ. eigenvalues --   -0.43402  -0.43230  -0.43149  -0.42903  -0.42669
 Alpha  occ. eigenvalues --   -0.42546  -0.42434  -0.42283  -0.42120  -0.42092
 Alpha  occ. eigenvalues --   -0.41920  -0.41856  -0.41745  -0.41502  -0.41336
 Alpha  occ. eigenvalues --   -0.41274  -0.41145  -0.41085  -0.40881  -0.40840
 Alpha  occ. eigenvalues --   -0.40636  -0.40395  -0.40139  -0.40065  -0.39952
 Alpha  occ. eigenvalues --   -0.39756  -0.39695  -0.39621  -0.39574  -0.39437
 Alpha  occ. eigenvalues --   -0.39395  -0.39177  -0.39115  -0.38962  -0.38810
 Alpha  occ. eigenvalues --   -0.38745  -0.38561  -0.38370  -0.38266  -0.38008
 Alpha  occ. eigenvalues --   -0.37894  -0.37798  -0.37620  -0.37502  -0.37236
 Alpha  occ. eigenvalues --   -0.37094  -0.37008  -0.36930  -0.36786  -0.36688
 Alpha  occ. eigenvalues --   -0.36441  -0.36268  -0.36038  -0.35902  -0.35743
 Alpha  occ. eigenvalues --   -0.35197  -0.35026  -0.34892  -0.34689  -0.34171
 Alpha  occ. eigenvalues --   -0.34142  -0.34005  -0.33783  -0.33712  -0.33420
 Alpha  occ. eigenvalues --   -0.33296  -0.33253  -0.33016  -0.32566  -0.32293
 Alpha  occ. eigenvalues --   -0.31968  -0.31676  -0.31633  -0.31559  -0.31464
 Alpha  occ. eigenvalues --   -0.31338  -0.31083  -0.30905  -0.30533  -0.29929
 Alpha  occ. eigenvalues --   -0.29639  -0.29252  -0.28329  -0.28108  -0.27922
 Alpha  occ. eigenvalues --   -0.27790  -0.27141  -0.26831  -0.26649  -0.26366
 Alpha  occ. eigenvalues --   -0.26342  -0.25999  -0.25627  -0.25446  -0.25146
 Alpha  occ. eigenvalues --   -0.24927  -0.24628  -0.24192  -0.24070  -0.23561
 Alpha  occ. eigenvalues --   -0.23478  -0.23384  -0.22811  -0.22583  -0.22551
 Alpha  occ. eigenvalues --   -0.22285  -0.22084  -0.21953  -0.21522  -0.21369
 Alpha  occ. eigenvalues --   -0.20701  -0.20684  -0.20071  -0.19333  -0.19213
 Alpha  occ. eigenvalues --   -0.19112  -0.18801  -0.18539
 Alpha virt. eigenvalues --   -0.10764  -0.04937  -0.04665  -0.02994  -0.01785
 Alpha virt. eigenvalues --   -0.01443  -0.00572  -0.00341  -0.00046   0.00187
 Alpha virt. eigenvalues --    0.00725   0.01367   0.01431   0.01745   0.02040
 Alpha virt. eigenvalues --    0.02282   0.02393   0.02770   0.03054   0.03935
 Alpha virt. eigenvalues --    0.04071   0.04305   0.04519   0.04733   0.05005
 Alpha virt. eigenvalues --    0.05192   0.05302   0.05692   0.05805   0.06209
 Alpha virt. eigenvalues --    0.06281   0.06610   0.06725   0.06910   0.07092
 Alpha virt. eigenvalues --    0.07195   0.07491   0.07560   0.07808   0.08190
 Alpha virt. eigenvalues --    0.08266   0.08447   0.08535   0.08954   0.09084
 Alpha virt. eigenvalues --    0.09595   0.09705   0.09744   0.10074   0.10297
 Alpha virt. eigenvalues --    0.10331   0.10566   0.10832   0.11079   0.11264
 Alpha virt. eigenvalues --    0.11422   0.11497   0.11606   0.11743   0.11844
 Alpha virt. eigenvalues --    0.12084   0.12159   0.12422   0.12618   0.12821
 Alpha virt. eigenvalues --    0.13011   0.13293   0.13379   0.13502   0.13684
 Alpha virt. eigenvalues --    0.13841   0.13928   0.13970   0.14314   0.14401
 Alpha virt. eigenvalues --    0.14639   0.14747   0.14987   0.15235   0.15336
 Alpha virt. eigenvalues --    0.15627   0.15678   0.15849   0.16120   0.16233
 Alpha virt. eigenvalues --    0.16333   0.16623   0.16690   0.16801   0.16970
 Alpha virt. eigenvalues --    0.17378   0.17423   0.17519   0.17852   0.17951
 Alpha virt. eigenvalues --    0.18231   0.18472   0.18626   0.18677   0.18922
 Alpha virt. eigenvalues --    0.19097   0.19253   0.19394   0.19652   0.19719
 Alpha virt. eigenvalues --    0.19886   0.20128   0.20327   0.20578   0.20776
 Alpha virt. eigenvalues --    0.21022   0.21103   0.21439   0.21696   0.21809
 Alpha virt. eigenvalues --    0.21976   0.22273   0.22341   0.22737   0.22882
 Alpha virt. eigenvalues --    0.23084   0.23486   0.23654   0.23719   0.23974
 Alpha virt. eigenvalues --    0.24129   0.24454   0.24503   0.24755   0.25042
 Alpha virt. eigenvalues --    0.25322   0.25407   0.25584   0.25762   0.25942
 Alpha virt. eigenvalues --    0.26079   0.26310   0.26530   0.26936   0.27262
 Alpha virt. eigenvalues --    0.27529   0.27631   0.27932   0.28235   0.28518
 Alpha virt. eigenvalues --    0.28645   0.28942   0.29183   0.29502   0.29589
 Alpha virt. eigenvalues --    0.29829   0.29917   0.30081   0.30417   0.30622
 Alpha virt. eigenvalues --    0.30753   0.31129   0.31270   0.31591   0.31958
 Alpha virt. eigenvalues --    0.31983   0.32448   0.32498   0.32620   0.33096
 Alpha virt. eigenvalues --    0.33135   0.33252   0.33607   0.33832   0.33869
 Alpha virt. eigenvalues --    0.34205   0.34322   0.34671   0.35024   0.35291
 Alpha virt. eigenvalues --    0.35415   0.35616   0.35981   0.36064   0.36294
 Alpha virt. eigenvalues --    0.36536   0.37328   0.37490   0.37856   0.38142
 Alpha virt. eigenvalues --    0.38249   0.38656   0.39051   0.39277   0.39635
 Alpha virt. eigenvalues --    0.39817   0.40393   0.40713   0.40987   0.41087
 Alpha virt. eigenvalues --    0.41210   0.41403   0.41845   0.41995   0.42426
 Alpha virt. eigenvalues --    0.42757   0.42807   0.43108   0.43370   0.43461
 Alpha virt. eigenvalues --    0.43516   0.44031   0.44068   0.44153   0.44419
 Alpha virt. eigenvalues --    0.44504   0.44692   0.45187   0.45280   0.45633
 Alpha virt. eigenvalues --    0.45778   0.46071   0.46177   0.46425   0.46759
 Alpha virt. eigenvalues --    0.46965   0.47042   0.47348   0.47437   0.47591
 Alpha virt. eigenvalues --    0.47713   0.47888   0.48044   0.48184   0.48503
 Alpha virt. eigenvalues --    0.48814   0.48974   0.49065   0.49167   0.49242
 Alpha virt. eigenvalues --    0.49565   0.49789   0.49981   0.50048   0.50289
 Alpha virt. eigenvalues --    0.50432   0.50668   0.50943   0.51352   0.51502
 Alpha virt. eigenvalues --    0.51839   0.51881   0.52141   0.52556   0.52742
 Alpha virt. eigenvalues --    0.52867   0.53102   0.53340   0.53394   0.53630
 Alpha virt. eigenvalues --    0.53810   0.54043   0.54230   0.54449   0.54513
 Alpha virt. eigenvalues --    0.54600   0.54735   0.54968   0.55062   0.55246
 Alpha virt. eigenvalues --    0.55463   0.55526   0.55737   0.56053   0.56350
 Alpha virt. eigenvalues --    0.56493   0.56522   0.56637   0.57012   0.57107
 Alpha virt. eigenvalues --    0.57265   0.57538   0.57657   0.57989   0.58030
 Alpha virt. eigenvalues --    0.58203   0.58377   0.58540   0.58555   0.58713
 Alpha virt. eigenvalues --    0.58982   0.59053   0.59136   0.59324   0.59487
 Alpha virt. eigenvalues --    0.59688   0.59832   0.60127   0.60299   0.60480
 Alpha virt. eigenvalues --    0.60744   0.61040   0.61125   0.61247   0.61429
 Alpha virt. eigenvalues --    0.61513   0.61566   0.61677   0.61813   0.61983
 Alpha virt. eigenvalues --    0.62146   0.62386   0.62512   0.62654   0.62727
 Alpha virt. eigenvalues --    0.63031   0.63081   0.63258   0.63301   0.63420
 Alpha virt. eigenvalues --    0.63493   0.63581   0.63885   0.63992   0.64175
 Alpha virt. eigenvalues --    0.64296   0.64343   0.64611   0.64636   0.64712
 Alpha virt. eigenvalues --    0.64772   0.64913   0.65012   0.65025   0.65123
 Alpha virt. eigenvalues --    0.65400   0.65521   0.65618   0.65688   0.65835
 Alpha virt. eigenvalues --    0.65866   0.66103   0.66188   0.66294   0.66506
 Alpha virt. eigenvalues --    0.66582   0.66612   0.66766   0.66797   0.67136
 Alpha virt. eigenvalues --    0.67199   0.67246   0.67385   0.67427   0.67595
 Alpha virt. eigenvalues --    0.67689   0.67747   0.67962   0.67988   0.68049
 Alpha virt. eigenvalues --    0.68234   0.68307   0.68502   0.68626   0.68708
 Alpha virt. eigenvalues --    0.68827   0.69096   0.69154   0.69217   0.69370
 Alpha virt. eigenvalues --    0.69410   0.69539   0.69784   0.70016   0.70097
 Alpha virt. eigenvalues --    0.70198   0.70272   0.70446   0.70509   0.70657
 Alpha virt. eigenvalues --    0.70787   0.70959   0.71075   0.71260   0.71289
 Alpha virt. eigenvalues --    0.71464   0.71535   0.71713   0.71826   0.72071
 Alpha virt. eigenvalues --    0.72218   0.72308   0.72456   0.72479   0.72804
 Alpha virt. eigenvalues --    0.72983   0.73203   0.73312   0.73504   0.73625
 Alpha virt. eigenvalues --    0.73685   0.73823   0.73936   0.74454   0.74499
 Alpha virt. eigenvalues --    0.74695   0.74893   0.75117   0.75278   0.75408
 Alpha virt. eigenvalues --    0.75567   0.75837   0.75878   0.76262   0.76410
 Alpha virt. eigenvalues --    0.76558   0.76773   0.76932   0.77000   0.77476
 Alpha virt. eigenvalues --    0.77557   0.78058   0.78126   0.78316   0.78511
 Alpha virt. eigenvalues --    0.78647   0.78812   0.79117   0.79689   0.79987
 Alpha virt. eigenvalues --    0.80189   0.80398   0.80541   0.80713   0.81409
 Alpha virt. eigenvalues --    0.81686   0.81812   0.81825   0.82230   0.82494
 Alpha virt. eigenvalues --    0.82532   0.82833   0.83188   0.83239   0.83395
 Alpha virt. eigenvalues --    0.83659   0.83882   0.84508   0.84843   0.84910
 Alpha virt. eigenvalues --    0.85446   0.85609   0.85744   0.86197   0.86558
 Alpha virt. eigenvalues --    0.86854   0.87026   0.87314   0.87431   0.87626
 Alpha virt. eigenvalues --    0.88108   0.88217   0.88369   0.88667   0.89450
 Alpha virt. eigenvalues --    0.89637   0.89702   0.90385   0.90643   0.91002
 Alpha virt. eigenvalues --    0.91314   0.91560   0.91835   0.92471   0.92665
 Alpha virt. eigenvalues --    0.92819   0.93150   0.93328   0.93578   0.93857
 Alpha virt. eigenvalues --    0.94098   0.94562   0.94890   0.95254   0.95374
 Alpha virt. eigenvalues --    0.95648   0.95710   0.96147   0.96466   0.96615
 Alpha virt. eigenvalues --    0.96740   0.96885   0.97249   0.97717   0.98112
 Alpha virt. eigenvalues --    0.98305   0.98461   0.98583   0.98786   0.98878
 Alpha virt. eigenvalues --    0.98936   0.99687   0.99867   0.99978   1.00224
 Alpha virt. eigenvalues --    1.00525   1.00807   1.01283   1.01448   1.01825
 Alpha virt. eigenvalues --    1.02146   1.02470   1.02822   1.03582   1.03829
 Alpha virt. eigenvalues --    1.03956   1.04150   1.04871   1.05106   1.05361
 Alpha virt. eigenvalues --    1.05424   1.05823   1.06244   1.06484   1.06767
 Alpha virt. eigenvalues --    1.07071   1.07443   1.07985   1.08148   1.08481
 Alpha virt. eigenvalues --    1.08799   1.09052   1.09470   1.09524   1.09704
 Alpha virt. eigenvalues --    1.09827   1.10051   1.10334   1.10714   1.10785
 Alpha virt. eigenvalues --    1.10925   1.11231   1.11422   1.11931   1.12302
 Alpha virt. eigenvalues --    1.12542   1.12754   1.13152   1.13435   1.13655
 Alpha virt. eigenvalues --    1.13828   1.13988   1.14618   1.14980   1.15161
 Alpha virt. eigenvalues --    1.15352   1.15647   1.15736   1.16029   1.16180
 Alpha virt. eigenvalues --    1.16771   1.16940   1.17185   1.17255   1.17509
 Alpha virt. eigenvalues --    1.17997   1.18091   1.18356   1.18642   1.18783
 Alpha virt. eigenvalues --    1.19281   1.19484   1.19717   1.20041   1.20074
 Alpha virt. eigenvalues --    1.20398   1.20598   1.20842   1.21016   1.21444
 Alpha virt. eigenvalues --    1.21684   1.21826   1.22057   1.22481   1.22929
 Alpha virt. eigenvalues --    1.22987   1.23258   1.23404   1.23999   1.24140
 Alpha virt. eigenvalues --    1.24377   1.24507   1.24937   1.25158   1.25423
 Alpha virt. eigenvalues --    1.25775   1.25996   1.26248   1.26636   1.27002
 Alpha virt. eigenvalues --    1.27184   1.27446   1.27739   1.27940   1.28062
 Alpha virt. eigenvalues --    1.28316   1.28390   1.28605   1.28825   1.28967
 Alpha virt. eigenvalues --    1.29156   1.29618   1.30054   1.30279   1.30568
 Alpha virt. eigenvalues --    1.30734   1.30824   1.31109   1.31692   1.31967
 Alpha virt. eigenvalues --    1.32202   1.32388   1.32603   1.32992   1.33264
 Alpha virt. eigenvalues --    1.33649   1.33836   1.34577   1.34701   1.35454
 Alpha virt. eigenvalues --    1.35633   1.35966   1.36075   1.36341   1.36796
 Alpha virt. eigenvalues --    1.37025   1.37217   1.37294   1.37439   1.37565
 Alpha virt. eigenvalues --    1.38058   1.38336   1.38683   1.38776   1.38989
 Alpha virt. eigenvalues --    1.39704   1.39980   1.40139   1.40385   1.40629
 Alpha virt. eigenvalues --    1.40994   1.41284   1.41541   1.41845   1.42085
 Alpha virt. eigenvalues --    1.42148   1.42222   1.42618   1.42776   1.43031
 Alpha virt. eigenvalues --    1.43557   1.43868   1.43993   1.44166   1.44376
 Alpha virt. eigenvalues --    1.44530   1.45190   1.45330   1.45905   1.46074
 Alpha virt. eigenvalues --    1.46586   1.46779   1.47463   1.47844   1.48094
 Alpha virt. eigenvalues --    1.48189   1.48339   1.48476   1.48600   1.48837
 Alpha virt. eigenvalues --    1.49088   1.49428   1.49586   1.50113   1.50313
 Alpha virt. eigenvalues --    1.50630   1.51038   1.51494   1.51805   1.52074
 Alpha virt. eigenvalues --    1.52384   1.52464   1.52691   1.53329   1.53530
 Alpha virt. eigenvalues --    1.53996   1.54077   1.54386   1.54681   1.54883
 Alpha virt. eigenvalues --    1.55302   1.55728   1.56004   1.56208   1.56545
 Alpha virt. eigenvalues --    1.57114   1.57369   1.57484   1.57713   1.57996
 Alpha virt. eigenvalues --    1.58083   1.58653   1.59100   1.59584   1.60012
 Alpha virt. eigenvalues --    1.60482   1.60695   1.61042   1.61255   1.61490
 Alpha virt. eigenvalues --    1.61808   1.61989   1.62114   1.62551   1.62804
 Alpha virt. eigenvalues --    1.63378   1.63627   1.63800   1.64019   1.64309
 Alpha virt. eigenvalues --    1.64688   1.65353   1.65486   1.65605   1.65758
 Alpha virt. eigenvalues --    1.65867   1.66316   1.66619   1.66820   1.67051
 Alpha virt. eigenvalues --    1.67489   1.67750   1.67819   1.68264   1.68641
 Alpha virt. eigenvalues --    1.68869   1.69125   1.69405   1.69514   1.69964
 Alpha virt. eigenvalues --    1.70078   1.70137   1.70310   1.70667   1.70768
 Alpha virt. eigenvalues --    1.70850   1.71078   1.71577   1.71763   1.71951
 Alpha virt. eigenvalues --    1.72534   1.72776   1.73043   1.73083   1.73286
 Alpha virt. eigenvalues --    1.73428   1.73589   1.73858   1.74154   1.74360
 Alpha virt. eigenvalues --    1.74558   1.74769   1.75182   1.75296   1.75443
 Alpha virt. eigenvalues --    1.75635   1.75831   1.75910   1.76149   1.76212
 Alpha virt. eigenvalues --    1.76410   1.76484   1.76834   1.76938   1.77185
 Alpha virt. eigenvalues --    1.77241   1.77414   1.77624   1.77810   1.78089
 Alpha virt. eigenvalues --    1.78249   1.78319   1.78409   1.78731   1.78970
 Alpha virt. eigenvalues --    1.79092   1.79184   1.79260   1.79426   1.79711
 Alpha virt. eigenvalues --    1.79749   1.80059   1.80172   1.80554   1.80774
 Alpha virt. eigenvalues --    1.80974   1.81023   1.81157   1.81304   1.81529
 Alpha virt. eigenvalues --    1.81876   1.81929   1.82138   1.82382   1.82748
 Alpha virt. eigenvalues --    1.82867   1.82943   1.83102   1.83350   1.83476
 Alpha virt. eigenvalues --    1.83697   1.83822   1.84300   1.84439   1.84545
 Alpha virt. eigenvalues --    1.84877   1.85094   1.85232   1.85398   1.85595
 Alpha virt. eigenvalues --    1.85794   1.86122   1.86216   1.86462   1.86629
 Alpha virt. eigenvalues --    1.86948   1.86999   1.87216   1.87281   1.87549
 Alpha virt. eigenvalues --    1.87594   1.87714   1.88155   1.88217   1.88347
 Alpha virt. eigenvalues --    1.88815   1.89109   1.89213   1.89429   1.89495
 Alpha virt. eigenvalues --    1.89757   1.89909   1.90088   1.90152   1.90630
 Alpha virt. eigenvalues --    1.90643   1.90954   1.90988   1.91127   1.91251
 Alpha virt. eigenvalues --    1.91757   1.91968   1.92227   1.92417   1.92557
 Alpha virt. eigenvalues --    1.92842   1.93054   1.93235   1.93410   1.93609
 Alpha virt. eigenvalues --    1.93915   1.94229   1.94528   1.94795   1.94953
 Alpha virt. eigenvalues --    1.95100   1.95405   1.95542   1.95696   1.95865
 Alpha virt. eigenvalues --    1.95914   1.96039   1.96410   1.96643   1.97065
 Alpha virt. eigenvalues --    1.97089   1.97227   1.97617   1.97734   1.97894
 Alpha virt. eigenvalues --    1.98013   1.98289   1.98426   1.98682   1.98935
 Alpha virt. eigenvalues --    1.99265   1.99325   1.99583   1.99683   2.00060
 Alpha virt. eigenvalues --    2.00210   2.00647   2.00691   2.00813   2.01005
 Alpha virt. eigenvalues --    2.01258   2.01327   2.01668   2.01812   2.02168
 Alpha virt. eigenvalues --    2.02270   2.02466   2.02652   2.03352   2.03677
 Alpha virt. eigenvalues --    2.03756   2.03931   2.04150   2.04600   2.04873
 Alpha virt. eigenvalues --    2.05020   2.05398   2.05668   2.05973   2.06158
 Alpha virt. eigenvalues --    2.06410   2.07003   2.07261   2.07281   2.07631
 Alpha virt. eigenvalues --    2.07823   2.08241   2.08339   2.08578   2.08892
 Alpha virt. eigenvalues --    2.09282   2.09379   2.09673   2.09920   2.10032
 Alpha virt. eigenvalues --    2.10377   2.10440   2.11082   2.11355   2.11517
 Alpha virt. eigenvalues --    2.11901   2.12171   2.12422   2.12639   2.12801
 Alpha virt. eigenvalues --    2.13059   2.13451   2.13605   2.14265   2.14808
 Alpha virt. eigenvalues --    2.14971   2.15115   2.15614   2.15893   2.16003
 Alpha virt. eigenvalues --    2.16040   2.16235   2.16562   2.16903   2.17265
 Alpha virt. eigenvalues --    2.17468   2.17787   2.18133   2.18311   2.18548
 Alpha virt. eigenvalues --    2.18896   2.19246   2.19364   2.19606   2.20089
 Alpha virt. eigenvalues --    2.20144   2.20382   2.21024   2.21342   2.21648
 Alpha virt. eigenvalues --    2.21752   2.22351   2.22456   2.22791   2.22875
 Alpha virt. eigenvalues --    2.23321   2.23703   2.24062   2.24127   2.24633
 Alpha virt. eigenvalues --    2.24927   2.25047   2.25243   2.25533   2.25761
 Alpha virt. eigenvalues --    2.26106   2.26453   2.26642   2.26912   2.27214
 Alpha virt. eigenvalues --    2.27442   2.28152   2.28400   2.28910   2.29424
 Alpha virt. eigenvalues --    2.29477   2.29904   2.30526   2.30750   2.30801
 Alpha virt. eigenvalues --    2.30935   2.31535   2.31622   2.32265   2.32407
 Alpha virt. eigenvalues --    2.32706   2.32910   2.33212   2.33822   2.34038
 Alpha virt. eigenvalues --    2.34170   2.34340   2.34457   2.34719   2.35108
 Alpha virt. eigenvalues --    2.35583   2.35751   2.35879   2.36191   2.36716
 Alpha virt. eigenvalues --    2.37068   2.37178   2.37422   2.37665   2.37811
 Alpha virt. eigenvalues --    2.38171   2.38514   2.38734   2.39137   2.39326
 Alpha virt. eigenvalues --    2.39814   2.39939   2.40545   2.40992   2.41171
 Alpha virt. eigenvalues --    2.41582   2.42082   2.42184   2.42374   2.42873
 Alpha virt. eigenvalues --    2.43121   2.43901   2.43954   2.44406   2.44531
 Alpha virt. eigenvalues --    2.44865   2.44969   2.45373   2.45420   2.45988
 Alpha virt. eigenvalues --    2.46336   2.46529   2.47065   2.47441   2.48417
 Alpha virt. eigenvalues --    2.48686   2.49481   2.49835   2.50047   2.50395
 Alpha virt. eigenvalues --    2.50516   2.50953   2.51505   2.51856   2.52536
 Alpha virt. eigenvalues --    2.52859   2.53221   2.53366   2.53640   2.53948
 Alpha virt. eigenvalues --    2.54367   2.54952   2.55454   2.55572   2.55958
 Alpha virt. eigenvalues --    2.56139   2.56270   2.57449   2.57532   2.57929
 Alpha virt. eigenvalues --    2.58293   2.58322   2.58665   2.58999   2.59235
 Alpha virt. eigenvalues --    2.59376   2.59934   2.60474   2.60498   2.60843
 Alpha virt. eigenvalues --    2.61583   2.61778   2.62059   2.62255   2.62385
 Alpha virt. eigenvalues --    2.62445   2.63028   2.63243   2.63656   2.63778
 Alpha virt. eigenvalues --    2.64064   2.64373   2.64757   2.64913   2.65089
 Alpha virt. eigenvalues --    2.65764   2.66031   2.66180   2.66552   2.66688
 Alpha virt. eigenvalues --    2.66986   2.67377   2.67792   2.67996   2.68138
 Alpha virt. eigenvalues --    2.68449   2.68783   2.68982   2.69246   2.70287
 Alpha virt. eigenvalues --    2.70320   2.70408   2.70614   2.70818   2.71052
 Alpha virt. eigenvalues --    2.71129   2.71466   2.71551   2.72300   2.72448
 Alpha virt. eigenvalues --    2.72679   2.72716   2.72988   2.73385   2.73892
 Alpha virt. eigenvalues --    2.73969   2.74241   2.74443   2.74654   2.75124
 Alpha virt. eigenvalues --    2.75446   2.75721   2.75893   2.76167   2.76422
 Alpha virt. eigenvalues --    2.76774   2.76913   2.77429   2.77725   2.77841
 Alpha virt. eigenvalues --    2.78074   2.78545   2.78648   2.78722   2.78990
 Alpha virt. eigenvalues --    2.79210   2.79408   2.79619   2.79992   2.80230
 Alpha virt. eigenvalues --    2.80706   2.80768   2.80908   2.81180   2.81312
 Alpha virt. eigenvalues --    2.81968   2.82251   2.82450   2.82775   2.82867
 Alpha virt. eigenvalues --    2.83460   2.83654   2.84522   2.84637   2.85020
 Alpha virt. eigenvalues --    2.85166   2.85637   2.85923   2.85946   2.86317
 Alpha virt. eigenvalues --    2.86622   2.86806   2.87157   2.87406   2.87790
 Alpha virt. eigenvalues --    2.88000   2.88402   2.88924   2.89524   2.89708
 Alpha virt. eigenvalues --    2.89763   2.89948   2.90251   2.90685   2.91006
 Alpha virt. eigenvalues --    2.91377   2.91431   2.92253   2.92373   2.92655
 Alpha virt. eigenvalues --    2.92920   2.93212   2.93326   2.93491   2.94064
 Alpha virt. eigenvalues --    2.94675   2.95397   2.95692   2.96151   2.96242
 Alpha virt. eigenvalues --    2.96287   2.96540   2.96712   2.97128   2.97281
 Alpha virt. eigenvalues --    2.97608   2.98058   2.98450   2.98651   2.98858
 Alpha virt. eigenvalues --    2.99329   2.99488   2.99664   3.00186   3.00470
 Alpha virt. eigenvalues --    3.00776   3.01005   3.01211   3.01486   3.01788
 Alpha virt. eigenvalues --    3.01907   3.02459   3.02795   3.03206   3.03832
 Alpha virt. eigenvalues --    3.03907   3.04415   3.04957   3.05059   3.05417
 Alpha virt. eigenvalues --    3.05996   3.06180   3.06687   3.06909   3.07285
 Alpha virt. eigenvalues --    3.07725   3.08250   3.08679   3.09311   3.09460
 Alpha virt. eigenvalues --    3.10160   3.11284   3.11372   3.12128   3.12309
 Alpha virt. eigenvalues --    3.12881   3.13234   3.13338   3.14044   3.14310
 Alpha virt. eigenvalues --    3.14418   3.15024   3.15191   3.15394   3.15688
 Alpha virt. eigenvalues --    3.16480   3.16661   3.16932   3.17189   3.17268
 Alpha virt. eigenvalues --    3.17429   3.17861   3.18143   3.18376   3.18619
 Alpha virt. eigenvalues --    3.19335   3.19513   3.19944   3.20293   3.20496
 Alpha virt. eigenvalues --    3.21270   3.21404   3.21589   3.22259   3.23113
 Alpha virt. eigenvalues --    3.23236   3.23493   3.24029   3.24229   3.24260
 Alpha virt. eigenvalues --    3.24631   3.25097   3.26273   3.26543   3.27480
 Alpha virt. eigenvalues --    3.27797   3.29152   3.29239   3.30945   3.31146
 Alpha virt. eigenvalues --    3.31392   3.33433   3.34235   3.34524   3.34989
 Alpha virt. eigenvalues --    3.35950   3.36516   3.36917   3.37842   3.39218
 Alpha virt. eigenvalues --    3.40139   3.40400   3.48399   3.49360   3.51497
 Alpha virt. eigenvalues --    3.54430   3.55572   3.57185   3.57272   3.57445
 Alpha virt. eigenvalues --    3.58079   3.58640   3.59270   3.60901   3.61672
 Alpha virt. eigenvalues --    3.62166   3.62364   3.62682   3.64026   3.64873
 Alpha virt. eigenvalues --    3.66821   3.67088   3.67440   3.68472   3.68676
 Alpha virt. eigenvalues --    3.69297   3.69386   3.69553   3.69747   3.70217
 Alpha virt. eigenvalues --    3.70904   3.71058   3.71421   3.71678   3.72074
 Alpha virt. eigenvalues --    3.72612   3.72754   3.74291   3.74368   3.74860
 Alpha virt. eigenvalues --    3.78467   3.79174   3.81513   3.88671
          Condensed to atoms (all electrons):
 Mulliken charges:
               1
     1  C    0.075706
     2  C    0.051848
     3  O   -0.303414
     4  H    0.060237
     5  H    0.002542
     6  H    0.007179
     7  N   -0.127202
     8  C    0.072701
     9  C    0.076244
    10  O   -0.284937
    11  C    0.055566
    12  C    0.156998
    13  O   -0.452085
    14  O   -0.380901
    15  H    0.120392
    16  H    0.014387
    17  H    0.001860
    18  H    0.019355
    19  N   -0.114542
    20  C    0.111190
    21  C    0.068904
    22  O   -0.298930
    23  C    0.044594
    24  C    0.005814
    25  C   -0.070750
    26  C    0.001409
    27  N    0.089046
    28  H    0.154429
    29  H   -0.033140
    30  H    0.004131
    31  H    0.041937
    32  H   -0.001590
    33  H    0.061794
    34  H    0.019520
    35  H    0.027820
    36  H    0.108152
    37  H    0.074605
    38  H    0.196411
    39  H    0.204598
    40  H    0.190935
    41  N   -0.156959
    42  C    0.123443
    43  C    0.064257
    44  O   -0.294224
    45  C    0.070574
    46  C    0.154417
    47  O   -0.442070
    48  O   -0.404848
    49  H    0.153687
    50  H    0.010893
    51  H   -0.008666
    52  H    0.029514
    53  N   -0.149994
    54  C    0.259372
    55  C    0.019820
    56  O   -0.290311
    57  H    0.135642
    58  H    0.010226
    59  H    0.016791
    60  N   -0.181277
    61  C    0.169737
    62  C    0.045532
    63  O   -0.297421
    64  C    0.044103
    65  C    0.101941
    66  N   -0.026570
    67  O   -0.357564
    68  H    0.148657
    69  H    0.017378
    70  H    0.069157
    71  H    0.022454
    72  H    0.121500
    73  H    0.120348
    74  N   -0.159141
    75  C    0.245229
    76  C    0.018180
    77  O   -0.298309
    78  H    0.147801
    79  H    0.022073
    80  H    0.026421
    81  N   -0.144885
    82  C    0.130836
    83  C    0.101086
    84  O   -0.378250
    85  C    0.192728
    86  C   -0.049077
    87  C    0.001848
    88  C    0.015048
    89  C   -0.047723
    90  C   -0.026527
    91  C    0.159165
    92  O   -0.210855
    93  H    0.151350
    94  H   -0.010120
    95  H    0.003418
    96  H    0.007452
    97  H   -0.046069
    98  H   -0.006779
    99  H   -0.041131
   100  H   -0.032438
   101  H    0.178718
   102  N   -0.095699
   103  C    0.150983
   104  C    0.031776
   105  O   -0.279563
   106  C   -0.103124
   107  C    0.046429
   108  C    0.073651
   109  C   -0.033923
   110  H    0.127719
   111  H    0.023829
   112  H   -0.014222
   113  H   -0.011586
   114  H   -0.021503
   115  H    0.010255
   116  H    0.017442
   117  H    0.001414
   118  H   -0.006205
   119  H    0.010577
   120  H    0.071685
   121  N   -0.156409
   122  C    0.101192
   123  C    0.124340
   124  O   -0.279536
   125  C    0.206666
   126  O   -0.312483
   127  H    0.161646
   128  H    0.031827
   129  H    0.030472
   130  H   -0.027796
   131  H    0.162196
   132  N   -0.141589
   133  C    0.094342
   134  C    0.045885
   135  O   -0.249316
   136  C    0.040881
   137  H    0.114794
   138  H    0.019832
   139  H    0.033522
   140  H    0.015254
   141  H    0.045026
   142  N   -0.125164
   143  C    0.101066
   144  C    0.071910
   145  O   -0.275937
   146  C    0.026952
   147  H    0.100565
   148  H    0.015864
   149  H    0.016021
   150  H    0.035922
   151  H    0.006849
   152  N   -0.159754
   153  C    0.153950
   154  C    0.073235
   155  O   -0.297310
   156  C   -0.016198
   157  C    0.077820
   158  C    0.139066
   159  O   -0.417776
   160  O   -0.443298
   161  H    0.136840
   162  H   -0.017652
   163  H    0.031754
   164  H    0.017163
   165  H   -0.006244
   166  H   -0.038574
   167  N   -0.162963
   168  C    0.131155
   169  H    0.021224
   170  H    0.002778
   171  H    0.023418
   172  H    0.134237
   173  Ca   1.288794
   174  O   -0.325962
   175  H    0.177933
   176  H    0.139237
 Sum of Mulliken charges =  -0.00000
 Mulliken charges with hydrogens summed into heavy atoms:
               1
     1  C    0.145664
     2  C    0.051848
     3  O   -0.303414
     7  N   -0.006811
     8  C    0.087088
     9  C    0.076244
    10  O   -0.284937
    11  C    0.076781
    12  C    0.156998
    13  O   -0.452085
    14  O   -0.380901
    19  N    0.039887
    20  C    0.078051
    21  C    0.068904
    22  O   -0.298930
    23  C    0.090661
    24  C    0.066017
    25  C   -0.023410
    26  C    0.184166
    27  N    0.680990
    41  N   -0.003272
    42  C    0.134336
    43  C    0.064257
    44  O   -0.294224
    45  C    0.091421
    46  C    0.154417
    47  O   -0.442070
    48  O   -0.404848
    53  N   -0.014353
    54  C    0.286389
    55  C    0.019820
    56  O   -0.290311
    60  N   -0.032620
    61  C    0.187115
    62  C    0.045532
    63  O   -0.297421
    64  C    0.135714
    65  C    0.101941
    66  N    0.215279
    67  O   -0.357564
    74  N   -0.011340
    75  C    0.293723
    76  C    0.018180
    77  O   -0.298309
    81  N    0.006465
    82  C    0.120716
    83  C    0.101086
    84  O   -0.378250
    85  C    0.203598
    86  C   -0.049077
    87  C   -0.044221
    88  C    0.008269
    89  C   -0.088854
    90  C   -0.058965
    91  C    0.159165
    92  O   -0.032137
   102  N    0.032020
   103  C    0.174812
   104  C    0.031776
   105  O   -0.279563
   106  C   -0.117346
   107  C    0.013340
   108  C    0.102762
   109  C    0.042134
   121  N    0.005237
   122  C    0.133019
   123  C    0.124340
   124  O   -0.279536
   125  C    0.209342
   126  O   -0.150287
   132  N   -0.026795
   133  C    0.114173
   134  C    0.045885
   135  O   -0.249316
   136  C    0.134682
   142  N   -0.024599
   143  C    0.116930
   144  C    0.071910
   145  O   -0.275937
   146  C    0.085744
   152  N   -0.022915
   153  C    0.136297
   154  C    0.073235
   155  O   -0.297310
   156  C    0.032719
   157  C    0.033001
   158  C    0.139066
   159  O   -0.417776
   160  O   -0.443298
   167  N   -0.028725
   168  C    0.178576
   173  Ca   1.288794
   174  O   -0.008792
 DipInt: DoE/N= T F RetVal/Mat= T F Init=T NMatP=  1 IDeriv=0 Min/MaxMlt=  0  4
 Entering OneElI...
 OneElI was handed  1333951383 working-precision words.
 Multipole integrals L=0 to 4 MinM= 0 MaxM= 0.
 Requested accuracy = 0.1000D-12
 ShPair: Thresh= 1.00D-13 NBox=     0 BxSize= 0.00D+00 RnKept= 2.55D+01
         NSMCal=               327645 NSMKep=              167295
 PrmmSu-InSpLW:  IPartL=    0 NPrtUS=    1 NPrtUL=    1 DoSpLW=F IThBeg=    0 IThEnd=    0 NThAct=    1.
 PrsmSu:  NPrtUS=   1 ThrOK=F IAlg=1 NPAlg=1 LenDen=           0 ISkipM=0 DoSpLW=F IThBeg=    0 IThEnd=    0.
 Prism:   IPart=     0 DynPar=F LinDyn=F Incr=         512.
 PRISM was handed  1323612093 working-precision words and167295 shell-pairs
 IPart=  0 NShTot=      167295 NBatch=         382 AvBLen=       437.9
 PrsmSu-ThDecC:  IPartSL=    0    0 NPrtUSL=    1    1 IThBeg=    0 IThEnd=    0 CPU=   -1 GPU=   -1 NThAct=    1.
 PrSmSu:  NxtVal=            513.
 Electronic moments (au):
       -716.00000000         10.76015597          3.88703629          0.01236420
     -48742.98000547     -28407.45964718     -12348.52386889         98.48590066
          7.80176598         72.78039510     -43498.81997319     -53098.44877666
      -5129.06787582     -10487.23757491      89965.62304707      30545.07704791
      -4065.52352330        264.20576078       3125.03954711     -24467.32521741
   -6525082.24921028   -2549895.42692800    -497988.51322257     210110.25518468
     246727.55702485    -415046.64969713     -57626.99058622     -33208.10908296
       4893.18626226   -1708930.46103697    -728949.59804800    -382125.84285820
    -202222.09947818     -66225.43523478      -3986.50871823
 Electronic spatial extent (au):  <R**2>=          89498.9635
 DipInt: DoE/N= F T RetVal/Mat= T F Init=T NMatP=  1 IDeriv=0 Min/MaxMlt=  0  4
 Nuclear    moments (au):
        716.00000000         -0.00000000         -0.00000000          0.00000000
      48241.92164441      28148.48904237      11956.13825474          0.00000000
         -0.00000000         -0.00000000      43664.20299835      55550.50253361
       5154.43869044      12681.38010856     -90003.58981518     -31077.52683600
       4382.42875731       -265.17458262      -2623.66960971      24648.06113689
    6332035.02194219    2491260.10157303     456206.93145231    -202573.25695461
    -243935.96758569     438485.96914157      68488.13091660      33714.28312206
      -2365.12685384    1676354.18854361     694679.64903648     360654.37702326
     207167.51011834      68455.73256496       3653.12935632
 Total      moments (au):
         -0.00000000         10.76015597          3.88703629          0.01236420
       -501.05836106       -258.97060481       -392.38561415         98.48590066
          7.80176598         72.78039510        165.38302516       2452.05375694
         25.37081462       2194.14253365        -37.96676812       -532.44978809
        316.90523401         -0.96882184        501.36993740        180.73591948
    -193047.22726809     -58635.32535497     -41781.58177025       7536.99823007
       2791.58943916      23439.31944444      10861.14033038        506.17403910
       2528.05940842     -32576.27249336     -34269.94901152     -21471.46583494
       4945.41064016       2230.29733019       -333.37936191
 Traceless Quadrup. (au):
       -116.92016772        125.16758853         -8.24742081         98.48590066
          7.80176598         72.78039510
 Charge=             -0.0000 electrons
 Dipole moment (field-independent basis, Debye):
    X=             27.3496    Y=              9.8799    Z=              0.0314  Tot=             29.0794
 Quadrupole moment (field-independent basis, Debye-Ang):
   XX=           -673.9407   YY=           -348.3243   ZZ=           -527.7721
   XY=            132.4669   XZ=             10.4936   YZ=             97.8921
 Traceless Quadrupole moment (field-independent basis, Debye-Ang):
   XX=           -157.2616   YY=            168.3547   ZZ=            -11.0931
   XY=            132.4669   XZ=             10.4936   YZ=             97.8921
 Octapole moment (field-independent basis, Debye-Ang**2):
  XXX=            117.7133  YYY=           1745.2774  ZZZ=             18.0580  XYY=           1561.7061
  XXY=            -27.0233  XXZ=           -378.9772  XZZ=            225.5609  YZZ=             -0.6896
  YYZ=            356.8558  XYZ=            128.6409
 Hexadecapole moment (field-independent basis, Debye-Ang**3):
 XXXX=         -72710.8427 YYYY=         -22084.8752 ZZZZ=         -15736.9472 XXXY=           2838.7949
 XXXZ=           1051.4464 YYYX=           8828.3717 YYYZ=           4090.8263 ZZZX=            190.6494
 ZZZY=            952.1884 XXYY=         -12269.7863 XXZZ=         -12907.7061 YYZZ=          -8087.1836
 XXYZ=           1862.6788 YYXZ=            840.0369 ZZXY=           -125.5667
 N-N= 2.210804339214D+04 E-N=-5.669883005943D+04  KE= 5.290377081655D+03
 Leave Link  601 at Sat Sep 14 23:26:52 2019, MaxMem=  1342177280 cpu:              50.0 elap:               1.3
 FitSet:  NAtFit=   176 NAtPot=   176 NAtFrz=     0 MDM=   180 TotChg=   0.00000
 Merz-Kollman atomic radii used.
 Read replacement radii for each type of atom:
 Rad(20) =   1.700000000000D+00
 Atom Element Radius
    1     6    1.50
    2     6    1.50
    3     8    1.40
    4     1    1.20
    5     1    1.20
    6     1    1.20
    7     7    1.50
    8     6    1.50
    9     6    1.50
   10     8    1.40
   11     6    1.50
   12     6    1.50
   13     8    1.40
   14     8    1.40
   15     1    1.20
   16     1    1.20
   17     1    1.20
   18     1    1.20
   19     7    1.50
   20     6    1.50
   21     6    1.50
   22     8    1.40
   23     6    1.50
   24     6    1.50
   25     6    1.50
   26     6    1.50
   27     7    1.50
   28     1    1.20
   29     1    1.20
   30     1    1.20
   31     1    1.20
   32     1    1.20
   33     1    1.20
   34     1    1.20
   35     1    1.20
   36     1    1.20
   37     1    1.20
   38     1    1.20
   39     1    1.20
   40     1    1.20
   41     7    1.50
   42     6    1.50
   43     6    1.50
   44     8    1.40
   45     6    1.50
   46     6    1.50
   47     8    1.40
   48     8    1.40
   49     1    1.20
   50     1    1.20
   51     1    1.20
   52     1    1.20
   53     7    1.50
   54     6    1.50
   55     6    1.50
   56     8    1.40
   57     1    1.20
   58     1    1.20
   59     1    1.20
   60     7    1.50
   61     6    1.50
   62     6    1.50
   63     8    1.40
   64     6    1.50
   65     6    1.50
   66     7    1.50
   67     8    1.40
   68     1    1.20
   69     1    1.20
   70     1    1.20
   71     1    1.20
   72     1    1.20
   73     1    1.20
   74     7    1.50
   75     6    1.50
   76     6    1.50
   77     8    1.40
   78     1    1.20
   79     1    1.20
   80     1    1.20
   81     7    1.50
   82     6    1.50
   83     6    1.50
   84     8    1.40
   85     6    1.50
   86     6    1.50
   87     6    1.50
   88     6    1.50
   89     6    1.50
   90     6    1.50
   91     6    1.50
   92     8    1.40
   93     1    1.20
   94     1    1.20
   95     1    1.20
   96     1    1.20
   97     1    1.20
   98     1    1.20
   99     1    1.20
  100     1    1.20
  101     1    1.20
  102     7    1.50
  103     6    1.50
  104     6    1.50
  105     8    1.40
  106     6    1.50
  107     6    1.50
  108     6    1.50
  109     6    1.50
  110     1    1.20
  111     1    1.20
  112     1    1.20
  113     1    1.20
  114     1    1.20
  115     1    1.20
  116     1    1.20
  117     1    1.20
  118     1    1.20
  119     1    1.20
  120     1    1.20
  121     7    1.50
  122     6    1.50
  123     6    1.50
  124     8    1.40
  125     6    1.50
  126     8    1.40
  127     1    1.20
  128     1    1.20
  129     1    1.20
  130     1    1.20
  131     1    1.20
  132     7    1.50
  133     6    1.50
  134     6    1.50
  135     8    1.40
  136     6    1.50
  137     1    1.20
  138     1    1.20
  139     1    1.20
  140     1    1.20
  141     1    1.20
  142     7    1.50
  143     6    1.50
  144     6    1.50
  145     8    1.40
  146     6    1.50
  147     1    1.20
  148     1    1.20
  149     1    1.20
  150     1    1.20
  151     1    1.20
  152     7    1.50
  153     6    1.50
  154     6    1.50
  155     8    1.40
  156     6    1.50
  157     6    1.50
  158     6    1.50
  159     8    1.40
  160     8    1.40
  161     1    1.20
  162     1    1.20
  163     1    1.20
  164     1    1.20
  165     1    1.20
  166     1    1.20
  167     7    1.50
  168     6    1.50
  169     1    1.20
  170     1    1.20
  171     1    1.20
[...]
 **** Fit      -0.034935
 **** Fit      -0.034459
 **** Fit      -0.033318
 **** Fit      -0.031584
 **** Fit      -0.029334
 **** Fit      -0.026663
 **** Fit      -0.023705
 **** Fit      -0.020658
 **** Fit      -0.017809
 **** Fit      -0.015529
 **** Fit      -0.014236
 **** Fit      -0.014296
 **** Fit      -0.036226
 **** Fit      -0.036482
 **** Fit      -0.035959
 **** Fit      -0.034738
 **** Fit      -0.032883
 **** Fit      -0.030459
 **** Fit      -0.027550
 **** Fit      -0.024280
 **** Fit      -0.020848
 **** Fit      -0.017564
 **** Fit      -0.014871
 **** Fit      -0.013345
 **** Fit      -0.013628
 **** Fit      -0.016275
 **** Fit      -0.035077
 **** Fit      -0.038171
 **** Fit      -0.038387
 **** Fit      -0.037821
 **** Fit      -0.036540
 **** Fit      -0.034596
 **** Fit      -0.032040
 **** Fit      -0.028944
 **** Fit      -0.025420
 **** Fit      -0.021651
 **** Fit      -0.017938
 **** Fit      -0.014733
 **** Fit      -0.012670
 **** Fit      -0.012545
 **** Fit      -0.015209
 **** Fit      -0.037060
 **** Fit      -0.040732
 **** Fit      -0.040868
 **** Fit      -0.040213
 **** Fit      -0.038808
 **** Fit      -0.036688
 **** Fit      -0.033899
 **** Fit      -0.030510
 **** Fit      -0.026636
 **** Fit      -0.022469
 **** Fit      -0.018321
 **** Fit      -0.014670
 **** Fit      -0.012195
 **** Fit      -0.011766
 **** Fit      -0.014344
 **** Fit      -0.039728
 **** Fit      -0.044202
 **** Fit      -0.044223
 **** Fit      -0.043426
 **** Fit      -0.041808
 **** Fit      -0.039384
 **** Fit      -0.036201
 **** Fit      -0.032344
 **** Fit      -0.027954
 **** Fit      -0.023259
 **** Fit      -0.018620
 **** Fit      -0.014565
 **** Fit      -0.011820
 **** Fit      -0.011257
 **** Fit      -0.043372
 **** Fit      -0.048970
 **** Fit      -0.048905
 **** Fit      -0.047973
 **** Fit      -0.046107
 **** Fit      -0.043308
 **** Fit      -0.039639
 **** Fit      -0.035216
 **** Fit      -0.030218
 **** Fit      -0.024912
 **** Fit      -0.019679
 **** Fit      -0.043433
 **** Fit      -0.037721
 **** Fit      -0.031416
 **** Fit       0.004952
 **** Fit       0.006769
 **** Fit       0.006256
 **** Fit       0.007101
 **** Fit       0.006312
 **** Fit       0.005678
 **** Fit       0.004462
 **** Fit       0.001478
 **** Fit      -0.003567
 **** Fit      -0.000435
 **** Fit      -0.005847
 **** Fit      -0.008598
 **** Fit      -0.010967
 **** Fit      -0.012468
 **** Fit      -0.005153
 **** Fit      -0.011688
 **** Fit      -0.015004
 **** Fit      -0.018000
 **** Fit      -0.021644
 **** Fit      -0.026608
 **** Fit      -0.019985
 **** Fit      -0.025071
 **** Fit      -0.012296
 **** Fit      -0.011517
 **** Fit      -0.003719
 **** Fit      -0.018038
 **** Fit      -0.007175
 **** Fit       0.001987
 **** Fit      -0.029675
 **** Fit      -0.017528
 **** Fit      -0.006279
 **** Fit       0.003693
 **** Fit      -0.018306
 **** Fit      -0.006455
 **** Fit       0.004029
 **** Fit      -0.005057
 **** Fit       0.005797
 **** Fit      -0.002960
 **** Fit      -0.001733
 **** Fit       0.002251
 **** Fit      -0.001692
 **** Fit      -0.003988
 **** Fit       0.004826
 **** Fit       0.005739
 **** Fit       0.009272
 **** Fit       0.010069
 **** Fit       0.009794
 **** Fit      -0.041380
 **** Fit      -0.046322
 **** Fit      -0.049606
 **** Fit      -0.001577
 **** Fit      -0.001605
 **** Fit      -0.002123
 **** Fit      -0.001155
 **** Fit      -0.000769
 **** Fit      -0.000711
 **** Fit      -0.001006
 **** Fit      -0.001616
 **** Fit      -0.002482
 **** Fit      -0.003544
 **** Fit      -0.005395
 **** Fit      -0.001121
 **** Fit      -0.000462
 **** Fit      -0.000004
 **** Fit       0.000207
 **** Fit       0.000096
 **** Fit      -0.000328
 **** Fit      -0.001002
 **** Fit      -0.001869
 **** Fit      -0.002900
 **** Fit      -0.004079
 **** Fit      -0.006071
 **** Fit      -0.007582
 **** Fit      -0.000071
 **** Fit       0.000207
 **** Fit      -0.000554
 **** Fit      -0.001432
 **** Fit      -0.002412
 **** Fit      -0.003501
 **** Fit      -0.004715
 **** Fit      -0.006733
 **** Fit      -0.008394
 **** Fit      -0.010294
 **** Fit       0.000149
 **** Fit      -0.000790
 **** Fit      -0.001785
 **** Fit      -0.002843
 **** Fit      -0.003995
 **** Fit      -0.005278
 **** Fit      -0.007358
 **** Fit      -0.009127
 **** Fit      -0.011185
 **** Fit      -0.013603
 **** Fit       0.000851
 **** Fit      -0.000184
 **** Fit      -0.001223
 **** Fit      -0.002269
 **** Fit      -0.003353
 **** Fit      -0.004522
 **** Fit      -0.005838
 **** Fit      -0.014724
 **** Fit      -0.017918
 **** Fit      -0.021907
 **** Fit       0.000590
 **** Fit      -0.000563
 **** Fit      -0.001668
 **** Fit      -0.002740
 **** Fit      -0.019083
 **** Fit      -0.023261
 **** Fit      -0.028684
 **** Fit       0.000095
 **** Fit      -0.001129
 **** Fit      -0.002256
 **** Fit      -0.024865
 **** Fit      -0.030522
 **** Fit       0.001040
 **** Fit      -0.000420
 **** Fit      -0.001736
 **** Fit      -0.027492
 **** Fit      -0.033723
 **** Fit       0.001013
 **** Fit      -0.000734
 **** Fit      -0.036712
 **** Fit       0.000796
 **** Fit      -0.001340
 **** Fit       0.000256
 **** Fit      -0.002427
 **** Fit       0.004545
 **** Fit       0.000503
 **** Fit      -0.003259
 **** Fit      -0.003770
 **** Fit      -0.004644
 **** Fit      -0.004993
 **** Fit      -0.006163
 **** Fit      -0.005938
 **** Fit      -0.004463
 **** Fit      -0.003501
 **** Fit      -0.003782
 **** Fit      -0.005516
 **** Fit      -0.006960
 **** Fit      -0.008177
 **** Fit      -0.008615
 **** Fit      -0.007866
 **** Fit      -0.006205
 **** Fit      -0.004437
 **** Fit      -0.003196
 **** Fit      -0.002632
 **** Fit      -0.002653
 **** Fit      -0.003198
 **** Fit      -0.004196
 **** Fit      -0.006217
 **** Fit      -0.007745
 **** Fit      -0.009349
 **** Fit      -0.010825
 **** Fit      -0.011796
 **** Fit      -0.011826
 **** Fit      -0.010722
 **** Fit      -0.008761
 **** Fit      -0.006525
 **** Fit      -0.004554
 **** Fit      -0.003147
 **** Fit      -0.002328
 **** Fit      -0.001947
 **** Fit      -0.001896
 **** Fit      -0.002168
 **** Fit      -0.002772
 **** Fit      -0.003683
 **** Fit      -0.004848
 **** Fit      -0.007096
 **** Fit      -0.008765
 **** Fit      -0.010625
 **** Fit      -0.012625
 **** Fit      -0.014583
 **** Fit      -0.016131
 **** Fit      -0.016771
 **** Fit      -0.016113
 **** Fit      -0.014177
 **** Fit      -0.011433
 **** Fit      -0.008509
 **** Fit      -0.005895
 **** Fit      -0.003877
 **** Fit      -0.002567
 **** Fit      -0.001841
 **** Fit      -0.005610
 **** Fit      -0.008147
 **** Fit      -0.010015
 **** Fit      -0.012152
 **** Fit      -0.014596
 **** Fit      -0.017309
 **** Fit      -0.020082
 **** Fit      -0.022459
 **** Fit      -0.023770
 **** Fit      -0.023402
 **** Fit      -0.021208
 **** Fit      -0.017680
 **** Fit      -0.013644
 **** Fit      -0.009802
 **** Fit      -0.006536
 **** Fit      -0.004031
 **** Fit      -0.002430
 **** Fit      -0.011413
 **** Fit      -0.013793
 **** Fit      -0.016595
 **** Fit      -0.019896
 **** Fit      -0.023682
 **** Fit      -0.027726
 **** Fit      -0.016247
 **** Fit      -0.011412
 **** Fit      -0.019277
 **** Fit      -0.023423
 **** Fit      -0.028497
 **** Fit      -0.013869
 **** Fit      -0.027012
 **** Fit       0.000484
 **** Fit       0.000982
 **** Fit       0.000950
 **** Fit       0.000848
 **** Fit       0.001497
 **** Fit       0.001891
 **** Fit       0.001956
 **** Fit       0.001655
 **** Fit       0.001020
 **** Fit       0.001488
 **** Fit       0.002099
 **** Fit       0.002594
 **** Fit       0.002841
 **** Fit       0.002775
 **** Fit       0.002387
 **** Fit       0.001713
 **** Fit       0.002185
 **** Fit       0.002923
 **** Fit       0.003457
 **** Fit       0.003701
 **** Fit       0.003623
 **** Fit       0.003220
 **** Fit       0.002524
 **** Fit       0.001601
 **** Fit       0.002912
 **** Fit       0.003771
 **** Fit       0.004334
 **** Fit       0.004580
 **** Fit       0.004494
 **** Fit       0.004075
 **** Fit       0.003353
 **** Fit       0.002387
 **** Fit       0.001260
 **** Fit       0.004087
 **** Fit       0.004930
 **** Fit       0.005422
 **** Fit       0.005534
 **** Fit       0.005252
 **** Fit       0.004594
 **** Fit       0.003613
 **** Fit       0.002391
 **** Fit       0.005444
 **** Fit       0.006245
 **** Fit       0.006616
 **** Fit       0.006525
 **** Fit       0.005979
 **** Fit       0.005024
 **** Fit       0.003738
 **** Fit       0.002224
 **** Fit       0.006710
 **** Fit       0.007623
 **** Fit       0.007962
 **** Fit       0.007716
 **** Fit       0.006919
 **** Fit       0.005644
 **** Fit       0.004000
 **** Fit       0.002115
 **** Fit       0.007240
 **** Fit       0.008837
 **** Fit       0.009579
 **** Fit       0.009477
 **** Fit       0.008588
 **** Fit       0.007022
 **** Fit       0.004933
 **** Fit       0.002504
 **** Fit       0.009321
 **** Fit       0.011245
 **** Fit       0.011820
 **** Fit       0.011130
 **** Fit       0.009339
 **** Fit       0.006696
 **** Fit       0.003489
 **** Fit      -0.007118
 **** Fit      -0.008861
 **** Fit      -0.004422
 **** Fit      -0.005663
 **** Fit      -0.007521
 **** Fit      -0.009252
 **** Fit      -0.011364
 **** Fit      -0.003767
 **** Fit      -0.004853
 **** Fit      -0.006081
 **** Fit      -0.008075
 **** Fit      -0.009759
 **** Fit      -0.011804
 **** Fit      -0.014326
 **** Fit      -0.017490
 **** Fit      -0.002394
 **** Fit      -0.003374
 **** Fit      -0.004374
 **** Fit      -0.005451
 **** Fit      -0.006663
 **** Fit      -0.008880
 **** Fit      -0.010614
 **** Fit      -0.012716
 **** Fit      -0.015314
 **** Fit      -0.018589
 **** Fit      -0.002952
 **** Fit      -0.003989
 **** Fit      -0.005041
 **** Fit      -0.006165
 **** Fit      -0.007422
 **** Fit      -0.010043
 **** Fit      -0.011804
 **** Fit      -0.013925
 **** Fit      -0.016525
 **** Fit      -0.019773
 **** Fit      -0.023933
 **** Fit      -0.002719
 **** Fit      -0.003873
 **** Fit      -0.004975
 **** Fit      -0.006083
 **** Fit      -0.007254
 **** Fit      -0.008552
 **** Fit      -0.011690
 **** Fit      -0.013514
 **** Fit      -0.015702
 **** Fit      -0.018369
 **** Fit      -0.021671
 **** Fit      -0.025837
 **** Fit      -0.031233
 **** Fit      -0.002440
 **** Fit      -0.003862
 **** Fit      -0.005146
 **** Fit      -0.006351
 **** Fit      -0.007539
 **** Fit      -0.008779
 **** Fit      -0.010138
 **** Fit      -0.013980
 **** Fit      -0.015959
 **** Fit      -0.018348
 **** Fit      -0.021274
 **** Fit      -0.024897
 **** Fit      -0.029428
 **** Fit      -0.035175
 **** Fit      -0.003479
 **** Fit      -0.005242
 **** Fit      -0.006777
 **** Fit      -0.008162
 **** Fit      -0.009486
 **** Fit      -0.010837
 **** Fit      -0.012304
 **** Fit      -0.017133
 **** Fit      -0.019306
 **** Fit      -0.021969
 **** Fit      -0.025267
 **** Fit      -0.029357
 **** Fit      -0.034405
 **** Fit      -0.007310
 **** Fit      -0.009199
 **** Fit      -0.010812
 **** Fit      -0.012283
 **** Fit      -0.013744
 **** Fit      -0.015320
 **** Fit      -0.021474
 **** Fit      -0.023784
 **** Fit      -0.026680
 **** Fit      -0.030312
 **** Fit      -0.034805
 **** Fit      -0.040197
 **** Fit      -0.011077
 **** Fit      -0.013284
 **** Fit      -0.015035
 **** Fit      -0.016546
 **** Fit      -0.018010
 **** Fit      -0.019600
 **** Fit      -0.027503
 **** Fit      -0.030003
 **** Fit      -0.033323
 **** Fit      -0.037612
 **** Fit      -0.042894
 **** Fit      -0.025633
 **** Fit       0.030816
 **** Fit       0.028869
 **** Fit       0.025435
 **** Fit       0.025449
 **** Fit       0.001188
 **** Fit       0.020169
 **** Fit       0.021403
 **** Fit       0.024592
 **** Fit       0.006222
 **** Fit      -0.002461
 **** Fit      -0.010210
 **** Fit      -0.017270
 **** Fit       0.014877
 **** Fit       0.017077
 **** Fit       0.020738
 **** Fit       0.025996
 **** Fit       0.001186
 **** Fit      -0.006572
 **** Fit       0.009207
 **** Fit       0.012688
 **** Fit       0.016997
 **** Fit       0.022496
 **** Fit       0.001584
 **** Fit      -0.006969
 **** Fit      -0.000283
 **** Fit       0.004965
 **** Fit       0.009945
 **** Fit       0.015448
 **** Fit      -0.016657
 **** Fit      -0.007701
 **** Fit      -0.000573
 **** Fit       0.005785
 **** Fit       0.012237
 **** Fit      -0.015112
 **** Fit      -0.006234
 **** Fit       0.001427
 **** Fit       0.008749
 **** Fit      -0.016005
 **** Fit      -0.006293
 **** Fit       0.002288
 **** Fit      -0.009144
 **** Fit      -0.012011
 **** Fit      -0.021250
 **** Fit      -0.026409
 **** Fit      -0.017355
 **** Fit      -0.009285
 **** Fit      -0.017412
 **** Fit      -0.001526
 **** Fit      -0.010590
 **** Fit      -0.005650
 **** Fit      -0.001298
 **** Fit      -0.011641
 **** Fit      -0.008819
 **** Fit      -0.007819
 **** Fit       0.019956
 **** Fit       0.011378
 **** Fit       0.024471
 **** Fit       0.030775
 **** Fit       0.020255
 **** Fit       0.012312
 **** Fit       0.018957
 **** Fit       0.025305
 **** Fit       0.031641
 **** Fit       0.038132
 **** Fit       0.026847
 **** Fit       0.019538
 **** Fit       0.012163
 **** Fit       0.004603
 **** Fit       0.013418
 **** Fit       0.019953
 **** Fit       0.026141
 **** Fit       0.032167
 **** Fit       0.038052
 **** Fit       0.043618
 **** Fit       0.036368
 **** Fit       0.030396
 **** Fit       0.023731
 **** Fit       0.016648
 **** Fit       0.009170
 **** Fit       0.009828
 **** Fit       0.016830
 **** Fit       0.023234
 **** Fit       0.029206
 **** Fit       0.034710
 **** Fit       0.039483
 **** Fit       0.043019
 **** Fit       0.031852
 **** Fit       0.026494
 **** Fit       0.020166
 **** Fit       0.013128
 **** Fit       0.005355
 **** Fit       0.006275
 **** Fit       0.013617
 **** Fit       0.020184
 **** Fit       0.026060
 **** Fit       0.031143
 **** Fit       0.035104
 **** Fit       0.037449
 **** Fit       0.037719
 **** Fit       0.035764
 **** Fit       0.027230
 **** Fit       0.022058
 **** Fit       0.015549
 **** Fit       0.008037
 **** Fit      -0.000321
 **** Fit      -0.000223
 **** Fit       0.007720
 **** Fit       0.014931
 **** Fit       0.021228
 **** Fit       0.026385
 **** Fit       0.029979
 **** Fit       0.031478
 **** Fit       0.030530
 **** Fit       0.022408
 **** Fit       0.016781
 **** Fit       0.009298
 **** Fit       0.001288
 **** Fit      -0.005713
 **** Fit      -0.001057
 **** Fit       0.006350
 **** Fit       0.013929
 **** Fit       0.020251
 **** Fit       0.024284
 **** Fit       0.025109
 **** Fit       0.017276
 **** Fit       0.010528
 **** Fit       0.004203
 **** Fit       0.005637
 **** Fit       0.012859
 **** Fit       0.018292
 **** Fit       0.011721
 -----------------------------------------------------------------
 Leave Link  602 at Sat Sep 14 23:26:55 2019, MaxMem=  1342177280 cpu:             110.6 elap:               2.4

 Test job not archived.
 1\1\GINC-C506-082\SP\RB3LYP\SVP\C54H83Ca1N15O23\PENGZHI\14-Sep-2019\0\
 \#b3lyp/svp scf=(tight,noincore) Test #IOP(5/87=12) Density=Current Po
 p=(MK,readradii) iop(6/33=2) iop(6/42=6)\\holoCaM_loop3_84.0\\0,1\C,0,
 73.08,35.74,29.17\C,0,74.46,35.29,28.73\O,0,75.08,34.36,29.24\H,0,72.3
 61,34.943,28.98\H,0,73.094,35.969,30.236\H,0,72.792,36.63,28.611\N,0,7
 5.12,36.1,27.9\C,0,76.52,35.97,27.55\C,0,77.44,36.37,28.69\O,0,77.94,3
 7.49,28.77\C,0,76.79,36.72,26.25\C,0,78.25,36.75,25.8\O,0,79.11,35.91,
 26.14\O,0,78.39,37.5,24.81\H,0,74.68,36.96,27.59\H,0,76.7,34.94,27.24\
 H,0,76.55,37.77,26.42\H,0,76.16,36.26,25.49\N,0,77.77,35.42,29.57\C,0,
 78.41,35.56,30.86\C,0,79.84,36.07,30.84\O,0,80.25,36.69,31.82\C,0,78.4
 ,34.26,31.65\C,0,76.97,33.77,31.88\C,0,75.89,34.67,32.48\C,0,76.24,35.
 23,33.85\N,0,75.11,36.03,34.33\H,0,77.44,34.47,29.42\H,0,77.85,36.35,3
 1.36\H,0,78.89,34.53,32.59\H,0,78.94,33.42,31.23\H,0,76.97,32.86,32.47
 \H,0,76.55,33.35,30.96\H,0,74.93,34.16,32.52\H,0,75.67,35.47,31.77\H,0
 ,77.17,35.8,33.74\H,0,76.39,34.33,34.45\H,0,75.21,36.09,35.34\H,0,75.1
 5,36.94,33.89\H,0,74.21,35.59,34.17\N,0,80.65,35.76,29.82\C,0,81.94,36
 .35,29.53\C,0,81.93,37.48,28.52\O,0,82.93,38.17,28.31\C,0,82.99,35.28,
 29.24\C,0,82.66,34.4,28.05\O,0,81.91,34.83,27.14\O,0,83.13,33.24,27.97
 \H,0,80.24,35.21,29.08\H,0,82.32,36.8,30.44\H,0,82.87,34.72,30.17\H,0,
 84.01,35.66,29.37\N,0,80.76,37.84,27.98\C,0,80.53,38.93,27.06\C,0,81.4
 3,38.95,25.83\O,0,81.95,40.03,25.54\H,0,80.,37.21,28.17\H,0,80.71,39.9
 5,27.41\H,0,79.48,38.81,26.78\N,0,81.83,37.82,25.24\C,0,82.68,37.71,24
 .07\C,0,81.84,37.81,22.81\O,0,82.38,37.93,21.71\C,0,83.6,36.49,24.15\C
 ,0,82.83,35.2,23.95\N,0,83.62,34.13,23.81\O,0,81.62,34.98,24.07\H,0,81
 .51,36.93,25.58\H,0,83.3,38.6,24.11\H,0,84.12,36.47,25.11\H,0,84.43,36
 .51,23.44\H,0,84.62,34.27,23.76\H,0,83.21,33.24,23.57\N,0,80.51,37.7,2
 2.94\C,0,79.6,37.99,21.85\C,0,79.08,36.82,21.04\O,0,78.57,36.93,19.93\
 H,0,80.13,37.71,23.88\H,0,79.94,38.77,21.16\H,0,78.69,38.38,22.29\N,0,
 79.25,35.6,21.56\C,0,78.55,34.39,21.16\C,0,78.15,33.52,22.34\O,0,78.83
 ,33.48,23.37\C,0,79.28,33.56,20.11\C,0,80.78,33.74,20.14\C,0,81.57,32.
 92,20.95\C,0,81.39,34.71,19.33\C,0,82.96,33.07,20.99\C,0,82.78,34.87,1
 9.37\C,0,83.58,34.05,20.19\O,0,84.94,34.18,20.14\H,0,79.73,35.47,22.44
 \H,0,77.59,34.77,20.83\H,0,78.93,33.92,19.14\H,0,79.06,32.5,20.26\H,0,
 81.1,32.24,21.64\H,0,80.8,35.39,18.73\H,0,83.61,32.39,21.52\H,0,83.25,
 35.7,18.86\H,0,85.22,34.91,19.58\N,0,77.,32.85,22.32\C,0,76.51,32.08,2
 3.45\C,0,77.06,30.66,23.39\O,0,77.32,30.1,22.33\C,0,74.99,32.12,23.52\
 C,0,74.58,33.47,24.11\C,0,74.35,31.01,24.34\C,0,74.92,33.76,25.57\H,0,
 76.36,32.96,21.54\H,0,76.93,32.54,24.34\H,0,74.53,31.97,22.55\H,0,73.5
 1,33.63,24.01\H,0,75.1,34.22,23.5\H,0,74.43,30.05,23.82\H,0,74.79,30.9
 8,25.34\H,0,73.29,31.16,24.54\H,0,74.42,34.66,25.91\H,0,74.45,32.97,26
 .15\H,0,76.,33.84,25.74\N,0,77.32,30.07,24.55\C,0,77.76,28.71,24.82\C,
 0,76.88,27.89,25.75\O,0,75.91,28.36,26.34\C,0,79.17,28.95,25.36\O,0,79
 .24,29.13,26.76\H,0,77.31,30.61,25.41\H,0,77.86,28.15,23.89\H,0,79.66,
 29.79,24.88\H,0,79.72,28.01,25.28\H,0,80.16,29.35,26.96\N,0,77.16,26.5
 9,25.91\C,0,76.26,25.66,26.56\C,0,76.14,25.95,28.05\O,0,75.05,25.92,28
 .6\C,0,76.77,24.24,26.31\H,0,77.98,26.23,25.44\H,0,75.3,25.83,26.07\H,
 0,76.71,24.05,25.24\H,0,77.79,24.12,26.7\H,0,76.12,23.54,26.83\N,0,77.
 22,26.3,28.76\C,0,77.11,26.79,30.11\C,0,76.22,28.02,30.25\O,0,75.45,28
 .12,31.21\C,0,78.5,27.04,30.69\H,0,78.11,26.33,28.28\H,0,76.69,26.02,3
 0.76\H,0,79.01,27.89,30.23\H,0,78.42,27.13,31.77\H,0,79.12,26.16,30.48
 \N,0,76.17,28.85,29.22\C,0,75.31,30.01,29.16\C,0,73.88,29.63,28.81\O,0
 ,72.97,30.28,29.31\C,0,75.93,31.1,28.3\C,0,77.38,31.45,28.62\C,0,78.16
 ,32.32,27.64\O,0,79.09,33.01,28.12\O,0,78.01,32.21,26.41\H,0,76.69,28.
 69,28.36\H,0,75.25,30.46,30.15\H,0,75.33,32.,28.42\H,0,75.97,30.78,27.
 26\H,0,77.93,30.51,28.68\H,0,77.5,31.98,29.57\N,0,73.6,28.64,27.95\C,0
 ,72.31,28.27,27.42\H,0,71.611,29.094,27.559\H,0,72.403,28.049,26.357\H
 ,0,71.941,27.388,27.944\H,0,74.35,28.1,27.53\Ca,0,80.09,33.55,25.77\O,
 0,81.52,31.6,26.93\H,0,82.11,32.04,27.55\H,0,81.66,30.67,27.09\\Versio
 n=ES64L-G16RevA.03\State=1-A\HF=-5333.5973082\RMSD=4.456e-09\Dipole=-5
 .9335595,-4.9014708,8.4651412\Quadrupole=-27.3022405,-56.8928854,84.19
 5126,-107.7777279,-66.4565445,90.5093065\PG=C01 [X(C54H83Ca1N15O23)]\\
 @


 THERE ARE PEOPLE SO ADDICTED TO EXAGERATING THEY
 CAN'T TELL THE TRUTH WITHOUT LYING. -- FORTUNE COOKIE
 Job cpu time:       0 days  9 hours 31 minutes 17.7 seconds.
 Elapsed time:       0 days  0 hours 12 minutes  1.9 seconds.
 File lengths (MBytes):  RWF=   1517 Int=      0 D2E=      0 Chk=    171 Scr=      1
 Normal termination of Gaussian 16 at Sat Sep 14 23:26:56 2019.
