 Entering Gaussian System, Link 0=g09
 Initial command:
 /home/pcieplak/g09/g09/l1.exe "/scratch1/pcieplak/holo_7.0/Gau-26179.inp" -scrdir="/scratch1/pcieplak/holo_7.0/"
 Entering Link 1 = /home/pcieplak/g09/g09/l1.exe PID=     26180.
  
 Copyright (c) 1988,1990,1992,1993,1995,1998,2003,2009,2013,
            Gaussian, Inc.  All Rights Reserved.
  
 This is part of the Gaussian(R) 09 program.  It is based on
 the Gaussian(R) 03 system (copyright 2003, Gaussian, Inc.),
 the Gaussian(R) 98 system (copyright 1998, Gaussian, Inc.),
 the Gaussian(R) 94 system (copyright 1995, Gaussian, Inc.),
 the Gaussian 92(TM) system (copyright 1992, Gaussian, Inc.),
 the Gaussian 90(TM) system (copyright 1990, Gaussian, Inc.),
 the Gaussian 88(TM) system (copyright 1988, Gaussian, Inc.),
 the Gaussian 86(TM) system (copyright 1986, Carnegie Mellon
 University), and the Gaussian 82(TM) system (copyright 1983,
 Carnegie Mellon University). Gaussian is a federally registered
 trademark of Gaussian, Inc.
  
 This software contains proprietary and confidential information,
 including trade secrets, belonging to Gaussian, Inc.
  
 This software is provided under written license and may be
 used, copied, transmitted, or stored only in accord with that
 written license.
  
 The following legend is applicable only to US Government
 contracts under FAR:
  
                    RESTRICTED RIGHTS LEGEND
  
 Use, reproduction and disclosure by the US Government is
 subject to restrictions as set forth in subparagraphs (a)
 and (c) of the Commercial Computer Software - Restricted
 Rights clause in FAR 52.227-19.
  
 Gaussian, Inc.
 340 Quinnipiac St., Bldg. 40, Wallingford CT 06492
  
  
 ---------------------------------------------------------------
 Warning -- This program may not be used in any manner that
 competes with the business of Gaussian, Inc. or will provide
 assistance to any competitor of Gaussian, Inc.  The licensee
 of this program is prohibited from giving any competitor of
 Gaussian, Inc. access to this program.  By using this program,
 the user acknowledges that Gaussian, Inc. is engaged in the
 business of creating and licensing software in the field of
 computational chemistry and represents and warrants to the
 licensee that it is not a competitor of Gaussian, Inc. and that
 it will not use this program in any manner prohibited above.
 ---------------------------------------------------------------
  

 Cite this work as:
 Gaussian 09, Revision D.01,
 M. J. Frisch, G. W. Trucks, H. B. Schlegel, G. E. Scuseria, 
 M. A. Robb, J. R. Cheeseman, G. Scalmani, V. Barone, B. Mennucci, 
 G. A. Petersson, H. Nakatsuji, M. Caricato, X. Li, H. P. Hratchian, 
 A. F. Izmaylov, J. Bloino, G. Zheng, J. L. Sonnenberg, M. Hada, 
 M. Ehara, K. Toyota, R. Fukuda, J. Hasegawa, M. Ishida, T. Nakajima, 
 Y. Honda, O. Kitao, H. Nakai, T. Vreven, J. A. Montgomery, Jr., 
 J. E. Peralta, F. Ogliaro, M. Bearpark, J. J. Heyd, E. Brothers, 
 K. N. Kudin, V. N. Staroverov, T. Keith, R. Kobayashi, J. Normand, 
 K. Raghavachari, A. Rendell, J. C. Burant, S. S. Iyengar, J. Tomasi, 
 M. Cossi, N. Rega, J. M. Millam, M. Klene, J. E. Knox, J. B. Cross, 
 V. Bakken, C. Adamo, J. Jaramillo, R. Gomperts, R. E. Stratmann, 
 O. Yazyev, A. J. Austin, R. Cammi, C. Pomelli, J. W. Ochterski, 
 R. L. Martin, K. Morokuma, V. G. Zakrzewski, G. A. Voth, 
 P. Salvador, J. J. Dannenberg, S. Dapprich, A. D. Daniels, 
 O. Farkas, J. B. Foresman, J. V. Ortiz, J. Cioslowski, 
 and D. J. Fox, Gaussian, Inc., Wallingford CT, 2013.
 
 ******************************************
 Gaussian 09:  ES64L-G09RevD.01 24-Apr-2013
                16-Sep-2019 
 ******************************************
 %Nproc=12
 Will use up to   12 processors via shared memory.
 %chk=chk1mol
 %mem=32GB
 ----------------------------------------------------------------------
 #maxdisk=50GB #B3LYP/SVP Density=Current scf=(tight) #IOP(5/87=12)Pop=
 (MK,readradii) iop(6/33=2) iop(6/42=6)
 ----------------------------------------------------------------------
 1/30=1,38=1/1;
 2/12=2,17=6,18=5,40=1/2;
 3/5=18,7=101,11=2,16=1,25=1,30=1,74=-5/1,2,3;
 4//1;
 5/5=2,32=2,38=5,87=12/2;
 6/7=2,8=2,9=2,10=2,15=8,20=101,22=-1,28=1,33=2,42=6/1,2;
 99/5=1,9=1/99;
 ------------
 SOL molecule
 ------------
 Symbolic Z-matrix:
 Charge =  0 Multiplicity = 1
 C                     46.24     40.51     24.25 
 C                     46.92     39.65     25.31 
 O                     46.84     39.98     26.49 
 H                     45.331    40.946    24.665 
 H                     46.916    41.307    23.939 
 H                     45.985    39.892    23.389 
 N                     47.62     38.57     24.95 
 C                     48.61     37.93     25.8 
 C                     49.91     38.69     25.96 
 O                     50.36     39.37     25.04 
 C                     48.84     36.58     25.11 
 C                     49.62     35.51     25.86 
 O                     50.47     35.77     26.74 
 O                     49.51     34.31     25.55 
 H                     47.69     38.36     23.97 
 H                     48.28     37.76     26.83 
 H                     49.36     36.72     24.17 
 H                     47.87     36.16     24.85 
 N                     50.47     38.62     27.17 
 C                     51.6      39.43     27.59 
 C                     52.94     38.72     27.54 
 O                     53.99     39.36     27.59 
 C                     51.34     40.       28.98 
 C                     50.19     41.       29.13 
 C                     50.5      42.39     28.58 
 C                     51.56     43.23     29.29 
 N                     51.57     44.59     28.75 
 H                     49.95     38.09     27.85 
 H                     51.79     40.25     26.9 
 H                     52.23     40.57     29.27 
 H                     51.3      39.17     29.68 
 H                     49.93     41.06     30.18 
 H                     49.38     40.59     28.53 
 H                     49.61     43.02     28.6 
 H                     50.69     42.24     27.52 
 H                     52.46     42.66     29.09 
 H                     51.29     43.22     30.35 
 H                     51.95     45.37     29.26 
 H                     52.07     44.64     27.87 
 H                     50.72     44.95     28.35 
 N                     52.96     37.39     27.37 
 C                     54.14     36.71     26.89 
 C                     53.92     35.95     25.59 
 O                     54.92     35.36     25.18 
 C                     54.8      35.8      27.92 
 C                     53.88     34.78     28.58 
 O                     54.19     34.29     29.68 
 O                     52.78     34.54     28.04 
 H                     52.06     36.93     27.33 
 H                     54.95     37.38     26.57 
 H                     55.23     36.41     28.71 
 H                     55.58     35.17     27.49 
 N                     52.72     35.94     25.01 
 C                     52.34     35.13     23.86 
 C                     52.37     33.62     24.03 
 O                     52.53     32.88     23.06 
 H                     51.93     36.3      25.52 
 H                     53.       35.38     23.02 
 H                     51.32     35.4      23.6 
 N                     52.47     33.1      25.25 
 C                     52.73     31.7      25.48 
 C                     51.51     30.82     25.25 
 O                     51.62     29.6      25.33 
 C                     53.38     31.48     26.84 
 C                     52.41     31.42     28.01 
 N                     52.5      30.42     28.88 
 O                     51.36     32.06     28.07 
 H                     52.41     33.72     26.05 
 H                     53.41     31.43     24.67 
 H                     54.23     32.12     27.09 
 H                     53.82     30.48     26.8 
 H                     53.33     29.85     28.99 
 H                     51.86     30.45     29.66 
 N                     50.35     31.42     24.98 
 C                     49.21     30.76     24.37 
 C                     47.99     30.7      25.28 
 O                     47.01     30.03     24.97 
 H                     50.3      32.43     24.96 
 H                     49.44     29.76     24. 
 H                     48.91     31.32     23.48 
 N                     47.98     31.4      26.42 
 C                     46.95     31.5      27.44 
 C                     46.93     32.88     28.09 
 O                     47.9      33.63     28.16 
 C                     47.01     30.49     28.57 
 C                     47.51     29.08     28.33 
 C                     48.89     28.85     28.35 
 C                     46.61     28.08     27.94 
 C                     49.37     27.57     28.04 
 C                     47.11     26.81     27.63 
 C                     48.49     26.54     27.66 
 O                     48.88     25.24     27.48 
 H                     48.67     32.14     26.48 
 H                     45.97     31.32     26.99 
 H                     46.08     30.46     29.13 
 H                     47.82     30.81     29.23 
 H                     49.63     29.59     28.62 
 H                     45.58     28.4      27.98 
 H                     50.43     27.38     28.08 
 H                     46.43     25.99     27.45 
 H                     48.21     24.55     27.46 
 N                     45.81     33.18     28.75 
 C                     45.51     34.4      29.47 
 C                     44.99     34.       30.84 
 O                     44.09     33.18     31.03 
 C                     44.62     35.17     28.5 
 C                     45.36     35.73     27.29 
 C                     43.9      36.28     29.26 
 C                     44.69     36.65     26.27 
 H                     45.09     32.47     28.71 
 H                     46.41     35.       29.62 
 H                     43.87     34.46     28.17 
 H                     45.72     34.88     26.71 
 H                     46.18     36.38     27.6 
 H                     43.29     36.89     28.59 
 H                     43.2      35.77     29.91 
 H                     44.41     36.9      30. 
 H                     44.35     37.51     26.85 
 H                     45.34     36.87     25.43 
 H                     43.78     36.11     26.02 
 N                     45.49     34.75     31.83 
 C                     44.93     34.83     33.16 
 C                     43.95     35.95     33.46 
 O                     43.83     36.87     32.65 
 C                     46.11     34.96     34.12 
 O                     46.72     36.22     33.99 
 H                     46.27     35.38     31.71 
 H                     44.42     33.91     33.45 
 H                     46.81     34.15     33.88 
 H                     45.84     34.85     35.17 
 H                     47.46     36.25     34.59 
 N                     43.41     36.05     34.67 
 C                     42.75     37.24     35.17 
 C                     43.58     38.5      35.02 
 O                     43.11     39.59     34.7 
 C                     42.49     36.91     36.64 
 H                     43.5      35.25     35.29 
 H                     41.75     37.3      34.75 
 H                     41.98     35.95     36.72 
 H                     43.42     36.81     37.21 
 H                     41.74     37.59     37.05 
 N                     44.9      38.42     35.26 
 C                     45.75     39.59     35.35 
 C                     46.42     40.08     34.08 
 O                     46.79     41.24     33.91 
 C                     46.79     39.27     36.42 
 H                     45.29     37.55     35.61 
 H                     45.22     40.47     35.71 
 H                     47.63     39.95     36.54 
 H                     46.37     39.31     37.42 
 H                     47.22     38.27     36.29 
 N                     46.47     39.18     33.1 
 C                     46.62     39.45     31.68 
 C                     45.34     40.09     31.14 
 O                     45.4      41.06     30.39 
 C                     47.06     38.28     30.8 
 C                     48.54     37.99     31.05 
 C                     49.06     36.74     30.35 
 O                     49.53     36.8      29.19 
 O                     48.94     35.61     30.88 
 H                     46.24     38.24     33.38 
 H                     47.31     40.28     31.51 
 H                     46.8      38.49     29.77 
 H                     46.47     37.45     31.16 
 H                     48.62     37.88     32.13 
 H                     49.06     38.9      30.76 
 N                     44.17     39.51     31.39 
 C                     42.87     40.02     30.99 
 H                     42.169    39.915    31.818 
 H                     42.959    41.073    30.721 
 H                     42.506    39.455    30.132 
 H                     44.21     38.62     31.86 
 Ca                    50.39     34.4      28.84 
 O                     49.41     32.45     30.27 
 H                     48.75     32.23     30.93 
 H                     49.69     31.6      29.92 
 
 Stoichiometry    C54H83CaN15O23
 Framework group  C1[X(C54H83CaN15O23)]
 Deg. of freedom   522
 Full point group                 C1      NOp   1
 Largest Abelian subgroup         C1      NOp   1
 Largest concise Abelian subgroup C1      NOp   1
                         Standard orientation:                         
 ---------------------------------------------------------------------
 Center     Atomic      Atomic             Coordinates (Angstroms)
 Number     Number       Type             X           Y           Z
 ---------------------------------------------------------------------
      1          6           0        1.705110    3.945881    5.703380
      2          6           0        1.423538    3.322854    4.340239
      3          8           0        2.360418    3.103708    3.577394
      4          1           0        2.673998    3.602054    6.066205
      5          1           0        1.716121    5.032357    5.611971
      6          1           0        0.928001    3.647424    6.407151
      7          7           0        0.167566    3.051045    3.973285
      8          6           0       -0.243007    2.842415    2.594843
      9          6           0       -0.288714    4.091515    1.739940
     10          8           0       -0.595822    5.177752    2.226844
     11          6           0       -1.636653    2.218871    2.737819
     12          6           0       -2.283534    1.607299    1.503589
     13          8           0       -2.020082    1.974192    0.337191
     14          8           0       -3.193401    0.765907    1.614951
     15          1           0       -0.570379    3.282506    4.614582
     16          1           0        0.402444    2.163345    2.028312
     17          1           0       -2.342495    2.952498    3.108196
     18          1           0       -1.587691    1.445488    3.502268
     19          7           0        0.091433    3.931547    0.470098
     20          6           0        0.311737    5.028442   -0.456017
     21          6           0       -0.835790    5.286653   -1.414510
     22          8           0       -0.901411    6.342945   -2.042634
     23          6           0        1.614807    4.809708   -1.216782
     24          6           0        2.916897    4.839376   -0.411376
     25          6           0        3.356153    6.240151    0.007655
     26          6           0        3.797892    7.216583   -1.080805
     27          7           0        4.369852    8.420108   -0.476082
     28          1           0        0.392052    3.001274    0.229433
     29          1           0        0.356089    5.988257    0.055244
     30          1           0        1.720312    5.637766   -1.926914
     31          1           0        1.496431    3.924703   -1.835858
     32          1           0        3.690061    4.363490   -1.002518
     33          1           0        2.697709    4.285212    0.499151
     34          1           0        4.214244    6.190599    0.678941
     35          1           0        2.552570    6.612942    0.638116
     36          1           0        2.870088    7.379977   -1.616887
     37          1           0        4.535964    6.679627   -1.683737
     38          1           0        4.988906    9.034178   -0.978664
     39          1           0        3.649632    9.054446   -0.150815
     40          1           0        4.789135    8.342235    0.435092
     41          7           0       -1.813206    4.373799   -1.512265
     42          6           0       -3.111531    4.714951   -2.044400
     43          6           0       -4.252319    4.486784   -1.063308
     44          8           0       -5.363430    4.766874   -1.514065
     45          6           0       -3.433359    4.054099   -3.380178
     46          6           0       -3.269219    2.539537   -3.419648
     47          8           0       -3.105086    1.964702   -4.509981
     48          8           0       -3.200951    1.924181   -2.335270
     49          1           0       -1.697412    3.532954   -0.962018
     50          1           0       -3.254190    5.787212   -2.237542
     51          1           0       -2.787998    4.471811   -4.148375
     52          1           0       -4.474719    4.185891   -3.677500
     53          7           0       -4.007984    3.998664    0.152644
     54          6           0       -5.016597    3.588924    1.121052
     55          6           0       -5.920022    2.428203    0.738362
     56          8           0       -7.042592    2.315271    1.229465
     57          1           0       -3.091986    3.632985    0.355197
     58          1           0       -5.661113    4.448611    1.342943
     59          1           0       -4.492181    3.297692    2.027182
     60          7           0       -5.603560    1.668634   -0.306486
     61          6           0       -6.512742    0.699585   -0.867584
     62          6           0       -6.625014   -0.567828   -0.032861
     63          8           0       -7.429975   -1.436300   -0.356426
     64          6           0       -6.187899    0.426944   -2.330678
     65          6           0       -5.077012   -0.586136   -2.560895
     66          7           0       -5.271742   -1.582829   -3.417448
     67          8           0       -4.111111   -0.733913   -1.811964
     68          1           0       -4.706542    1.810084   -0.757431
     69          1           0       -7.489593    1.175185   -0.762868
     70          1           0       -6.040221    1.298108   -2.974001
     71          1           0       -7.079606   -0.047555   -2.748899
     72          1           0       -5.986160   -1.569182   -4.135306
     73          1           0       -4.488650   -2.202590   -3.564291
     74          7           0       -5.822285   -0.691290    1.024912
     75          6           0       -6.049483   -1.615618    2.120949
     76          6           0       -4.966776   -2.679587    2.246704
     77          8           0       -5.105248   -3.626037    3.015116
     78          1           0       -5.149218    0.034804    1.231719
     79          1           0       -7.029371   -2.093361    2.083797
     80          1           0       -6.051354   -1.057585    3.061319
     81          7           0       -3.845352   -2.570684    1.525421
     82          6           0       -2.687278   -3.446539    1.470254
     83          6           0       -1.399717   -2.666577    1.222974
     84          8           0       -1.342797   -1.581677    0.650217
     85          6           0       -2.723599   -4.559815    0.440741
     86          6           0       -4.028226   -5.232700    0.065411
     87          6           0       -4.841068   -4.621105   -0.895287
     88          6           0       -4.467729   -6.349364    0.787907
     89          6           0       -6.091412   -5.184421   -1.185482
     90          6           0       -5.721306   -6.893844    0.486103
     91          6           0       -6.554514   -6.315397   -0.488250
     92          8           0       -7.698825   -6.990983   -0.817846
     93          1           0       -3.663984   -1.649717    1.143028
     94          1           0       -2.586379   -3.980738    2.418806
     95          1           0       -1.965247   -5.311903    0.637376
     96          1           0       -2.528558   -4.093506   -0.528080
     97          1           0       -4.562732   -3.745886   -1.465042
     98          1           0       -3.732332   -6.715491    1.487937
     99          1           0       -6.710242   -4.733235   -1.943624
    100          1           0       -6.029218   -7.825835    0.937526
    101          1           0       -7.834157   -7.877666   -0.470169
    102          7           0       -0.275045   -3.318417    1.523337
    103          6           0        1.085157   -2.841735    1.383968
    104          6           0        1.869605   -3.920017    0.656472
    105          8           0        1.883028   -5.108744    0.980891
    106          6           0        1.462497   -2.437235    2.805198
    107          6           0        0.767666   -1.171386    3.295232
    108          6           0        2.979066   -2.296239    2.895968
    109          6           0        1.106695   -0.512389    4.631826
    110          1           0       -0.410589   -4.241408    1.915530
    111          1           0        1.124462   -1.936199    0.774903
    112          1           0        1.173974   -3.274728    3.430386
    113          1           0       -0.299060   -1.389449    3.350413
    114          1           0        0.971217   -0.331208    2.629148
    115          1           0        3.288467   -1.956290    3.886829
    116          1           0        3.363338   -3.303993    2.799175
    117          1           0        3.562985   -1.807693    2.113369
    118          1           0        2.170188   -0.275490    4.565036
    119          1           0        0.447453    0.319376    4.855582
    120          1           0        1.053691   -1.343834    5.330460
    121          7           0        2.687897   -3.429453   -0.282860
    122          6           0        3.782521   -4.161150   -0.878945
    123          6           0        5.166722   -3.998566   -0.276988
    124          8           0        5.358494   -3.099477    0.542623
    125          6           0        3.846052   -3.730146   -2.342195
    126          8           0        4.296575   -2.402757   -2.450220
    127          1           0        2.649353   -2.474743   -0.609574
    128          1           0        3.597887   -5.236337   -0.900911
    129          1           0        2.835936   -3.844577   -2.754834
    130          1           0        4.512977   -4.337583   -2.953531
    131          1           0        4.301561   -2.169886   -3.374474
    132          7           0        6.195285   -4.661550   -0.794878
    133          6           0        7.584549   -4.335007   -0.539895
    134          6           0        7.916053   -2.874770   -0.778249
    135          8           0        8.673148   -2.223377   -0.061384
    136          6           0        8.345561   -5.248235   -1.501288
    137          1           0        5.986778   -5.421713   -1.436109
    138          1           0        7.869438   -4.713612    0.437600
    139          1           0        8.013391   -6.278698   -1.375156
    140          1           0        8.155423   -4.992350   -2.549224
    141          1           0        9.393390   -5.318787   -1.201160
    142          7           0        7.357739   -2.264318   -1.837510
    143          6           0        7.759374   -0.944216   -2.279686
    144          6           0        7.018294    0.251040   -1.710420
    145          8           0        7.497556    1.381364   -1.646574
    146          6           0        7.660722   -0.965271   -3.802422
    147          1           0        6.800868   -2.809220   -2.489028
    148          1           0        8.801576   -0.723261   -2.056316
    149          1           0        7.764286   -0.024201   -4.337269
    150          1           0        8.470062   -1.529733   -4.254475
    151          1           0        6.721875   -1.413630   -4.147879
    152          7           0        5.839086   -0.039669   -1.164657
    153          6           0        5.121485    0.748564   -0.176964
    154          6           0        5.852903    0.681679    1.164735
    155          8           0        6.024120    1.699443    1.829446
    156          6           0        3.633097    0.445562   -0.004372
    157          6           0        2.865141    0.988502   -1.209552
    158          6           0        1.389431    0.608305   -1.234648
    159          8           0        0.528548    1.332004   -0.682162
    160          8           0        1.015763   -0.484320   -1.723262
    161          1           0        5.498833   -0.966050   -1.367009
    162          1           0        5.228734    1.817561   -0.376072
    163          1           0        3.301977    0.816948    0.957414
    164          1           0        3.586832   -0.633520   -0.010883
    165          1           0        3.378450    0.570534   -2.073680
    166          1           0        3.038353    2.062004   -1.195755
    167          7           0        6.189770   -0.504993    1.660851
    168          6           0        6.926906   -0.729092    2.892318
    169          1           0        7.679294   -1.500643    2.729125
    170          1           0        7.416253    0.196430    3.197339
    171          1           0        6.239415   -1.051695    3.674091
    172          1           0        5.860148   -1.307263    1.148687
    173         20           0       -1.662637    0.171065   -1.369932
    174          8           0       -1.632008   -2.338733   -2.082515
    175          1           0       -1.071929   -3.112501   -2.167337
    176          1           0       -2.526707   -2.683942   -2.143700
 ---------------------------------------------------------------------
 Rotational constants (GHZ):      0.0227619      0.0151296      0.0113206
 Standard basis: SVP (5D, 7F)
 There are  1809 symmetry adapted cartesian basis functions of A   symmetry.
 There are  1717 symmetry adapted basis functions of A   symmetry.
  1717 basis functions,  2922 primitive gaussians,  1809 cartesian basis functions
   358 alpha electrons      358 beta electrons
       nuclear repulsion energy     21606.8274327988 Hartrees.
 NAtoms=  176 NActive=  176 NUniq=  176 SFac= 1.00D+00 NAtFMM=   60 NAOKFM=T Big=T
 Integral buffers will be    131072 words long.
 Raffenetti 2 integral format.
 Two-electron integral symmetry is turned on.
 One-electron integrals computed using PRISM.
 NBasis=  1717 RedAO= T EigKep=  2.74D-04  NBF=  1717
 NBsUse=  1717 1.00D-06 EigRej= -1.00D+00 NBFU=  1717
 ExpMin= 1.98D-02 ExpMax= 3.51D+04 ExpMxC= 5.28D+03 IAcc=3 IRadAn=         5 AccDes= 0.00D+00
 Harris functional with IExCor=  402 and IRadAn=       5 diagonalized for initial guess.
 HarFok:  IExCor=  402 AccDes= 0.00D+00 IRadAn=         5 IDoV= 1 UseB2=F ITyADJ=14
 ICtDFT=  3500011 ScaDFX=  1.000000  1.000000  1.000000  1.000000
 FoFCou: FMM=F IPFlag=           0 FMFlag=      100000 FMFlg1=        2001
         NFxFlg=           0 DoJE=T BraDBF=F KetDBF=T FulRan=T
         wScrn=  0.000000 ICntrl=     500 IOpCl=  0 I1Cent=   200000004 NGrid=           0
         NMat0=    1 NMatS0=      1 NMatT0=    0 NMatD0=    1 NMtDS0=    0 NMtDT0=    0
 Petite list used in FoFCou.
 Requested convergence on RMS density matrix=1.00D-08 within 128 cycles.
 Requested convergence on MAX density matrix=1.00D-06.
 Requested convergence on             energy=1.00D-06.
 No special actions if energy rises.
 EnCoef did     4 forward-backward iterations
 EnCoef did     2 forward-backward iterations
 SCF Done:  E(RB3LYP) =  -5333.56211934     A.U. after   18 cycles
            NFock= 18  Conv=0.27D-08     -V/T= 2.0081

 **********************************************************************

            Population analysis using the SCF density.

 **********************************************************************

 Orbital symmetries:
 BldTbl:  Degeneracy threshold= 1.00D-02
       Occupied  (A) (A) (A) (A) (A) (A) (A) (A) (A) (A) (A) (A)
                 (A) (A) (A) (A) (A) (A) (A) (A) (A) (A) (A) (A)
                 (A) (A) (A) (A) (A) (A) (A) (A) (A) (A) (A) (A)
                 (A) (A) (A) (A) (A) (A) (A) (A) (A) (A) (A) (A)
                 (A) (A) (A) (A) (A) (A) (A) (A) (A) (A) (A) (A)
                 (A) (A) (A) (A) (A) (A) (A) (A) (A) (A) (A) (A)
                 (A) (A) (A) (A) (A) (A) (A) (A) (A) (A) (A) (A)
                 (A) (A) (A) (A) (A) (A) (A) (A) (A) (A) (A) (A)
                 (A) (A) (A) (A) (A) (A) (A) (A) (A) (A) (A) (A)
                 (A) (A) (A) (A) (A) (A) (A) (A) (A) (A) (A) (A)
                 (A) (A) (A) (A) (A) (A) (A) (A) (A) (A) (A) (A)
                 (A) (A) (A) (A) (A) (A) (A) (A) (A) (A) (A) (A)
                 (A) (A) (A) (A) (A) (A) (A) (A) (A) (A) (A) (A)
                 (A) (A) (A) (A) (A) (A) (A) (A) (A) (A) (A) (A)
                 (A) (A) (A) (A) (A) (A) (A) (A) (A) (A) (A) (A)
                 (A) (A) (A) (A) (A) (A) (A) (A) (A) (A) (A) (A)
                 (A) (A) (A) (A) (A) (A) (A) (A) (A) (A) (A) (A)
                 (A) (A) (A) (A) (A) (A) (A) (A) (A) (A) (A) (A)
                 (A) (A) (A) (A) (A) (A) (A) (A) (A) (A) (A) (A)
                 (A) (A) (A) (A) (A) (A) (A) (A) (A) (A) (A) (A)
                 (A) (A) (A) (A) (A) (A) (A) (A) (A) (A) (A) (A)
                 (A) (A) (A) (A) (A) (A) (A) (A) (A) (A) (A) (A)
                 (A) (A) (A) (A) (A) (A) (A) (A) (A) (A) (A) (A)
                 (A) (A) (A) (A) (A) (A) (A) (A) (A) (A) (A) (A)
                 (A) (A) (A) (A) (A) (A) (A) (A) (A) (A) (A) (A)
                 (A) (A) (A) (A) (A) (A) (A) (A) (A) (A) (A) (A)
                 (A) (A) (A) (A) (A) (A) (A) (A) (A) (A) (A) (A)
                 (A) (A) (A) (A) (A) (A) (A) (A) (A) (A) (A) (A)
                 (A) (A) (A) (A) (A) (A) (A) (A) (A) (A) (A) (A)
                 (A) (A) (A) (A) (A) (A) (A) (A) (A) (A)
       Virtual   (A) (A) (A) (A) (A) (A) (A) (A) (A) (A) (A) (A)
                 (A) (A) (A) (A) (A) (A) (A) (A) (A) (A) (A) (A)
                 (A) (A) (A) (A) (A) (A) (A) (A) (A) (A) (A) (A)
                 (A) (A) (A) (A) (A) (A) (A) (A) (A) (A) (A) (A)
                 (A) (A) (A) (A) (A) (A) (A) (A) (A) (A) (A) (A)
                 (A) (A) (A) (A) (A) (A) (A) (A) (A) (A) (A) (A)
                 (A) (A) (A) (A) (A) (A) (A) (A) (A) (A) (A) (A)
                 (A) (A) (A) (A) (A) (A) (A) (A) (A) (A) (A) (A)
                 (A) (A) (A) (A) (A) (A) (A) (A) (A) (A) (A) (A)
                 (A) (A) (A) (A) (A) (A) (A) (A) (A) (A) (A) (A)
                 (A) (A) (A) (A) (A) (A) (A) (A) (A) (A) (A) (A)
                 (A) (A) (A) (A) (A) (A) (A) (A) (A) (A) (A) (A)
                 (A) (A) (A) (A) (A) (A) (A) (A) (A) (A) (A) (A)
                 (A) (A) (A) (A) (A) (A) (A) (A) (A) (A) (A) (A)
                 (A) (A) (A) (A) (A) (A) (A) (A) (A) (A) (A) (A)
                 (A) (A) (A) (A) (A) (A) (A) (A) (A) (A) (A) (A)
                 (A) (A) (A) (A) (A) (A) (A) (A) (A) (A) (A) (A)
                 (A) (A) (A) (A) (A) (A) (A) (A) (A) (A) (A) (A)
                 (A) (A) (A) (A) (A) (A) (A) (A) (A) (A) (A) (A)
                 (A) (A) (A) (A) (A) (A) (A) (A) (A) (A) (A) (A)
                 (A) (A) (A) (A) (A) (A) (A) (A) (A) (A) (A) (A)
                 (A) (A) (A) (A) (A) (A) (A) (A) (A) (A) (A) (A)
                 (A) (A) (A) (A) (A) (A) (A) (A) (A) (A) (A) (A)
                 (A) (A) (A) (A) (A) (A) (A) (A) (A) (A) (A) (A)
                 (A) (A) (A) (A) (A) (A) (A) (A) (A) (A) (A) (A)
                 (A) (A) (A) (A) (A) (A) (A) (A) (A) (A) (A) (A)
                 (A) (A) (A) (A) (A) (A) (A) (A) (A) (A) (A) (A)
                 (A) (A) (A) (A) (A) (A) (A) (A) (A) (A) (A) (A)
                 (A) (A) (A) (A) (A) (A) (A) (A) (A) (A) (A) (A)
                 (A) (A) (A) (A) (A) (A) (A) (A) (A) (A) (A) (A)
                 (A) (A) (A) (A) (A) (A) (A) (A) (A) (A) (A) (A)
                 (A) (A) (A) (A) (A) (A) (A) (A) (A) (A) (A) (A)
                 (A) (A) (A) (A) (A) (A) (A) (A) (A) (A) (A) (A)
                 (A) (A) (A) (A) (A) (A) (A) (A) (A) (A) (A) (A)
                 (A) (A) (A) (A) (A) (A) (A) (A) (A) (A) (A) (A)
                 (A) (A) (A) (A) (A) (A) (A) (A) (A) (A) (A) (A)
                 (A) (A) (A) (A) (A) (A) (A) (A) (A) (A) (A) (A)
                 (A) (A) (A) (A) (A) (A) (A) (A) (A) (A) (A) (A)
                 (A) (A) (A) (A) (A) (A) (A) (A) (A) (A) (A) (A)
                 (A) (A) (A) (A) (A) (A) (A) (A) (A) (A) (A) (A)
                 (A) (A) (A) (A) (A) (A) (A) (A) (A) (A) (A) (A)
                 (A) (A) (A) (A) (A) (A) (A) (A) (A) (A) (A) (A)
                 (A) (A) (A) (A) (A) (A) (A) (A) (A) (A) (A) (A)
                 (A) (A) (A) (A) (A) (A) (A) (A) (A) (A) (A) (A)
                 (A) (A) (A) (A) (A) (A) (A) (A) (A) (A) (A) (A)
                 (A) (A) (A) (A) (A) (A) (A) (A) (A) (A) (A) (A)
                 (A) (A) (A) (A) (A) (A) (A) (A) (A) (A) (A) (A)
                 (A) (A) (A) (A) (A) (A) (A) (A) (A) (A) (A) (A)
                 (A) (A) (A) (A) (A) (A) (A) (A) (A) (A) (A) (A)
                 (A) (A) (A) (A) (A) (A) (A) (A) (A) (A) (A) (A)
                 (A) (A) (A) (A) (A) (A) (A) (A) (A) (A) (A) (A)
                 (A) (A) (A) (A) (A) (A) (A) (A) (A) (A) (A) (A)
                 (A) (A) (A) (A) (A) (A) (A) (A) (A) (A) (A) (A)
                 (A) (A) (A) (A) (A) (A) (A) (A) (A) (A) (A) (A)
                 (A) (A) (A) (A) (A) (A) (A) (A) (A) (A) (A) (A)
                 (A) (A) (A) (A) (A) (A) (A) (A) (A) (A) (A) (A)
                 (A) (A) (A) (A) (A) (A) (A) (A) (A) (A) (A) (A)
                 (A) (A) (A) (A) (A) (A) (A) (A) (A) (A) (A) (A)
                 (A) (A) (A) (A) (A) (A) (A) (A) (A) (A) (A) (A)
                 (A) (A) (A) (A) (A) (A) (A) (A) (A) (A) (A) (A)
                 (A) (A) (A) (A) (A) (A) (A) (A) (A) (A) (A) (A)
                 (A) (A) (A) (A) (A) (A) (A) (A) (A) (A) (A) (A)
                 (A) (A) (A) (A) (A) (A) (A) (A) (A) (A) (A) (A)
                 (A) (A) (A) (A) (A) (A) (A) (A) (A) (A) (A) (A)
                 (A) (A) (A) (A) (A) (A) (A) (A) (A) (A) (A) (A)
                 (A) (A) (A) (A) (A) (A) (A) (A) (A) (A) (A) (A)
                 (A) (A) (A) (A) (A) (A) (A) (A) (A) (A) (A) (A)
                 (A) (A) (A) (A) (A) (A) (A) (A) (A) (A) (A) (A)
                 (A) (A) (A) (A) (A) (A) (A) (A) (A) (A) (A) (A)
                 (A) (A) (A) (A) (A) (A) (A) (A) (A) (A) (A) (A)
                 (A) (A) (A) (A) (A) (A) (A) (A) (A) (A) (A) (A)
                 (A) (A) (A) (A) (A) (A) (A) (A) (A) (A) (A) (A)
                 (A) (A) (A) (A) (A) (A) (A) (A) (A) (A) (A) (A)
                 (A) (A) (A) (A) (A) (A) (A) (A) (A) (A) (A) (A)
                 (A) (A) (A) (A) (A) (A) (A) (A) (A) (A) (A) (A)
                 (A) (A) (A) (A) (A) (A) (A) (A) (A) (A) (A) (A)
                 (A) (A) (A) (A) (A) (A) (A) (A) (A) (A) (A) (A)
                 (A) (A) (A) (A) (A) (A) (A) (A) (A) (A) (A) (A)
                 (A) (A) (A) (A) (A) (A) (A) (A) (A) (A) (A) (A)
                 (A) (A) (A) (A) (A) (A) (A) (A) (A) (A) (A) (A)
                 (A) (A) (A) (A) (A) (A) (A) (A) (A) (A) (A) (A)
                 (A) (A) (A) (A) (A) (A) (A) (A) (A) (A) (A) (A)
                 (A) (A) (A) (A) (A) (A) (A) (A) (A) (A) (A) (A)
                 (A) (A) (A) (A) (A) (A) (A) (A) (A) (A) (A) (A)
                 (A) (A) (A) (A) (A) (A) (A) (A) (A) (A) (A) (A)
                 (A) (A) (A) (A) (A) (A) (A) (A) (A) (A) (A) (A)
                 (A) (A) (A) (A) (A) (A) (A) (A) (A) (A) (A) (A)
                 (A) (A) (A) (A) (A) (A) (A) (A) (A) (A) (A) (A)
                 (A) (A) (A) (A) (A) (A) (A) (A) (A) (A) (A) (A)
                 (A) (A) (A) (A) (A) (A) (A) (A) (A) (A) (A) (A)
                 (A) (A) (A) (A) (A) (A) (A) (A) (A) (A) (A) (A)
                 (A) (A) (A) (A) (A) (A) (A) (A) (A) (A) (A) (A)
                 (A) (A) (A) (A) (A) (A) (A) (A) (A) (A) (A) (A)
                 (A) (A) (A) (A) (A) (A) (A) (A) (A) (A) (A) (A)
                 (A) (A) (A) (A) (A) (A) (A) (A) (A) (A) (A) (A)
                 (A) (A) (A) (A) (A) (A) (A) (A) (A) (A) (A) (A)
                 (A) (A) (A) (A) (A) (A) (A) (A) (A) (A) (A) (A)
                 (A) (A) (A) (A) (A) (A) (A) (A) (A) (A) (A) (A)
                 (A) (A) (A) (A) (A) (A) (A) (A) (A) (A) (A) (A)
                 (A) (A) (A) (A) (A) (A) (A) (A) (A) (A) (A) (A)
                 (A) (A) (A) (A) (A) (A) (A) (A) (A) (A) (A) (A)
                 (A) (A) (A) (A) (A) (A) (A) (A) (A) (A) (A) (A)
                 (A) (A) (A) (A) (A) (A) (A) (A) (A) (A) (A) (A)
                 (A) (A) (A) (A) (A) (A) (A) (A) (A) (A) (A) (A)
                 (A) (A) (A) (A) (A) (A) (A) (A) (A) (A) (A) (A)
                 (A) (A) (A) (A) (A) (A) (A) (A) (A) (A) (A) (A)
                 (A) (A) (A) (A) (A) (A) (A) (A) (A) (A) (A) (A)
                 (A) (A) (A) (A) (A) (A) (A) (A) (A) (A) (A) (A)
                 (A) (A) (A) (A) (A) (A) (A) (A) (A) (A) (A) (A)
                 (A) (A) (A) (A) (A) (A) (A) (A) (A) (A) (A) (A)
                 (A) (A) (A) (A) (A) (A) (A) (A) (A) (A) (A) (A)
                 (A) (A) (A) (A) (A) (A) (A) (A) (A) (A) (A) (A)
                 (A) (A) (A) (A) (A) (A) (A) (A) (A) (A) (A) (A)
                 (A) (A) (A)
 The electronic state is 1-A.
 Alpha  occ. eigenvalues -- -145.35520 -19.19448 -19.17373 -19.14403 -19.13758
 Alpha  occ. eigenvalues --  -19.12084 -19.11315 -19.11229 -19.10253 -19.08895
 Alpha  occ. eigenvalues --  -19.07759 -19.07611 -19.07538 -19.07287 -19.06483
 Alpha  occ. eigenvalues --  -19.05915 -19.05675 -19.05253 -19.05176 -19.04156
 Alpha  occ. eigenvalues --  -19.04015 -19.03953 -19.02534 -19.00141 -15.41279
 Alpha  occ. eigenvalues --  -14.58345 -14.40230 -14.38057 -14.37691 -14.36205
 Alpha  occ. eigenvalues --  -14.35518 -14.34493 -14.34295 -14.32497 -14.32242
 Alpha  occ. eigenvalues --  -14.31885 -14.31224 -14.30704 -14.30468 -14.29682
 Alpha  occ. eigenvalues --  -12.54919 -12.54851 -12.54820 -10.33866 -10.32413
 Alpha  occ. eigenvalues --  -10.30575 -10.30570 -10.29580 -10.29097 -10.28903
 Alpha  occ. eigenvalues --  -10.27670 -10.27478 -10.27167 -10.26974 -10.26638
 Alpha  occ. eigenvalues --  -10.25821 -10.25808 -10.25069 -10.24938 -10.24721
 Alpha  occ. eigenvalues --  -10.24594 -10.24549 -10.23976 -10.23932 -10.23773
 Alpha  occ. eigenvalues --  -10.23181 -10.23052 -10.23038 -10.22992 -10.22225
 Alpha  occ. eigenvalues --  -10.21895 -10.21834 -10.21599 -10.21097 -10.20524
 Alpha  occ. eigenvalues --  -10.20137 -10.19869 -10.19430 -10.19385 -10.19369
 Alpha  occ. eigenvalues --  -10.19115 -10.18991 -10.18816 -10.18551 -10.18319
 Alpha  occ. eigenvalues --  -10.18061 -10.17997 -10.17991 -10.17835 -10.17719
 Alpha  occ. eigenvalues --  -10.17587 -10.17399 -10.17367 -10.16807 -10.16490
 Alpha  occ. eigenvalues --  -10.16422 -10.12450  -1.78157  -1.13830  -1.08291
 Alpha  occ. eigenvalues --   -1.06952  -1.06027  -1.05868  -1.05513  -1.04830
 Alpha  occ. eigenvalues --   -1.04418  -1.03911  -1.03401  -1.03063  -1.02673
 Alpha  occ. eigenvalues --   -1.02187  -1.01847  -1.01303  -1.00478  -1.00148
 Alpha  occ. eigenvalues --   -0.99380  -0.99228  -0.99155  -0.98486  -0.97600
 Alpha  occ. eigenvalues --   -0.96996  -0.96915  -0.96328  -0.94820  -0.94050
 Alpha  occ. eigenvalues --   -0.93535  -0.91590  -0.91317  -0.90793  -0.90510
 Alpha  occ. eigenvalues --   -0.89909  -0.89387  -0.89043  -0.88347  -0.88148
 Alpha  occ. eigenvalues --   -0.88023  -0.87886  -0.86959  -0.86226  -0.85916
 Alpha  occ. eigenvalues --   -0.83637  -0.83349  -0.81685  -0.80884  -0.80114
 Alpha  occ. eigenvalues --   -0.79364  -0.78094  -0.78016  -0.77279  -0.75672
 Alpha  occ. eigenvalues --   -0.75191  -0.74609  -0.72999  -0.72901  -0.72373
 Alpha  occ. eigenvalues --   -0.71970  -0.71904  -0.71569  -0.70515  -0.70201
 Alpha  occ. eigenvalues --   -0.70025  -0.69688  -0.68792  -0.68475  -0.67908
 Alpha  occ. eigenvalues --   -0.67616  -0.66356  -0.65306  -0.65008  -0.64757
 Alpha  occ. eigenvalues --   -0.64224  -0.63120  -0.63074  -0.62435  -0.61802
 Alpha  occ. eigenvalues --   -0.61448  -0.61355  -0.60855  -0.60088  -0.59882
 Alpha  occ. eigenvalues --   -0.58896  -0.58833  -0.58782  -0.58696  -0.58248
 Alpha  occ. eigenvalues --   -0.56969  -0.56758  -0.56563  -0.56094  -0.55891
 Alpha  occ. eigenvalues --   -0.55670  -0.55357  -0.55291  -0.55057  -0.54860
 Alpha  occ. eigenvalues --   -0.54788  -0.54579  -0.54021  -0.53775  -0.53375
 Alpha  occ. eigenvalues --   -0.53200  -0.53104  -0.52930  -0.51778  -0.51641
 Alpha  occ. eigenvalues --   -0.51420  -0.50734  -0.50367  -0.50259  -0.49688
 Alpha  occ. eigenvalues --   -0.49274  -0.49015  -0.48771  -0.48405  -0.48391
 Alpha  occ. eigenvalues --   -0.48140  -0.48077  -0.47835  -0.47757  -0.47386
 Alpha  occ. eigenvalues --   -0.47321  -0.47304  -0.46912  -0.46728  -0.46295
 Alpha  occ. eigenvalues --   -0.45923  -0.45626  -0.45555  -0.45356  -0.45338
 Alpha  occ. eigenvalues --   -0.45040  -0.44865  -0.44689  -0.44612  -0.44406
 Alpha  occ. eigenvalues --   -0.44144  -0.43985  -0.43797  -0.43703  -0.43692
 Alpha  occ. eigenvalues --   -0.43540  -0.43207  -0.43132  -0.42982  -0.42878
 Alpha  occ. eigenvalues --   -0.42732  -0.42649  -0.42437  -0.42253  -0.41948
 Alpha  occ. eigenvalues --   -0.41845  -0.41654  -0.41626  -0.41482  -0.41426
 Alpha  occ. eigenvalues --   -0.41383  -0.41314  -0.41066  -0.41048  -0.40713
 Alpha  occ. eigenvalues --   -0.40555  -0.40410  -0.40265  -0.40132  -0.40009
 Alpha  occ. eigenvalues --   -0.39741  -0.39624  -0.39578  -0.39286  -0.39247
 Alpha  occ. eigenvalues --   -0.39200  -0.39058  -0.38948  -0.38703  -0.38492
 Alpha  occ. eigenvalues --   -0.38390  -0.38224  -0.38157  -0.37939  -0.37832
 Alpha  occ. eigenvalues --   -0.37747  -0.37495  -0.37419  -0.37323  -0.37211
 Alpha  occ. eigenvalues --   -0.37153  -0.36757  -0.36556  -0.36388  -0.36137
 Alpha  occ. eigenvalues --   -0.35748  -0.35693  -0.35518  -0.35435  -0.35277
 Alpha  occ. eigenvalues --   -0.35143  -0.35044  -0.34929  -0.34718  -0.34405
 Alpha  occ. eigenvalues --   -0.34201  -0.34191  -0.33911  -0.33856  -0.33800
 Alpha  occ. eigenvalues --   -0.33766  -0.33667  -0.33396  -0.33196  -0.33113
 Alpha  occ. eigenvalues --   -0.32513  -0.32091  -0.32023  -0.31796  -0.31434
 Alpha  occ. eigenvalues --   -0.31293  -0.31232  -0.30398  -0.30182  -0.29759
 Alpha  occ. eigenvalues --   -0.29750  -0.29054  -0.28572  -0.27984  -0.27843
 Alpha  occ. eigenvalues --   -0.27306  -0.27017  -0.26499  -0.26372  -0.26222
 Alpha  occ. eigenvalues --   -0.26148  -0.25942  -0.25665  -0.25147  -0.24505
 Alpha  occ. eigenvalues --   -0.24442  -0.24374  -0.23809  -0.23664  -0.23449
 Alpha  occ. eigenvalues --   -0.23345  -0.23035  -0.22956  -0.22874  -0.22739
 Alpha  occ. eigenvalues --   -0.22643  -0.21937  -0.21737  -0.21235  -0.20861
 Alpha  occ. eigenvalues --   -0.20433  -0.19948  -0.19725  -0.19565  -0.19195
 Alpha  occ. eigenvalues --   -0.19109  -0.18952  -0.16268
 Alpha virt. eigenvalues --   -0.10101  -0.04500  -0.03890  -0.02947  -0.02204
 Alpha virt. eigenvalues --   -0.01426  -0.00716  -0.00617  -0.00100   0.00058
 Alpha virt. eigenvalues --    0.00784   0.00941   0.01371   0.01623   0.02393
 Alpha virt. eigenvalues --    0.02538   0.03453   0.03784   0.03919   0.04118
 Alpha virt. eigenvalues --    0.04380   0.04575   0.04832   0.04923   0.05197
 Alpha virt. eigenvalues --    0.05406   0.05625   0.05773   0.05907   0.05979
 Alpha virt. eigenvalues --    0.06112   0.06338   0.06610   0.06717   0.06799
 Alpha virt. eigenvalues --    0.07004   0.07362   0.07367   0.07540   0.07768
 Alpha virt. eigenvalues --    0.08110   0.08254   0.08740   0.08891   0.09140
 Alpha virt. eigenvalues --    0.09191   0.09769   0.09926   0.10103   0.10406
 Alpha virt. eigenvalues --    0.10610   0.10732   0.11022   0.11165   0.11281
 Alpha virt. eigenvalues --    0.11598   0.11663   0.11852   0.11946   0.11993
 Alpha virt. eigenvalues --    0.12241   0.12465   0.12583   0.12769   0.12938
 Alpha virt. eigenvalues --    0.13165   0.13269   0.13396   0.13578   0.13819
 Alpha virt. eigenvalues --    0.13954   0.14011   0.14330   0.14414   0.14605
 Alpha virt. eigenvalues --    0.14752   0.14822   0.15251   0.15305   0.15407
 Alpha virt. eigenvalues --    0.15653   0.15771   0.15957   0.16120   0.16223
 Alpha virt. eigenvalues --    0.16803   0.16960   0.16992   0.17121   0.17155
 Alpha virt. eigenvalues --    0.17291   0.17387   0.17683   0.17793   0.17990
 Alpha virt. eigenvalues --    0.18252   0.18524   0.18676   0.18742   0.18869
 Alpha virt. eigenvalues --    0.19005   0.19124   0.19338   0.19665   0.19710
 Alpha virt. eigenvalues --    0.19926   0.20275   0.20366   0.20471   0.20633
 Alpha virt. eigenvalues --    0.20704   0.21001   0.21222   0.21262   0.21625
 Alpha virt. eigenvalues --    0.21873   0.22173   0.22283   0.22523   0.22665
 Alpha virt. eigenvalues --    0.22954   0.23103   0.23446   0.23614   0.23720
 Alpha virt. eigenvalues --    0.23974   0.24137   0.24440   0.24486   0.24757
 Alpha virt. eigenvalues --    0.25136   0.25197   0.25736   0.25775   0.26116
 Alpha virt. eigenvalues --    0.26186   0.26368   0.26475   0.26661   0.26847
 Alpha virt. eigenvalues --    0.27080   0.27244   0.27644   0.27955   0.28364
 Alpha virt. eigenvalues --    0.28400   0.28588   0.28692   0.28831   0.29107
 Alpha virt. eigenvalues --    0.29206   0.29851   0.29927   0.30369   0.30492
 Alpha virt. eigenvalues --    0.30986   0.31143   0.31479   0.31530   0.31630
 Alpha virt. eigenvalues --    0.31679   0.32048   0.32169   0.32234   0.32839
 Alpha virt. eigenvalues --    0.33182   0.33189   0.33521   0.33793   0.33895
 Alpha virt. eigenvalues --    0.34183   0.34590   0.34676   0.35091   0.35663
 Alpha virt. eigenvalues --    0.36039   0.36120   0.36273   0.36809   0.37403
 Alpha virt. eigenvalues --    0.37504   0.37676   0.37959   0.38102   0.38290
 Alpha virt. eigenvalues --    0.38350   0.38975   0.39173   0.39290   0.39439
 Alpha virt. eigenvalues --    0.39730   0.40036   0.40097   0.40440   0.40911
 Alpha virt. eigenvalues --    0.41305   0.41514   0.41651   0.41868   0.42193
 Alpha virt. eigenvalues --    0.42272   0.42782   0.43141   0.43372   0.43644
 Alpha virt. eigenvalues --    0.43767   0.43846   0.44080   0.44263   0.44583
 Alpha virt. eigenvalues --    0.44763   0.44925   0.45149   0.45276   0.45542
 Alpha virt. eigenvalues --    0.45582   0.45978   0.46063   0.46443   0.46623
 Alpha virt. eigenvalues --    0.46809   0.46875   0.47376   0.47431   0.47692
 Alpha virt. eigenvalues --    0.47794   0.47929   0.48115   0.48341   0.48437
 Alpha virt. eigenvalues --    0.48600   0.48691   0.49009   0.49156   0.49615
 Alpha virt. eigenvalues --    0.49702   0.49862   0.49989   0.50420   0.50579
 Alpha virt. eigenvalues --    0.50868   0.50971   0.51242   0.51294   0.51440
 Alpha virt. eigenvalues --    0.51700   0.51727   0.51953   0.52259   0.52594
 Alpha virt. eigenvalues --    0.52801   0.53034   0.53199   0.53295   0.53538
 Alpha virt. eigenvalues --    0.53652   0.53826   0.54024   0.54167   0.54362
 Alpha virt. eigenvalues --    0.54597   0.54772   0.54938   0.55081   0.55266
 Alpha virt. eigenvalues --    0.55290   0.55585   0.55831   0.55917   0.56092
 Alpha virt. eigenvalues --    0.56237   0.56544   0.56738   0.56929   0.57024
 Alpha virt. eigenvalues --    0.57152   0.57185   0.57342   0.57629   0.57748
 Alpha virt. eigenvalues --    0.58079   0.58160   0.58372   0.58685   0.58884
 Alpha virt. eigenvalues --    0.58983   0.59182   0.59438   0.59680   0.59762
 Alpha virt. eigenvalues --    0.60042   0.60178   0.60324   0.60441   0.60685
 Alpha virt. eigenvalues --    0.60747   0.61057   0.61124   0.61362   0.61412
 Alpha virt. eigenvalues --    0.61684   0.61821   0.61861   0.61964   0.62040
 Alpha virt. eigenvalues --    0.62252   0.62441   0.62657   0.62858   0.62923
 Alpha virt. eigenvalues --    0.63146   0.63203   0.63294   0.63385   0.63498
 Alpha virt. eigenvalues --    0.63608   0.63709   0.63860   0.64009   0.64089
 Alpha virt. eigenvalues --    0.64331   0.64375   0.64455   0.64752   0.64766
 Alpha virt. eigenvalues --    0.64945   0.65093   0.65130   0.65176   0.65324
 Alpha virt. eigenvalues --    0.65564   0.65643   0.65694   0.65791   0.65911
 Alpha virt. eigenvalues --    0.65977   0.66090   0.66141   0.66263   0.66306
 Alpha virt. eigenvalues --    0.66389   0.66529   0.66750   0.66840   0.66926
 Alpha virt. eigenvalues --    0.67158   0.67296   0.67361   0.67466   0.67567
 Alpha virt. eigenvalues --    0.67688   0.67731   0.67877   0.67934   0.68102
 Alpha virt. eigenvalues --    0.68114   0.68256   0.68340   0.68613   0.68705
 Alpha virt. eigenvalues --    0.68865   0.69016   0.69123   0.69318   0.69386
 Alpha virt. eigenvalues --    0.69488   0.69579   0.69695   0.69799   0.69904
 Alpha virt. eigenvalues --    0.69950   0.70040   0.70279   0.70483   0.70547
 Alpha virt. eigenvalues --    0.70765   0.70832   0.71100   0.71151   0.71271
 Alpha virt. eigenvalues --    0.71417   0.71573   0.71725   0.71849   0.71999
 Alpha virt. eigenvalues --    0.72315   0.72370   0.72562   0.72640   0.72785
 Alpha virt. eigenvalues --    0.72902   0.73218   0.73371   0.73533   0.73604
 Alpha virt. eigenvalues --    0.73766   0.73817   0.74109   0.74253   0.74299
 Alpha virt. eigenvalues --    0.74366   0.74731   0.74929   0.75061   0.75338
 Alpha virt. eigenvalues --    0.75505   0.75850   0.75940   0.76287   0.76331
 Alpha virt. eigenvalues --    0.76644   0.76818   0.76895   0.77030   0.77198
 Alpha virt. eigenvalues --    0.77385   0.77614   0.77718   0.78146   0.78290
 Alpha virt. eigenvalues --    0.78378   0.78609   0.79038   0.79246   0.79560
 Alpha virt. eigenvalues --    0.79668   0.79881   0.80170   0.80420   0.80797
 Alpha virt. eigenvalues --    0.80980   0.81188   0.81442   0.81490   0.81764
 Alpha virt. eigenvalues --    0.82102   0.82272   0.82553   0.82867   0.83313
 Alpha virt. eigenvalues --    0.83544   0.83670   0.83728   0.84176   0.84330
 Alpha virt. eigenvalues --    0.84723   0.84955   0.85188   0.85510   0.85896
 Alpha virt. eigenvalues --    0.86310   0.86513   0.86745   0.86885   0.87115
 Alpha virt. eigenvalues --    0.87303   0.87488   0.87780   0.88291   0.88487
 Alpha virt. eigenvalues --    0.88697   0.89487   0.89559   0.90328   0.90524
 Alpha virt. eigenvalues --    0.90973   0.91112   0.91492   0.91626   0.91978
 Alpha virt. eigenvalues --    0.91984   0.92143   0.92348   0.92727   0.92823
 Alpha virt. eigenvalues --    0.93173   0.93403   0.93958   0.94385   0.94492
 Alpha virt. eigenvalues --    0.94855   0.94962   0.95430   0.95610   0.95687
 Alpha virt. eigenvalues --    0.96121   0.96747   0.96787   0.97014   0.97205
 Alpha virt. eigenvalues --    0.97447   0.97890   0.98171   0.98254   0.98601
 Alpha virt. eigenvalues --    0.98745   0.98921   0.99190   0.99705   0.99971
 Alpha virt. eigenvalues --    1.00108   1.00465   1.01002   1.01190   1.01300
 Alpha virt. eigenvalues --    1.01506   1.01817   1.02252   1.02456   1.02840
 Alpha virt. eigenvalues --    1.03001   1.04109   1.04226   1.04576   1.04706
 Alpha virt. eigenvalues --    1.04975   1.05357   1.05683   1.05838   1.06206
 Alpha virt. eigenvalues --    1.06281   1.06527   1.06905   1.07140   1.07432
 Alpha virt. eigenvalues --    1.07556   1.07758   1.08123   1.08515   1.08665
 Alpha virt. eigenvalues --    1.09079   1.09414   1.09520   1.09830   1.10148
 Alpha virt. eigenvalues --    1.10538   1.10646   1.11154   1.11471   1.11912
 Alpha virt. eigenvalues --    1.12038   1.12448   1.12805   1.12899   1.13222
 Alpha virt. eigenvalues --    1.13491   1.13578   1.13950   1.14125   1.14387
 Alpha virt. eigenvalues --    1.14536   1.14855   1.15253   1.15588   1.15788
 Alpha virt. eigenvalues --    1.16221   1.16419   1.16803   1.16924   1.17270
 Alpha virt. eigenvalues --    1.17501   1.17684   1.18357   1.18555   1.18795
 Alpha virt. eigenvalues --    1.19027   1.19198   1.19306   1.19564   1.19941
 Alpha virt. eigenvalues --    1.20228   1.20540   1.20965   1.21235   1.21606
 Alpha virt. eigenvalues --    1.21948   1.22075   1.22188   1.22481   1.22730
 Alpha virt. eigenvalues --    1.22855   1.23188   1.23424   1.23613   1.23699
 Alpha virt. eigenvalues --    1.23980   1.24461   1.24692   1.25003   1.25195
 Alpha virt. eigenvalues --    1.25600   1.25743   1.25921   1.26238   1.26464
 Alpha virt. eigenvalues --    1.26913   1.26939   1.27243   1.27739   1.27936
 Alpha virt. eigenvalues --    1.28088   1.28212   1.28574   1.28668   1.28981
 Alpha virt. eigenvalues --    1.29077   1.29118   1.29578   1.30061   1.30202
 Alpha virt. eigenvalues --    1.30299   1.30577   1.31182   1.31278   1.31647
 Alpha virt. eigenvalues --    1.31726   1.32001   1.32258   1.32411   1.32645
 Alpha virt. eigenvalues --    1.32984   1.33298   1.33539   1.33712   1.34054
 Alpha virt. eigenvalues --    1.34162   1.34262   1.34750   1.35133   1.35317
 Alpha virt. eigenvalues --    1.35679   1.35796   1.36139   1.36413   1.36502
 Alpha virt. eigenvalues --    1.37230   1.37474   1.37771   1.37801   1.38338
 Alpha virt. eigenvalues --    1.38453   1.38776   1.38929   1.39126   1.39395
 Alpha virt. eigenvalues --    1.39874   1.40385   1.40685   1.41073   1.41399
 Alpha virt. eigenvalues --    1.41625   1.42061   1.42230   1.42432   1.42954
 Alpha virt. eigenvalues --    1.43455   1.43764   1.44040   1.44079   1.44649
 Alpha virt. eigenvalues --    1.44754   1.45036   1.45125   1.45484   1.45672
 Alpha virt. eigenvalues --    1.45828   1.45873   1.46196   1.46513   1.47052
 Alpha virt. eigenvalues --    1.47237   1.47608   1.47905   1.48403   1.48924
 Alpha virt. eigenvalues --    1.49071   1.49542   1.49940   1.50084   1.50525
 Alpha virt. eigenvalues --    1.50952   1.50978   1.51085   1.51545   1.51732
 Alpha virt. eigenvalues --    1.51922   1.52077   1.52307   1.52547   1.52906
 Alpha virt. eigenvalues --    1.53200   1.53343   1.53643   1.53976   1.54106
 Alpha virt. eigenvalues --    1.54289   1.54936   1.55141   1.55278   1.55831
 Alpha virt. eigenvalues --    1.56054   1.56256   1.56599   1.56914   1.57325
 Alpha virt. eigenvalues --    1.57509   1.58003   1.58434   1.58775   1.59146
 Alpha virt. eigenvalues --    1.59160   1.59310   1.59678   1.59943   1.60089
 Alpha virt. eigenvalues --    1.60566   1.61067   1.61832   1.62053   1.62475
 Alpha virt. eigenvalues --    1.62607   1.62935   1.63206   1.63712   1.63807
 Alpha virt. eigenvalues --    1.64088   1.64656   1.64828   1.65297   1.65793
 Alpha virt. eigenvalues --    1.66067   1.66224   1.66525   1.66716   1.67057
 Alpha virt. eigenvalues --    1.67387   1.67563   1.67647   1.67995   1.68277
 Alpha virt. eigenvalues --    1.68465   1.68562   1.68994   1.69261   1.69327
 Alpha virt. eigenvalues --    1.70087   1.70394   1.70478   1.70705   1.70861
 Alpha virt. eigenvalues --    1.71327   1.71625   1.71928   1.72063   1.72401
 Alpha virt. eigenvalues --    1.72588   1.72693   1.72846   1.73049   1.73359
 Alpha virt. eigenvalues --    1.73534   1.73644   1.73850   1.74345   1.74555
 Alpha virt. eigenvalues --    1.74767   1.75115   1.75206   1.75299   1.75581
 Alpha virt. eigenvalues --    1.75760   1.76035   1.76105   1.76199   1.76555
 Alpha virt. eigenvalues --    1.76619   1.76925   1.77169   1.77451   1.77684
 Alpha virt. eigenvalues --    1.77847   1.78001   1.78214   1.78327   1.78450
 Alpha virt. eigenvalues --    1.78494   1.78660   1.78890   1.78946   1.79068
 Alpha virt. eigenvalues --    1.79225   1.79455   1.79577   1.79651   1.79875
 Alpha virt. eigenvalues --    1.79903   1.80118   1.80280   1.80395   1.80655
 Alpha virt. eigenvalues --    1.80828   1.81064   1.81133   1.81212   1.81453
 Alpha virt. eigenvalues --    1.81552   1.81833   1.81905   1.81964   1.82389
 Alpha virt. eigenvalues --    1.82500   1.82577   1.82710   1.83005   1.83250
 Alpha virt. eigenvalues --    1.83401   1.83812   1.83905   1.83976   1.84312
 Alpha virt. eigenvalues --    1.84377   1.84528   1.84853   1.84900   1.84997
 Alpha virt. eigenvalues --    1.85270   1.85433   1.85701   1.85892   1.85936
 Alpha virt. eigenvalues --    1.86308   1.86317   1.86512   1.86669   1.86980
 Alpha virt. eigenvalues --    1.87229   1.87518   1.87631   1.87767   1.87932
 Alpha virt. eigenvalues --    1.88217   1.88522   1.88627   1.88776   1.88887
 Alpha virt. eigenvalues --    1.89112   1.89288   1.89582   1.89909   1.90126
 Alpha virt. eigenvalues --    1.90344   1.90638   1.90736   1.91158   1.91452
 Alpha virt. eigenvalues --    1.91586   1.91776   1.91822   1.92063   1.92418
 Alpha virt. eigenvalues --    1.92457   1.92713   1.92722   1.93099   1.93415
 Alpha virt. eigenvalues --    1.93450   1.93660   1.93901   1.94058   1.94289
 Alpha virt. eigenvalues --    1.94530   1.94737   1.94998   1.95067   1.95338
 Alpha virt. eigenvalues --    1.95433   1.95651   1.95892   1.96088   1.96525
 Alpha virt. eigenvalues --    1.96633   1.96783   1.96986   1.97191   1.97537
 Alpha virt. eigenvalues --    1.97609   1.97915   1.98064   1.98319   1.98500
 Alpha virt. eigenvalues --    1.98797   1.98990   1.99166   1.99369   1.99679
 Alpha virt. eigenvalues --    1.99910   2.00139   2.00250   2.00480   2.00590
 Alpha virt. eigenvalues --    2.00870   2.01062   2.01216   2.01296   2.01643
 Alpha virt. eigenvalues --    2.01977   2.02180   2.02459   2.02758   2.02929
 Alpha virt. eigenvalues --    2.03323   2.03435   2.03763   2.03911   2.04340
 Alpha virt. eigenvalues --    2.04593   2.05352   2.05565   2.05701   2.06076
 Alpha virt. eigenvalues --    2.06242   2.06511   2.06881   2.07009   2.07157
 Alpha virt. eigenvalues --    2.07457   2.07571   2.08017   2.08335   2.08795
 Alpha virt. eigenvalues --    2.08904   2.09168   2.09253   2.09632   2.09706
 Alpha virt. eigenvalues --    2.09892   2.10024   2.10167   2.10908   2.11233
 Alpha virt. eigenvalues --    2.11677   2.12007   2.12285   2.12856   2.12887
 Alpha virt. eigenvalues --    2.13125   2.13227   2.13564   2.13922   2.14338
 Alpha virt. eigenvalues --    2.14646   2.14806   2.15372   2.15658   2.15839
 Alpha virt. eigenvalues --    2.15879   2.16370   2.16533   2.16664   2.17042
 Alpha virt. eigenvalues --    2.17271   2.17454   2.17758   2.17939   2.18326
 Alpha virt. eigenvalues --    2.18746   2.19027   2.19202   2.19601   2.19664
 Alpha virt. eigenvalues --    2.19879   2.20225   2.20271   2.20545   2.20892
 Alpha virt. eigenvalues --    2.21419   2.21649   2.21877   2.22229   2.22496
 Alpha virt. eigenvalues --    2.22968   2.23002   2.23342   2.23626   2.23805
 Alpha virt. eigenvalues --    2.24185   2.24389   2.24744   2.24909   2.25401
 Alpha virt. eigenvalues --    2.25696   2.25820   2.26500   2.26921   2.27398
 Alpha virt. eigenvalues --    2.27667   2.28421   2.28623   2.28957   2.29291
 Alpha virt. eigenvalues --    2.29383   2.30032   2.30378   2.30516   2.30862
 Alpha virt. eigenvalues --    2.31063   2.31587   2.31860   2.32101   2.32181
 Alpha virt. eigenvalues --    2.32719   2.33112   2.33403   2.33527   2.34021
 Alpha virt. eigenvalues --    2.34171   2.34700   2.34825   2.34963   2.35495
 Alpha virt. eigenvalues --    2.35664   2.36257   2.36516   2.37328   2.37640
 Alpha virt. eigenvalues --    2.38255   2.38496   2.38902   2.39199   2.39398
 Alpha virt. eigenvalues --    2.40022   2.40076   2.40339   2.40479   2.40787
 Alpha virt. eigenvalues --    2.41062   2.41369   2.41624   2.41785   2.42153
 Alpha virt. eigenvalues --    2.42381   2.42874   2.43094   2.43249   2.43372
 Alpha virt. eigenvalues --    2.44037   2.44822   2.44952   2.45205   2.45953
 Alpha virt. eigenvalues --    2.46210   2.46390   2.46769   2.47156   2.47212
 Alpha virt. eigenvalues --    2.47539   2.47909   2.48076   2.48312   2.49198
 Alpha virt. eigenvalues --    2.49270   2.49650   2.49850   2.50015   2.51070
 Alpha virt. eigenvalues --    2.51349   2.51731   2.51937   2.52270   2.52441
 Alpha virt. eigenvalues --    2.52568   2.52734   2.53460   2.53877   2.54323
 Alpha virt. eigenvalues --    2.54402   2.54566   2.54683   2.55016   2.55264
 Alpha virt. eigenvalues --    2.55856   2.56096   2.56501   2.57085   2.57186
 Alpha virt. eigenvalues --    2.57270   2.58130   2.58333   2.58452   2.58811
 Alpha virt. eigenvalues --    2.59014   2.59220   2.59341   2.59563   2.60164
 Alpha virt. eigenvalues --    2.60873   2.61038   2.61241   2.61734   2.61832
 Alpha virt. eigenvalues --    2.62106   2.62452   2.62701   2.63027   2.63320
 Alpha virt. eigenvalues --    2.64064   2.64145   2.64252   2.64882   2.65563
 Alpha virt. eigenvalues --    2.65854   2.66255   2.66479   2.66665   2.67015
 Alpha virt. eigenvalues --    2.67145   2.67471   2.67529   2.67724   2.67787
 Alpha virt. eigenvalues --    2.68442   2.68775   2.69153   2.69651   2.69845
 Alpha virt. eigenvalues --    2.69919   2.70313   2.70641   2.71305   2.71360
 Alpha virt. eigenvalues --    2.71512   2.71631   2.71788   2.72037   2.72198
 Alpha virt. eigenvalues --    2.72249   2.72511   2.72590   2.73383   2.73652
 Alpha virt. eigenvalues --    2.73887   2.74239   2.74376   2.74699   2.75055
 Alpha virt. eigenvalues --    2.75155   2.75729   2.75812   2.75945   2.76229
 Alpha virt. eigenvalues --    2.76731   2.76852   2.77077   2.77226   2.77589
 Alpha virt. eigenvalues --    2.77635   2.78012   2.78092   2.78382   2.78481
 Alpha virt. eigenvalues --    2.78783   2.78932   2.79279   2.79526   2.79831
 Alpha virt. eigenvalues --    2.80173   2.80412   2.80628   2.81022   2.81764
 Alpha virt. eigenvalues --    2.82233   2.82338   2.82596   2.83265   2.83457
 Alpha virt. eigenvalues --    2.83638   2.84085   2.84638   2.84848   2.85195
 Alpha virt. eigenvalues --    2.85351   2.85469   2.85740   2.86197   2.86417
 Alpha virt. eigenvalues --    2.87025   2.87136   2.87200   2.87529   2.87601
 Alpha virt. eigenvalues --    2.88005   2.88276   2.88522   2.89018   2.89192
 Alpha virt. eigenvalues --    2.89246   2.89475   2.90256   2.90633   2.90716
 Alpha virt. eigenvalues --    2.91276   2.91369   2.91467   2.91731   2.91860
 Alpha virt. eigenvalues --    2.92167   2.92272   2.92792   2.93071   2.93544
 Alpha virt. eigenvalues --    2.94042   2.94119   2.94422   2.94742   2.95233
 Alpha virt. eigenvalues --    2.95291   2.95461   2.95793   2.96254   2.96497
 Alpha virt. eigenvalues --    2.96762   2.96846   2.97361   2.97734   2.97993
 Alpha virt. eigenvalues --    2.98667   2.98799   2.98990   2.99232   2.99653
 Alpha virt. eigenvalues --    3.00387   3.00578   3.00809   3.01587   3.01715
 Alpha virt. eigenvalues --    3.01730   3.02526   3.02809   3.02909   3.03237
 Alpha virt. eigenvalues --    3.03760   3.03914   3.04252   3.04549   3.04682
 Alpha virt. eigenvalues --    3.04967   3.05071   3.06040   3.06358   3.06922
 Alpha virt. eigenvalues --    3.07546   3.07767   3.08551   3.08882   3.09559
 Alpha virt. eigenvalues --    3.09982   3.10117   3.10660   3.12060   3.12893
 Alpha virt. eigenvalues --    3.13065   3.13328   3.13339   3.13666   3.14148
 Alpha virt. eigenvalues --    3.14675   3.15376   3.15490   3.16072   3.16376
 Alpha virt. eigenvalues --    3.16777   3.16857   3.16954   3.17701   3.17851
 Alpha virt. eigenvalues --    3.18183   3.18277   3.18626   3.19443   3.19705
 Alpha virt. eigenvalues --    3.19942   3.20228   3.21217   3.21791   3.21923
 Alpha virt. eigenvalues --    3.22132   3.22561   3.23384   3.23586   3.23612
 Alpha virt. eigenvalues --    3.23683   3.24006   3.24549   3.24623   3.24705
 Alpha virt. eigenvalues --    3.25376   3.25730   3.25852   3.27404   3.27622
 Alpha virt. eigenvalues --    3.27769   3.28031   3.28424   3.29876   3.30994
 Alpha virt. eigenvalues --    3.31331   3.31558   3.31986   3.32941   3.33075
 Alpha virt. eigenvalues --    3.33277   3.34800   3.35393   3.36468   3.39912
 Alpha virt. eigenvalues --    3.39984   3.44455   3.48287   3.52495   3.53173
 Alpha virt. eigenvalues --    3.53729   3.54234   3.55283   3.56604   3.57175
 Alpha virt. eigenvalues --    3.57343   3.58765   3.60304   3.60342   3.61010
 Alpha virt. eigenvalues --    3.61304   3.62273   3.63396   3.63755   3.65403
 Alpha virt. eigenvalues --    3.65514   3.66022   3.67620   3.67779   3.67932
 Alpha virt. eigenvalues --    3.68502   3.69002   3.69316   3.70319   3.70459
 Alpha virt. eigenvalues --    3.70704   3.71196   3.71511   3.72011   3.72189
 Alpha virt. eigenvalues --    3.72566   3.73283   3.73829   3.74967   3.75388
 Alpha virt. eigenvalues --    3.76682   3.78562   3.80035   3.83118
          Condensed to atoms (all electrons):
 Mulliken charges:
               1
     1  C    0.060653
     2  C    0.018649
     3  O   -0.291305
     4  H    0.034253
     5  H    0.039028
     6  H    0.001426
     7  N   -0.102206
     8  C    0.111381
     9  C    0.058488
    10  O   -0.300080
    11  C    0.055259
    12  C    0.099284
    13  O   -0.471854
    14  O   -0.358861
    15  H    0.115086
    16  H    0.013727
    17  H    0.008386
    18  H    0.017323
    19  N   -0.146151
    20  C    0.143023
    21  C    0.053477
    22  O   -0.309975
    23  C   -0.011967
    24  C    0.073766
    25  C   -0.092477
    26  C    0.067252
    27  N    0.097833
    28  H    0.152022
    29  H   -0.006018
    30  H   -0.024274
    31  H    0.021841
    32  H    0.027353
    33  H    0.047051
    34  H    0.017934
    35  H    0.038144
    36  H    0.103520
    37  H    0.080165
    38  H    0.181413
    39  H    0.177674
    40  H    0.167353
    41  N   -0.141396
    42  C    0.153423
    43  C    0.022701
    44  O   -0.295915
    45  C    0.084477
    46  C    0.062507
    47  O   -0.368065
    48  O   -0.485568
    49  H    0.159790
    50  H    0.020550
    51  H   -0.006589
    52  H    0.020613
    53  N   -0.150856
    54  C    0.239944
    55  C    0.010910
    56  O   -0.304280
    57  H    0.132805
    58  H    0.028987
    59  H    0.010696
    60  N   -0.172534
    61  C    0.150264
    62  C    0.046644
    63  O   -0.290581
    64  C    0.076331
    65  C    0.126957
    66  N   -0.043857
    67  O   -0.377298
    68  H    0.160557
    69  H    0.031279
    70  H    0.072994
    71  H    0.005914
    72  H    0.129522
    73  H    0.115916
    74  N   -0.162198
    75  C    0.221073
    76  C    0.030640
    77  O   -0.295602
    78  H    0.161186
    79  H    0.042389
    80  H    0.030373
    81  N   -0.126398
    82  C    0.133342
    83  C    0.109557
    84  O   -0.332551
    85  C    0.169423
    86  C   -0.055401
    87  C    0.010089
    88  C    0.055245
    89  C   -0.028205
    90  C   -0.038102
    91  C    0.212230
    92  O   -0.220455
    93  H    0.141308
    94  H   -0.002995
    95  H   -0.013369
    96  H   -0.111529
    97  H   -0.072550
    98  H   -0.042848
    99  H   -0.027112
   100  H   -0.047948
   101  H    0.178648
   102  N   -0.141110
   103  C    0.136942
   104  C    0.092991
   105  O   -0.274432
   106  C   -0.054784
   107  C   -0.024068
   108  C    0.052525
   109  C    0.044440
   110  H    0.129784
   111  H    0.018486
   112  H   -0.023938
   113  H    0.014181
   114  H    0.014511
   115  H    0.010148
   116  H   -0.005463
   117  H    0.003215
   118  H    0.020508
   119  H    0.020197
   120  H   -0.012985
   121  N   -0.132866
   122  C    0.100297
   123  C    0.118614
   124  O   -0.272651
   125  C    0.173061
   126  O   -0.295210
   127  H    0.153190
   128  H    0.027679
   129  H    0.028558
   130  H   -0.016411
   131  H    0.188565
   132  N   -0.139590
   133  C    0.099711
   134  C    0.105821
   135  O   -0.243420
   136  C    0.009742
   137  H    0.120608
   138  H    0.024710
   139  H    0.018501
   140  H    0.012473
   141  H    0.045995
   142  N   -0.149652
   143  C    0.099886
   144  C    0.065906
   145  O   -0.271388
   146  C    0.024735
   147  H    0.104419
   148  H    0.033205
   149  H    0.027760
   150  H    0.014437
   151  H   -0.026012
   152  N   -0.150474
   153  C    0.100195
   154  C    0.027961
   155  O   -0.279748
   156  C    0.012270
   157  C    0.135820
   158  C    0.144877
   159  O   -0.424838
   160  O   -0.419680
   161  H    0.127473
   162  H   -0.007437
   163  H    0.049020
   164  H   -0.021854
   165  H   -0.028518
   166  H   -0.029730
   167  N   -0.161325
   168  C    0.139792
   169  H    0.020305
   170  H    0.033080
   171  H    0.010068
   172  H    0.129877
   173  Ca   1.314294
   174  O   -0.275485
   175  H    0.186610
   176  H    0.182950
 Sum of Mulliken charges =   0.00000
 Mulliken charges with hydrogens summed into heavy atoms:
               1
     1  C    0.135360
     2  C    0.018649
     3  O   -0.291305
     7  N    0.012880
     8  C    0.125108
     9  C    0.058488
    10  O   -0.300080
    11  C    0.080968
    12  C    0.099284
    13  O   -0.471854
    14  O   -0.358861
    19  N    0.005871
    20  C    0.137005
    21  C    0.053477
    22  O   -0.309975
    23  C   -0.014400
    24  C    0.148170
    25  C   -0.036399
    26  C    0.250937
    27  N    0.624274
    41  N    0.018394
    42  C    0.173973
    43  C    0.022701
    44  O   -0.295915
    45  C    0.098501
    46  C    0.062507
    47  O   -0.368065
    48  O   -0.485568
    53  N   -0.018051
    54  C    0.279627
    55  C    0.010910
    56  O   -0.304280
    60  N   -0.011977
    61  C    0.181543
    62  C    0.046644
    63  O   -0.290581
    64  C    0.155239
    65  C    0.126957
    66  N    0.201582
    67  O   -0.377298
    74  N   -0.001012
    75  C    0.293835
    76  C    0.030640
    77  O   -0.295602
    81  N    0.014910
    82  C    0.130347
    83  C    0.109557
    84  O   -0.332551
    85  C    0.044525
    86  C   -0.055401
    87  C   -0.062461
    88  C    0.012397
    89  C   -0.055317
    90  C   -0.086050
    91  C    0.212230
    92  O   -0.041807
   102  N   -0.011325
   103  C    0.155428
   104  C    0.092991
   105  O   -0.274432
   106  C   -0.078722
   107  C    0.004624
   108  C    0.060426
   109  C    0.072159
   121  N    0.020324
   122  C    0.127975
   123  C    0.118614
   124  O   -0.272651
   125  C    0.185208
   126  O   -0.106645
   132  N   -0.018982
   133  C    0.124421
   134  C    0.105821
   135  O   -0.243420
   136  C    0.086711
   142  N   -0.045233
   143  C    0.133090
   144  C    0.065906
   145  O   -0.271388
   146  C    0.040920
   152  N   -0.023002
   153  C    0.092758
   154  C    0.027961
   155  O   -0.279748
   156  C    0.039436
   157  C    0.077573
   158  C    0.144877
   159  O   -0.424838
   160  O   -0.419680
   167  N   -0.031448
   168  C    0.203244
   173  Ca   1.314294
   174  O    0.094075
 DipInt: DoE/N= T F RetVal/Mat= T F Init=T NMatP=  1 IDeriv=0 Min/MaxMlt=  0  4
 Entering OneElI...
 OneElI was handed  4286741430 working-precision words.
 Multipole integrals L=0 to 4 MinM= 0 MaxM= 0.
 Requested accuracy = 0.1000D-12
 ShPair: Thresh= 1.00D-13 NBox=     0 BxSize= 0.00D+00 RnKept= 2.55D+01
         NSMCal=               327645 NSMKep=              159131
 PrsmSu:  NPrtUS=   1 ThrOK=F IAlg=1 NPAlg=1 LenDen=           0.
 Prism:   IPart=     0 DynPar=F LinDyn=F Incr=         512.
 PRISM was handed  4276710258 working-precision words and159131 shell-pairs
 IPart=  0 NShTot=      159131 NBatch=         448 AvBLen=       355.2
 PrSmSu:  NxtVal=            513.
 Electronic moments (au):
       -716.00000000         11.63058495          1.87013917         -2.69159632
     -53576.96960635     -32480.19279433     -11237.35138488         87.89873535
        -32.52630263         38.31592483     -87369.12932158     -26433.89279583
     -16671.60476488      17842.24821199     116474.25186203      47312.32430088
      -5514.17302048     -15816.94301872       7911.94955498     -21232.25166111
   -7824763.42390013   -3458768.93563463    -525604.18732508     298176.56213096
     377561.26831421    -851963.22145770      89153.70140901     -95733.15383667
     -89242.00017469   -2351944.17038040    -648108.26078069    -358342.87390713
    -123583.82325715      22058.33558444      30772.46025145
 Electronic spatial extent (au):  <R**2>=          97294.5138
 DipInt: DoE/N= F T RetVal/Mat= T F Init=T NMatP=  1 IDeriv=0 Min/MaxMlt=  0  4
 Nuclear    moments (au):
        716.00000000          0.00000000          0.00000000          0.00000000
      53108.40102186      32251.58257877      10826.46873774          0.00000000
          0.00000000          0.00000000      88364.80913678      28779.10080635
      16760.60801590     -15595.93465461    -116574.31869692     -47959.75482129
       5721.67396719      15653.99533133      -8104.01503478      21122.22272641
    7618838.75746084    3404407.21995876     486936.16042130    -295458.44962567
    -379407.94992886     885701.23450527     -88611.76486503      95095.28061124
      92449.78384773    2321404.92093312     612566.58031313     332806.86932707
     125902.06041277     -25724.35252129     -31036.83566548
 Total      moments (au):
          0.00000000         11.63058495          1.87013917         -2.69159632
       -468.56858449       -228.61021556       -410.88264714         87.89873535
        -32.52630263         38.31592483        995.67981520       2345.20801053
         89.00325102       2246.31355738       -100.06683490       -647.43052041
        207.50094671       -162.94768739       -192.06547980       -110.02893470
    -205924.66643929     -54361.71567587     -38668.02690377       2718.11250529
      -1846.68161465      33738.01304757        541.93654398       -637.87322542
       3207.78367304     -30539.24944728     -35541.68046755     -25536.00458006
       2318.23715563      -3666.01693685       -264.37541403
 Traceless Quadrup. (au):
        -99.21476876        140.74360017        -41.52883141         87.89873535
        -32.52630263         38.31592483
 Charge=              0.0000 electrons
 Dipole moment (field-independent basis, Debye):
    X=             29.5620    Y=              4.7534    Z=             -6.8414  Tot=             30.7134
 Quadrupole moment (field-independent basis, Debye-Ang):
   XX=           -630.2408   YY=           -307.4886   ZZ=           -552.6512
   XY=            118.2268   XZ=            -43.7490   YZ=             51.5362
 Traceless Quadrupole moment (field-independent basis, Debye-Ang):
   XX=           -133.4473   YY=            189.3050   ZZ=            -55.8577
   XY=            118.2268   XZ=            -43.7490   YZ=             51.5362
 Octapole moment (field-independent basis, Debye-Ang**2):
  XXX=            708.6865  YYY=           1669.2286  ZZZ=             63.3491  XYY=           1598.8393
  XXY=            -71.2237  XXZ=           -460.8161  XZZ=            147.6912  YZZ=           -115.9799
  YYZ=           -136.7048  XYZ=            -78.3144
 Hexadecapole moment (field-independent basis, Debye-Ang**3):
 XXXX=         -77561.0987 YYYY=         -20475.2275 ZZZZ=         -14564.2322 XXXY=           1023.7714
 XXXZ=           -695.5488 YYYX=          12707.3527 YYYZ=            204.1193 ZZZX=           -240.2536
 ZZZY=           1208.2051 XXYY=         -11502.5450 XXZZ=         -13386.7003 YYZZ=          -9618.0832
 XXYZ=            873.1592 YYXZ=          -1380.7977 ZZXY=            -99.5765
 N-N= 2.160682743280D+04 E-N=-5.569699093727D+04  KE= 5.290487344697D+03
 Leave Link  601 at Mon Sep 16 22:40:44 2019, MaxMem=  4294967296 cpu:        21.8
 FitSet:  NAtFit=   176 NAtPot=   176 NAtFrz=     0 MDM=   180 TotChg=   0.00000
 Merz-Kollman atomic radii used.
 Read replacement radii for each type of atom:
 Rad(20) =   1.700000000000D+00
 Atom Element Radius
    1     6    1.50
    2     6    1.50
    3     8    1.40
    4     1    1.20
    5     1    1.20
    6     1    1.20
    7     7    1.50
    8     6    1.50
    9     6    1.50
   10     8    1.40
   11     6    1.50
   12     6    1.50
   13     8    1.40
   14     8    1.40
   15     1    1.20
   16     1    1.20
   17     1    1.20
   18     1    1.20
   19     7    1.50
   20     6    1.50
   21     6    1.50
   22     8    1.40
   23     6    1.50
   24     6    1.50
   25     6    1.50
   26     6    1.50
   27     7    1.50
   28     1    1.20
   29     1    1.20
   30     1    1.20
   31     1    1.20
   32     1    1.20
   33     1    1.20
   34     1    1.20
   35     1    1.20
   36     1    1.20
   37     1    1.20
   38     1    1.20
   39     1    1.20
   40     1    1.20
   41     7    1.50
   42     6    1.50
   43     6    1.50
   44     8    1.40
   45     6    1.50
   46     6    1.50
   47     8    1.40
   48     8    1.40
   49     1    1.20
   50     1    1.20
   51     1    1.20
   52     1    1.20
   53     7    1.50
   54     6    1.50
   55     6    1.50
   56     8    1.40
   57     1    1.20
   58     1    1.20
   59     1    1.20
   60     7    1.50
   61     6    1.50
   62     6    1.50
   63     8    1.40
   64     6    1.50
   65     6    1.50
   66     7    1.50
   67     8    1.40
   68     1    1.20
   69     1    1.20
   70     1    1.20
   71     1    1.20
   72     1    1.20
   73     1    1.20
   74     7    1.50
   75     6    1.50
   76     6    1.50
   77     8    1.40
   78     1    1.20
   79     1    1.20
   80     1    1.20
   81     7    1.50
   82     6    1.50
   83     6    1.50
   84     8    1.40
   85     6    1.50
   86     6    1.50
   87     6    1.50
   88     6    1.50
   89     6    1.50
   90     6    1.50
   91     6    1.50
   92     8    1.40
   93     1    1.20
   94     1    1.20
   95     1    1.20
   96     1    1.20
   97     1    1.20
   98     1    1.20
   99     1    1.20
  100     1    1.20
  101     1    1.20
  102     7    1.50
  103     6    1.50
  104     6    1.50
  105     8    1.40
  106     6    1.50
  107     6    1.50
  108     6    1.50
  109     6    1.50
  110     1    1.20
  111     1    1.20
  112     1    1.20
  113     1    1.20
  114     1    1.20
  115     1    1.20
  116     1    1.20
  117     1    1.20
  118     1    1.20
  119     1    1.20
  120     1    1.20
  121     7    1.50
  122     6    1.50
  123     6    1.50
  124     8    1.40
  125     6    1.50
  126     8    1.40
  127     1    1.20
  128     1    1.20
  129     1    1.20
  130     1    1.20
  131     1    1.20
  132     7    1.50
  133     6    1.50
  134     6    1.50
  135     8    1.40
  136     6    1.50
  137     1    1.20
  138     1    1.20
  139     1    1.20
  140     1    1.20
  141     1    1.20
  142     7    1.50
  143     6    1.50
  144     6    1.50
  145     8    1.40
  146     6    1.50
  147     1    1.20
  148     1    1.20
  149     1    1.20
  150     1    1.20
  151     1    1.20
  152     7    1.50
  153     6    1.50
  154     6    1.50
  155     8    1.40
  156     6    1.50
  157     6    1.50
  158     6    1.50
  159     8    1.40
  160     8    1.40
  161     1    1.20
  162     1    1.20
  163     1    1.20
  164     1    1.20
  165     1    1.20
  166     1    1.20
  167     7    1.50
  168     6    1.50
  169     1    1.20
  170     1    1.20
  171     1    1.20
  172     1    1.20
  173    20    1.70
  174     8    1.40
  175     1    1.20
  176     1    1.20
 Generate VDW surfaces: Layer= 4 Dens= 6 Start= 1.400 Inc= 0.200

 **********************************************************************

            Electrostatic Properties Using The SCF Density

 **********************************************************************

       Atomic Center    1 is at   1.705110  3.945881  5.703380
       Atomic Center    2 is at   1.423538  3.322854  4.340239
       Atomic Center    3 is at   2.360418  3.103708  3.577394
[...]
 **** Fit      -0.022451
 **** Fit      -0.028699
 **** Fit      -0.037860
 **** Fit      -0.037968
 **** Fit      -0.037386
 **** Fit      -0.036063
 **** Fit      -0.034019
 **** Fit      -0.031320
 **** Fit      -0.028073
 **** Fit      -0.024441
 **** Fit      -0.020670
 **** Fit      -0.017120
 **** Fit      -0.014283
 **** Fit      -0.012743
 **** Fit      -0.041240
 **** Fit      -0.041070
 **** Fit      -0.040078
 **** Fit      -0.038217
 **** Fit      -0.035532
 **** Fit      -0.032115
 **** Fit      -0.028099
 **** Fit      -0.023669
 **** Fit      -0.019102
 **** Fit      -0.014806
 **** Fit      -0.011320
 **** Fit      -0.044068
 **** Fit      -0.041556
 **** Fit      -0.038091
 **** Fit      -0.033844
 **** Fit      -0.029001
 **** Fit      -0.023785
 **** Fit      -0.018508
 **** Fit      -0.013605
 **** Fit      -0.009635
 **** Fit      -0.041072
 **** Fit      -0.035334
 **** Fit      -0.029121
 **** Fit      -0.022756
 **** Fit      -0.016655
 **** Fit      -0.011359
 **** Fit      -0.007453
 **** Fit      -0.028193
 **** Fit      -0.020494
 **** Fit       0.004788
 **** Fit       0.007377
 **** Fit       0.010271
 **** Fit       0.008178
 **** Fit       0.009274
 **** Fit       0.009414
 **** Fit       0.008327
 **** Fit       0.007427
 **** Fit       0.006629
 **** Fit       0.004718
 **** Fit       0.001799
 **** Fit      -0.001759
 **** Fit       0.004738
 **** Fit       0.002356
 **** Fit      -0.000758
 **** Fit      -0.004080
 **** Fit       0.002850
 **** Fit      -0.000243
 **** Fit      -0.003375
 **** Fit      -0.012977
 **** Fit      -0.016382
 **** Fit      -0.004438
 **** Fit      -0.008188
 **** Fit      -0.012371
 **** Fit      -0.015592
 **** Fit      -0.006979
 **** Fit      -0.010588
 **** Fit      -0.014002
 **** Fit      -0.015829
 **** Fit      -0.005111
 **** Fit      -0.006924
 **** Fit      -0.010028
 **** Fit      -0.013431
 **** Fit      -0.015593
 **** Fit      -0.009216
 **** Fit      -0.009828
 **** Fit      -0.013086
 **** Fit       0.005075
 **** Fit       0.007424
 **** Fit      -0.001205
 **** Fit       0.001616
 **** Fit       0.004494
 **** Fit       0.007485
 **** Fit      -0.000722
 **** Fit      -0.004389
 **** Fit      -0.007841
 **** Fit      -0.010879
 **** Fit      -0.013615
 **** Fit      -0.015770
 **** Fit      -0.016559
 **** Fit      -0.010895
 **** Fit      -0.009696
 **** Fit      -0.007233
 **** Fit      -0.004281
 **** Fit      -0.001379
 **** Fit       0.001225
 **** Fit       0.002757
 **** Fit       0.002108
 **** Fit      -0.005423
 **** Fit      -0.008683
 **** Fit      -0.012027
 **** Fit      -0.014783
 **** Fit      -0.016146
 **** Fit      -0.015548
 **** Fit      -0.013875
 **** Fit      -0.011987
 **** Fit      -0.009459
 **** Fit      -0.006556
 **** Fit      -0.004200
 **** Fit      -0.003586
 **** Fit      -0.009264
 **** Fit      -0.012438
 **** Fit      -0.014623
 **** Fit      -0.013789
 **** Fit      -0.011104
 **** Fit      -0.008651
 **** Fit      -0.012118
 **** Fit      -0.015306
 **** Fit      -0.004651
 **** Fit      -0.011328
 **** Fit       0.000237
 **** Fit      -0.006532
 **** Fit      -0.001531
 **** Fit       0.001757
 **** Fit       0.001877
 **** Fit       0.003684
 **** Fit       0.005844
 **** Fit       0.006715
 **** Fit       0.012071
 **** Fit       0.009286
 **** Fit       0.008189
 **** Fit       0.007774
 **** Fit       0.007074
 **** Fit       0.018025
 **** Fit       0.013272
 **** Fit       0.010367
 **** Fit       0.008581
 **** Fit       0.006927
 **** Fit       0.004778
 **** Fit       0.002099
 **** Fit      -0.003393
 **** Fit      -0.005111
 **** Fit      -0.004380
 **** Fit       0.000731
 **** Fit       0.010603
 **** Fit       0.024675
 **** Fit       0.017238
 **** Fit       0.012639
 **** Fit       0.009425
 **** Fit       0.006717
 **** Fit       0.003952
 **** Fit       0.001622
 **** Fit       0.001051
 **** Fit       0.004209
 **** Fit       0.012005
 **** Fit       0.022691
 **** Fit       0.014899
 **** Fit       0.010344
 **** Fit       0.006947
 **** Fit       0.006566
 **** Fit       0.011956
 **** Fit       0.017231
 **** Fit       0.011256
 **** Fit       0.008918
 **** Fit       0.010624
 **** Fit       0.013173
 **** Fit      -0.039137
 **** Fit      -0.007875
 **** Fit      -0.009198
 **** Fit      -0.007581
 **** Fit      -0.008752
 **** Fit      -0.010181
 **** Fit      -0.011451
 **** Fit      -0.006215
 **** Fit      -0.006737
 **** Fit      -0.007372
 **** Fit      -0.008339
 **** Fit      -0.009580
 **** Fit      -0.011139
 **** Fit      -0.012830
 **** Fit      -0.014137
 **** Fit      -0.005626
 **** Fit      -0.006022
 **** Fit      -0.006605
 **** Fit      -0.007314
 **** Fit      -0.008153
 **** Fit      -0.009193
 **** Fit      -0.016618
 **** Fit      -0.017839
 **** Fit      -0.017781
 **** Fit      -0.005161
 **** Fit      -0.005484
 **** Fit      -0.005967
 **** Fit      -0.006588
 **** Fit      -0.007471
 **** Fit      -0.008167
 **** Fit      -0.022449
 **** Fit      -0.022425
 **** Fit      -0.004710
 **** Fit      -0.004853
 **** Fit      -0.005142
 **** Fit      -0.005589
 **** Fit      -0.006160
 **** Fit      -0.006801
 **** Fit      -0.007895
 **** Fit      -0.008526
 **** Fit      -0.028217
 **** Fit      -0.028746
 **** Fit      -0.027552
 **** Fit      -0.004482
 **** Fit      -0.004539
 **** Fit      -0.004780
 **** Fit      -0.005218
 **** Fit      -0.005819
 **** Fit      -0.006513
 **** Fit      -0.007222
 **** Fit      -0.008635
 **** Fit      -0.009217
 **** Fit      -0.037009
 **** Fit      -0.036073
 **** Fit      -0.033210
 **** Fit      -0.004532
 **** Fit      -0.004315
 **** Fit      -0.004270
 **** Fit      -0.007171
 **** Fit      -0.007953
 **** Fit      -0.009748
 **** Fit      -0.010305
 **** Fit      -0.036519
 **** Fit      -0.004712
 **** Fit      -0.004263
 **** Fit      -0.009041
 **** Fit      -0.011307
 **** Fit      -0.011827
 **** Fit      -0.006076
 **** Fit      -0.005135
 **** Fit      -0.013419
 **** Fit      -0.013866
 **** Fit      -0.009255
 **** Fit      -0.007821
 **** Fit      -0.006333
 **** Fit      -0.016517
 **** Fit      -0.007700
 **** Fit      -0.019884
 **** Fit      -0.019920
 **** Fit      -0.024116
 **** Fit      -0.023722
 **** Fit      -0.029311
 **** Fit      -0.028199
 **** Fit      -0.028083
 **** Fit      -0.033219
 **** Fit      -0.032691
 **** Fit      -0.033935
 **** Fit      -0.037381
 **** Fit      -0.004215
 **** Fit      -0.004393
 **** Fit      -0.004913
 **** Fit      -0.005663
 **** Fit      -0.006515
 **** Fit      -0.008322
 **** Fit      -0.004061
 **** Fit      -0.003784
 **** Fit      -0.003964
 **** Fit      -0.004549
 **** Fit      -0.005407
 **** Fit      -0.006392
 **** Fit      -0.007389
 **** Fit      -0.009722
 **** Fit      -0.003707
 **** Fit      -0.003362
 **** Fit      -0.003583
 **** Fit      -0.004290
 **** Fit      -0.005316
 **** Fit      -0.006485
 **** Fit      -0.007656
 **** Fit      -0.008747
 **** Fit      -0.011719
 **** Fit      -0.012575
 **** Fit      -0.003861
 **** Fit      -0.003052
 **** Fit      -0.003051
 **** Fit      -0.003792
 **** Fit      -0.005055
 **** Fit      -0.006567
 **** Fit      -0.008097
 **** Fit      -0.009496
 **** Fit      -0.010703
 **** Fit      -0.014549
 **** Fit      -0.015308
 **** Fit      -0.004623
 **** Fit      -0.003032
 **** Fit      -0.002575
 **** Fit      -0.003256
 **** Fit      -0.004801
 **** Fit      -0.006808
 **** Fit      -0.008894
 **** Fit      -0.010790
 **** Fit      -0.012363
 **** Fit      -0.013596
 **** Fit      -0.018571
 **** Fit      -0.019078
 **** Fit      -0.019494
 **** Fit      -0.004335
 **** Fit      -0.002496
 **** Fit      -0.002482
 **** Fit      -0.004097
 **** Fit      -0.006760
 **** Fit      -0.009787
 **** Fit      -0.012631
 **** Fit      -0.014962
 **** Fit      -0.016673
 **** Fit      -0.017826
 **** Fit      -0.024341
 **** Fit      -0.024296
 **** Fit      -0.024225
 **** Fit      -0.011876
 **** Fit      -0.009503
 **** Fit      -0.010784
 **** Fit      -0.012616
 **** Fit      -0.014700
 **** Fit      -0.016168
 **** Fit      -0.009171
 **** Fit      -0.010165
 **** Fit      -0.011584
 **** Fit      -0.013518
 **** Fit      -0.015872
 **** Fit      -0.018249
 **** Fit      -0.019958
 **** Fit      -0.009205
 **** Fit      -0.010033
 **** Fit      -0.011200
 **** Fit      -0.012858
 **** Fit      -0.015092
 **** Fit      -0.017864
 **** Fit      -0.020916
 **** Fit      -0.023715
 **** Fit      -0.025512
 **** Fit      -0.009630
 **** Fit      -0.010338
 **** Fit      -0.011346
 **** Fit      -0.012819
 **** Fit      -0.014900
 **** Fit      -0.017682
 **** Fit      -0.021153
 **** Fit      -0.025094
 **** Fit      -0.028992
 **** Fit      -0.032028
 **** Fit      -0.033287
 **** Fit      -0.010478
 **** Fit      -0.011066
 **** Fit      -0.011923
 **** Fit      -0.013207
 **** Fit      -0.015075
 **** Fit      -0.017674
 **** Fit      -0.021121
 **** Fit      -0.025445
 **** Fit      -0.030484
 **** Fit      -0.011795
 **** Fit      -0.012297
 **** Fit      -0.013092
 **** Fit      -0.014353
 **** Fit      -0.016258
 **** Fit      -0.018998
 **** Fit      -0.022778
 **** Fit      -0.027770
 **** Fit      -0.013641
 **** Fit      -0.014033
 **** Fit      -0.014754
 **** Fit      -0.015981
 **** Fit      -0.017899
 **** Fit      -0.020730
 **** Fit      -0.024742
 **** Fit      -0.030246
 **** Fit      -0.016089
 **** Fit      -0.016349
 **** Fit      -0.017020
 **** Fit      -0.018283
 **** Fit      -0.020340
 **** Fit      -0.023447
 **** Fit      -0.027954
 **** Fit      -0.019208
 **** Fit      -0.019307
 **** Fit      -0.019998
 **** Fit      -0.021484
 **** Fit      -0.024013
 **** Fit      -0.027940
 **** Fit      -0.022920
 **** Fit      -0.023696
 **** Fit      -0.025593
 **** Fit      -0.028933
 **** Fit      -0.028044
 **** Fit      -0.030457
 **** Fit      -0.034783
 **** Fit      -0.033177
 **** Fit      -0.036775
 **** Fit      -0.007301
 **** Fit      -0.007192
 **** Fit      -0.008458
 **** Fit      -0.008696
 **** Fit      -0.007442
 **** Fit      -0.006329
 **** Fit      -0.006284
 **** Fit      -0.007112
 **** Fit      -0.008408
 **** Fit      -0.009806
 **** Fit      -0.010735
 **** Fit      -0.010581
 **** Fit      -0.009306
 **** Fit      -0.007586
 **** Fit      -0.006237
 **** Fit      -0.005543
 **** Fit      -0.005354
 **** Fit      -0.005563
 **** Fit      -0.006151
 **** Fit      -0.012773
 **** Fit      -0.013475
 **** Fit      -0.013112
 **** Fit      -0.011718
 **** Fit      -0.009693
 **** Fit      -0.007648
 **** Fit      -0.006136
 **** Fit      -0.005323
 **** Fit      -0.004962
 **** Fit      -0.004823
 **** Fit      -0.004854
 **** Fit      -0.005077
 **** Fit      -0.005506
 **** Fit      -0.017009
 **** Fit      -0.016058
 **** Fit      -0.014056
 **** Fit      -0.011401
 **** Fit      -0.008650
 **** Fit      -0.004659
 **** Fit      -0.004595
 **** Fit      -0.004541
 **** Fit      -0.004570
 **** Fit      -0.004735
 **** Fit      -0.005054
 **** Fit      -0.021027
 **** Fit      -0.018866
 **** Fit      -0.015660
 **** Fit      -0.004677
 **** Fit      -0.004640
 **** Fit      -0.004528
 **** Fit      -0.004473
 **** Fit      -0.004542
 **** Fit      -0.025240
 **** Fit      -0.021584
 **** Fit      -0.005213
 **** Fit      -0.005023
 **** Fit      -0.004771
 **** Fit      -0.004590
 **** Fit      -0.004538
 **** Fit      -0.030430
 **** Fit      -0.006010
 **** Fit      -0.005523
 **** Fit      -0.005096
 **** Fit      -0.006904
 **** Fit      -0.006179
 **** Fit      -0.008399
 **** Fit      -0.017887
 **** Fit      -0.018603
 **** Fit      -0.025068
 **** Fit      -0.016011
 **** Fit      -0.019901
 **** Fit      -0.026840
 **** Fit      -0.017537
 **** Fit      -0.021912
 **** Fit      -0.015539
 **** Fit      -0.018306
 **** Fit      -0.023405
 **** Fit      -0.008741
 **** Fit      -0.011104
 **** Fit      -0.013453
 **** Fit      -0.018436
 **** Fit      -0.024506
 **** Fit      -0.017161
 **** Fit      -0.012046
 **** Fit      -0.010417
 **** Fit      -0.010486
 **** Fit      -0.011955
 **** Fit      -0.014620
 **** Fit      -0.024627
 **** Fit      -0.019331
 **** Fit      -0.017285
 **** Fit      -0.019118
 **** Fit       0.004695
 **** Fit       0.031100
 **** Fit       0.005948
 **** Fit      -0.001991
 **** Fit       0.029431
 **** Fit       0.028964
 **** Fit       0.005937
 **** Fit      -0.000509
 **** Fit      -0.005203
 **** Fit      -0.007457
 **** Fit       0.027153
 **** Fit       0.025826
 **** Fit       0.025439
 **** Fit       0.012647
 **** Fit       0.005309
 **** Fit      -0.000457
 **** Fit      -0.004705
 **** Fit      -0.007396
 **** Fit      -0.009452
 **** Fit      -0.010482
 **** Fit      -0.007969
 **** Fit       0.022453
 **** Fit       0.021413
 **** Fit       0.020568
 **** Fit       0.019070
 **** Fit       0.016072
 **** Fit       0.011284
 **** Fit       0.004632
 **** Fit      -0.000782
 **** Fit      -0.004500
 **** Fit      -0.005878
 **** Fit      -0.003300
 **** Fit       0.004062
 **** Fit       0.016361
 **** Fit       0.016920
 **** Fit       0.016097
 **** Fit       0.014081
 **** Fit       0.010164
 **** Fit       0.004422
 **** Fit      -0.000129
 **** Fit       0.001014
 **** Fit       0.007532
 **** Fit       0.011017
 **** Fit       0.009486
 **** Fit       0.005192
 **** Fit       0.023852
 **** Fit       0.025072
 **** Fit       0.026470
 **** Fit       0.027833
 **** Fit       0.029387
 **** Fit       0.026293
 **** Fit       0.027960
 **** Fit       0.029589
 **** Fit       0.031304
 **** Fit       0.033182
 **** Fit       0.025479
 **** Fit       0.026478
 **** Fit       0.027951
 **** Fit       0.029599
 **** Fit       0.031340
 **** Fit       0.033211
 **** Fit       0.035238
 **** Fit       0.028061
 **** Fit       0.027976
 **** Fit       0.028861
 **** Fit       0.030230
 **** Fit       0.031850
 **** Fit       0.033633
 **** Fit       0.035535
 **** Fit       0.037430
 **** Fit       0.030899
 **** Fit       0.029529
 **** Fit       0.029556
 **** Fit       0.030387
 **** Fit       0.031651
 **** Fit       0.033132
 **** Fit       0.034683
 **** Fit       0.036097
 **** Fit       0.013423
 **** Fit       0.030338
 **** Fit       0.029944
 **** Fit       0.030472
 **** Fit       0.031485
 **** Fit       0.032665
 **** Fit       0.033707
 **** Fit       0.034168
 **** Fit       0.033285
 **** Fit       0.021414
 **** Fit       0.013448
 **** Fit       0.029929
 **** Fit       0.029394
 **** Fit       0.029684
 **** Fit       0.030378
 **** Fit       0.031052
 **** Fit       0.031217
 **** Fit       0.030195
 **** Fit       0.027129
 **** Fit       0.019570
 **** Fit       0.027722
 **** Fit       0.027845
 **** Fit       0.028203
 **** Fit       0.028283
 **** Fit       0.027373
 **** Fit       0.024646
 **** Fit       0.017884
 **** Fit       0.025172
 **** Fit       0.024792
 **** Fit       0.022622
 **** Fit       0.020730
 **** Fit       0.028635
 **** Fit       0.026105
 **** Fit       0.028615
 **** Fit       0.029203
 **** Fit       0.030080
 **** Fit       0.031505
 **** Fit       0.030585
 **** Fit       0.030648
 -----------------------------------------------------------------
 Leave Link  602 at Mon Sep 16 22:40:57 2019, MaxMem=  4294967296 cpu:       152.3

 Test job not archived.
 1\1\GINC-N001\SP\RB3LYP\SVP\C54H83Ca1N15O23\PCIEPLAK\16-Sep-2019\0\\#m
 axdisk=50GB #B3LYP/SVP Density=Current scf=(tight) #IOP(5/87=12)Pop=(M
 K,readradii) iop(6/33=2) iop(6/42=6)\\SOL molecule\\0,1\C,0,46.24,40.5
 1,24.25\C,0,46.92,39.65,25.31\O,0,46.84,39.98,26.49\H,0,45.331,40.946,
 24.665\H,0,46.916,41.307,23.939\H,0,45.985,39.892,23.389\N,0,47.62,38.
 57,24.95\C,0,48.61,37.93,25.8\C,0,49.91,38.69,25.96\O,0,50.36,39.37,25
 .04\C,0,48.84,36.58,25.11\C,0,49.62,35.51,25.86\O,0,50.47,35.77,26.74\
 O,0,49.51,34.31,25.55\H,0,47.69,38.36,23.97\H,0,48.28,37.76,26.83\H,0,
 49.36,36.72,24.17\H,0,47.87,36.16,24.85\N,0,50.47,38.62,27.17\C,0,51.6
 ,39.43,27.59\C,0,52.94,38.72,27.54\O,0,53.99,39.36,27.59\C,0,51.34,40.
 ,28.98\C,0,50.19,41.,29.13\C,0,50.5,42.39,28.58\C,0,51.56,43.23,29.29\
 N,0,51.57,44.59,28.75\H,0,49.95,38.09,27.85\H,0,51.79,40.25,26.9\H,0,5
 2.23,40.57,29.27\H,0,51.3,39.17,29.68\H,0,49.93,41.06,30.18\H,0,49.38,
 40.59,28.53\H,0,49.61,43.02,28.6\H,0,50.69,42.24,27.52\H,0,52.46,42.66
 ,29.09\H,0,51.29,43.22,30.35\H,0,51.95,45.37,29.26\H,0,52.07,44.64,27.
 87\H,0,50.72,44.95,28.35\N,0,52.96,37.39,27.37\C,0,54.14,36.71,26.89\C
 ,0,53.92,35.95,25.59\O,0,54.92,35.36,25.18\C,0,54.8,35.8,27.92\C,0,53.
 88,34.78,28.58\O,0,54.19,34.29,29.68\O,0,52.78,34.54,28.04\H,0,52.06,3
 6.93,27.33\H,0,54.95,37.38,26.57\H,0,55.23,36.41,28.71\H,0,55.58,35.17
 ,27.49\N,0,52.72,35.94,25.01\C,0,52.34,35.13,23.86\C,0,52.37,33.62,24.
 03\O,0,52.53,32.88,23.06\H,0,51.93,36.3,25.52\H,0,53.,35.38,23.02\H,0,
 51.32,35.4,23.6\N,0,52.47,33.1,25.25\C,0,52.73,31.7,25.48\C,0,51.51,30
 .82,25.25\O,0,51.62,29.6,25.33\C,0,53.38,31.48,26.84\C,0,52.41,31.42,2
 8.01\N,0,52.5,30.42,28.88\O,0,51.36,32.06,28.07\H,0,52.41,33.72,26.05\
 H,0,53.41,31.43,24.67\H,0,54.23,32.12,27.09\H,0,53.82,30.48,26.8\H,0,5
 3.33,29.85,28.99\H,0,51.86,30.45,29.66\N,0,50.35,31.42,24.98\C,0,49.21
 ,30.76,24.37\C,0,47.99,30.7,25.28\O,0,47.01,30.03,24.97\H,0,50.3,32.43
 ,24.96\H,0,49.44,29.76,24.\H,0,48.91,31.32,23.48\N,0,47.98,31.4,26.42\
 C,0,46.95,31.5,27.44\C,0,46.93,32.88,28.09\O,0,47.9,33.63,28.16\C,0,47
 .01,30.49,28.57\C,0,47.51,29.08,28.33\C,0,48.89,28.85,28.35\C,0,46.61,
 28.08,27.94\C,0,49.37,27.57,28.04\C,0,47.11,26.81,27.63\C,0,48.49,26.5
 4,27.66\O,0,48.88,25.24,27.48\H,0,48.67,32.14,26.48\H,0,45.97,31.32,26
 .99\H,0,46.08,30.46,29.13\H,0,47.82,30.81,29.23\H,0,49.63,29.59,28.62\
 H,0,45.58,28.4,27.98\H,0,50.43,27.38,28.08\H,0,46.43,25.99,27.45\H,0,4
 8.21,24.55,27.46\N,0,45.81,33.18,28.75\C,0,45.51,34.4,29.47\C,0,44.99,
 34.,30.84\O,0,44.09,33.18,31.03\C,0,44.62,35.17,28.5\C,0,45.36,35.73,2
 7.29\C,0,43.9,36.28,29.26\C,0,44.69,36.65,26.27\H,0,45.09,32.47,28.71\
 H,0,46.41,35.,29.62\H,0,43.87,34.46,28.17\H,0,45.72,34.88,26.71\H,0,46
 .18,36.38,27.6\H,0,43.29,36.89,28.59\H,0,43.2,35.77,29.91\H,0,44.41,36
 .9,30.\H,0,44.35,37.51,26.85\H,0,45.34,36.87,25.43\H,0,43.78,36.11,26.
 02\N,0,45.49,34.75,31.83\C,0,44.93,34.83,33.16\C,0,43.95,35.95,33.46\O
 ,0,43.83,36.87,32.65\C,0,46.11,34.96,34.12\O,0,46.72,36.22,33.99\H,0,4
 6.27,35.38,31.71\H,0,44.42,33.91,33.45\H,0,46.81,34.15,33.88\H,0,45.84
 ,34.85,35.17\H,0,47.46,36.25,34.59\N,0,43.41,36.05,34.67\C,0,42.75,37.
 24,35.17\C,0,43.58,38.5,35.02\O,0,43.11,39.59,34.7\C,0,42.49,36.91,36.
 64\H,0,43.5,35.25,35.29\H,0,41.75,37.3,34.75\H,0,41.98,35.95,36.72\H,0
 ,43.42,36.81,37.21\H,0,41.74,37.59,37.05\N,0,44.9,38.42,35.26\C,0,45.7
 5,39.59,35.35\C,0,46.42,40.08,34.08\O,0,46.79,41.24,33.91\C,0,46.79,39
 .27,36.42\H,0,45.29,37.55,35.61\H,0,45.22,40.47,35.71\H,0,47.63,39.95,
 36.54\H,0,46.37,39.31,37.42\H,0,47.22,38.27,36.29\N,0,46.47,39.18,33.1
 \C,0,46.62,39.45,31.68\C,0,45.34,40.09,31.14\O,0,45.4,41.06,30.39\C,0,
 47.06,38.28,30.8\C,0,48.54,37.99,31.05\C,0,49.06,36.74,30.35\O,0,49.53
 ,36.8,29.19\O,0,48.94,35.61,30.88\H,0,46.24,38.24,33.38\H,0,47.31,40.2
 8,31.51\H,0,46.8,38.49,29.77\H,0,46.47,37.45,31.16\H,0,48.62,37.88,32.
 13\H,0,49.06,38.9,30.76\N,0,44.17,39.51,31.39\C,0,42.87,40.02,30.99\H,
 0,42.169,39.915,31.818\H,0,42.959,41.073,30.721\H,0,42.506,39.455,30.1
 32\H,0,44.21,38.62,31.86\Ca,0,50.39,34.4,28.84\O,0,49.41,32.45,30.27\H
 ,0,48.75,32.23,30.93\H,0,49.69,31.6,29.92\\Version=ES64L-G09RevD.01\St
 ate=1-A\HF=-5333.5621193\RMSD=2.729e-09\Dipole=-2.8374016,8.5627173,8.
 0400027\Quadrupole=-94.6385479,120.9841647,-26.3456168,97.8892743,17.1
 973339,-62.6005609\PG=C01 [X(C54H83Ca1N15O23)]\\@


 VIRTUE IS LEARNED AT YOUR MOTHER'S KNEE,
 VICES ARE PICKED UP AT SOME OTHER JOINT.
 Job cpu time:       0 days 15 hours 28 minutes 11.2 seconds.
 File lengths (MBytes):  RWF=   1513 Int=      0 D2E=      0 Chk=    103 Scr=      1
 Normal termination of Gaussian 09 at Mon Sep 16 22:40:57 2019.
