 Entering Gaussian System, Link 0=g16
 Initial command:
 /home1/apps/gaussian/16rA.03/g16/l1.exe "/scratch/04905/jaebeomh/4357444/Gau-399657.inp" -scrdir="/scratch/04905/jaebeomh/4357444/"
 Entering Link 1 = /home1/apps/gaussian/16rA.03/g16/l1.exe PID=    399658.
  
 Copyright (c) 1988,1990,1992,1993,1995,1998,2003,2009,2016,
            Gaussian, Inc.  All Rights Reserved.
  
 This is part of the Gaussian(R) 16 program.  It is based on
 the Gaussian(R) 09 system (copyright 2009, Gaussian, Inc.),
 the Gaussian(R) 03 system (copyright 2003, Gaussian, Inc.),
 the Gaussian(R) 98 system (copyright 1998, Gaussian, Inc.),
 the Gaussian(R) 94 system (copyright 1995, Gaussian, Inc.),
 the Gaussian 92(TM) system (copyright 1992, Gaussian, Inc.),
 the Gaussian 90(TM) system (copyright 1990, Gaussian, Inc.),
 the Gaussian 88(TM) system (copyright 1988, Gaussian, Inc.),
 the Gaussian 86(TM) system (copyright 1986, Carnegie Mellon
 University), and the Gaussian 82(TM) system (copyright 1983,
 Carnegie Mellon University). Gaussian is a federally registered
 trademark of Gaussian, Inc.
  
 This software contains proprietary and confidential information,
 including trade secrets, belonging to Gaussian, Inc.
  
 This software is provided under written license and may be
 used, copied, transmitted, or stored only in accord with that
 written license.
  
 The following legend is applicable only to US Government
 contracts under FAR:
  
                    RESTRICTED RIGHTS LEGEND
  
 Use, reproduction and disclosure by the US Government is
 subject to restrictions as set forth in subparagraphs (a)
 and (c) of the Commercial Computer Software - Restricted
 Rights clause in FAR 52.227-19.
  
 Gaussian, Inc.
 340 Quinnipiac St., Bldg. 40, Wallingford CT 06492
  
  
 ---------------------------------------------------------------
 Warning -- This program may not be used in any manner that
 competes with the business of Gaussian, Inc. or will provide
 assistance to any competitor of Gaussian, Inc.  The licensee
 of this program is prohibited from giving any competitor of
 Gaussian, Inc. access to this program.  By using this program,
 the user acknowledges that Gaussian, Inc. is engaged in the
 business of creating and licensing software in the field of
 computational chemistry and represents and warrants to the
 licensee that it is not a competitor of Gaussian, Inc. and that
 it will not use this program in any manner prohibited above.
 ---------------------------------------------------------------
  

 Cite this work as:
 Gaussian 16, Revision A.03,
 M. J. Frisch, G. W. Trucks, H. B. Schlegel, G. E. Scuseria, 
 M. A. Robb, J. R. Cheeseman, G. Scalmani, V. Barone, 
 G. A. Petersson, H. Nakatsuji, X. Li, M. Caricato, A. V. Marenich, 
 J. Bloino, B. G. Janesko, R. Gomperts, B. Mennucci, H. P. Hratchian, 
 J. V. Ortiz, A. F. Izmaylov, J. L. Sonnenberg, D. Williams-Young, 
 F. Ding, F. Lipparini, F. Egidi, J. Goings, B. Peng, A. Petrone, 
 T. Henderson, D. Ranasinghe, V. G. Zakrzewski, J. Gao, N. Rega, 
 G. Zheng, W. Liang, M. Hada, M. Ehara, K. Toyota, R. Fukuda, 
 J. Hasegawa, M. Ishida, T. Nakajima, Y. Honda, O. Kitao, H. Nakai, 
 T. Vreven, K. Throssell, J. A. Montgomery, Jr., J. E. Peralta, 
 F. Ogliaro, M. J. Bearpark, J. J. Heyd, E. N. Brothers, K. N. Kudin, 
 V. N. Staroverov, T. A. Keith, R. Kobayashi, J. Normand, 
 K. Raghavachari, A. P. Rendell, J. C. Burant, S. S. Iyengar, 
 J. Tomasi, M. Cossi, J. M. Millam, M. Klene, C. Adamo, R. Cammi, 
 J. W. Ochterski, R. L. Martin, K. Morokuma, O. Farkas, 
 J. B. Foresman, and D. J. Fox, Gaussian, Inc., Wallingford CT, 2016.
 
 ******************************************
 Gaussian 16:  ES64L-G16RevA.03 25-Dec-2016
                18-Sep-2019 
 ******************************************
 %chk=holoCaM_loop3_30.0.chk
 %nprocshared=48
 Will use up to   48 processors via shared memory.
 %mem=10GB
 %nosave
 ----------------------------------------------------------------------
 #b3lyp/svp scf=(tight,noincore) Test #IOP(5/87=12) Density=Current Pop
 =(MK,readradii) iop(6/33=2) iop(6/42=6)
 ----------------------------------------------------------------------
 1/30=1,38=1,172=1/1;
 2/12=2,17=6,18=5,40=1/2;
 3/5=18,7=101,11=2,25=1,30=1,74=-5/1,2,3;
 4//1;
 5/5=4,32=2,38=5,87=12/2;
 6/7=2,8=2,9=2,10=2,15=8,20=101,22=-1,28=1,33=2,42=6/1,2;
 99/5=1,9=1/99;
 ------------------
 holoCaM_loop3_30.0
 ------------------
 Symbolic Z-matrix:
 Charge =  0 Multiplicity = 1
 C                     93.85     53.8      4.172 
 C                     94.99     54.7      3.732 
 O                     95.93     54.23     3.092 
 H                     92.976    53.991    3.549 
 H                     94.149    52.757    4.068 
 H                     93.605    54.006    5.214 
 N                     94.98     55.97     4.172 
 C                     95.95     56.93     3.702 
 C                     96.9      57.23     4.852 
 O                     96.47     57.88     5.812 
 C                     95.23     58.21     3.292 
 C                     96.19     59.35     3.022 
 O                     95.95     60.52     3.402 
 O                     97.23     59.1      2.372 
 H                     94.22     56.3      4.752 
 H                     96.51     56.5      2.862 
 H                     94.48     58.4      4.062 
 H                     94.76     58.       2.332 
 N                     98.16     56.83     4.722 
 C                     99.2      56.85     5.732 
 C                     100.23    57.96     5.712 
 O                     101.17    58.       6.502 
 C                     99.66     55.41     5.972 
 C                     98.54     54.48     6.402 
 C                     99.03     53.03     6.412 
 C                     98.17     52.04     7.182 
 N                     97.06     51.56     6.342 
 H                     98.31     56.36     3.842 
 H                     98.7      57.16     6.652 
 H                     100.45    55.32     6.712 
 H                     100.05    55.04     5.022 
 H                     97.75     54.51     5.652 
 H                     98.19     54.73     7.402 
 H                     100.02    53.04     6.872 
 H                     99.2      52.72     5.382 
 H                     97.96     52.52     8.142 
 H                     98.68     51.13     7.512 
 H                     96.28     52.2      6.362 
 H                     97.34     51.39     5.382 
 H                     96.63     50.71     6.692 
 N                     100.11    59.02     4.902 
 C                     101.05    60.11     4.722 
 C                     100.39    61.44     4.402 
 O                     100.96    62.49     4.102 
 C                     102.16    59.76     3.732 
 C                     101.7     59.58     2.292 
 O                     102.52    59.4      1.362 
 O                     100.5     59.66     1.972 
 H                     99.33     58.97     4.262 
 H                     101.62    60.41     5.602 
 H                     102.82    58.93     3.972 
 H                     102.85    60.6      3.712 
 N                     99.07     61.49     4.602 
 C                     98.31     62.71     4.742 
 C                     98.05     63.47     3.452 
 O                     97.87     64.67     3.622 
 H                     98.64     60.61     4.822 
 H                     98.78     63.28     5.552 
 H                     97.31     62.48     5.112 
 N                     97.93     62.79     2.302 
 C                     97.57     63.5      1.092 
 C                     96.15     63.2      0.632 
 O                     95.74     63.57    -0.468 
 C                     98.69     63.36     0.072 
 C                     98.41     62.19    -0.868 
 N                     98.27     62.43    -2.168 
 O                     98.32     61.07    -0.368 
 H                     98.02     61.79     2.302 
 H                     97.49     64.57     1.292 
 H                     99.66     63.29     0.562 
 H                     98.64     64.27    -0.528 
 H                     98.35     63.33    -2.618 
 H                     98.16     61.62    -2.768 
 N                     95.36     62.55     1.492 
 C                     94.03     62.14     1.082 
 C                     93.83     60.94     0.172 
 O                     92.93     60.13     0.382 
 H                     95.66     62.18     2.382 
 H                     93.55     63.05     0.702 
 H                     93.53     61.79     1.982 
 N                     94.6      60.88    -0.918 
 C                     94.56     59.87    -1.958 
 C                     95.39     58.64    -1.638 
 O                     96.33     58.68    -0.858 
 C                     95.       60.54    -3.258 
 C                     94.33     61.82    -3.718 
 C                     95.07     62.75    -4.468 
 C                     93.09     62.2     -3.198 
 C                     94.57     64.01    -4.808 
 C                     92.6      63.47    -3.528 
 C                     93.26     64.35    -4.408 
 O                     92.68     65.53    -4.728 
 H                     95.26     61.65    -0.968 
 H                     93.53     59.56    -2.128 
 H                     94.89     59.88    -4.118 
 H                     96.05     60.79    -3.108 
 H                     96.08     62.46    -4.708 
 H                     92.5      61.51    -2.608 
 H                     95.23     64.7     -5.298 
 H                     91.59     63.67    -3.178 
 H                     91.84     65.52    -4.258 
 N                     94.98     57.53    -2.278 
 C                     95.59     56.22    -2.148 
 C                     96.56     55.98    -3.298 
 O                     96.17     56.17    -4.438 
 C                     94.57     55.12    -1.908 
 C                     93.43     55.51    -0.978 
 C                     95.25     53.89    -1.298 
 C                     93.84     56.07     0.382 
 H                     94.2      57.58    -2.908 
 H                     96.27     56.23    -1.298 
 H                     94.05     54.92    -2.848 
 H                     92.76     54.67    -0.768 
 H                     92.76     56.28    -1.378 
 H                     94.52     53.35    -0.698 
 H                     95.62     53.36    -2.178 
 H                     96.03     54.18    -0.598 
 H                     93.92     57.15     0.412 
 H                     92.99     55.81     1.022 
 H                     94.68     55.56     0.862 
 N                     97.75     55.47    -2.948 
 C                     98.84     54.97    -3.758 
 C                     99.02     53.46    -3.778 
 O                     98.37     52.79    -2.968 
 C                     100.15    55.74    -3.588 
 O                     100.58    55.53    -2.268 
 H                     97.94     55.47    -1.958 
 H                     98.54     55.17    -4.788 
 H                     99.92     56.79    -3.768 
 H                     100.91    55.39    -4.278 
 H                     99.86     55.73    -1.668 
 N                     99.91     52.95    -4.628 
 C                     100.16    51.53    -4.768 
 C                     100.51    50.87    -3.438 
 O                     99.86     49.88    -3.108 
 C                     101.28    51.29    -5.778 
 H                     100.42    53.53    -5.278 
 H                     99.29     50.95    -5.088 
 H                     101.55    50.23    -5.698 
 H                     101.11    51.72    -6.758 
 H                     102.18    51.83    -5.508 
 N                     101.49    51.37    -2.678 
 C                     102.04    50.61    -1.568 
 C                     100.93    50.49    -0.528 
 O                     100.88    49.59     0.302 
 C                     103.23    51.37    -0.988 
 H                     101.97    52.21    -2.968 
 H                     102.36    49.66    -2.008 
 H                     103.89    51.58    -1.828 
 H                     102.9     52.33    -0.598 
 H                     103.74    50.78    -0.228 
 N                     100.11    51.55    -0.488 
 C                     98.99     51.71     0.412 
 C                     97.93     50.69     0.002 
 O                     97.45     50.04     0.922 
 C                     98.42     53.12     0.422 
 C                     99.39     54.15     1.012 
 C                     98.89     55.58     0.852 
 O                     98.82     56.43     1.762 
 O                     98.53     56.01    -0.268 
 H                     100.16    52.2     -1.258 
 H                     99.37     51.44     1.392 
 H                     97.47     53.13     0.962 
 H                     98.28     53.46    -0.608 
 H                     100.35    54.04     0.512 
 H                     99.51     53.86     2.052 
 N                     97.36     50.66    -1.208 
 C                     96.54     49.57    -1.708 
 H                     95.619    49.973   -2.129 
 H                     97.086    49.029   -2.481 
 H                     96.299    48.891   -0.89 
 H                     97.83     51.31    -1.818 
 Ca                    98.64     58.62     0.42 
 O                     99.01     58.66    -2.188 
 H                     99.01     59.62    -2.198 
 H                     99.93     58.42    -2.328 
 
 Stoichiometry    C54H83CaN15O23
 Framework group  C1[X(C54H83CaN15O23)]
 Deg. of freedom   522
 Full point group                 C1      NOp   1
 Largest Abelian subgroup         C1      NOp   1
 Largest concise Abelian subgroup C1      NOp   1
                         Standard orientation:                         
 ---------------------------------------------------------------------
 Center     Atomic      Atomic             Coordinates (Angstroms)
 Number     Number       Type             X           Y           Z
 ---------------------------------------------------------------------
      1          6           0        2.026107    2.525000    5.446788
      2          6           0        1.508451    2.404881    4.025238
      3          8           0        2.257174    2.011572    3.131469
      4          1           0        1.628928    1.706689    6.047706
      5          1           0        3.115029    2.477069    5.442673
      6          1           0        1.705479    3.476228    5.871743
      7          7           0        0.266145    2.855425    3.779709
      8          6           0       -0.355393    2.664863    2.490998
      9          6           0       -0.434526    4.022784    1.809243
     10          8           0       -1.228424    4.857725    2.258242
     11          6           0       -1.763416    2.114736    2.690323
     12          6           0       -2.570605    2.119067    1.408712
     13          8           0       -3.778889    2.451630    1.389949
     14          8           0       -2.003901    1.745922    0.356947
     15          1           0       -0.294559    3.232879    4.532065
     16          1           0        0.258193    1.983423    1.888294
     17          1           0       -2.197060    2.675559    3.520342
     18          1           0       -1.644949    1.063178    2.948764
     19          7           0        0.310915    4.204884    0.724966
     20          6           0        0.532682    5.443921    0.005448
     21          6           0       -0.239013    5.707116   -1.270724
     22          8           0       -0.053184    6.708571   -1.957642
     23          6           0        2.029459    5.760797    0.050696
     24          6           0        2.582017    5.875618    1.459843
     25          6           0        4.108793    5.977242    1.423438
     26          6           0        4.774512    6.485101    2.692887
     27          7           0        4.964821    5.383114    3.650752
     28          1           0        0.849221    3.380893    0.503460
     29          1           0        0.046821    6.215272    0.606662
     30          1           0        2.300102    6.673398   -0.472479
     31          1           0        2.543322    4.931497   -0.438903
     32          1           0        2.369371    4.952052    1.997717
     33          1           0        2.191796    6.760773    1.959071
     34          1           0        4.354622    6.671270    0.617403
     35          1           0        4.507265    5.016555    1.100639
     36          1           0        4.205538    7.371652    2.986820
     37          1           0        5.772997    6.913008    2.562416
     38          1           0        4.130615    5.220287    4.194800
     39          1           0        5.256575    4.520801    3.203319
     40          1           0        5.639577    5.595552    4.378403
     41          7           0       -1.246208    4.915894   -1.662676
     42          6           0       -2.015819    5.001221   -2.889264
     43          6           0       -3.459491    4.554332   -2.737596
     44          8           0       -4.288938    4.429738   -3.639756
     45          6           0       -1.315895    4.314494   -4.061105
     46          6           0       -1.198395    2.801595   -3.938913
     47          8           0       -0.746265    2.103737   -4.876075
     48          8           0       -1.596968    2.192230   -2.929649
     49          1           0       -1.385112    4.099570   -1.084040
     50          1           0       -2.188131    6.002414   -3.285777
     51          1           0       -0.347048    4.694703   -4.375550
     52          1           0       -1.924868    4.486490   -4.945226
     53          7           0       -3.890211    4.417385   -1.480366
     54          6           0       -5.280631    4.388159   -1.091165
     55          6           0       -6.014986    3.090833   -1.386071
     56          8           0       -7.224164    3.235894   -1.520774
     57          1           0       -3.179959    4.503378   -0.776202
     58          1           0       -5.736168    5.302290   -1.489598
     59          1           0       -5.361673    4.490088   -0.008186
     60          7           0       -5.337650    1.933235   -1.364108
     61          6           0       -6.056479    0.687134   -1.532385
     62          6           0       -6.145819   -0.121128   -0.245245
     63          8           0       -6.558765   -1.280641   -0.242823
     64          6           0       -5.553347   -0.021604   -2.780964
     65          6           0       -4.462667   -1.026694   -2.418871
     66          7           0       -4.664504   -2.314719   -2.678589
     67          8           0       -3.441130   -0.589496   -1.891784
     68          1           0       -4.354293    1.934371   -1.161355
     69          1           0       -7.114468    0.883553   -1.715087
     70          1           0       -5.238083    0.694714   -3.538194
     71          1           0       -6.408013   -0.595246   -3.143014
     72          1           0       -5.480709   -2.710768   -3.121144
     73          1           0       -3.888401   -2.940361   -2.493019
     74          7           0       -5.790737    0.498706    0.884322
     75          6           0       -5.751907   -0.240926    2.131935
     76          6           0       -4.611477   -1.197535    2.435938
     77          8           0       -4.100369   -1.237772    3.552786
     78          1           0       -5.397910    1.427371    0.931948
     79          1           0       -6.739329   -0.709683    2.222294
     80          1           0       -5.604472    0.496900    2.917031
     81          7           0       -4.280092   -2.060208    1.471273
     82          6           0       -3.269775   -3.098350    1.540706
     83          6           0       -1.873936   -2.606613    1.203025
     84          8           0       -1.687587   -1.614835    0.513640
     85          6           0       -3.719895   -4.231457    0.620946
     86          6           0       -5.111212   -4.817411    0.761642
     87          6           0       -5.754349   -5.337345   -0.374599
     88          6           0       -5.852122   -4.617513    1.929329
     89          6           0       -7.084780   -5.764903   -0.355983
     90          6           0       -7.189832   -5.032667    1.938291
     91          6           0       -7.800885   -5.699571    0.858359
     92          8           0       -9.078290   -6.129586    0.978867
     93          1           0       -4.828912   -1.926281    0.627555
     94          1           0       -3.254575   -3.528233    2.541141
     95          1           0       -3.073971   -5.105481    0.699466
     96          1           0       -3.670935   -3.817194   -0.385776
     97          1           0       -5.179102   -5.322126   -1.286004
     98          1           0       -5.388259   -4.209580    2.818554
     99          1           0       -7.534092   -6.058482   -1.285354
    100          1           0       -7.684580   -4.943371    2.902579
    101          1           0       -9.330139   -5.885974    1.875430
    102          7           0       -0.893007   -3.352758    1.742326
    103          6           0        0.527274   -3.101861    1.584362
    104          6           0        1.090639   -3.976225    0.471209
    105          8           0        0.857848   -5.173286    0.496741
    106          6           0        1.280775   -3.149435    2.902684
    107          6           0        0.537187   -2.527447    4.076058
    108          6           0        2.619219   -2.414742    2.775426
    109          6           0        0.045712   -1.096365    3.871714
    110          1           0       -1.128228   -4.157258    2.294820
    111          1           0        0.665367   -2.108296    1.161563
    112          1           0        1.374516   -4.193984    3.209492
    113          1           0        1.141927   -2.510556    4.988530
    114          1           0       -0.368687   -3.066288    4.377458
    115          1           0        2.899368   -2.029077    3.753833
    116          1           0        3.277074   -3.184761    2.367386
    117          1           0        2.525093   -1.535202    2.142930
    118          1           0       -0.967877   -1.024052    3.496071
    119          1           0        0.021696   -0.696123    4.890993
    120          1           0        0.746322   -0.431825    3.358262
    121          7           0        1.896755   -3.349572   -0.398379
    122          6           0        2.725375   -3.870357   -1.464387
    123          6           0        4.223725   -3.876918   -1.203996
    124          8           0        4.640065   -3.270733   -0.210668
    125          6           0        2.348510   -3.360268   -2.855675
    126          8           0        2.602390   -1.979402   -2.868119
    127          1           0        1.898902   -2.343823   -0.330087
    128          1           0        2.502679   -4.938151   -1.497913
    129          1           0        1.287112   -3.569682   -2.987508
    130          1           0        2.934091   -3.844598   -3.629444
    131          1           0        2.176467   -1.575338   -2.110674
    132          7           0        5.007575   -4.486862   -2.091829
    133          6           0        6.445696   -4.590032   -1.951601
    134          6           0        7.107568   -3.229245   -1.758767
    135          8           0        7.855407   -3.094427   -0.792299
    136          6           0        7.044105   -5.291240   -3.169104
    137          1           0        4.629635   -4.975313   -2.890313
    138          1           0        6.772486   -5.130678   -1.059070
    139          1           0        8.131566   -5.168763   -3.096115
    140          1           0        6.635157   -6.273057   -3.376464
    141          1           0        6.766697   -4.792303   -4.090303
    142          7           0        6.865579   -2.236899   -2.621721
    143          6           0        7.691111   -1.040917   -2.639730
    144          6           0        7.438831   -0.315896   -1.321095
    145          8           0        8.243748    0.455415   -0.812578
    146          6           0        7.268658   -0.164426   -3.815909
    147          1           0        6.211391   -2.378930   -3.378005
    148          1           0        8.714333   -1.406724   -2.772779
    149          1           0        7.297361   -0.807007   -4.694297
    150          1           0        6.235634    0.150698   -3.688795
    151          1           0        7.938243    0.686463   -3.931854
    152          7           0        6.189955   -0.460399   -0.855233
    153          6           0        5.673901    0.132644    0.358022
    154          6           0        6.373266   -0.552266    1.530151
    155          8           0        6.812693    0.203497    2.387487
    156          6           0        4.161832    0.029420    0.484876
    157          6           0        3.418137    0.866125   -0.562379
    158          6           0        1.915495    0.616404   -0.547996
    159          8           0        1.034174    1.497679   -0.501875
    160          8           0        1.460218   -0.548616   -0.613968
    161          1           0        5.621410   -1.179014   -1.277428
    162          1           0        5.988824    1.170644    0.325167
    163          1           0        3.856149    0.313571    1.494835
    164          1           0        3.850164   -0.995178    0.263153
    165          1           0        3.820358    0.621047   -1.543121
    166          1           0        3.675744    1.896450   -0.333975
    167          7           0        6.304081   -1.867003    1.768017
    168          6           0        7.142896   -2.580225    2.715752
    169          1           0        6.518868   -3.210314    3.349368
    170          1           0        7.855384   -3.202728    2.174295
    171          1           0        7.682838   -1.863758    3.334932
    172          1           0        5.845718   -2.325290    0.996410
    173         20           0       -1.044794    0.200830   -1.292782
    174          8           0       -0.843157   -2.229140   -2.290155
    175          1           0       -1.762282   -2.218206   -2.567263
    176          1           0       -0.346399   -2.138684   -3.107864
 ---------------------------------------------------------------------
 Rotational constants (GHZ):           0.0225781           0.0150245           0.0118851
 Standard basis: SVP (5D, 7F)
 There are  1809 symmetry adapted cartesian basis functions of A   symmetry.
 There are  1717 symmetry adapted basis functions of A   symmetry.
  1717 basis functions,  2922 primitive gaussians,  1809 cartesian basis functions
   358 alpha electrons      358 beta electrons
       nuclear repulsion energy     21617.6925451153 Hartrees.
 NAtoms=  176 NActive=  176 NUniq=  176 SFac= 1.00D+00 NAtFMM=   60 NAOKFM=T Big=T
 Integral buffers will be    131072 words long.
 Raffenetti 2 integral format.
 Two-electron integral symmetry is turned on.
 One-electron integrals computed using PRISM.
 NBasis=  1717 RedAO= T EigKep=  2.88D-04  NBF=  1717
 NBsUse=  1717 1.00D-06 EigRej= -1.00D+00 NBFU=  1717
 ExpMin= 1.98D-02 ExpMax= 3.51D+04 ExpMxC= 5.28D+03 IAcc=3 IRadAn=         5 AccDes= 0.00D+00
 Harris functional with IExCor=  402 and IRadAn=       5 diagonalized for initial guess.
 HarFok:  IExCor=  402 AccDes= 0.00D+00 IRadAn=         5 IDoV= 1 UseB2=F ITyADJ=14
 ICtDFT=  3500011 ScaDFX=  1.000000  1.000000  1.000000  1.000000
 FoFCou: FMM=F IPFlag=           0 FMFlag=      100000 FMFlg1=        2001
         NFxFlg=           0 DoJE=T BraDBF=F KetDBF=T FulRan=T
         wScrn=  0.000000 ICntrl=       500 IOpCl=  0 I1Cent=   200000004 NGrid=           0
         NMat0=    1 NMatS0=      1 NMatT0=    0 NMatD0=    1 NMtDS0=    0 NMtDT0=    0
 Petite list used in FoFCou.
 Requested convergence on RMS density matrix=1.00D-08 within 128 cycles.
 Requested convergence on MAX density matrix=1.00D-06.
 Requested convergence on             energy=1.00D-06.
 No special actions if energy rises.
 EnCoef did     3 forward-backward iterations
 SCF Done:  E(RB3LYP) =  -5333.58921087     A.U. after   18 cycles
            NFock= 18  Conv=0.28D-08     -V/T= 2.0082
 SCF density gives NOpUse=  1 NOpAll=  1.
 Hyperfine terms turned off by default for NAtoms > 100.

 **********************************************************************

            Population analysis using the SCF density.

 **********************************************************************

 Orbital symmetries:
 BldTbl:  Degeneracy threshold= 1.00D-02
       Occupied  (A) (A) (A) (A) (A) (A) (A) (A) (A) (A) (A) (A)
                 (A) (A) (A) (A) (A) (A) (A) (A) (A) (A) (A) (A)
                 (A) (A) (A) (A) (A) (A) (A) (A) (A) (A) (A) (A)
                 (A) (A) (A) (A) (A) (A) (A) (A) (A) (A) (A) (A)
                 (A) (A) (A) (A) (A) (A) (A) (A) (A) (A) (A) (A)
                 (A) (A) (A) (A) (A) (A) (A) (A) (A) (A) (A) (A)
                 (A) (A) (A) (A) (A) (A) (A) (A) (A) (A) (A) (A)
                 (A) (A) (A) (A) (A) (A) (A) (A) (A) (A) (A) (A)
                 (A) (A) (A) (A) (A) (A) (A) (A) (A) (A) (A) (A)
                 (A) (A) (A) (A) (A) (A) (A) (A) (A) (A) (A) (A)
                 (A) (A) (A) (A) (A) (A) (A) (A) (A) (A) (A) (A)
                 (A) (A) (A) (A) (A) (A) (A) (A) (A) (A) (A) (A)
                 (A) (A) (A) (A) (A) (A) (A) (A) (A) (A) (A) (A)
                 (A) (A) (A) (A) (A) (A) (A) (A) (A) (A) (A) (A)
                 (A) (A) (A) (A) (A) (A) (A) (A) (A) (A) (A) (A)
                 (A) (A) (A) (A) (A) (A) (A) (A) (A) (A) (A) (A)
                 (A) (A) (A) (A) (A) (A) (A) (A) (A) (A) (A) (A)
                 (A) (A) (A) (A) (A) (A) (A) (A) (A) (A) (A) (A)
                 (A) (A) (A) (A) (A) (A) (A) (A) (A) (A) (A) (A)
                 (A) (A) (A) (A) (A) (A) (A) (A) (A) (A) (A) (A)
                 (A) (A) (A) (A) (A) (A) (A) (A) (A) (A) (A) (A)
                 (A) (A) (A) (A) (A) (A) (A) (A) (A) (A) (A) (A)
                 (A) (A) (A) (A) (A) (A) (A) (A) (A) (A) (A) (A)
                 (A) (A) (A) (A) (A) (A) (A) (A) (A) (A) (A) (A)
                 (A) (A) (A) (A) (A) (A) (A) (A) (A) (A) (A) (A)
                 (A) (A) (A) (A) (A) (A) (A) (A) (A) (A) (A) (A)
                 (A) (A) (A) (A) (A) (A) (A) (A) (A) (A) (A) (A)
                 (A) (A) (A) (A) (A) (A) (A) (A) (A) (A) (A) (A)
                 (A) (A) (A) (A) (A) (A) (A) (A) (A) (A) (A) (A)
                 (A) (A) (A) (A) (A) (A) (A) (A) (A) (A)
       Virtual   (A) (A) (A) (A) (A) (A) (A) (A) (A) (A) (A) (A)
                 (A) (A) (A) (A) (A) (A) (A) (A) (A) (A) (A) (A)
                 (A) (A) (A) (A) (A) (A) (A) (A) (A) (A) (A) (A)
                 (A) (A) (A) (A) (A) (A) (A) (A) (A) (A) (A) (A)
                 (A) (A) (A) (A) (A) (A) (A) (A) (A) (A) (A) (A)
                 (A) (A) (A) (A) (A) (A) (A) (A) (A) (A) (A) (A)
                 (A) (A) (A) (A) (A) (A) (A) (A) (A) (A) (A) (A)
                 (A) (A) (A) (A) (A) (A) (A) (A) (A) (A) (A) (A)
                 (A) (A) (A) (A) (A) (A) (A) (A) (A) (A) (A) (A)
                 (A) (A) (A) (A) (A) (A) (A) (A) (A) (A) (A) (A)
                 (A) (A) (A) (A) (A) (A) (A) (A) (A) (A) (A) (A)
                 (A) (A) (A) (A) (A) (A) (A) (A) (A) (A) (A) (A)
                 (A) (A) (A) (A) (A) (A) (A) (A) (A) (A) (A) (A)
                 (A) (A) (A) (A) (A) (A) (A) (A) (A) (A) (A) (A)
                 (A) (A) (A) (A) (A) (A) (A) (A) (A) (A) (A) (A)
                 (A) (A) (A) (A) (A) (A) (A) (A) (A) (A) (A) (A)
                 (A) (A) (A) (A) (A) (A) (A) (A) (A) (A) (A) (A)
                 (A) (A) (A) (A) (A) (A) (A) (A) (A) (A) (A) (A)
                 (A) (A) (A) (A) (A) (A) (A) (A) (A) (A) (A) (A)
                 (A) (A) (A) (A) (A) (A) (A) (A) (A) (A) (A) (A)
                 (A) (A) (A) (A) (A) (A) (A) (A) (A) (A) (A) (A)
                 (A) (A) (A) (A) (A) (A) (A) (A) (A) (A) (A) (A)
                 (A) (A) (A) (A) (A) (A) (A) (A) (A) (A) (A) (A)
                 (A) (A) (A) (A) (A) (A) (A) (A) (A) (A) (A) (A)
                 (A) (A) (A) (A) (A) (A) (A) (A) (A) (A) (A) (A)
                 (A) (A) (A) (A) (A) (A) (A) (A) (A) (A) (A) (A)
                 (A) (A) (A) (A) (A) (A) (A) (A) (A) (A) (A) (A)
                 (A) (A) (A) (A) (A) (A) (A) (A) (A) (A) (A) (A)
                 (A) (A) (A) (A) (A) (A) (A) (A) (A) (A) (A) (A)
                 (A) (A) (A) (A) (A) (A) (A) (A) (A) (A) (A) (A)
                 (A) (A) (A) (A) (A) (A) (A) (A) (A) (A) (A) (A)
                 (A) (A) (A) (A) (A) (A) (A) (A) (A) (A) (A) (A)
                 (A) (A) (A) (A) (A) (A) (A) (A) (A) (A) (A) (A)
                 (A) (A) (A) (A) (A) (A) (A) (A) (A) (A) (A) (A)
                 (A) (A) (A) (A) (A) (A) (A) (A) (A) (A) (A) (A)
                 (A) (A) (A) (A) (A) (A) (A) (A) (A) (A) (A) (A)
                 (A) (A) (A) (A) (A) (A) (A) (A) (A) (A) (A) (A)
                 (A) (A) (A) (A) (A) (A) (A) (A) (A) (A) (A) (A)
                 (A) (A) (A) (A) (A) (A) (A) (A) (A) (A) (A) (A)
                 (A) (A) (A) (A) (A) (A) (A) (A) (A) (A) (A) (A)
                 (A) (A) (A) (A) (A) (A) (A) (A) (A) (A) (A) (A)
                 (A) (A) (A) (A) (A) (A) (A) (A) (A) (A) (A) (A)
                 (A) (A) (A) (A) (A) (A) (A) (A) (A) (A) (A) (A)
                 (A) (A) (A) (A) (A) (A) (A) (A) (A) (A) (A) (A)
                 (A) (A) (A) (A) (A) (A) (A) (A) (A) (A) (A) (A)
                 (A) (A) (A) (A) (A) (A) (A) (A) (A) (A) (A) (A)
                 (A) (A) (A) (A) (A) (A) (A) (A) (A) (A) (A) (A)
                 (A) (A) (A) (A) (A) (A) (A) (A) (A) (A) (A) (A)
                 (A) (A) (A) (A) (A) (A) (A) (A) (A) (A) (A) (A)
                 (A) (A) (A) (A) (A) (A) (A) (A) (A) (A) (A) (A)
                 (A) (A) (A) (A) (A) (A) (A) (A) (A) (A) (A) (A)
                 (A) (A) (A) (A) (A) (A) (A) (A) (A) (A) (A) (A)
                 (A) (A) (A) (A) (A) (A) (A) (A) (A) (A) (A) (A)
                 (A) (A) (A) (A) (A) (A) (A) (A) (A) (A) (A) (A)
                 (A) (A) (A) (A) (A) (A) (A) (A) (A) (A) (A) (A)
                 (A) (A) (A) (A) (A) (A) (A) (A) (A) (A) (A) (A)
                 (A) (A) (A) (A) (A) (A) (A) (A) (A) (A) (A) (A)
                 (A) (A) (A) (A) (A) (A) (A) (A) (A) (A) (A) (A)
                 (A) (A) (A) (A) (A) (A) (A) (A) (A) (A) (A) (A)
                 (A) (A) (A) (A) (A) (A) (A) (A) (A) (A) (A) (A)
                 (A) (A) (A) (A) (A) (A) (A) (A) (A) (A) (A) (A)
                 (A) (A) (A) (A) (A) (A) (A) (A) (A) (A) (A) (A)
                 (A) (A) (A) (A) (A) (A) (A) (A) (A) (A) (A) (A)
                 (A) (A) (A) (A) (A) (A) (A) (A) (A) (A) (A) (A)
                 (A) (A) (A) (A) (A) (A) (A) (A) (A) (A) (A) (A)
                 (A) (A) (A) (A) (A) (A) (A) (A) (A) (A) (A) (A)
                 (A) (A) (A) (A) (A) (A) (A) (A) (A) (A) (A) (A)
                 (A) (A) (A) (A) (A) (A) (A) (A) (A) (A) (A) (A)
                 (A) (A) (A) (A) (A) (A) (A) (A) (A) (A) (A) (A)
                 (A) (A) (A) (A) (A) (A) (A) (A) (A) (A) (A) (A)
                 (A) (A) (A) (A) (A) (A) (A) (A) (A) (A) (A) (A)
                 (A) (A) (A) (A) (A) (A) (A) (A) (A) (A) (A) (A)
                 (A) (A) (A) (A) (A) (A) (A) (A) (A) (A) (A) (A)
                 (A) (A) (A) (A) (A) (A) (A) (A) (A) (A) (A) (A)
                 (A) (A) (A) (A) (A) (A) (A) (A) (A) (A) (A) (A)
                 (A) (A) (A) (A) (A) (A) (A) (A) (A) (A) (A) (A)
                 (A) (A) (A) (A) (A) (A) (A) (A) (A) (A) (A) (A)
                 (A) (A) (A) (A) (A) (A) (A) (A) (A) (A) (A) (A)
                 (A) (A) (A) (A) (A) (A) (A) (A) (A) (A) (A) (A)
                 (A) (A) (A) (A) (A) (A) (A) (A) (A) (A) (A) (A)
                 (A) (A) (A) (A) (A) (A) (A) (A) (A) (A) (A) (A)
                 (A) (A) (A) (A) (A) (A) (A) (A) (A) (A) (A) (A)
                 (A) (A) (A) (A) (A) (A) (A) (A) (A) (A) (A) (A)
                 (A) (A) (A) (A) (A) (A) (A) (A) (A) (A) (A) (A)
                 (A) (A) (A) (A) (A) (A) (A) (A) (A) (A) (A) (A)
                 (A) (A) (A) (A) (A) (A) (A) (A) (A) (A) (A) (A)
                 (A) (A) (A) (A) (A) (A) (A) (A) (A) (A) (A) (A)
                 (A) (A) (A) (A) (A) (A) (A) (A) (A) (A) (A) (A)
                 (A) (A) (A) (A) (A) (A) (A) (A) (A) (A) (A) (A)
                 (A) (A) (A) (A) (A) (A) (A) (A) (A) (A) (A) (A)
                 (A) (A) (A) (A) (A) (A) (A) (A) (A) (A) (A) (A)
                 (A) (A) (A) (A) (A) (A) (A) (A) (A) (A) (A) (A)
                 (A) (A) (A) (A) (A) (A) (A) (A) (A) (A) (A) (A)
                 (A) (A) (A) (A) (A) (A) (A) (A) (A) (A) (A) (A)
                 (A) (A) (A) (A) (A) (A) (A) (A) (A) (A) (A) (A)
                 (A) (A) (A) (A) (A) (A) (A) (A) (A) (A) (A) (A)
                 (A) (A) (A) (A) (A) (A) (A) (A) (A) (A) (A) (A)
                 (A) (A) (A) (A) (A) (A) (A) (A) (A) (A) (A) (A)
                 (A) (A) (A) (A) (A) (A) (A) (A) (A) (A) (A) (A)
                 (A) (A) (A) (A) (A) (A) (A) (A) (A) (A) (A) (A)
                 (A) (A) (A) (A) (A) (A) (A) (A) (A) (A) (A) (A)
                 (A) (A) (A) (A) (A) (A) (A) (A) (A) (A) (A) (A)
                 (A) (A) (A) (A) (A) (A) (A) (A) (A) (A) (A) (A)
                 (A) (A) (A) (A) (A) (A) (A) (A) (A) (A) (A) (A)
                 (A) (A) (A) (A) (A) (A) (A) (A) (A) (A) (A) (A)
                 (A) (A) (A) (A) (A) (A) (A) (A) (A) (A) (A) (A)
                 (A) (A) (A) (A) (A) (A) (A) (A) (A) (A) (A) (A)
                 (A) (A) (A) (A) (A) (A) (A) (A) (A) (A) (A) (A)
                 (A) (A) (A) (A) (A) (A) (A) (A) (A) (A) (A) (A)
                 (A) (A) (A) (A) (A) (A) (A) (A) (A) (A) (A) (A)
                 (A) (A) (A) (A) (A) (A) (A) (A) (A) (A) (A) (A)
                 (A) (A) (A) (A) (A) (A) (A) (A) (A) (A) (A) (A)
                 (A) (A) (A) (A) (A) (A) (A) (A) (A) (A) (A) (A)
                 (A) (A) (A)
 The electronic state is 1-A.
 Alpha  occ. eigenvalues -- -145.35996 -19.19259 -19.16493 -19.14038 -19.13553
 Alpha  occ. eigenvalues --  -19.13370 -19.12258 -19.11465 -19.11383 -19.10003
 Alpha  occ. eigenvalues --  -19.09705 -19.08748 -19.08638 -19.08545 -19.08228
 Alpha  occ. eigenvalues --  -19.08135 -19.06398 -19.05951 -19.05102 -19.04672
 Alpha  occ. eigenvalues --  -19.04283 -19.03310 -19.00921 -18.97810 -15.41817
 Alpha  occ. eigenvalues --  -14.58087 -14.39920 -14.38682 -14.37663 -14.36735
 Alpha  occ. eigenvalues --  -14.36651 -14.35275 -14.34488 -14.34091 -14.33650
 Alpha  occ. eigenvalues --  -14.32802 -14.32126 -14.31944 -14.31602 -14.29981
 Alpha  occ. eigenvalues --  -12.55421 -12.55391 -12.55370 -10.34890 -10.32045
 Alpha  occ. eigenvalues --  -10.31673 -10.30349 -10.30238 -10.30034 -10.28562
 Alpha  occ. eigenvalues --  -10.28252 -10.27482 -10.26816 -10.26708 -10.26676
 Alpha  occ. eigenvalues --  -10.26629 -10.26224 -10.26191 -10.26087 -10.25152
 Alpha  occ. eigenvalues --  -10.25008 -10.24922 -10.24452 -10.24048 -10.24032
 Alpha  occ. eigenvalues --  -10.23864 -10.23518 -10.23469 -10.23354 -10.22536
 Alpha  occ. eigenvalues --  -10.22462 -10.22373 -10.21940 -10.21679 -10.21608
 Alpha  occ. eigenvalues --  -10.21303 -10.20569 -10.20477 -10.20378 -10.19967
 Alpha  occ. eigenvalues --  -10.19551 -10.19281 -10.19244 -10.19095 -10.19090
 Alpha  occ. eigenvalues --  -10.19009 -10.19005 -10.19001 -10.18934 -10.18767
 Alpha  occ. eigenvalues --  -10.18616 -10.18135 -10.17851 -10.16845 -10.16567
 Alpha  occ. eigenvalues --  -10.16231 -10.12792  -1.78769  -1.13143  -1.07050
 Alpha  occ. eigenvalues --   -1.06704  -1.06519  -1.06237  -1.05697  -1.05682
 Alpha  occ. eigenvalues --   -1.04813  -1.04713  -1.04618  -1.04525  -1.04166
 Alpha  occ. eigenvalues --   -1.03169  -1.02473  -1.01887  -1.01605  -1.01249
 Alpha  occ. eigenvalues --   -1.00693  -1.00017  -0.99523  -0.98584  -0.98440
 Alpha  occ. eigenvalues --   -0.97335  -0.96566  -0.94717  -0.94667  -0.93525
 Alpha  occ. eigenvalues --   -0.93376  -0.93334  -0.93148  -0.92420  -0.91877
 Alpha  occ. eigenvalues --   -0.91219  -0.91136  -0.90287  -0.88723  -0.88530
 Alpha  occ. eigenvalues --   -0.88425  -0.88198  -0.88178  -0.86020  -0.84843
 Alpha  occ. eigenvalues --   -0.83155  -0.82282  -0.81903  -0.81623  -0.79616
 Alpha  occ. eigenvalues --   -0.79064  -0.78573  -0.78163  -0.77426  -0.77412
 Alpha  occ. eigenvalues --   -0.76296  -0.74560  -0.74252  -0.73866  -0.73650
 Alpha  occ. eigenvalues --   -0.73041  -0.72524  -0.72307  -0.71287  -0.70990
 Alpha  occ. eigenvalues --   -0.69836  -0.69323  -0.68889  -0.68573  -0.68262
 Alpha  occ. eigenvalues --   -0.67515  -0.66371  -0.66044  -0.65146  -0.64945
 Alpha  occ. eigenvalues --   -0.64523  -0.63382  -0.63059  -0.62500  -0.62206
 Alpha  occ. eigenvalues --   -0.62004  -0.61864  -0.61401  -0.61216  -0.60607
 Alpha  occ. eigenvalues --   -0.60465  -0.59412  -0.58849  -0.58639  -0.58520
 Alpha  occ. eigenvalues --   -0.58342  -0.58270  -0.57117  -0.56941  -0.56548
 Alpha  occ. eigenvalues --   -0.56272  -0.55917  -0.55749  -0.54972  -0.54805
 Alpha  occ. eigenvalues --   -0.54715  -0.54522  -0.54197  -0.53766  -0.53621
 Alpha  occ. eigenvalues --   -0.53395  -0.53072  -0.52757  -0.52516  -0.52282
 Alpha  occ. eigenvalues --   -0.51840  -0.51641  -0.50817  -0.50711  -0.50539
 Alpha  occ. eigenvalues --   -0.50372  -0.49770  -0.49579  -0.49341  -0.49290
 Alpha  occ. eigenvalues --   -0.49024  -0.48827  -0.48470  -0.48300  -0.48165
 Alpha  occ. eigenvalues --   -0.47884  -0.47520  -0.47335  -0.47067  -0.46844
 Alpha  occ. eigenvalues --   -0.46621  -0.46500  -0.46389  -0.46150  -0.46027
 Alpha  occ. eigenvalues --   -0.45830  -0.45434  -0.45247  -0.45232  -0.45072
 Alpha  occ. eigenvalues --   -0.44677  -0.44585  -0.44452  -0.44301  -0.44207
 Alpha  occ. eigenvalues --   -0.44023  -0.43914  -0.43726  -0.43667  -0.43542
 Alpha  occ. eigenvalues --   -0.43480  -0.43274  -0.43175  -0.42902  -0.42738
 Alpha  occ. eigenvalues --   -0.42613  -0.42453  -0.42426  -0.42333  -0.41923
 Alpha  occ. eigenvalues --   -0.41828  -0.41724  -0.41511  -0.41478  -0.41167
 Alpha  occ. eigenvalues --   -0.41048  -0.40886  -0.40839  -0.40589  -0.40452
 Alpha  occ. eigenvalues --   -0.40363  -0.40225  -0.39804  -0.39751  -0.39717
 Alpha  occ. eigenvalues --   -0.39590  -0.39538  -0.39441  -0.39430  -0.39295
 Alpha  occ. eigenvalues --   -0.39103  -0.38834  -0.38643  -0.38555  -0.38461
 Alpha  occ. eigenvalues --   -0.38228  -0.38142  -0.37998  -0.37851  -0.37814
 Alpha  occ. eigenvalues --   -0.37647  -0.37581  -0.37528  -0.37340  -0.36978
 Alpha  occ. eigenvalues --   -0.36722  -0.36622  -0.36445  -0.36151  -0.35985
 Alpha  occ. eigenvalues --   -0.35864  -0.35793  -0.35464  -0.35084  -0.35059
 Alpha  occ. eigenvalues --   -0.34887  -0.34729  -0.34628  -0.34269  -0.34162
 Alpha  occ. eigenvalues --   -0.33966  -0.33849  -0.33626  -0.33526  -0.33296
 Alpha  occ. eigenvalues --   -0.32903  -0.32797  -0.32563  -0.31860  -0.31616
 Alpha  occ. eigenvalues --   -0.31399  -0.31025  -0.30906  -0.30390  -0.29983
 Alpha  occ. eigenvalues --   -0.29129  -0.28980  -0.28889  -0.28714  -0.28634
 Alpha  occ. eigenvalues --   -0.28194  -0.28116  -0.27944  -0.27195  -0.27059
 Alpha  occ. eigenvalues --   -0.26877  -0.26451  -0.26403  -0.26390  -0.26074
 Alpha  occ. eigenvalues --   -0.26035  -0.25352  -0.24933  -0.24536  -0.24427
 Alpha  occ. eigenvalues --   -0.24000  -0.23675  -0.23203  -0.23025  -0.22760
 Alpha  occ. eigenvalues --   -0.22600  -0.22293  -0.22164  -0.21964  -0.21800
 Alpha  occ. eigenvalues --   -0.21658  -0.21311  -0.20087  -0.19698  -0.19028
 Alpha  occ. eigenvalues --   -0.18686  -0.16812  -0.13767
 Alpha virt. eigenvalues --   -0.09772  -0.04643  -0.03504  -0.02226  -0.01637
 Alpha virt. eigenvalues --   -0.01434  -0.01228  -0.00429  -0.00381  -0.00070
 Alpha virt. eigenvalues --   -0.00006   0.00130   0.00898   0.01590   0.01758
 Alpha virt. eigenvalues --    0.02031   0.02209   0.02575   0.02829   0.03132
 Alpha virt. eigenvalues --    0.03301   0.03519   0.03828   0.03941   0.03987
 Alpha virt. eigenvalues --    0.04545   0.05014   0.05220   0.05400   0.05570
 Alpha virt. eigenvalues --    0.05930   0.06076   0.06490   0.06887   0.07003
 Alpha virt. eigenvalues --    0.07253   0.07422   0.07458   0.07515   0.07848
 Alpha virt. eigenvalues --    0.07896   0.08245   0.08367   0.08732   0.08859
 Alpha virt. eigenvalues --    0.08994   0.09188   0.09383   0.09585   0.09906
 Alpha virt. eigenvalues --    0.10051   0.10183   0.10416   0.10771   0.10931
 Alpha virt. eigenvalues --    0.11023   0.11101   0.11344   0.11403   0.11712
 Alpha virt. eigenvalues --    0.11754   0.11913   0.12080   0.12348   0.12574
 Alpha virt. eigenvalues --    0.12705   0.12760   0.12957   0.13119   0.13287
 Alpha virt. eigenvalues --    0.13307   0.13375   0.13469   0.13789   0.13972
 Alpha virt. eigenvalues --    0.14109   0.14240   0.14361   0.14637   0.14904
 Alpha virt. eigenvalues --    0.14998   0.15065   0.15341   0.15487   0.15574
 Alpha virt. eigenvalues --    0.15629   0.15878   0.16113   0.16151   0.16366
 Alpha virt. eigenvalues --    0.16384   0.16524   0.16647   0.16852   0.17207
 Alpha virt. eigenvalues --    0.17313   0.17554   0.17909   0.18127   0.18232
 Alpha virt. eigenvalues --    0.18595   0.18843   0.18964   0.19147   0.19269
 Alpha virt. eigenvalues --    0.19486   0.19841   0.19921   0.19972   0.20503
 Alpha virt. eigenvalues --    0.20527   0.20684   0.20805   0.21122   0.21190
 Alpha virt. eigenvalues --    0.21236   0.21683   0.21862   0.21914   0.22185
 Alpha virt. eigenvalues --    0.22474   0.22585   0.23010   0.23278   0.23298
 Alpha virt. eigenvalues --    0.23723   0.23746   0.23914   0.24143   0.24401
 Alpha virt. eigenvalues --    0.24545   0.24778   0.25113   0.25243   0.25414
 Alpha virt. eigenvalues --    0.25596   0.25910   0.25984   0.26036   0.26487
 Alpha virt. eigenvalues --    0.26524   0.26535   0.27043   0.27218   0.27351
 Alpha virt. eigenvalues --    0.27644   0.27772   0.27889   0.28325   0.28580
 Alpha virt. eigenvalues --    0.29017   0.29169   0.29336   0.29629   0.30032
 Alpha virt. eigenvalues --    0.30230   0.30383   0.30717   0.30891   0.31072
 Alpha virt. eigenvalues --    0.31183   0.31347   0.31504   0.31895   0.31971
 Alpha virt. eigenvalues --    0.32095   0.32400   0.32700   0.33062   0.33164
 Alpha virt. eigenvalues --    0.33249   0.33631   0.33917   0.34482   0.34628
 Alpha virt. eigenvalues --    0.34910   0.35118   0.35599   0.35890   0.36369
 Alpha virt. eigenvalues --    0.36651   0.36937   0.37002   0.37253   0.37533
 Alpha virt. eigenvalues --    0.37887   0.38177   0.38279   0.38429   0.38980
 Alpha virt. eigenvalues --    0.39337   0.39360   0.39941   0.40143   0.40382
 Alpha virt. eigenvalues --    0.40544   0.40790   0.41375   0.41521   0.42019
 Alpha virt. eigenvalues --    0.42146   0.42216   0.42394   0.42457   0.42638
 Alpha virt. eigenvalues --    0.42800   0.43023   0.43196   0.43438   0.43522
 Alpha virt. eigenvalues --    0.43698   0.43868   0.44059   0.44565   0.44660
 Alpha virt. eigenvalues --    0.45002   0.45218   0.45378   0.45430   0.45877
 Alpha virt. eigenvalues --    0.46174   0.46298   0.46516   0.46812   0.46887
 Alpha virt. eigenvalues --    0.47093   0.47462   0.47649   0.47883   0.47902
 Alpha virt. eigenvalues --    0.48002   0.48075   0.48257   0.48400   0.48642
 Alpha virt. eigenvalues --    0.48768   0.48905   0.48970   0.49216   0.49400
 Alpha virt. eigenvalues --    0.49638   0.49782   0.50145   0.50380   0.50572
 Alpha virt. eigenvalues --    0.50641   0.51037   0.51455   0.51681   0.51767
 Alpha virt. eigenvalues --    0.51969   0.52113   0.52371   0.52433   0.52522
 Alpha virt. eigenvalues --    0.52832   0.53196   0.53317   0.53584   0.53740
 Alpha virt. eigenvalues --    0.54116   0.54527   0.54577   0.54725   0.54853
 Alpha virt. eigenvalues --    0.55043   0.55168   0.55487   0.55557   0.55691
 Alpha virt. eigenvalues --    0.55876   0.55920   0.56035   0.56128   0.56419
 Alpha virt. eigenvalues --    0.56725   0.56820   0.57010   0.57358   0.57517
 Alpha virt. eigenvalues --    0.57728   0.57833   0.58131   0.58289   0.58559
 Alpha virt. eigenvalues --    0.58843   0.58925   0.59122   0.59189   0.59357
 Alpha virt. eigenvalues --    0.59400   0.59517   0.59856   0.59922   0.60038
 Alpha virt. eigenvalues --    0.60174   0.60297   0.60446   0.60570   0.60696
 Alpha virt. eigenvalues --    0.60773   0.60792   0.60988   0.61082   0.61339
 Alpha virt. eigenvalues --    0.61453   0.61734   0.61813   0.61947   0.62059
 Alpha virt. eigenvalues --    0.62156   0.62276   0.62488   0.62652   0.62691
 Alpha virt. eigenvalues --    0.62831   0.62963   0.63096   0.63303   0.63485
 Alpha virt. eigenvalues --    0.63549   0.63624   0.63866   0.63937   0.64084
 Alpha virt. eigenvalues --    0.64268   0.64372   0.64523   0.64682   0.64774
 Alpha virt. eigenvalues --    0.64962   0.64968   0.65080   0.65134   0.65253
 Alpha virt. eigenvalues --    0.65320   0.65383   0.65513   0.65720   0.65773
 Alpha virt. eigenvalues --    0.65897   0.66120   0.66188   0.66232   0.66358
 Alpha virt. eigenvalues --    0.66510   0.66565   0.66679   0.66886   0.66947
 Alpha virt. eigenvalues --    0.67015   0.67067   0.67330   0.67409   0.67529
 Alpha virt. eigenvalues --    0.67624   0.67699   0.67718   0.67818   0.67943
 Alpha virt. eigenvalues --    0.67991   0.68204   0.68395   0.68494   0.68539
 Alpha virt. eigenvalues --    0.68720   0.68769   0.68854   0.69047   0.69153
 Alpha virt. eigenvalues --    0.69223   0.69368   0.69518   0.69625   0.69719
 Alpha virt. eigenvalues --    0.69971   0.70189   0.70206   0.70294   0.70512
 Alpha virt. eigenvalues --    0.70639   0.70731   0.70941   0.71013   0.71160
 Alpha virt. eigenvalues --    0.71337   0.71431   0.71551   0.71676   0.71813
 Alpha virt. eigenvalues --    0.71949   0.72053   0.72310   0.72451   0.72645
 Alpha virt. eigenvalues --    0.72719   0.72776   0.72827   0.73363   0.73429
 Alpha virt. eigenvalues --    0.73676   0.73834   0.73864   0.74077   0.74212
 Alpha virt. eigenvalues --    0.74381   0.74516   0.74734   0.75146   0.75194
 Alpha virt. eigenvalues --    0.75532   0.75697   0.75825   0.75971   0.76277
 Alpha virt. eigenvalues --    0.76577   0.76795   0.77043   0.77507   0.77745
 Alpha virt. eigenvalues --    0.77889   0.77927   0.78015   0.78183   0.78737
 Alpha virt. eigenvalues --    0.78831   0.79250   0.79416   0.79634   0.80136
 Alpha virt. eigenvalues --    0.80348   0.80635   0.80909   0.81073   0.81360
 Alpha virt. eigenvalues --    0.81458   0.81609   0.81834   0.82243   0.82606
 Alpha virt. eigenvalues --    0.82899   0.83277   0.83743   0.84040   0.84183
 Alpha virt. eigenvalues --    0.84318   0.84680   0.84763   0.85164   0.85259
 Alpha virt. eigenvalues --    0.85465   0.85487   0.85947   0.86204   0.86887
 Alpha virt. eigenvalues --    0.87045   0.87235   0.87647   0.87973   0.88182
 Alpha virt. eigenvalues --    0.88575   0.88933   0.89023   0.89426   0.89744
 Alpha virt. eigenvalues --    0.90001   0.90175   0.90566   0.90724   0.91109
 Alpha virt. eigenvalues --    0.91228   0.91648   0.91929   0.92047   0.92451
 Alpha virt. eigenvalues --    0.92801   0.93030   0.93205   0.93327   0.94011
 Alpha virt. eigenvalues --    0.94317   0.94648   0.94892   0.95121   0.95561
 Alpha virt. eigenvalues --    0.95673   0.95844   0.96110   0.96339   0.96743
 Alpha virt. eigenvalues --    0.96796   0.97106   0.97398   0.97639   0.98252
 Alpha virt. eigenvalues --    0.98381   0.98533   0.98700   0.98953   0.99143
 Alpha virt. eigenvalues --    0.99238   0.99544   1.00079   1.00304   1.00580
 Alpha virt. eigenvalues --    1.00932   1.01167   1.01468   1.01853   1.02134
 Alpha virt. eigenvalues --    1.02339   1.02603   1.03108   1.03398   1.03669
 Alpha virt. eigenvalues --    1.03961   1.04922   1.05135   1.05593   1.05669
 Alpha virt. eigenvalues --    1.05824   1.06129   1.06587   1.06834   1.07215
 Alpha virt. eigenvalues --    1.07446   1.07668   1.07846   1.08440   1.08801
 Alpha virt. eigenvalues --    1.08855   1.09444   1.09716   1.09892   1.10232
 Alpha virt. eigenvalues --    1.10336   1.10600   1.11006   1.11224   1.11719
 Alpha virt. eigenvalues --    1.11753   1.11926   1.12481   1.12599   1.12747
 Alpha virt. eigenvalues --    1.12930   1.13363   1.13718   1.13840   1.14062
 Alpha virt. eigenvalues --    1.14547   1.14811   1.14853   1.15268   1.15601
 Alpha virt. eigenvalues --    1.15855   1.15930   1.16193   1.16478   1.16611
 Alpha virt. eigenvalues --    1.16925   1.17187   1.17286   1.17558   1.17783
 Alpha virt. eigenvalues --    1.18133   1.18342   1.18671   1.19133   1.19368
 Alpha virt. eigenvalues --    1.19392   1.19822   1.20039   1.20323   1.20430
 Alpha virt. eigenvalues --    1.20535   1.20902   1.21181   1.21303   1.21445
 Alpha virt. eigenvalues --    1.21814   1.22220   1.22337   1.22621   1.22804
 Alpha virt. eigenvalues --    1.23095   1.23346   1.23554   1.23638   1.23994
 Alpha virt. eigenvalues --    1.24089   1.24367   1.24668   1.24895   1.25137
 Alpha virt. eigenvalues --    1.25423   1.25631   1.26152   1.26338   1.26759
 Alpha virt. eigenvalues --    1.27009   1.27444   1.27798   1.28094   1.28286
 Alpha virt. eigenvalues --    1.28546   1.28885   1.29137   1.29516   1.29767
 Alpha virt. eigenvalues --    1.29936   1.30306   1.30442   1.30818   1.31006
 Alpha virt. eigenvalues --    1.31457   1.31691   1.31871   1.32101   1.32277
 Alpha virt. eigenvalues --    1.32349   1.32626   1.32707   1.33022   1.33448
 Alpha virt. eigenvalues --    1.33604   1.33711   1.33955   1.34278   1.34438
 Alpha virt. eigenvalues --    1.34615   1.35004   1.35359   1.35847   1.36020
 Alpha virt. eigenvalues --    1.36473   1.36705   1.36911   1.37255   1.37393
 Alpha virt. eigenvalues --    1.37683   1.38068   1.38162   1.38704   1.39015
 Alpha virt. eigenvalues --    1.39179   1.39361   1.39665   1.40154   1.40442
 Alpha virt. eigenvalues --    1.40642   1.40934   1.41127   1.41474   1.41544
 Alpha virt. eigenvalues --    1.42271   1.42358   1.42499   1.42824   1.43194
 Alpha virt. eigenvalues --    1.43329   1.43499   1.43897   1.44116   1.44251
 Alpha virt. eigenvalues --    1.44902   1.45412   1.45916   1.46494   1.46645
 Alpha virt. eigenvalues --    1.46877   1.47177   1.47424   1.47457   1.47882
 Alpha virt. eigenvalues --    1.48160   1.48237   1.48737   1.48847   1.49214
 Alpha virt. eigenvalues --    1.49378   1.49507   1.49694   1.49882   1.50127
 Alpha virt. eigenvalues --    1.50641   1.50661   1.50826   1.51184   1.51315
 Alpha virt. eigenvalues --    1.51409   1.52050   1.52472   1.52842   1.53065
 Alpha virt. eigenvalues --    1.53278   1.53556   1.53865   1.54288   1.54935
 Alpha virt. eigenvalues --    1.55123   1.55329   1.55415   1.55938   1.56653
 Alpha virt. eigenvalues --    1.57067   1.57642   1.57683   1.57817   1.58239
 Alpha virt. eigenvalues --    1.58283   1.59125   1.59692   1.59833   1.60174
 Alpha virt. eigenvalues --    1.60464   1.60614   1.61323   1.61568   1.62032
 Alpha virt. eigenvalues --    1.62255   1.62469   1.63429   1.63622   1.63704
 Alpha virt. eigenvalues --    1.63946   1.64238   1.64350   1.64714   1.65034
 Alpha virt. eigenvalues --    1.65604   1.65699   1.66493   1.66717   1.67050
 Alpha virt. eigenvalues --    1.67507   1.67551   1.67649   1.67951   1.68169
 Alpha virt. eigenvalues --    1.68299   1.68476   1.68932   1.69132   1.69424
 Alpha virt. eigenvalues --    1.69494   1.69834   1.70038   1.70393   1.70625
 Alpha virt. eigenvalues --    1.70678   1.71011   1.71089   1.71159   1.71364
 Alpha virt. eigenvalues --    1.71592   1.72075   1.72178   1.72646   1.72834
 Alpha virt. eigenvalues --    1.73002   1.73294   1.73379   1.73503   1.73621
 Alpha virt. eigenvalues --    1.73877   1.74070   1.74526   1.74885   1.75083
 Alpha virt. eigenvalues --    1.75138   1.75246   1.75440   1.75529   1.75883
 Alpha virt. eigenvalues --    1.76145   1.76207   1.76304   1.76503   1.76763
 Alpha virt. eigenvalues --    1.76964   1.77115   1.77303   1.77460   1.77546
 Alpha virt. eigenvalues --    1.77811   1.78079   1.78173   1.78483   1.78575
 Alpha virt. eigenvalues --    1.78753   1.78905   1.79348   1.79602   1.79674
 Alpha virt. eigenvalues --    1.79773   1.79874   1.80050   1.80184   1.80272
 Alpha virt. eigenvalues --    1.80404   1.80502   1.80518   1.80699   1.80990
 Alpha virt. eigenvalues --    1.81155   1.81435   1.81492   1.81712   1.81885
 Alpha virt. eigenvalues --    1.82065   1.82285   1.82437   1.82600   1.82730
 Alpha virt. eigenvalues --    1.82826   1.82899   1.83253   1.83520   1.83675
 Alpha virt. eigenvalues --    1.83841   1.83981   1.84111   1.84305   1.84780
 Alpha virt. eigenvalues --    1.84898   1.85054   1.85109   1.85463   1.85549
 Alpha virt. eigenvalues --    1.85649   1.85789   1.85900   1.86074   1.86221
 Alpha virt. eigenvalues --    1.86767   1.86854   1.86966   1.87080   1.87258
 Alpha virt. eigenvalues --    1.87665   1.87855   1.88144   1.88329   1.88598
 Alpha virt. eigenvalues --    1.88648   1.88904   1.89146   1.89355   1.89489
 Alpha virt. eigenvalues --    1.89755   1.89877   1.90078   1.90623   1.90731
 Alpha virt. eigenvalues --    1.90910   1.91156   1.91357   1.91468   1.91533
 Alpha virt. eigenvalues --    1.91910   1.92058   1.92224   1.92363   1.92465
 Alpha virt. eigenvalues --    1.92918   1.93037   1.93123   1.93286   1.93459
 Alpha virt. eigenvalues --    1.93553   1.93937   1.93976   1.94132   1.94332
 Alpha virt. eigenvalues --    1.94410   1.94682   1.95133   1.95243   1.95574
 Alpha virt. eigenvalues --    1.95629   1.95789   1.96019   1.96398   1.96507
 Alpha virt. eigenvalues --    1.96693   1.96909   1.97143   1.97777   1.98019
 Alpha virt. eigenvalues --    1.98425   1.98469   1.98846   1.99072   1.99234
 Alpha virt. eigenvalues --    1.99530   1.99694   1.99981   2.00208   2.00383
 Alpha virt. eigenvalues --    2.00450   2.00775   2.00863   2.01180   2.01345
 Alpha virt. eigenvalues --    2.01518   2.01668   2.02079   2.02293   2.02896
 Alpha virt. eigenvalues --    2.02912   2.03378   2.03552   2.03730   2.03883
 Alpha virt. eigenvalues --    2.04081   2.04427   2.04443   2.04969   2.05052
 Alpha virt. eigenvalues --    2.05149   2.05696   2.06085   2.06281   2.06466
 Alpha virt. eigenvalues --    2.06655   2.06755   2.06866   2.07156   2.07553
 Alpha virt. eigenvalues --    2.07825   2.08178   2.08202   2.08650   2.08975
 Alpha virt. eigenvalues --    2.09224   2.09598   2.09674   2.09857   2.10159
 Alpha virt. eigenvalues --    2.10685   2.11067   2.11216   2.11776   2.11964
 Alpha virt. eigenvalues --    2.12081   2.12347   2.12460   2.12568   2.13142
 Alpha virt. eigenvalues --    2.13382   2.13457   2.14163   2.14393   2.14768
 Alpha virt. eigenvalues --    2.14983   2.15269   2.15596   2.15899   2.15916
 Alpha virt. eigenvalues --    2.16135   2.16267   2.16349   2.16817   2.16962
 Alpha virt. eigenvalues --    2.17229   2.17700   2.17959   2.18590   2.19026
 Alpha virt. eigenvalues --    2.19157   2.19483   2.20067   2.20263   2.20623
 Alpha virt. eigenvalues --    2.21108   2.21399   2.21619   2.21769   2.21978
 Alpha virt. eigenvalues --    2.22272   2.22687   2.22724   2.22896   2.23300
 Alpha virt. eigenvalues --    2.23808   2.24072   2.24605   2.24747   2.24976
 Alpha virt. eigenvalues --    2.25380   2.26400   2.26954   2.27151   2.27354
 Alpha virt. eigenvalues --    2.27634   2.27931   2.28109   2.28313   2.28680
 Alpha virt. eigenvalues --    2.28815   2.29543   2.29931   2.30132   2.30376
 Alpha virt. eigenvalues --    2.30836   2.31260   2.31375   2.31749   2.32360
 Alpha virt. eigenvalues --    2.32733   2.33013   2.33082   2.33373   2.33557
 Alpha virt. eigenvalues --    2.33757   2.34450   2.34710   2.35088   2.35821
 Alpha virt. eigenvalues --    2.35916   2.36274   2.36391   2.36462   2.36789
 Alpha virt. eigenvalues --    2.36992   2.37383   2.37479   2.37528   2.38305
 Alpha virt. eigenvalues --    2.38473   2.38684   2.38714   2.39544   2.39597
 Alpha virt. eigenvalues --    2.40255   2.40598   2.40868   2.41358   2.41960
 Alpha virt. eigenvalues --    2.42366   2.42575   2.42696   2.42954   2.43318
 Alpha virt. eigenvalues --    2.43596   2.44034   2.44234   2.44482   2.44797
 Alpha virt. eigenvalues --    2.44980   2.45133   2.45380   2.45614   2.45675
 Alpha virt. eigenvalues --    2.46468   2.46667   2.46960   2.47280   2.47528
 Alpha virt. eigenvalues --    2.47888   2.48750   2.48888   2.49406   2.49638
 Alpha virt. eigenvalues --    2.49817   2.50004   2.50765   2.50833   2.51351
 Alpha virt. eigenvalues --    2.51829   2.51932   2.52224   2.52745   2.52982
 Alpha virt. eigenvalues --    2.53552   2.53885   2.54080   2.54505   2.54832
 Alpha virt. eigenvalues --    2.54908   2.55266   2.55743   2.56291   2.57119
 Alpha virt. eigenvalues --    2.57494   2.57521   2.57940   2.57973   2.58635
 Alpha virt. eigenvalues --    2.58851   2.59007   2.59366   2.59497   2.59711
 Alpha virt. eigenvalues --    2.59785   2.59874   2.60253   2.60715   2.60988
 Alpha virt. eigenvalues --    2.61304   2.61970   2.62746   2.62945   2.62999
 Alpha virt. eigenvalues --    2.63361   2.63840   2.64111   2.64377   2.64449
 Alpha virt. eigenvalues --    2.64725   2.64810   2.65159   2.65407   2.65767
 Alpha virt. eigenvalues --    2.66099   2.66231   2.66583   2.66651   2.66871
 Alpha virt. eigenvalues --    2.67048   2.67626   2.68015   2.68740   2.69007
 Alpha virt. eigenvalues --    2.69184   2.69740   2.69805   2.70104   2.70278
 Alpha virt. eigenvalues --    2.70744   2.71167   2.71364   2.71669   2.72008
 Alpha virt. eigenvalues --    2.72355   2.72503   2.73016   2.73229   2.73339
 Alpha virt. eigenvalues --    2.73689   2.73822   2.74173   2.74411   2.74568
 Alpha virt. eigenvalues --    2.74755   2.74979   2.75296   2.75575   2.75620
 Alpha virt. eigenvalues --    2.75934   2.76090   2.76374   2.76451   2.77024
 Alpha virt. eigenvalues --    2.77111   2.77210   2.77828   2.78102   2.78505
 Alpha virt. eigenvalues --    2.78639   2.78911   2.79059   2.79678   2.79935
 Alpha virt. eigenvalues --    2.80100   2.80362   2.80534   2.80763   2.80981
 Alpha virt. eigenvalues --    2.81163   2.81744   2.81881   2.82377   2.82421
 Alpha virt. eigenvalues --    2.82897   2.83019   2.83435   2.83727   2.83838
 Alpha virt. eigenvalues --    2.83959   2.84706   2.84931   2.85148   2.85460
 Alpha virt. eigenvalues --    2.85656   2.86095   2.86480   2.86559   2.87099
 Alpha virt. eigenvalues --    2.87179   2.87349   2.87813   2.88357   2.88559
 Alpha virt. eigenvalues --    2.88633   2.89069   2.89117   2.89567   2.89878
 Alpha virt. eigenvalues --    2.90249   2.90298   2.90420   2.90666   2.91298
 Alpha virt. eigenvalues --    2.91445   2.92038   2.92820   2.93129   2.93356
 Alpha virt. eigenvalues --    2.93886   2.94235   2.94488   2.94582   2.94695
 Alpha virt. eigenvalues --    2.95121   2.95269   2.95446   2.95562   2.96037
 Alpha virt. eigenvalues --    2.96303   2.96479   2.97024   2.97296   2.97753
 Alpha virt. eigenvalues --    2.98002   2.98103   2.98439   2.98579   2.99625
 Alpha virt. eigenvalues --    2.99665   3.00164   3.00251   3.00497   3.00959
 Alpha virt. eigenvalues --    3.01202   3.01480   3.01637   3.02113   3.02581
 Alpha virt. eigenvalues --    3.02953   3.03690   3.04714   3.05040   3.05103
 Alpha virt. eigenvalues --    3.05526   3.05704   3.06191   3.06331   3.06401
 Alpha virt. eigenvalues --    3.06790   3.06903   3.07706   3.07943   3.08611
 Alpha virt. eigenvalues --    3.09204   3.09652   3.09774   3.10592   3.10850
 Alpha virt. eigenvalues --    3.11688   3.12483   3.12956   3.13452   3.13881
 Alpha virt. eigenvalues --    3.14327   3.14450   3.15207   3.15399   3.15456
 Alpha virt. eigenvalues --    3.15774   3.15865   3.16323   3.16761   3.17078
 Alpha virt. eigenvalues --    3.17171   3.17373   3.17439   3.17948   3.18489
 Alpha virt. eigenvalues --    3.18816   3.19202   3.19750   3.19960   3.20125
 Alpha virt. eigenvalues --    3.20866   3.21147   3.21259   3.21833   3.22303
 Alpha virt. eigenvalues --    3.22500   3.23100   3.23640   3.24304   3.24332
 Alpha virt. eigenvalues --    3.26378   3.26549   3.26566   3.26826   3.27598
 Alpha virt. eigenvalues --    3.28310   3.28381   3.28718   3.30007   3.30762
 Alpha virt. eigenvalues --    3.31112   3.31524   3.32033   3.33303   3.33713
 Alpha virt. eigenvalues --    3.34826   3.36691   3.36936   3.37239   3.39094
 Alpha virt. eigenvalues --    3.40374   3.41049   3.48344   3.49391   3.50875
 Alpha virt. eigenvalues --    3.51095   3.51935   3.53905   3.54404   3.54979
 Alpha virt. eigenvalues --    3.55442   3.56270   3.57464   3.57894   3.58435
 Alpha virt. eigenvalues --    3.58803   3.59318   3.60373   3.60763   3.63600
 Alpha virt. eigenvalues --    3.64712   3.66277   3.66727   3.67475   3.68205
 Alpha virt. eigenvalues --    3.68810   3.69105   3.69402   3.69743   3.70011
 Alpha virt. eigenvalues --    3.70340   3.70628   3.70832   3.70957   3.71482
 Alpha virt. eigenvalues --    3.72178   3.72540   3.73089   3.75024   3.75927
 Alpha virt. eigenvalues --    3.77640   3.80466   3.82216   3.86867
          Condensed to atoms (all electrons):
 Mulliken charges:
               1
     1  C    0.050768
     2  C    0.028173
     3  O   -0.307078
     4  H    0.057294
     5  H    0.002096
     6  H    0.005683
     7  N   -0.126663
     8  C    0.067719
     9  C    0.033784
    10  O   -0.293901
    11  C    0.140409
    12  C    0.126749
    13  O   -0.380630
    14  O   -0.481775
    15  H    0.120890
    16  H    0.026743
    17  H   -0.013547
    18  H    0.014581
    19  N   -0.143806
    20  C    0.183746
    21  C    0.053076
    22  O   -0.292198
    23  C    0.019702
    24  C    0.016133
    25  C   -0.065486
    26  C    0.049040
    27  N    0.073632
    28  H    0.137429
    29  H    0.021826
    30  H    0.017729
    31  H    0.016979
    32  H    0.004174
    33  H    0.004334
    34  H    0.042203
    35  H    0.034744
    36  H    0.082307
    37  H    0.059728
    38  H    0.192549
    39  H    0.212824
    40  H    0.186820
    41  N   -0.138584
    42  C    0.179897
    43  C    0.037604
    44  O   -0.284713
    45  C    0.059375
    46  C    0.078932
    47  O   -0.384885
    48  O   -0.461618
    49  H    0.139391
    50  H    0.022015
    51  H    0.004145
    52  H    0.013446
    53  N   -0.151007
    54  C    0.226940
    55  C    0.056868
    56  O   -0.291323
    57  H    0.106039
    58  H    0.014106
    59  H    0.026056
    60  N   -0.158765
    61  C    0.123924
    62  C    0.030135
    63  O   -0.325348
    64  C    0.158567
    65  C    0.037206
    66  N   -0.025470
    67  O   -0.354097
    68  H    0.149195
    69  H    0.038000
    70  H    0.076118
    71  H   -0.018345
    72  H    0.146317
    73  H    0.126266
    74  N   -0.128355
    75  C    0.201916
    76  C    0.036112
    77  O   -0.291473
    78  H    0.151120
    79  H    0.035250
    80  H    0.016646
    81  N   -0.123992
    82  C    0.073693
    83  C    0.172067
    84  O   -0.327655
    85  C    0.133918
    86  C   -0.023047
    87  C   -0.008271
    88  C   -0.007556
    89  C   -0.020905
    90  C   -0.045588
    91  C    0.187082
    92  O   -0.173188
    93  H    0.149518
    94  H    0.002107
    95  H    0.021377
    96  H   -0.048116
    97  H   -0.060576
    98  H   -0.014477
    99  H   -0.030716
   100  H   -0.037569
   101  H    0.172608
   102  N   -0.124343
   103  C    0.115055
   104  C    0.079085
   105  O   -0.275622
   106  C   -0.069603
   107  C    0.027134
   108  C    0.072990
   109  C   -0.066724
   110  H    0.124248
   111  H    0.009151
   112  H   -0.016813
   113  H   -0.007088
   114  H   -0.024600
   115  H   -0.001042
   116  H    0.028276
   117  H    0.019020
   118  H    0.068598
   119  H   -0.017530
   120  H    0.028314
   121  N   -0.147514
   122  C    0.051959
   123  C    0.129706
   124  O   -0.272784
   125  C    0.261432
   126  O   -0.332309
   127  H    0.153808
   128  H    0.007633
   129  H   -0.013553
   130  H   -0.021139
   131  H    0.157146
   132  N   -0.116774
   133  C    0.107911
   134  C    0.024938
   135  O   -0.245543
   136  C    0.040515
   137  H    0.121424
   138  H    0.023058
   139  H    0.050595
   140  H    0.026999
   141  H   -0.009940
   142  N   -0.167564
   143  C    0.071305
   144  C    0.098691
   145  O   -0.263674
   146  C    0.065983
   147  H    0.114962
   148  H    0.018814
   149  H    0.009674
   150  H    0.019757
   151  H    0.044564
   152  N   -0.177883
   153  C    0.172025
   154  C    0.045277
   155  O   -0.308486
   156  C   -0.049398
   157  C    0.092957
   158  C    0.180288
   159  O   -0.381027
   160  O   -0.456296
   161  H    0.117434
   162  H   -0.037905
   163  H    0.047312
   164  H    0.017447
   165  H    0.013876
   166  H   -0.027262
   167  N   -0.153106
   168  C    0.140533
   169  H    0.007449
   170  H    0.026704
   171  H    0.027909
   172  H    0.126077
   173  Ca   1.273747
   174  O   -0.276945
   175  H    0.158213
   176  H    0.195379
 Sum of Mulliken charges =  -0.00000
 Mulliken charges with hydrogens summed into heavy atoms:
               1
     1  C    0.115840
     2  C    0.028173
     3  O   -0.307078
     7  N   -0.005773
     8  C    0.094462
     9  C    0.033784
    10  O   -0.293901
    11  C    0.141443
    12  C    0.126749
    13  O   -0.380630
    14  O   -0.481775
    19  N   -0.006377
    20  C    0.205573
    21  C    0.053076
    22  O   -0.292198
    23  C    0.054410
    24  C    0.024641
    25  C    0.011460
    26  C    0.191075
    27  N    0.665825
    41  N    0.000807
    42  C    0.201912
    43  C    0.037604
    44  O   -0.284713
    45  C    0.076966
    46  C    0.078932
    47  O   -0.384885
    48  O   -0.461618
    53  N   -0.044968
    54  C    0.267102
    55  C    0.056868
    56  O   -0.291323
    60  N   -0.009570
    61  C    0.161924
    62  C    0.030135
    63  O   -0.325348
    64  C    0.216340
    65  C    0.037206
    66  N    0.247113
    67  O   -0.354097
    74  N    0.022765
    75  C    0.253813
    76  C    0.036112
    77  O   -0.291473
    81  N    0.025526
    82  C    0.075800
    83  C    0.172067
    84  O   -0.327655
    85  C    0.107179
    86  C   -0.023047
    87  C   -0.068847
    88  C   -0.022033
    89  C   -0.051621
    90  C   -0.083157
    91  C    0.187082
    92  O   -0.000580
   102  N   -0.000094
   103  C    0.124206
   104  C    0.079085
   105  O   -0.275622
   106  C   -0.086416
   107  C   -0.004555
   108  C    0.119244
   109  C    0.012659
   121  N    0.006293
   122  C    0.059592
   123  C    0.129706
   124  O   -0.272784
   125  C    0.226739
   126  O   -0.175163
   132  N    0.004650
   133  C    0.130969
   134  C    0.024938
   135  O   -0.245543
   136  C    0.108168
   142  N   -0.052603
   143  C    0.090119
   144  C    0.098691
   145  O   -0.263674
   146  C    0.139980
   152  N   -0.060450
   153  C    0.134120
   154  C    0.045277
   155  O   -0.308486
   156  C    0.015361
   157  C    0.079571
   158  C    0.180288
   159  O   -0.381027
   160  O   -0.456296
   167  N   -0.027029
   168  C    0.202594
   173  Ca   1.273747
   174  O    0.076647
 DipInt: DoE/N= T F RetVal/Mat= T F Init=T NMatP=  1 IDeriv=0 Min/MaxMlt=  0  4
 Entering OneElI...
 OneElI was handed  1333951383 working-precision words.
 Multipole integrals L=0 to 4 MinM= 0 MaxM= 0.
 Requested accuracy = 0.1000D-12
 ShPair: Thresh= 1.00D-13 NBox=     0 BxSize= 0.00D+00 RnKept= 2.55D+01
         NSMCal=               327645 NSMKep=              159611
 PrmmSu-InSpLW:  IPartL=    0 NPrtUS=    1 NPrtUL=    1 DoSpLW=F IThBeg=    0 IThEnd=    0 NThAct=    1.
 PrsmSu:  NPrtUS=   1 ThrOK=F IAlg=1 NPAlg=1 LenDen=           0 ISkipM=0 DoSpLW=F IThBeg=    0 IThEnd=    0.
 Prism:   IPart=     0 DynPar=F LinDyn=F Incr=         512.
 PRISM was handed  1323926943 working-precision words and159611 shell-pairs
 IPart=  0 NShTot=      159611 NBatch=         367 AvBLen=       434.9
 PrsmSu-ThDecC:  IPartSL=    0    0 NPrtUSL=    1    1 IThBeg=    0 IThEnd=    0 CPU=   -1 GPU=   -1 NThAct=    1.
 PrSmSu:  NxtVal=            513.
 Electronic moments (au):
       -716.00000000          8.12526238         -0.85082421          5.12082907
     -51598.27316949     -30391.77820017     -13670.20505253         98.29787002
          4.58701419        113.78570267     -38069.57564339     -34969.42823884
      -6696.12279711      24033.99889561     121361.08306211      26903.86400273
     -14926.08190363     -17104.95347928       -245.11621359     -59150.51223180
   -7699640.74624356   -2669722.97900248    -622415.07669190    -290050.50007892
     423540.02163378    -543389.47170142     -24131.37747346     -59318.95883609
     -14565.95747625   -2240235.11241708    -787803.76123227    -520199.75147045
     -60659.31914154     -29542.18745618      63410.42127438
 Electronic spatial extent (au):  <R**2>=          95660.2564
 DipInt: DoE/N= F T RetVal/Mat= T F Init=T NMatP=  1 IDeriv=0 Min/MaxMlt=  0  4
 Nuclear    moments (au):
        716.00000000          0.00000000          0.00000000         -0.00000000
      51161.83416066      30038.05250979      13287.88406475          0.00000000
         -0.00000000          0.00000000      38263.91759366      35552.44268558
       7274.22771497     -22675.20388518    -121295.69571055     -26741.44052739
      15513.91531494      17051.24936366        930.76593420      59770.89439278
    7502775.67071204    2567755.91068599     575908.57003552     298982.05260925
    -428980.04514140     551852.78182492      34900.27433639      61076.47893685
      21583.13759249    2201172.19714181     756776.06280191     499762.22060671
      68408.48202763      32766.31619054     -58383.63484073
 Total      moments (au):
         -0.00000000          8.12526238         -0.85082421          5.12082907
       -436.43900883       -353.72569038       -382.32098779         98.29787002
          4.58701419        113.78570267        194.34195027        583.01444674
        578.10491786       1358.79501043         65.38735156        162.42347534
        587.83341131        -53.70411562        685.64972062        620.38216098
    -196865.07553151    -101967.06831649     -46506.50665638       8931.55253033
      -5440.02350762       8463.31012350      10768.89686292       1757.52010076
       7017.18011624     -39062.91527528     -31027.69843036     -20437.53086375
       7749.16288609       3224.12873436       5026.78643365
 Traceless Quadrup. (au):
        -45.61044650         37.10287195          8.50757455         98.29787002
          4.58701419        113.78570267
 Charge=             -0.0000 electrons
 Dipole moment (field-independent basis, Debye):
    X=             20.6524    Y=             -2.1626    Z=             13.0158  Tot=             24.5073
 Quadrupole moment (field-independent basis, Debye-Ang):
   XX=           -587.0254   YY=           -475.7732   ZZ=           -514.2348
   XY=            132.2140   XZ=              6.1697   YZ=            153.0457
 Traceless Quadrupole moment (field-independent basis, Debye-Ang):
   XX=            -61.3476   YY=             49.9046   ZZ=             11.4430
   XY=            132.2140   XZ=              6.1697   YZ=            153.0457
 Octapole moment (field-independent basis, Debye-Ang**2):
  XXX=            138.3251  YYY=            414.9672  ZZZ=            411.4728  XYY=            967.1379
  XXY=             46.5402  XXZ=            115.6068  XZZ=            418.3972  YZZ=            -38.2245
  YYZ=            488.0191  XYZ=            441.5641
 Hexadecapole moment (field-independent basis, Debye-Ang**3):
 XXXX=         -74148.8274 YYYY=         -38405.6874 ZZZZ=         -17516.5805 XXXY=           3364.0510
 XXXZ=          -2048.9737 YYYX=           3187.6884 YYYZ=           4056.0829 ZZZX=            661.9663
 ZZZY=           2643.0065 XXYY=         -14712.9670 XXZZ=         -11686.5191 YYZZ=          -7697.7541
 XXYZ=           2918.7063 YYXZ=           1214.3615 ZZXY=           1893.3288
 N-N= 2.161769254512D+04 E-N=-5.571496250830D+04  KE= 5.290379912932D+03
 Leave Link  601 at Wed Sep 18 17:27:03 2019, MaxMem=  1342177280 cpu:              41.7 elap:               1.1
 FitSet:  NAtFit=   176 NAtPot=   176 NAtFrz=     0 MDM=   180 TotChg=   0.00000
 Merz-Kollman atomic radii used.
 Read replacement radii for each type of atom:
 Rad(20) =   1.700000000000D+00
 Atom Element Radius
    1     6    1.50
    2     6    1.50
    3     8    1.40
    4     1    1.20
    5     1    1.20
    6     1    1.20
    7     7    1.50
    8     6    1.50
    9     6    1.50
   10     8    1.40
   11     6    1.50
   12     6    1.50
   13     8    1.40
   14     8    1.40
   15     1    1.20
   16     1    1.20
   17     1    1.20
   18     1    1.20
   19     7    1.50
   20     6    1.50
   21     6    1.50
   22     8    1.40
   23     6    1.50
   24     6    1.50
   25     6    1.50
   26     6    1.50
   27     7    1.50
   28     1    1.20
   29     1    1.20
   30     1    1.20
   31     1    1.20
   32     1    1.20
   33     1    1.20
   34     1    1.20
   35     1    1.20
   36     1    1.20
   37     1    1.20
   38     1    1.20
   39     1    1.20
   40     1    1.20
   41     7    1.50
   42     6    1.50
   43     6    1.50
   44     8    1.40
   45     6    1.50
   46     6    1.50
   47     8    1.40
   48     8    1.40
   49     1    1.20
   50     1    1.20
   51     1    1.20
   52     1    1.20
   53     7    1.50
   54     6    1.50
   55     6    1.50
   56     8    1.40
   57     1    1.20
   58     1    1.20
   59     1    1.20
   60     7    1.50
   61     6    1.50
   62     6    1.50
   63     8    1.40
   64     6    1.50
   65     6    1.50
   66     7    1.50
   67     8    1.40
   68     1    1.20
   69     1    1.20
   70     1    1.20
   71     1    1.20
   72     1    1.20
   73     1    1.20
   74     7    1.50
   75     6    1.50
   76     6    1.50
   77     8    1.40
   78     1    1.20
   79     1    1.20
   80     1    1.20
   81     7    1.50
   82     6    1.50
   83     6    1.50
   84     8    1.40
   85     6    1.50
   86     6    1.50
   87     6    1.50
   88     6    1.50
   89     6    1.50
   90     6    1.50
   91     6    1.50
   92     8    1.40
   93     1    1.20
   94     1    1.20
   95     1    1.20
   96     1    1.20
   97     1    1.20
   98     1    1.20
   99     1    1.20
  100     1    1.20
  101     1    1.20
  102     7    1.50
  103     6    1.50
  104     6    1.50
  105     8    1.40
  106     6    1.50
  107     6    1.50
  108     6    1.50
  109     6    1.50
  110     1    1.20
  111     1    1.20
  112     1    1.20
  113     1    1.20
  114     1    1.20
  115     1    1.20
  116     1    1.20
  117     1    1.20
  118     1    1.20
  119     1    1.20
  120     1    1.20
  121     7    1.50
  122     6    1.50
  123     6    1.50
  124     8    1.40
  125     6    1.50
  126     8    1.40
  127     1    1.20
  128     1    1.20
  129     1    1.20
  130     1    1.20
  131     1    1.20
  132     7    1.50
  133     6    1.50
  134     6    1.50
  135     8    1.40
  136     6    1.50
  137     1    1.20
  138     1    1.20
  139     1    1.20
  140     1    1.20
  141     1    1.20
  142     7    1.50
  143     6    1.50
  144     6    1.50
  145     8    1.40
  146     6    1.50
  147     1    1.20
  148     1    1.20
  149     1    1.20
  150     1    1.20
  151     1    1.20
  152     7    1.50
  153     6    1.50
  154     6    1.50
  155     8    1.40
  156     6    1.50
  157     6    1.50
  158     6    1.50
  159     8    1.40
  160     8    1.40
  161     1    1.20
  162     1    1.20
  163     1    1.20
  164     1    1.20
  165     1    1.20
  166     1    1.20
  167     7    1.50
  168     6    1.50
  169     1    1.20
  170     1    1.20
  171     1    1.20
  172     1    1.20
  173    20    1.70
[...]
 **** Fit       0.016502
 **** Fit       0.028460
 **** Fit      -0.030787
 **** Fit      -0.030053
 **** Fit      -0.028111
 **** Fit      -0.024924
 **** Fit      -0.020417
 **** Fit      -0.014483
 **** Fit      -0.006988
 **** Fit       0.002204
 **** Fit       0.013164
 **** Fit       0.025753
 **** Fit      -0.030289
 **** Fit      -0.034462
 **** Fit      -0.033870
 **** Fit      -0.032096
 **** Fit      -0.029080
 **** Fit      -0.024751
 **** Fit      -0.019022
 **** Fit      -0.011795
 **** Fit      -0.002966
 **** Fit       0.007526
 **** Fit       0.019595
 **** Fit       0.032752
 **** Fit      -0.033910
 **** Fit      -0.038979
 **** Fit      -0.038589
 **** Fit      -0.036951
 **** Fit      -0.033985
 **** Fit      -0.029635
 **** Fit      -0.023858
 **** Fit      -0.016620
 **** Fit      -0.007902
 **** Fit       0.002265
 **** Fit       0.013688
 **** Fit       0.025789
 **** Fit      -0.036441
 **** Fit      -0.038227
 **** Fit      -0.044843
 **** Fit      -0.044774
 **** Fit      -0.043239
 **** Fit      -0.040136
 **** Fit      -0.035452
 **** Fit      -0.029233
 **** Fit      -0.021560
 **** Fit      -0.012547
 **** Fit      -0.002385
 **** Fit       0.008544
 **** Fit       0.019452
 **** Fit      -0.041436
 **** Fit      -0.043644
 **** Fit      -0.027919
 **** Fit      -0.018385
 **** Fit      -0.008084
 **** Fit       0.005652
 **** Fit       0.007181
 **** Fit       0.004987
 **** Fit       0.005039
 **** Fit       0.004475
 **** Fit       0.003043
 **** Fit       0.000547
 **** Fit      -0.003172
 **** Fit      -0.008279
 **** Fit      -0.014933
 **** Fit       0.002227
 **** Fit       0.000166
 **** Fit      -0.002812
 **** Fit      -0.006896
 **** Fit      -0.012191
 **** Fit      -0.018672
 **** Fit      -0.004931
 **** Fit      -0.009280
 **** Fit      -0.014589
 **** Fit      -0.020663
 **** Fit      -0.013117
 **** Fit      -0.018950
 **** Fit      -0.024521
 **** Fit      -0.019887
 **** Fit      -0.023331
 **** Fit      -0.029723
 **** Fit      -0.038487
 **** Fit      -0.031257
 **** Fit      -0.039649
 **** Fit      -0.025117
 **** Fit      -0.033067
 **** Fit      -0.025801
 **** Fit      -0.030856
 **** Fit      -0.025872
 **** Fit      -0.020816
 **** Fit      -0.026066
 **** Fit      -0.030671
 **** Fit      -0.035567
 **** Fit      -0.030619
 **** Fit      -0.036349
 **** Fit       0.013224
 **** Fit       0.029948
 **** Fit      -0.007810
 **** Fit       0.008331
 **** Fit       0.023489
 **** Fit       0.037173
 **** Fit       0.001890
 **** Fit       0.015592
 **** Fit       0.027847
 **** Fit      -0.003344
 **** Fit       0.009446
 **** Fit       0.020472
 **** Fit       0.029721
 **** Fit       0.006931
 **** Fit       0.016787
 **** Fit       0.024627
 **** Fit       0.006091
 **** Fit       0.014489
 **** Fit       0.020662
 **** Fit       0.024652
 **** Fit       0.005200
 **** Fit       0.011927
 **** Fit       0.016426
 **** Fit       0.000052
 **** Fit       0.006831
 **** Fit       0.011126
 **** Fit       0.003024
 **** Fit       0.007088
 **** Fit       0.004739
 **** Fit       0.004416
 **** Fit       0.002909
 **** Fit       0.002780
 **** Fit      -0.000176
 **** Fit      -0.003699
 **** Fit      -0.000294
 **** Fit      -0.004425
 **** Fit      -0.009033
 **** Fit      -0.014000
 **** Fit      -0.018664
 **** Fit      -0.021839
 **** Fit      -0.005511
 **** Fit      -0.010560
 **** Fit      -0.015372
 **** Fit      -0.018905
 **** Fit      -0.020184
 **** Fit      -0.007587
 **** Fit      -0.012789
 **** Fit      -0.016200
 **** Fit      -0.009739
 **** Fit      -0.012685
 **** Fit      -0.006458
 **** Fit       0.023057
 **** Fit       0.014593
 **** Fit       0.018330
 **** Fit       0.021224
 **** Fit       0.022919
 **** Fit       0.008803
 **** Fit       0.011551
 **** Fit       0.013885
 **** Fit       0.015342
 **** Fit       0.015666
 **** Fit       0.008909
 **** Fit       0.009740
 **** Fit       0.009513
 **** Fit       0.004836
 **** Fit       0.002789
 **** Fit      -0.000771
 **** Fit      -0.017433
 **** Fit      -0.001330
 **** Fit      -0.001270
 **** Fit      -0.002102
 **** Fit      -0.002315
 **** Fit      -0.001432
 **** Fit      -0.000678
 **** Fit      -0.003769
 **** Fit      -0.002833
 **** Fit      -0.000272
 **** Fit      -0.000721
 **** Fit      -0.005895
 **** Fit      -0.004720
 **** Fit      -0.003281
 **** Fit      -0.000059
 **** Fit      -0.000482
 **** Fit      -0.000925
 **** Fit      -0.008448
 **** Fit      -0.006634
 **** Fit      -0.004807
 **** Fit       0.000063
 **** Fit      -0.000373
 **** Fit      -0.000816
 **** Fit      -0.001273
 **** Fit      -0.012584
 **** Fit      -0.010051
 **** Fit      -0.007719
 **** Fit      -0.005710
 **** Fit      -0.000030
 **** Fit      -0.000457
 **** Fit      -0.000901
 **** Fit      -0.001371
 **** Fit      -0.001856
 **** Fit      -0.015659
 **** Fit      -0.012197
 **** Fit      -0.009405
 **** Fit      -0.000095
 **** Fit      -0.000531
 **** Fit      -0.000995
 **** Fit      -0.001509
 **** Fit      -0.002069
 **** Fit      -0.002653
 **** Fit      -0.014493
 **** Fit      -0.000266
 **** Fit      -0.000692
 **** Fit      -0.001159
 **** Fit      -0.001696
 **** Fit      -0.002312
 **** Fit      -0.002991
 **** Fit      -0.003708
 **** Fit      -0.000448
 **** Fit      -0.000854
 **** Fit      -0.001309
 **** Fit      -0.001851
 **** Fit      -0.002500
 **** Fit      -0.003254
 **** Fit      -0.004092
 **** Fit      -0.004990
 **** Fit      -0.007683
 **** Fit      -0.000704
 **** Fit      -0.001078
 **** Fit      -0.001506
 **** Fit      -0.002029
 **** Fit      -0.002678
 **** Fit      -0.003467
 **** Fit      -0.004384
 **** Fit      -0.005404
 **** Fit      -0.006504
 **** Fit      -0.009660
 **** Fit      -0.000661
 **** Fit      -0.000952
 **** Fit      -0.001287
 **** Fit      -0.006884
 **** Fit      -0.008221
 **** Fit      -0.011895
 **** Fit      -0.013849
 **** Fit      -0.000978
 **** Fit      -0.001146
 **** Fit      -0.001423
 **** Fit      -0.016751
 **** Fit      -0.019415
 **** Fit      -0.001613
 **** Fit      -0.001501
 **** Fit      -0.001645
 **** Fit      -0.020101
 **** Fit      -0.023028
 **** Fit      -0.026641
 **** Fit      -0.031322
 **** Fit      -0.005857
 **** Fit      -0.004149
 **** Fit      -0.002921
 **** Fit      -0.002227
 **** Fit      -0.002029
 **** Fit      -0.027489
 **** Fit      -0.031485
 **** Fit      -0.036622
 **** Fit      -0.005020
 **** Fit      -0.003409
 **** Fit      -0.002716
 **** Fit      -0.032951
 **** Fit      -0.037248
 **** Fit      -0.004364
 **** Fit       0.000209
 **** Fit      -0.000034
 **** Fit      -0.000708
 **** Fit      -0.000531
 **** Fit       0.000338
 **** Fit       0.000853
 **** Fit       0.000656
 **** Fit      -0.001677
 **** Fit      -0.000662
 **** Fit       0.000293
 **** Fit       0.000953
 **** Fit       0.001259
 **** Fit       0.001217
 **** Fit       0.000884
 **** Fit       0.000347
 **** Fit      -0.003395
 **** Fit      -0.002144
 **** Fit      -0.000955
 **** Fit       0.000004
 **** Fit       0.000723
 **** Fit       0.001208
 **** Fit       0.001453
 **** Fit       0.001470
 **** Fit       0.001285
 **** Fit       0.000942
 **** Fit       0.000490
 **** Fit      -0.003682
 **** Fit      -0.002238
 **** Fit      -0.001104
 **** Fit      -0.000194
 **** Fit       0.000542
 **** Fit       0.001075
 **** Fit       0.001395
 **** Fit       0.001518
 **** Fit       0.001462
 **** Fit       0.001253
 **** Fit       0.000924
 **** Fit       0.000516
 **** Fit      -0.001228
 **** Fit      -0.000257
 **** Fit       0.000495
 **** Fit       0.000997
 **** Fit       0.001286
 **** Fit       0.001395
 **** Fit       0.001344
 **** Fit       0.001150
 **** Fit       0.000842
 **** Fit       0.000461
 **** Fit      -0.000421
 **** Fit       0.000300
 **** Fit       0.000755
 **** Fit       0.001025
 **** Fit       0.001138
 **** Fit       0.001103
 **** Fit       0.000931
 **** Fit       0.000646
 **** Fit       0.000286
 **** Fit      -0.000494
 **** Fit       0.000086
 **** Fit       0.000470
 **** Fit       0.000702
 **** Fit       0.000779
 **** Fit       0.000696
 **** Fit       0.000469
 **** Fit       0.000134
 **** Fit      -0.000759
 **** Fit      -0.000288
 **** Fit       0.000068
 **** Fit       0.000278
 **** Fit       0.000315
 **** Fit       0.000176
 **** Fit      -0.000110
 **** Fit      -0.001434
 **** Fit      -0.000929
 **** Fit      -0.000509
 **** Fit      -0.000261
 **** Fit      -0.000227
 **** Fit      -0.000400
 **** Fit      -0.002749
 **** Fit      -0.002110
 **** Fit      -0.001468
 **** Fit      -0.001017
 **** Fit      -0.000847
 **** Fit      -0.004161
 **** Fit      -0.003122
 **** Fit      -0.002238
 **** Fit      -0.001728
 **** Fit      -0.005989
 **** Fit      -0.001790
 **** Fit      -0.002310
 **** Fit      -0.002987
 **** Fit      -0.003825
 **** Fit      -0.004822
 **** Fit      -0.005976
 **** Fit      -0.008947
 **** Fit      -0.001583
 **** Fit      -0.001908
 **** Fit      -0.002401
 **** Fit      -0.003064
 **** Fit      -0.003894
 **** Fit      -0.004891
 **** Fit      -0.006060
 **** Fit      -0.007408
 **** Fit      -0.010891
 **** Fit      -0.012879
 **** Fit      -0.001826
 **** Fit      -0.002118
 **** Fit      -0.002614
 **** Fit      -0.003291
 **** Fit      -0.004134
 **** Fit      -0.005136
 **** Fit      -0.006299
 **** Fit      -0.007632
 **** Fit      -0.009154
 **** Fit      -0.013269
 **** Fit      -0.015497
 **** Fit      -0.018074
 **** Fit      -0.002130
 **** Fit      -0.002352
 **** Fit      -0.002856
 **** Fit      -0.003584
 **** Fit      -0.004490
 **** Fit      -0.005548
 **** Fit      -0.006748
 **** Fit      -0.008098
 **** Fit      -0.009614
 **** Fit      -0.011325
 **** Fit      -0.016319
 **** Fit      -0.018875
 **** Fit      -0.021837
 **** Fit      -0.002612
 **** Fit      -0.002949
 **** Fit      -0.003700
 **** Fit      -0.004728
 **** Fit      -0.005941
 **** Fit      -0.007288
 **** Fit      -0.008757
 **** Fit      -0.010359
 **** Fit      -0.012123
 **** Fit      -0.014092
 **** Fit      -0.020405
 **** Fit      -0.023335
 **** Fit      -0.026725
 **** Fit      -0.030637
 **** Fit      -0.003362
 **** Fit      -0.003689
 **** Fit      -0.004761
 **** Fit      -0.006250
 **** Fit      -0.007935
 **** Fit      -0.009713
 **** Fit      -0.011559
 **** Fit      -0.013494
 **** Fit      -0.015568
 **** Fit      -0.017846
 **** Fit      -0.008753
 **** Fit      -0.011188
 **** Fit      -0.002430
 **** Fit      -0.002197
 **** Fit      -0.003208
 **** Fit      -0.003709
 **** Fit      -0.002986
 **** Fit      -0.001976
 **** Fit      -0.001673
 **** Fit      -0.002285
 **** Fit      -0.003271
 **** Fit      -0.004474
 **** Fit      -0.005502
 **** Fit      -0.005778
 **** Fit      -0.005103
 **** Fit      -0.001266
 **** Fit      -0.001619
 **** Fit      -0.002694
 **** Fit      -0.003659
 **** Fit      -0.004916
 **** Fit      -0.006413
 **** Fit      -0.007906
 **** Fit      -0.008939
 **** Fit      -0.009063
 **** Fit      -0.008211
 **** Fit      -0.001458
 **** Fit      -0.001980
 **** Fit      -0.003430
 **** Fit      -0.004459
 **** Fit      -0.005806
 **** Fit      -0.007528
 **** Fit      -0.009590
 **** Fit      -0.011775
 **** Fit      -0.013599
 **** Fit      -0.014439
 **** Fit      -0.013925
 **** Fit      -0.012265
 **** Fit      -0.002000
 **** Fit      -0.002636
 **** Fit      -0.004501
 **** Fit      -0.005654
 **** Fit      -0.007160
 **** Fit      -0.009133
 **** Fit      -0.011664
 **** Fit      -0.014742
 **** Fit      -0.002831
 **** Fit      -0.003591
 **** Fit      -0.005919
 **** Fit      -0.007204
 **** Fit      -0.008863
 **** Fit      -0.011043
 **** Fit      -0.013915
 **** Fit      -0.017644
 **** Fit      -0.004002
 **** Fit      -0.004885
 **** Fit      -0.007701
 **** Fit      -0.009221
 **** Fit      -0.011184
 **** Fit      -0.013790
 **** Fit      -0.017298
 **** Fit      -0.022043
 **** Fit      -0.005409
 **** Fit      -0.006472
 **** Fit      -0.009872
 **** Fit      -0.011633
 **** Fit      -0.013897
 **** Fit      -0.016902
 **** Fit      -0.020979
 **** Fit      -0.008436
 **** Fit      -0.012464
 **** Fit      -0.014523
 **** Fit      -0.017167
 **** Fit      -0.020679
 **** Fit      -0.025476
 **** Fit      -0.018007
 **** Fit      -0.021239
 **** Fit      -0.025590
 **** Fit      -0.026041
 **** Fit      -0.031461
 **** Fit      -0.026846
 **** Fit      -0.010879
 **** Fit       0.008116
 **** Fit       0.001446
 **** Fit       0.018349
 **** Fit       0.011304
 **** Fit       0.005995
 **** Fit       0.002591
 **** Fit       0.022930
 **** Fit       0.016390
 **** Fit       0.011922
 **** Fit       0.009593
 **** Fit       0.029129
 **** Fit       0.022498
 **** Fit       0.018133
 **** Fit       0.015976
 **** Fit       0.034106
 **** Fit       0.027731
 **** Fit       0.023517
 **** Fit       0.021395
 **** Fit       0.035289
 **** Fit       0.030081
 **** Fit       0.026837
 **** Fit       0.025618
 **** Fit       0.037478
 **** Fit       0.032986
 **** Fit       0.030174
 **** Fit       0.029241
 **** Fit       0.034912
 **** Fit       0.032702
 **** Fit       0.036425
 **** Fit       0.040640
 **** Fit       0.040601
 **** Fit       0.039443
 **** Fit       0.037910
 **** Fit       0.005563
 **** Fit       0.009249
 **** Fit       0.037317
 **** Fit       0.037203
 **** Fit       0.015615
 **** Fit       0.021044
 **** Fit       0.031806
 **** Fit       0.034323
 **** Fit       0.022096
 **** Fit       0.026834
 **** Fit       0.031375
 **** Fit      -0.017982
 **** Fit      -0.015311
 **** Fit      -0.021967
 **** Fit      -0.003929
 **** Fit       0.034238
 **** Fit       0.032282
 **** Fit       0.031345
 **** Fit      -0.008748
 **** Fit      -0.014692
 **** Fit      -0.020393
 **** Fit      -0.008204
 **** Fit       0.003530
 **** Fit       0.014628
 **** Fit       0.032632
 **** Fit       0.033125
 **** Fit       0.032253
 **** Fit       0.031107
 **** Fit       0.030290
 **** Fit       0.011461
 **** Fit       0.004834
 **** Fit      -0.001163
 **** Fit      -0.006756
 **** Fit      -0.010780
 **** Fit      -0.010450
 **** Fit      -0.004541
 **** Fit       0.004777
 **** Fit       0.014300
 **** Fit       0.021839
 **** Fit       0.026481
 **** Fit       0.028445
 **** Fit       0.028707
 **** Fit       0.028260
 **** Fit       0.027491
 **** Fit       0.026034
 **** Fit       0.012780
 **** Fit       0.006201
 **** Fit       0.000762
 **** Fit      -0.001197
 **** Fit       0.002650
 **** Fit       0.010566
 **** Fit       0.018241
 **** Fit       0.023009
 **** Fit       0.024786
 **** Fit       0.024600
 **** Fit       0.022788
 **** Fit       0.018817
 **** Fit       0.013566
 **** Fit       0.007974
 **** Fit       0.009032
 **** Fit       0.015886
 **** Fit       0.020052
 **** Fit       0.018982
 **** Fit       0.014450
 -----------------------------------------------------------------
 Leave Link  602 at Wed Sep 18 17:27:05 2019, MaxMem=  1342177280 cpu:             110.9 elap:               2.3

 Test job not archived.
 1\1\GINC-C504-111\SP\RB3LYP\SVP\C54H83Ca1N15O23\JAEBEOMH\18-Sep-2019\0
 \\#b3lyp/svp scf=(tight,noincore) Test #IOP(5/87=12) Density=Current P
 op=(MK,readradii) iop(6/33=2) iop(6/42=6)\\holoCaM_loop3_30.0\\0,1\C,0
 ,93.85,53.8,4.172\C,0,94.99,54.7,3.732\O,0,95.93,54.23,3.092\H,0,92.97
 6,53.991,3.549\H,0,94.149,52.757,4.068\H,0,93.605,54.006,5.214\N,0,94.
 98,55.97,4.172\C,0,95.95,56.93,3.702\C,0,96.9,57.23,4.852\O,0,96.47,57
 .88,5.812\C,0,95.23,58.21,3.292\C,0,96.19,59.35,3.022\O,0,95.95,60.52,
 3.402\O,0,97.23,59.1,2.372\H,0,94.22,56.3,4.752\H,0,96.51,56.5,2.862\H
 ,0,94.48,58.4,4.062\H,0,94.76,58.,2.332\N,0,98.16,56.83,4.722\C,0,99.2
 ,56.85,5.732\C,0,100.23,57.96,5.712\O,0,101.17,58.,6.502\C,0,99.66,55.
 41,5.972\C,0,98.54,54.48,6.402\C,0,99.03,53.03,6.412\C,0,98.17,52.04,7
 .182\N,0,97.06,51.56,6.342\H,0,98.31,56.36,3.842\H,0,98.7,57.16,6.652\
 H,0,100.45,55.32,6.712\H,0,100.05,55.04,5.022\H,0,97.75,54.51,5.652\H,
 0,98.19,54.73,7.402\H,0,100.02,53.04,6.872\H,0,99.2,52.72,5.382\H,0,97
 .96,52.52,8.142\H,0,98.68,51.13,7.512\H,0,96.28,52.2,6.362\H,0,97.34,5
 1.39,5.382\H,0,96.63,50.71,6.692\N,0,100.11,59.02,4.902\C,0,101.05,60.
 11,4.722\C,0,100.39,61.44,4.402\O,0,100.96,62.49,4.102\C,0,102.16,59.7
 6,3.732\C,0,101.7,59.58,2.292\O,0,102.52,59.4,1.362\O,0,100.5,59.66,1.
 972\H,0,99.33,58.97,4.262\H,0,101.62,60.41,5.602\H,0,102.82,58.93,3.97
 2\H,0,102.85,60.6,3.712\N,0,99.07,61.49,4.602\C,0,98.31,62.71,4.742\C,
 0,98.05,63.47,3.452\O,0,97.87,64.67,3.622\H,0,98.64,60.61,4.822\H,0,98
 .78,63.28,5.552\H,0,97.31,62.48,5.112\N,0,97.93,62.79,2.302\C,0,97.57,
 63.5,1.092\C,0,96.15,63.2,0.632\O,0,95.74,63.57,-0.468\C,0,98.69,63.36
 ,0.072\C,0,98.41,62.19,-0.868\N,0,98.27,62.43,-2.168\O,0,98.32,61.07,-
 0.368\H,0,98.02,61.79,2.302\H,0,97.49,64.57,1.292\H,0,99.66,63.29,0.56
 2\H,0,98.64,64.27,-0.528\H,0,98.35,63.33,-2.618\H,0,98.16,61.62,-2.768
 \N,0,95.36,62.55,1.492\C,0,94.03,62.14,1.082\C,0,93.83,60.94,0.172\O,0
 ,92.93,60.13,0.382\H,0,95.66,62.18,2.382\H,0,93.55,63.05,0.702\H,0,93.
 53,61.79,1.982\N,0,94.6,60.88,-0.918\C,0,94.56,59.87,-1.958\C,0,95.39,
 58.64,-1.638\O,0,96.33,58.68,-0.858\C,0,95.,60.54,-3.258\C,0,94.33,61.
 82,-3.718\C,0,95.07,62.75,-4.468\C,0,93.09,62.2,-3.198\C,0,94.57,64.01
 ,-4.808\C,0,92.6,63.47,-3.528\C,0,93.26,64.35,-4.408\O,0,92.68,65.53,-
 4.728\H,0,95.26,61.65,-0.968\H,0,93.53,59.56,-2.128\H,0,94.89,59.88,-4
 .118\H,0,96.05,60.79,-3.108\H,0,96.08,62.46,-4.708\H,0,92.5,61.51,-2.6
 08\H,0,95.23,64.7,-5.298\H,0,91.59,63.67,-3.178\H,0,91.84,65.52,-4.258
 \N,0,94.98,57.53,-2.278\C,0,95.59,56.22,-2.148\C,0,96.56,55.98,-3.298\
 O,0,96.17,56.17,-4.438\C,0,94.57,55.12,-1.908\C,0,93.43,55.51,-0.978\C
 ,0,95.25,53.89,-1.298\C,0,93.84,56.07,0.382\H,0,94.2,57.58,-2.908\H,0,
 96.27,56.23,-1.298\H,0,94.05,54.92,-2.848\H,0,92.76,54.67,-0.768\H,0,9
 2.76,56.28,-1.378\H,0,94.52,53.35,-0.698\H,0,95.62,53.36,-2.178\H,0,96
 .03,54.18,-0.598\H,0,93.92,57.15,0.412\H,0,92.99,55.81,1.022\H,0,94.68
 ,55.56,0.862\N,0,97.75,55.47,-2.948\C,0,98.84,54.97,-3.758\C,0,99.02,5
 3.46,-3.778\O,0,98.37,52.79,-2.968\C,0,100.15,55.74,-3.588\O,0,100.58,
 55.53,-2.268\H,0,97.94,55.47,-1.958\H,0,98.54,55.17,-4.788\H,0,99.92,5
 6.79,-3.768\H,0,100.91,55.39,-4.278\H,0,99.86,55.73,-1.668\N,0,99.91,5
 2.95,-4.628\C,0,100.16,51.53,-4.768\C,0,100.51,50.87,-3.438\O,0,99.86,
 49.88,-3.108\C,0,101.28,51.29,-5.778\H,0,100.42,53.53,-5.278\H,0,99.29
 ,50.95,-5.088\H,0,101.55,50.23,-5.698\H,0,101.11,51.72,-6.758\H,0,102.
 18,51.83,-5.508\N,0,101.49,51.37,-2.678\C,0,102.04,50.61,-1.568\C,0,10
 0.93,50.49,-0.528\O,0,100.88,49.59,0.302\C,0,103.23,51.37,-0.988\H,0,1
 01.97,52.21,-2.968\H,0,102.36,49.66,-2.008\H,0,103.89,51.58,-1.828\H,0
 ,102.9,52.33,-0.598\H,0,103.74,50.78,-0.228\N,0,100.11,51.55,-0.488\C,
 0,98.99,51.71,0.412\C,0,97.93,50.69,0.002\O,0,97.45,50.04,0.922\C,0,98
 .42,53.12,0.422\C,0,99.39,54.15,1.012\C,0,98.89,55.58,0.852\O,0,98.82,
 56.43,1.762\O,0,98.53,56.01,-0.268\H,0,100.16,52.2,-1.258\H,0,99.37,51
 .44,1.392\H,0,97.47,53.13,0.962\H,0,98.28,53.46,-0.608\H,0,100.35,54.0
 4,0.512\H,0,99.51,53.86,2.052\N,0,97.36,50.66,-1.208\C,0,96.54,49.57,-
 1.708\H,0,95.619,49.973,-2.129\H,0,97.086,49.029,-2.481\H,0,96.299,48.
 891,-0.89\H,0,97.83,51.31,-1.818\Ca,0,98.64,58.62,0.42\O,0,99.01,58.66
 ,-2.188\H,0,99.01,59.62,-2.198\H,0,99.93,58.42,-2.328\\Version=ES64L-G
 16RevA.03\State=1-A\HF=-5333.5892109\RMSD=2.780e-09\Dipole=-2.6626558,
 -9.2669649,0.0175139\Quadrupole=-35.3869217,-44.0701025,79.4570242,-15
 .0161988,-61.0628555,-125.2488862\PG=C01 [X(C54H83Ca1N15O23)]\\@


 ABSOLUTISM, OBSOLETISM -- IF IT WORKS, IT'S OUT OF DATE

                          -- STAFFORD BEER
 Job cpu time:       0 days  8 hours 44 minutes 46.9 seconds.
 Elapsed time:       0 days  0 hours 11 minutes  3.5 seconds.
 File lengths (MBytes):  RWF=   1517 Int=      0 D2E=      0 Chk=    171 Scr=      1
 Normal termination of Gaussian 16 at Wed Sep 18 17:27:06 2019.
